Generated by trjconv : CNT in water t= 479.00000
33518
    1C        C    1   2.847   2.767   4.744
    1C        C    2   2.901   2.718   4.865
    1C        C    3   2.850   2.777   4.981
    1C        C    4   2.859   2.781   4.258
    1C        C    5   2.909   2.735   4.382
    1C        C    6   2.853   2.778   4.504
    1C        C    7   3.014   2.634   4.623
    1C        C    8   2.899   2.717   4.623
    1C        C    9   3.078   2.601   4.745
    1C        C   10   3.013   2.631   4.866
    1C        C   11   3.182   2.485   4.975
    1C        C   12   3.061   2.556   4.974
    1C        C   13   2.854   2.774   3.771
    1C        C   14   2.908   2.726   3.893
    1C        C   15   2.854   2.779   4.013
    1C        C   16   3.020   2.647   4.135
    1C        C   17   2.909   2.734   4.135
    1C        C   18   3.080   2.610   4.258
    1C        C   19   3.019   2.646   4.380
    1C        C   20   3.209   2.551   4.503
    1C        C   21   3.079   2.605   4.501
    1C        C   22   3.280   2.533   4.624
    1C        C   23   3.211   2.551   4.746
    1C        C   24   3.413   2.480   4.863
    1C        C   25   3.271   2.498   4.864
    1C        C   26   3.491   2.476   4.979
    1C        C   27   2.853   2.768   3.281
    1C        C   28   2.906   2.722   3.403
    1C        C   29   2.858   2.774   3.526
    1C        C   30   3.019   2.640   3.649
    1C        C   31   2.905   2.724   3.649
    1C        C   32   3.078   2.599   3.771
    1C        C   33   3.018   2.638   3.893
    1C        C   34   3.208   2.543   4.017
    1C        C   35   3.081   2.604   4.015
    1C        C   36   3.277   2.526   4.139
    1C        C   37   3.210   2.555   4.259
    1C        C   38   3.416   2.501   4.380
    1C        C   39   3.278   2.533   4.381
    1C        C   40   3.488   2.495   4.502
    1C        C   41   3.417   2.499   4.624
    1C        C   42   3.631   2.472   4.743
    1C        C   43   3.489   2.473   4.743
    1C        C   44   3.706   2.476   4.863
    1C        C   45   3.630   2.471   4.980
    1C        C   46   2.844   2.758   2.792
    1C        C   47   2.901   2.718   2.915
    1C        C   48   2.847   2.764   3.037
    1C        C   49   3.015   2.632   3.161
    1C        C   50   2.903   2.718   3.158
    1C        C   51   3.081   2.602   3.282
    1C        C   52   3.022   2.642   3.404
    1C        C   53   3.209   2.545   3.527
    1C        C   54   3.080   2.604   3.527
    1C        C   55   3.276   2.524   3.649
    1C        C   56   3.205   2.539   3.770
    1C        C   57   3.413   2.501   3.894
    1C        C   58   3.273   2.521   3.893
    1C        C   59   3.486   2.497   4.015
    1C        C   60   3.417   2.504   4.137
    1C        C   61   3.629   2.496   4.259
    1C        C   62   3.488   2.491   4.259
    1C        C   63   3.700   2.506   4.381
    1C        C   64   3.629   2.495   4.503
    1C        C   65   3.836   2.540   4.622
    1C        C   66   3.703   2.494   4.623
    1C        C   67   3.904   2.564   4.744
    1C        C   68   3.837   2.527   4.863
    1C        C   69   4.052   2.579   4.974
    1C        C   70   3.923   2.526   4.974
    1C        C   71   2.827   2.736   2.307
    1C        C   72   2.889   2.695   2.427
    1C        C   73   2.836   2.745   2.548
    1C        C   74   3.008   2.622   2.672
    1C        C   75   2.893   2.703   2.671
    1C        C   76   3.073   2.591   2.794
    1C        C   77   3.016   2.636   2.915
    1C        C   78   3.203   2.538   3.038
    1C        C   79   3.075   2.598   3.038
    1C        C   80   3.273   2.515   3.158
    1C        C   81   3.206   2.536   3.281
    1C        C   82   3.411   2.488   3.402
    1C        C   83   3.272   2.514   3.404
    1C        C   84   3.481   2.488   3.524
    1C        C   85   3.416   2.502   3.649
    1C        C   86   3.625   2.497   3.769
    1C        C   87   3.484   2.495   3.772
    1C        C   88   3.695   2.506   3.892
    1C        C   89   3.628   2.501   4.016
    1C        C   90   3.835   2.549   4.137
    1C        C   91   3.699   2.510   4.138
    1C        C   92   3.901   2.572   4.259
    1C        C   93   3.837   2.540   4.380
    1C        C   94   4.029   2.630   4.500
    1C        C   95   3.906   2.562   4.501
    1C        C   96   4.092   2.667   4.621
    1C        C   97   4.034   2.622   4.742
    1C        C   98   4.190   2.766   4.859
    1C        C   99   4.101   2.654   4.863
    1C        C  100   4.219   2.839   4.975
    1C        C  101   2.823   2.731   2.070
    1C        C  102   2.993   2.591   2.189
    1C        C  103   2.883   2.682   2.187
    1C        C  104   3.064   2.564   2.309
    1C        C  105   3.003   2.612   2.428
    1C        C  106   3.197   2.527   2.551
    1C        C  107   3.067   2.582   2.550
    1C        C  108   3.268   2.505   2.672
    1C        C  109   3.203   2.536   2.793
    1C        C  110   3.410   2.492   2.914
    1C        C  111   3.271   2.515   2.916
    1C        C  112   3.482   2.489   3.035
    1C        C  113   3.413   2.493   3.158
    1C        C  114   3.624   2.490   3.280
    1C        C  115   3.483   2.485   3.281
    1C        C  116   3.693   2.503   3.403
    1C        C  117   3.622   2.495   3.525
    1C        C  118   3.830   2.545   3.646
    1C        C  119   3.693   2.510   3.646
    1C        C  120   3.895   2.572   3.768
    1C        C  121   3.831   2.545   3.890
    1C        C  122   4.019   2.644   4.011
    1C        C  123   3.896   2.576   4.012
    1C        C  124   4.084   2.676   4.132
    1C        C  125   4.028   2.634   4.255
    1C        C  126   4.194   2.763   4.376
    1C        C  127   4.086   2.673   4.378
    1C        C  128   4.245   2.818   4.496
    1C        C  129   4.193   2.765   4.617
    1C        C  130   4.325   2.935   4.740
    1C        C  131   4.241   2.819   4.738
    1C        C  132   4.358   3.002   4.860
    1C        C  133   4.282   2.963   4.970
    1C        C  134   3.172   2.470   2.076
    1C        C  135   3.038   2.513   2.078
    1C        C  136   3.257   2.472   2.187
    1C        C  137   3.195   2.510   2.308
    1C        C  138   3.402   2.474   2.427
    1C        C  139   3.262   2.492   2.431
    1C        C  140   3.477   2.475   2.547
    1C        C  141   3.407   2.482   2.669
    1C        C  142   3.621   2.485   2.791
    1C        C  143   3.480   2.484   2.791
    1C        C  144   3.693   2.493   2.912
    1C        C  145   3.623   2.489   3.035
    1C        C  146   3.828   2.539   3.156
    1C        C  147   3.693   2.499   3.157
    1C        C  148   3.895   2.562   3.278
    1C        C  149   3.828   2.544   3.401
    1C        C  150   4.024   2.628   3.524
    1C        C  151   3.896   2.568   3.523
    1C        C  152   4.082   2.674   3.645
    1C        C  153   4.017   2.645   3.766
    1C        C  154   4.189   2.770   3.888
    1C        C  155   4.076   2.685   3.888
    1C        C  156   4.246   2.814   4.010
    1C        C  157   4.196   2.763   4.131
    1C        C  158   4.335   2.922   4.253
    1C        C  159   4.246   2.812   4.254
    1C        C  160   4.371   2.987   4.373
    1C        C  161   4.331   2.929   4.496
    1C        C  162   4.436   3.114   4.617
    1C        C  163   4.370   2.989   4.618
    1C        C  164   4.464   3.184   4.736
    1C        C  165   4.439   3.118   4.859
    1C        C  166   4.516   3.320   4.973
    1C        C  167   4.477   3.187   4.975
    1C        C  168   3.477   2.435   2.074
    1C        C  169   3.397   2.454   2.187
    1C        C  170   3.616   2.457   2.308
    1C        C  171   3.473   2.459   2.306
    1C        C  172   3.691   2.483   2.425
    1C        C  173   3.618   2.483   2.546
    1C        C  174   3.824   2.534   2.666
    1C        C  175   3.688   2.496   2.667
    1C        C  176   3.890   2.563   2.787
    1C        C  177   3.826   2.540   2.911
    1C        C  178   4.021   2.624   3.032
    1C        C  179   3.894   2.563   3.033
    1C        C  180   4.081   2.664   3.154
    1C        C  181   4.020   2.627   3.276
    1C        C  182   4.189   2.753   3.399
    1C        C  183   4.080   2.662   3.400
    1C        C  184   4.243   2.805   3.518
    1C        C  185   4.195   2.759   3.643
    1C        C  186   4.335   2.918   3.763
    1C        C  187   4.245   2.809   3.765
    1C        C  188   4.375   2.978   3.884
    1C        C  189   4.336   2.924   4.009
    1C        C  190   4.440   3.107   4.127
    1C        C  191   4.374   2.982   4.132
    1C        C  192   4.465   3.174   4.249
    1C        C  193   4.434   3.114   4.372
    1C        C  194   4.502   3.313   4.490
    1C        C  195   4.467   3.177   4.494
    1C        C  196   4.520   3.387   4.610
    1C        C  197   4.506   3.319   4.733
    1C        C  198   4.559   3.532   4.850
    1C        C  199   4.530   3.392   4.853
    1C        C  200   4.589   3.618   4.961
    1C        C  201   3.616   2.419   2.072
    1C        C  202   3.825   2.506   2.185
    1C        C  203   3.692   2.455   2.188
    1C        C  204   3.899   2.536   2.303
    1C        C  205   3.828   2.518   2.424
    1C        C  206   4.019   2.618   2.543
    1C        C  207   3.893   2.553   2.544
    1C        C  208   4.081   2.656   2.664
    1C        C  209   4.017   2.625   2.787
    1C        C  210   4.189   2.749   2.908
    1C        C  211   4.078   2.662   2.909
    1C        C  212   4.245   2.797   3.029
    1C        C  213   4.192   2.751   3.151
    1C        C  214   4.325   2.912   3.274
    1C        C  215   4.240   2.799   3.275
    1C        C  216   4.368   2.973   3.395
    1C        C  217   4.329   2.918   3.519
    1C        C  218   4.438   3.102   3.638
    1C        C  219   4.371   2.977   3.640
    1C        C  220   4.466   3.168   3.759
    1C        C  221   4.442   3.103   3.882
    1C        C  222   4.506   3.305   4.003
    1C        C  223   4.472   3.167   4.004
    1C        C  224   4.514   3.378   4.123
    1C        C  225   4.501   3.311   4.246
    1C        C  226   4.519   3.524   4.365
    1C        C  227   4.511   3.383   4.368
    1C        C  228   4.519   3.597   4.485
    1C        C  229   4.528   3.528   4.608
    1C        C  230   4.509   3.741   4.724
    1C        C  231   4.538   3.602   4.728
    1C        C  232   4.500   3.819   4.841
    1C        C  233   4.552   3.752   4.952
    1C        C  234   4.013   2.608   2.063
    1C        C  235   3.895   2.535   2.067
    1C        C  236   4.085   2.642   2.179
    1C        C  237   4.024   2.604   2.300
    1C        C  238   4.198   2.731   2.423
    1C        C  239   4.085   2.645   2.421
    1C        C  240   4.249   2.784   2.543
    1C        C  241   4.192   2.743   2.666
    1C        C  242   4.336   2.901   2.784
    1C        C  243   4.247   2.792   2.787
    1C        C  244   4.373   2.964   2.905
    1C        C  245   4.336   2.905   3.029
    1C        C  246   4.439   3.089   3.150
    1C        C  247   4.369   2.966   3.152
    1C        C  248   4.466   3.159   3.270
    1C        C  249   4.437   3.096   3.393
    1C        C  250   4.500   3.301   3.515
    1C        C  251   4.465   3.164   3.514
    1C        C  252   4.514   3.374   3.636
    1C        C  253   4.502   3.305   3.758
    1C        C  254   4.521   3.516   3.877
    1C        C  255   4.516   3.375   3.880
    1C        C  256   4.515   3.590   3.998
    1C        C  257   4.515   3.519   4.120
    1C        C  258   4.493   3.731   4.241
    1C        C  259   4.517   3.592   4.241
    1C        C  260   4.472   3.802   4.361
    1C        C  261   4.493   3.736   4.485
    1C        C  262   4.426   3.941   4.600
    1C        C  263   4.480   3.810   4.604
    1C        C  264   4.396   4.008   4.721
    1C        C  265   4.436   3.945   4.841
    1C        C  266   4.326   4.131   4.957
    1C        C  267   4.397   4.011   4.959
    1C        C  268   4.260   2.772   2.062
    1C        C  269   4.197   2.728   2.179
    1C        C  270   4.342   2.888   2.301
    1C        C  271   4.248   2.781   2.300
    1C        C  272   4.384   2.949   2.420
    1C        C  273   4.342   2.891   2.542
    1C        C  274   4.447   3.079   2.661
    1C        C  275   4.382   2.954   2.661
    1C        C  276   4.474   3.149   2.781
    1C        C  277   4.444   3.086   2.904
    1C        C  278   4.505   3.288   3.024
    1C        C  279   4.469   3.152   3.027
    1C        C  280   4.514   3.360   3.145
    1C        C  281   4.501   3.296   3.270
    1C        C  282   4.515   3.509   3.387
    1C        C  283   4.511   3.367   3.391
    1C        C  284   4.512   3.582   3.508
    1C        C  285   4.520   3.515   3.632
    1C        C  286   4.488   3.724   3.751
    1C        C  287   4.514   3.585   3.754
    1C        C  288   4.469   3.793   3.873
    1C        C  289   4.488   3.728   3.997
    1C        C  290   4.427   3.932   4.115
    1C        C  291   4.477   3.800   4.118
    1C        C  292   4.398   3.998   4.237
    1C        C  293   4.425   3.935   4.360
    1C        C  294   4.325   4.128   4.477
    1C        C  295   4.394   4.005   4.479
    1C        C  296   4.286   4.191   4.598
    1C        C  297   4.327   4.132   4.720
    1C        C  298   4.204   4.314   4.838
    1C        C  299   4.285   4.196   4.840
    1C        C  300   4.170   4.399   4.948
    1C        C  301   4.352   2.877   2.065
    1C        C  302   4.470   3.064   2.176
    1C        C  303   4.396   2.942   2.181
    1C        C  304   4.485   3.138   2.297
    1C        C  305   4.450   3.074   2.418
    1C        C  306   4.512   3.281   2.536
    1C        C  307   4.472   3.145   2.538
    1C        C  308   4.521   3.354   2.656
    1C        C  309   4.506   3.286   2.779
    1C        C  310   4.523   3.497   2.898
    1C        C  311   4.521   3.355   2.901
    1C        C  312   4.514   3.569   3.019
    1C        C  313   4.519   3.501   3.143
    1C        C  314   4.481   3.714   3.261
    1C        C  315   4.513   3.576   3.263
    1C        C  316   4.471   3.785   3.382
    1C        C  317   4.493   3.722   3.506
    1C        C  318   4.423   3.923   3.626
    1C        C  319   4.474   3.791   3.628
    1C        C  320   4.390   3.988   3.747
    1C        C  321   4.422   3.926   3.870
    1C        C  322   4.318   4.111   3.989
    1C        C  323   4.397   3.994   3.992
    1C        C  324   4.275   4.168   4.111
    1C        C  325   4.322   4.117   4.234
    1C        C  326   4.188   4.285   4.354
    1C        C  327   4.284   4.182   4.353
    1C        C  328   4.135   4.340   4.473
    1C        C  329   4.190   4.295   4.595
    1C        C  330   4.025   4.432   4.713
    1C        C  331   4.142   4.351   4.716
    1C        C  332   3.968   4.486   4.830
    1C        C  333   4.054   4.477   4.941
    1C        C  334   4.552   3.263   2.063
    1C        C  335   4.536   3.124   2.064
    1C        C  336   4.537   3.347   2.175
    1C        C  337   4.516   3.276   2.295
    1C        C  338   4.518   3.492   2.408
    1C        C  339   4.528   3.352   2.414
    1C        C  340   4.516   3.563   2.531
    1C        C  341   4.523   3.496   2.655
    1C        C  342   4.496   3.707   2.772
    1C        C  343   4.522   3.568   2.776
    1C        C  344   4.471   3.775   2.893
    1C        C  345   4.489   3.708   3.015
    1C        C  346   4.415   3.910   3.135
    1C        C  347   4.464   3.777   3.136
    1C        C  348   4.379   3.972   3.257
    1C        C  349   4.416   3.916   3.381
    1C        C  350   4.313   4.102   3.499
    1C        C  351   4.389   3.983   3.503
    1C        C  352   4.270   4.161   3.620
    1C        C  353   4.311   4.105   3.743
    1C        C  354   4.177   4.267   3.864
    1C        C  355   4.273   4.163   3.866
    1C        C  356   4.127   4.319   3.985
    1C        C  357   4.179   4.271   4.108
    1C        C  358   4.013   4.400   4.229
    1C        C  359   4.131   4.322   4.231
    1C        C  360   3.955   4.445   4.350
    1C        C  361   4.018   4.419   4.473
    1C        C  362   3.827   4.518   4.591
    1C        C  363   3.957   4.463   4.593
    1C        C  364   3.760   4.549   4.712
    1C        C  365   3.836   4.536   4.830
    1C        C  366   3.627   4.592   4.950
    1C        C  367   3.765   4.576   4.944
    1C        C  368   4.512   3.561   2.050
    1C        C  369   4.522   3.487   2.168
    1C        C  370   4.499   3.704   2.284
    1C        C  371   4.518   3.564   2.286
    1C        C  372   4.480   3.774   2.406
    1C        C  373   4.495   3.703   2.527
    1C        C  374   4.420   3.902   2.646
    1C        C  375   4.474   3.772   2.648
    1C        C  376   4.387   3.968   2.766
    1C        C  377   4.417   3.906   2.889
    1C        C  378   4.320   4.095   3.010
    1C        C  379   4.391   3.973   3.011
    1C        C  380   4.274   4.156   3.129
    1C        C  381   4.308   4.094   3.251
    1C        C  382   4.176   4.258   3.373
    1C        C  383   4.271   4.153   3.374
    1C        C  384   4.123   4.308   3.494
    1C        C  385   4.176   4.266   3.618
    1C        C  386   4.008   4.391   3.739
    1C        C  387   4.124   4.312   3.741
    1C        C  388   3.949   4.433   3.860
    1C        C  389   4.010   4.399   3.982
    1C        C  390   3.824   4.493   4.106
    1C        C  391   3.950   4.430   4.106
    1C        C  392   3.753   4.514   4.227
    1C        C  393   3.824   4.497   4.348
    1C        C  394   3.618   4.546   4.473
    1C        C  395   3.758   4.528   4.469
    1C        C  396   3.547   4.561   4.594
    1C        C  397   3.620   4.567   4.715
    1C        C  398   3.408   4.553   4.840
    1C        C  399   3.548   4.572   4.836
    1C        C  400   3.344   4.509   4.956
    1C        C  401   4.508   3.700   2.047
    1C        C  402   4.455   3.913   2.163
    1C        C  403   4.489   3.776   2.163
    1C        C  404   4.410   3.975   2.282
    1C        C  405   4.430   3.906   2.404
    1C        C  406   4.325   4.093   2.522
    1C        C  407   4.397   3.971   2.524
    1C        C  408   4.278   4.148   2.643
    1C        C  409   4.316   4.090   2.767
    1C        C  410   4.171   4.246   2.887
    1C        C  411   4.273   4.148   2.888
    1C        C  412   4.121   4.300   3.007
    1C        C  413   4.177   4.258   3.130
    1C        C  414   4.004   4.383   3.250
    1C        C  415   4.121   4.304   3.251
    1C        C  416   3.943   4.421   3.371
    1C        C  417   4.005   4.386   3.493
    1C        C  418   3.814   4.475   3.616
    1C        C  419   3.945   4.421   3.616
    1C        C  420   3.749   4.502   3.738
    1C        C  421   3.817   4.483   3.861
    1C        C  422   3.614   4.534   3.985
    1C        C  423   3.752   4.508   3.985
    1C        C  424   3.543   4.542   4.107
    1C        C  425   3.613   4.534   4.229
    1C        C  426   3.404   4.548   4.355
    1C        C  427   3.545   4.550   4.352
    1C        C  428   3.332   4.541   4.477
    1C        C  429   3.406   4.553   4.597
    1C        C  430   3.197   4.510   4.721
    1C        C  431   3.335   4.542   4.719
    1C        C  432   3.127   4.486   4.843
    1C        C  433   3.206   4.488   4.958
    1C        C  434   4.383   4.120   2.049
    1C        C  435   4.445   3.994   2.050
    1C        C  436   4.300   4.159   2.159
    1C        C  437   4.331   4.093   2.281
    1C        C  438   4.184   4.252   2.403
    1C        C  439   4.281   4.149   2.400
    1C        C  440   4.127   4.298   2.523
    1C        C  441   4.179   4.249   2.645
    1C        C  442   4.006   4.377   2.764
    1C        C  443   4.126   4.301   2.765
    1C        C  444   3.943   4.415   2.884
    1C        C  445   4.006   4.382   3.006
    1C        C  446   3.814   4.475   3.129
    1C        C  447   3.945   4.421   3.127
    1C        C  448   3.745   4.497   3.250
    1C        C  449   3.811   4.473   3.373
    1C        C  450   3.607   4.528   3.495
    1C        C  451   3.745   4.497   3.495
    1C        C  452   3.540   4.537   3.619
    1C        C  453   3.612   4.535   3.741
    1C        C  454   3.401   4.544   3.865
    1C        C  455   3.542   4.545   3.863
    1C        C  456   3.332   4.532   3.988
    1C        C  457   3.401   4.538   4.111
    1C        C  458   3.196   4.502   4.235
    1C        C  459   3.333   4.537   4.234
    1C        C  460   3.128   4.484   4.358
    1C        C  461   3.196   4.505   4.480
    1C        C  462   2.995   4.434   4.603
    1C        C  463   3.125   4.488   4.601
    1C        C  464   2.931   4.399   4.724
    1C        C  465   2.990   4.445   4.845
    1C        C  466   2.802   4.335   4.958
    1C        C  467   2.903   4.433   4.958
    1C        C  468   4.124   4.287   2.041
    1C        C  469   4.186   4.246   2.160
    1C        C  470   4.009   4.371   2.279
    1C        C  471   4.129   4.295   2.280
    1C        C  472   3.943   4.400   2.400
    1C        C  473   4.007   4.373   2.523
    1C        C  474   3.816   4.474   2.641
    1C        C  475   3.942   4.411   2.643
    1C        C  476   3.749   4.501   2.763
    1C        C  477   3.815   4.475   2.885
    1C        C  478   3.606   4.515   3.007
    1C        C  479   3.745   4.490   3.007
    1C        C  480   3.535   4.529   3.128
    1C        C  481   3.605   4.520   3.250
    1C        C  482   3.395   4.531   3.375
    1C        C  483   3.536   4.530   3.373
    1C        C  484   3.327   4.525   3.499
    1C        C  485   3.399   4.534   3.620
    1C        C  486   3.192   4.498   3.744
    1C        C  487   3.330   4.532   3.743
    1C        C  488   3.129   4.474   3.868
    1C        C  489   3.196   4.497   3.990
    1C        C  490   3.004   4.411   4.115
    1C        C  491   3.130   4.475   4.113
    1C        C  492   2.944   4.377   4.238
    1C        C  493   3.002   4.420   4.359
    1C        C  494   2.828   4.300   4.480
    1C        C  495   2.937   4.390   4.481
    1C        C  496   2.770   4.258   4.602
    1C        C  497   2.819   4.311   4.724
    1C        C  498   2.663   4.165   4.845
    1C        C  499   2.754   4.273   4.843
    1C        C  500   2.593   4.112   4.954
    1C        C  501   4.003   4.356   2.042
    1C        C  502   3.813   4.462   2.156
    1C        C  503   3.940   4.400   2.159
    1C        C  504   3.744   4.481   2.278
    1C        C  505   3.811   4.451   2.398
    1C        C  506   3.608   4.513   2.519
    1C        C  507   3.746   4.485   2.519
    1C        C  508   3.537   4.519   2.641
    1C        C  509   3.609   4.517   2.762
    1C        C  510   3.396   4.530   2.885
    1C        C  511   3.537   4.526   2.884
    1C        C  512   3.324   4.523   3.006
    1C        C  513   3.394   4.531   3.129
    1C        C  514   3.187   4.498   3.254
    1C        C  515   3.325   4.529   3.252
    1C        C  516   3.123   4.471   3.377
    1C        C  517   3.189   4.493   3.499
    1C        C  518   3.001   4.404   3.622
    1C        C  519   3.124   4.473   3.623
    1C        C  520   2.946   4.367   3.747
    1C        C  521   3.006   4.404   3.869
    1C        C  522   2.836   4.282   3.993
    1C        C  523   2.947   4.369   3.992
    1C        C  524   2.784   4.235   4.116
    1C        C  525   2.836   4.286   4.238
    1C        C  526   2.693   4.132   4.363
    1C        C  527   2.780   4.243   4.360
    1C        C  528   2.650   4.078   4.486
    1C        C  529   2.684   4.146   4.605
    1C        C  530   2.582   3.960   4.731
    1C        C  531   2.637   4.092   4.727
    1C        C  532   2.536   3.900   4.851
    1C        C  533   2.524   3.991   4.961
    1C        C  534   3.615   4.556   2.041
    1C        C  535   3.748   4.513   2.043
    1C        C  536   3.533   4.537   2.157
    1C        C  537   3.604   4.508   2.277
    1C        C  538   3.393   4.517   2.399
    1C        C  539   3.534   4.520   2.398
    1C        C  540   3.323   4.513   2.522
    1C        C  541   3.396   4.518   2.643
    1C        C  542   3.187   4.481   2.763
    1C        C  543   3.323   4.519   2.764
    1C        C  544   3.125   4.458   2.888
    1C        C  545   3.187   4.488   3.011
    1C        C  546   2.996   4.399   3.134
    1C        C  547   3.120   4.468   3.133
    1C        C  548   2.937   4.364   3.257
    1C        C  549   2.998   4.405   3.378
    1C        C  550   2.836   4.270   3.503
    1C        C  551   2.943   4.362   3.501
    1C        C  552   2.787   4.224   3.627
    1C        C  553   2.836   4.277   3.749
    1C        C  554   2.697   4.119   3.873
    1C        C  555   2.786   4.229   3.872
    1C        C  556   2.658   4.063   3.997
    1C        C  557   2.697   4.125   4.118
    1C        C  558   2.594   3.943   4.246
    1C        C  559   2.660   4.068   4.242
    1C        C  560   2.567   3.879   4.369
    1C        C  561   2.590   3.950   4.489
    1C        C  562   2.521   3.752   4.615
    1C        C  563   2.562   3.887   4.612
    1C        C  564   2.514   3.680   4.736
    1C        C  565   2.515   3.758   4.855
    1C        C  566   2.522   3.544   4.973
    1C        C  567   2.520   3.683   4.973
    1C        C  568   3.329   4.475   2.039
    1C        C  569   3.393   4.510   2.158
    1C        C  570   3.183   4.473   2.276
    1C        C  571   3.319   4.513   2.279
    1C        C  572   3.119   4.448   2.400
    1C        C  573   3.186   4.478   2.520
    1C        C  574   2.992   4.393   2.645
    1C        C  575   3.119   4.456   2.642
    1C        C  576   2.934   4.356   2.768
    1C        C  577   3.000   4.392   2.888
    1C        C  578   2.831   4.266   3.014
    1C        C  579   2.940   4.357   3.011
    1C        C  580   2.780   4.219   3.137
    1C        C  581   2.831   4.271   3.258
    1C        C  582   2.693   4.112   3.385
    1C        C  583   2.784   4.220   3.381
    1C        C  584   2.656   4.055   3.509
    1C        C  585   2.700   4.114   3.630
    1C        C  586   2.592   3.933   3.753
    1C        C  587   2.656   4.059   3.752
    1C        C  588   2.567   3.872   3.878
    1C        C  589   2.600   3.934   4.000
    1C        C  590   2.535   3.737   4.127
    1C        C  591   2.569   3.875   4.125
    1C        C  592   2.517   3.672   4.251
    1C        C  593   2.532   3.742   4.372
    1C        C  594   2.509   3.534   4.496
    1C        C  595   2.515   3.675   4.496
    1C        C  596   2.513   3.463   4.618
    1C        C  597   2.511   3.537   4.738
    1C        C  598   2.533   3.324   4.862
    1C        C  599   2.524   3.465   4.858
    1C        C  600   2.532   3.245   4.978
    1C        C  601   3.196   4.437   2.039
    1C        C  602   2.985   4.381   2.153
    1C        C  603   3.118   4.435   2.156
    1C        C  604   2.926   4.355   2.280
    1C        C  605   2.990   4.389   2.401
    1C        C  606   2.823   4.262   2.528
    1C        C  607   2.931   4.353   2.524
    1C        C  608   2.770   4.216   2.650
    1C        C  609   2.828   4.263   2.770
    1C        C  610   2.683   4.110   2.895
    1C        C  611   2.780   4.213   2.894
    1C        C  612   2.649   4.051   3.019
    1C        C  613   2.692   4.109   3.141
    1C        C  614   2.590   3.925   3.266
    1C        C  615   2.656   4.049   3.264
    1C        C  616   2.563   3.862   3.390
    1C        C  617   2.592   3.929   3.511
    1C        C  618   2.524   3.729   3.635
    1C        C  619   2.564   3.864   3.633
    1C        C  620   2.514   3.662   3.760
    1C        C  621   2.527   3.736   3.879
    1C        C  622   2.505   3.529   4.007
    1C        C  623   2.521   3.669   4.004
    1C        C  624   2.515   3.459   4.130
    1C        C  625   2.510   3.531   4.251
    1C        C  626   2.532   3.323   4.381
    1C        C  627   2.506   3.462   4.375
    1C        C  628   2.553   3.252   4.501
    1C        C  629   2.535   3.323   4.622
    1C        C  630   2.594   3.116   4.741
    1C        C  631   2.550   3.251   4.742
    1C        C  632   2.616   3.046   4.863
    1C        C  633   2.564   3.108   4.981
    1C        C  634   2.778   4.299   2.054
    1C        C  635   2.889   4.384   2.047
    1C        C  636   2.746   4.227   2.170
    1C        C  637   2.813   4.270   2.287
    1C        C  638   2.676   4.106   2.410
    1C        C  639   2.763   4.217   2.408
    1C        C  640   2.640   4.045   2.532
    1C        C  641   2.682   4.105   2.652
    1C        C  642   2.580   3.922   2.777
    1C        C  643   2.640   4.050   2.775
    1C        C  644   2.556   3.857   2.900
    1C        C  645   2.588   3.924   3.021
    1C        C  646   2.524   3.724   3.146
    1C        C  647   2.560   3.860   3.144
    1C        C  648   2.509   3.655   3.268
    1C        C  649   2.521   3.727   3.389
    1C        C  650   2.508   3.519   3.517
    1C        C  651   2.510   3.660   3.513
    1C        C  652   2.515   3.450   3.641
    1C        C  653   2.507   3.521   3.763
    1C        C  654   2.534   3.316   3.888
    1C        C  655   2.506   3.454   3.887
    1C        C  656   2.552   3.251   4.013
    1C        C  657   2.538   3.320   4.135
    1C        C  658   2.610   3.126   4.257
    1C        C  659   2.549   3.253   4.259
    1C        C  660   2.642   3.058   4.377
    1C        C  661   2.605   3.121   4.499
    1C        C  662   2.712   2.938   4.624
    1C        C  663   2.631   3.054   4.620
    1C        C  664   2.759   2.879   4.744
    1C        C  665   2.701   2.931   4.863
    1C        C  666   2.742   2.866   4.980
    1C        C  667   2.676   4.020   2.055
    1C        C  668   2.678   4.104   2.168
    1C        C  669   2.584   3.912   2.290
    1C        C  670   2.641   4.042   2.289
    1C        C  671   2.556   3.847   2.412
    1C        C  672   2.578   3.918   2.532
    1C        C  673   2.507   3.721   2.658
    1C        C  674   2.551   3.856   2.656
    1C        C  675   2.497   3.652   2.780
    1C        C  676   2.518   3.721   2.902
    1C        C  677   2.500   3.512   3.029
    1C        C  678   2.506   3.653   3.025
    1C        C  679   2.500   3.442   3.152
    1C        C  680   2.494   3.514   3.273
    1C        C  681   2.527   3.306   3.400
    1C        C  682   2.501   3.445   3.397
    1C        C  683   2.552   3.240   3.522
    1C        C  684   2.540   3.311   3.643
    1C        C  685   2.607   3.115   3.770
    1C        C  686   2.552   3.245   3.767
    1C        C  687   2.639   3.055   3.893
    1C        C  688   2.604   3.120   4.014
    1C        C  689   2.714   2.939   4.138
    1C        C  690   2.639   3.059   4.136
    1C        C  691   2.757   2.879   4.258
    1C        C  692   2.714   2.937   4.380
    1C        C  693   2.760   2.885   4.503
    1C        C  694   2.624   3.890   2.055
    1C        C  695   2.519   3.703   2.175
    1C        C  696   2.575   3.833   2.173
    1C        C  697   2.492   3.638   2.298
    1C        C  698   2.513   3.712   2.416
    1C        C  699   2.484   3.504   2.541
    1C        C  700   2.496   3.645   2.539
    1C        C  701   2.500   3.436   2.664
    1C        C  702   2.496   3.511   2.783
    1C        C  703   2.521   3.301   2.910
    1C        C  704   2.502   3.441   2.906
    1C        C  705   2.543   3.232   3.031
    1C        C  706   2.528   3.304   3.151
    1C        C  707   2.606   3.112   3.277
    1C        C  708   2.548   3.241   3.276
    1C        C  709   2.643   3.051   3.399
    1C        C  710   2.610   3.111   3.523
    1C        C  711   2.717   2.934   3.648
    1C        C  712   2.641   3.052   3.647
    1C        C  713   2.760   2.879   3.771
    1C        C  714   2.716   2.936   3.893
    1C        C  715   2.756   2.881   4.016
    1C        C  716   2.453   3.499   2.058
    1C        C  717   2.487   3.635   2.057
    1C        C  718   2.457   3.423   2.179
    1C        C  719   2.472   3.498   2.300
    1C        C  720   2.514   3.290   2.425
    1C        C  721   2.485   3.429   2.422
    1C        C  722   2.534   3.222   2.546
    1C        C  723   2.521   3.296   2.666
    1C        C  724   2.599   3.102   2.789
    1C        C  725   2.539   3.230   2.789
    1C        C  726   2.631   3.038   2.911
    1C        C  727   2.596   3.101   3.032
    1C        C  728   2.716   2.930   3.158
    1C        C  729   2.635   3.046   3.156
    1C        C  730   2.762   2.876   3.281
    1C        C  731   2.723   2.935   3.403
    1C        C  732   2.767   2.882   3.526
    1C        C  733   2.488   3.196   2.073
    1C        C  734   2.487   3.283   2.182
    1C        C  735   2.586   3.090   2.303
    1C        C  736   2.525   3.219   2.303
    1C        C  737   2.618   3.025   2.425
    1C        C  738   2.590   3.092   2.546
    1C        C  739   2.702   2.914   2.667
    1C        C  740   2.627   3.034   2.669
    1C        C  741   2.750   2.863   2.790
    1C        C  742   2.707   2.918   2.912
    1C        C  743   2.751   2.868   3.036
    1C        C  744   2.553   3.073   2.072
    1C        C  745   2.695   2.902   2.184
    1C        C  746   2.614   3.017   2.186
    1C        C  747   2.735   2.844   2.306
    1C        C  748   2.692   2.905   2.426
    1C        C  749   2.745   2.854   2.547
    1C        C  750   2.743   2.845   2.065
    1C        C  751   3.675   2.326   1.974
    1C        O  752   3.704   2.208   2.007
    1C        O  753   3.648   2.337   1.837
    1C        C  754   4.645   3.060   1.986
    1C        O  755   4.649   3.089   1.863
    1C        O  756   4.763   3.026   2.053
    1C        C  757   4.427   4.223   1.953
    1C        O  758   4.513   4.313   1.974
    1C        O  759   4.398   4.202   1.817
    1C        C  760   3.597   4.689   1.979
    1C        O  761   3.653   4.795   2.018
    1C        O  762   3.538   4.710   1.854
    1C        C  763   2.873   4.500   1.956
    1C        O  764   2.900   4.489   1.834
    1C        O  765   2.861   4.632   1.999
    1C        C  766   2.384   3.461   1.933
    1C        O  767   2.438   3.483   1.822
    1C        O  768   2.250   3.500   1.930
    1C        C  769   4.714   3.605   5.040
    1C        O  770   4.705   3.559   5.157
    1C        O  771   4.842   3.588   4.986
    1C        C  772   4.274   4.459   5.034
    1C        O  773   4.267   4.463   5.160
    1C        O  774   4.363   4.561   4.997
    1C        C  775   4.144   2.524   5.077
    1C        O  776   4.200   2.412   5.060
    1C        O  777   4.158   2.576   5.206
    1C        C  778   2.851   4.554   5.024
    1C        O  779   2.802   4.648   4.956
    1C        O  780   2.916   4.609   5.135
    1C        C  781   2.474   3.035   5.073
    1C        O  782   2.361   2.985   5.047
    1C        O  783   2.483   3.069   5.208
    1C        C  784   2.397   4.006   5.036
    1C        O  785   2.293   4.012   4.964
    1C        O  786   2.371   3.925   5.147
    1C        C  787   2.952   2.418   2.004
    1C        O  788   2.926   2.424   1.881
    1C        O  789   2.863   2.341   2.078
    1C        C  790   3.206   2.382   5.079
    1C        O  791   3.142   2.274   5.070
    1C        O  792   3.221   2.426   5.211
    1C        H  793   4.255   3.026   5.052
    1C        H  794   4.194   2.789   5.067
    1C        H  795   4.516   3.125   5.053
    1C        H  796   4.534   3.365   5.068
    1C        H  797   4.594   3.819   5.024
    1C        H  798   4.379   3.949   5.044
    1C        H  799   4.308   4.182   5.049
    1C        H  800   4.025   4.527   5.032
    1C        H  801   3.825   4.638   5.007
    1C        H  802   3.588   4.652   5.029
    1C        H  803   3.403   4.460   5.030
    1C        H  804   3.160   4.468   5.052
    1C        H  805   3.889   2.479   5.065
    1C        H  806   3.676   2.504   5.071
    1C        H  807   2.988   2.532   5.048
    1C        H  808   3.447   2.475   5.077
    1C        H  809   2.905   2.770   5.073
    1C        H  810   2.670   2.842   5.055
    1C        H  811   2.499   3.285   5.071
    1C        H  812   2.504   3.496   5.067
    1C        H  813   2.574   3.730   5.052
    1C        H  814   2.603   4.158   5.051
    1C        H  815   2.786   4.284   5.051
    1C        H  816   2.757   2.903   1.976
    1C        H  817   2.783   2.651   2.012
    1C        H  818   3.208   2.426   1.985
    1C        H  819   3.429   2.449   1.979
    1C        H  820   3.873   2.476   1.980
    1C        H  821   4.037   2.653   1.969
    1C        H  822   4.264   2.703   1.981
    1C        H  823   4.421   2.877   1.984
    1C        H  824   4.599   3.304   1.976
    1C        H  825   4.491   3.508   1.959
    1C        H  826   4.554   3.749   1.964
    1C        H  827   3.796   4.505   1.948
    1C        H  828   3.980   4.406   1.950
    1C        H  829   4.160   4.252   1.946
    1C        H  830   4.439   3.951   1.952
    1C        H  831   2.656   3.823   1.978
    1C        H  832   2.754   4.033   1.984
    1C        H  833   2.717   4.284   1.967
    1C        H  834   3.386   4.446   1.953
    1C        H  835   3.167   4.379   1.954
    1C        H  836   2.514   3.003   2.002
    1C        H  837   2.454   3.228   1.977
    1C        H  838   2.437   3.696   1.984
    2V3OU   H29  839   2.797   3.549   5.272
    2V3OU   C27  840   2.779   3.500   5.371
    2V3OU   H27  841   2.718   3.561   5.443
    2V3OU   H28  842   2.730   3.401   5.350
    2V3OU   O11  843   2.905   3.476   5.433
    2V3OU   C15  844   2.918   3.397   5.546
    2V3OU   C13  845   3.050   3.377   5.592
    2V3OU   C14  846   3.074   3.270   5.679
    2V3OU   C16  847   2.970   3.191   5.728
    2V3OU    H6  848   2.991   3.097   5.780
    2V3OU   C12  849   3.213   3.233   5.716
    2V3OU    O2  850   3.236   3.128   5.779
    2V3OU   C10  851   3.326   3.308   5.659
    2V3OU    C8  852   3.458   3.271   5.683
    2V3OU   O10  853   3.487   3.158   5.752
    2V3OU   H26  854   3.401   3.113   5.750
    2V3OU    C6  855   3.563   3.350   5.625
    2V3OU    C5  856   3.537   3.465   5.552
    2V3OU    C4  857   3.701   3.295   5.627
    2V3OU    H4  858   3.720   3.227   5.716
    2V3OU    H5  859   3.707   3.230   5.535
    2V3OU    C2  860   3.815   3.396   5.616
    2V3OU    O6  861   3.800   3.479   5.732
    2V3OU   H21  862   3.768   3.565   5.702
    2V3OU    C3  863   3.782   3.494   5.503
    2V3OU    H2  864   3.864   3.571   5.501
    2V3OU    H3  865   3.780   3.437   5.406
    2V3OU   C25  866   3.947   3.321   5.595
    2V3OU    O7  867   3.996   3.295   5.485
    2V3OU   C26  868   4.026   3.291   5.721
    2V3OU   H22  869   4.069   3.381   5.772
    2V3OU   H23  870   4.115   3.229   5.695
    2V3OU    O8  871   3.963   3.211   5.819
    2V3OU   H24  872   3.922   3.264   5.889
    2V3OU    C1  873   3.647   3.562   5.521
    2V3OU    H1  874   3.623   3.618   5.426
    2V3OU    O3  875   3.661   3.655   5.628
    2V3OU   C19  876   3.615   3.790   5.613
    2V3OU    H9  877   3.515   3.803   5.562
    2V3OU    O4  878   3.711   3.846   5.526
    2V3OU   C20  879   3.843   3.875   5.573
    2V3OU   H10  880   3.894   3.776   5.594
    2V3OU   C24  881   3.610   3.855   5.752
    2V3OU   H16  882   3.548   3.787   5.815
    2V3OU   H17  883   3.562   3.956   5.738
    2V3OU   C23  884   3.751   3.875   5.808
    2V3OU   H15  885   3.787   3.770   5.833
    2V3OU    N1  886   3.736   3.959   5.925
    2V3OU   H19  887   3.809   3.925   5.986
    2V3OU   H20  888   3.649   3.934   5.967
    2V3OU   C21  889   3.846   3.948   5.707
    2V3OU   H11  890   3.950   3.926   5.744
    2V3OU    O5  891   3.825   4.088   5.713
    2V3OU   H18  892   3.789   4.100   5.803
    2V3OU   C22  893   3.911   3.948   5.459
    2V3OU   H12  894   3.862   4.047   5.440
    2V3OU   H13  895   3.905   3.888   5.364
    2V3OU   H14  896   4.021   3.957   5.477
    2V3OU   C11  897   3.157   3.473   5.564
    2V3OU    O1  898   3.132   3.587   5.520
    2V3OU    C9  899   3.296   3.427   5.588
    2V3OU    C7  900   3.400   3.501   5.532
    2V3OU    O9  901   3.382   3.612   5.453
    2V3OU   H25  902   3.287   3.626   5.441
    2V3OU   C17  903   2.815   3.318   5.600
    2V3OU    H7  904   2.713   3.344   5.573
    2V3OU   C18  905   2.840   3.209   5.683
    2V3OU    H8  906   2.753   3.150   5.718
    3SOL     OW  907   4.052   3.150   3.858
    3SOL    HW1  908   4.046   3.202   3.773
    3SOL    HW2  909   4.099   3.064   3.841
    4SOL     OW  910   6.341   6.138   0.737
    4SOL    HW1  911   6.291   6.202   0.679
    4SOL    HW2  912   6.280   6.103   0.809
    5SOL     OW  913   4.931   1.773   0.552
    5SOL    HW1  914   4.878   1.782   0.468
    5SOL    HW2  915   4.960   1.864   0.583
    6SOL     OW  916   5.256   1.409   3.219
    6SOL    HW1  917   5.247   1.310   3.225
    6SOL    HW2  918   5.165   1.451   3.212
    7SOL     OW  919   1.820   4.140   3.811
    7SOL    HW1  920   1.834   4.043   3.830
    7SOL    HW2  921   1.802   4.188   3.896
    8SOL     OW  922   1.061   3.293   5.121
    8SOL    HW1  923   1.051   3.282   5.022
    8SOL    HW2  924   1.158   3.291   5.145
    9SOL     OW  925   0.118   1.021   6.586
    9SOL    HW1  926   0.070   1.101   6.620
    9SOL    HW2  927   0.052   0.948   6.566
   10SOL     OW  928   5.467   4.483   1.783
   10SOL    HW1  929   5.499   4.483   1.688
   10SOL    HW2  930   5.375   4.445   1.787
   11SOL     OW  931   2.424   2.625   0.389
   11SOL    HW1  932   2.505   2.569   0.374
   11SOL    HW2  933   2.435   2.677   0.474
   12SOL     OW  934   3.315   5.033   2.643
   12SOL    HW1  935   3.376   5.094   2.592
   12SOL    HW2  936   3.366   4.953   2.675
   13SOL     OW  937   5.692   6.104   0.966
   13SOL    HW1  938   5.754   6.177   0.998
   13SOL    HW2  939   5.626   6.083   1.038
   14SOL     OW  940   4.365   6.057   5.543
   14SOL    HW1  941   4.428   5.980   5.557
   14SOL    HW2  942   4.378   6.125   5.615
   15SOL     OW  943   0.601   6.611   6.016
   15SOL    HW1  944   0.540   6.577   6.087
   15SOL    HW2  945   0.640   6.699   6.044
   16SOL     OW  946   2.063   4.522   4.620
   16SOL    HW1  947   2.105   4.613   4.615
   16SOL    HW2  948   2.135   4.452   4.620
   17SOL     OW  949   6.277   1.124   5.811
   17SOL    HW1  950   6.183   1.096   5.791
   17SOL    HW2  951   6.324   1.049   5.858
   18SOL     OW  952   2.659   0.615   5.933
   18SOL    HW1  953   2.627   0.688   5.872
   18SOL    HW2  954   2.581   0.576   5.981
   19SOL     OW  955   3.034   6.557   2.975
   19SOL    HW1  956   2.970   6.492   2.935
   19SOL    HW2  957   2.994   6.649   2.972
   20SOL     OW  958   6.366   1.580   5.325
   20SOL    HW1  959   6.448   1.526   5.340
   20SOL    HW2  960   6.334   1.567   5.232
   21SOL     OW  961   2.469   4.447   2.719
   21SOL    HW1  962   2.442   4.380   2.650
   21SOL    HW2  963   2.503   4.529   2.674
   22SOL     OW  964   1.440   0.621   6.791
   22SOL    HW1  965   1.511   0.664   6.736
   22SOL    HW2  966   1.483   0.554   6.853
   23SOL     OW  967   5.695   5.128   1.567
   23SOL    HW1  968   5.667   5.224   1.562
   23SOL    HW2  969   5.786   5.122   1.608
   24SOL     OW  970   4.140   0.742   0.719
   24SOL    HW1  971   4.198   0.783   0.788
   24SOL    HW2  972   4.048   0.729   0.756
   25SOL     OW  973   1.882   0.960   4.634
   25SOL    HW1  974   1.925   0.933   4.548
   25SOL    HW2  975   1.920   1.047   4.666
   26SOL     OW  976   0.580   2.721   6.576
   26SOL    HW1  977   0.590   2.622   6.571
   26SOL    HW2  978   0.558   2.747   6.670
   27SOL     OW  979   5.895   0.644   1.604
   27SOL    HW1  980   5.980   0.591   1.609
   27SOL    HW2  981   5.824   0.589   1.562
   28SOL     OW  982   2.542   0.878   5.293
   28SOL    HW1  983   2.593   0.942   5.351
   28SOL    HW2  984   2.486   0.819   5.350
   29SOL     OW  985   0.380   6.882   1.003
   29SOL    HW1  986   0.432   6.929   0.932
   29SOL    HW2  987   0.374   6.784   0.981
   30SOL     OW  988   5.019   0.437   5.253
   30SOL    HW1  989   4.950   0.481   5.196
   30SOL    HW2  990   4.979   0.414   5.342
   31SOL     OW  991   0.862   3.483   5.374
   31SOL    HW1  992   0.888   3.407   5.315
   31SOL    HW2  993   0.851   3.450   5.468
   32SOL     OW  994   3.709   0.197   1.183
   32SOL    HW1  995   3.762   0.206   1.268
   32SOL    HW2  996   3.715   0.102   1.151
   33SOL     OW  997   1.869   5.664   6.154
   33SOL    HW1  998   1.827   5.671   6.064
   33SOL    HW2  999   1.835   5.583   6.201
   34SOL     OW 1000   2.991   5.276   5.248
   34SOL    HW1 1001   3.034   5.360   5.279
   34SOL    HW2 1002   3.006   5.266   5.149
   35SOL     OW 1003   2.213   3.708   6.948
   35SOL    HW1 1004   2.226   3.612   6.921
   35SOL    HW2 1005   2.115   3.728   6.956
   36SOL     OW 1006   4.027   1.305   4.045
   36SOL    HW1 1007   4.017   1.210   4.015
   36SOL    HW2 1008   3.942   1.336   4.087
   37SOL     OW 1009   2.871   0.280   4.025
   37SOL    HW1 1010   2.924   0.225   3.960
   37SOL    HW2 1011   2.918   0.281   4.113
   38SOL     OW 1012   1.110   3.462   3.070
   38SOL    HW1 1013   1.204   3.431   3.083
   38SOL    HW2 1014   1.091   3.468   2.972
   39SOL     OW 1015   6.761   4.173   0.496
   39SOL    HW1 1016   6.805   4.223   0.570
   39SOL    HW2 1017   6.694   4.232   0.451
   40SOL     OW 1018   4.278   1.585   0.976
   40SOL    HW1 1019   4.251   1.654   1.043
   40SOL    HW2 1020   4.374   1.558   0.992
   41SOL     OW 1021   5.288   4.200   1.956
   41SOL    HW1 1022   5.298   4.166   2.050
   41SOL    HW2 1023   5.257   4.295   1.958
   42SOL     OW 1024   2.487   4.873   6.966
   42SOL    HW1 1025   2.497   4.846   6.870
   42SOL    HW2 1026   2.467   4.970   6.972
   43SOL     OW 1027   4.263   0.193   4.746
   43SOL    HW1 1028   4.202   0.268   4.772
   43SOL    HW2 1029   4.307   0.157   4.828
   44SOL     OW 1030   6.499   1.157   5.667
   44SOL    HW1 1031   6.573   1.169   5.733
   44SOL    HW2 1032   6.414   1.137   5.715
   45SOL     OW 1033   2.447   4.765   5.790
   45SOL    HW1 1034   2.462   4.847   5.734
   45SOL    HW2 1035   2.366   4.777   5.846
   46SOL     OW 1036   0.851   3.624   4.384
   46SOL    HW1 1037   0.946   3.655   4.391
   46SOL    HW2 1038   0.791   3.690   4.427
   47SOL     OW 1039   6.735   3.704   0.414
   47SOL    HW1 1040   6.725   3.763   0.493
   47SOL    HW2 1041   6.660   3.721   0.350
   48SOL     OW 1042   6.361   3.162   1.057
   48SOL    HW1 1043   6.443   3.209   1.023
   48SOL    HW2 1044   6.312   3.222   1.121
   49SOL     OW 1045   3.127   3.845   6.620
   49SOL    HW1 1046   3.222   3.874   6.611
   49SOL    HW2 1047   3.102   3.787   6.543
   50SOL     OW 1048   6.147   2.414   0.748
   50SOL    HW1 1049   6.192   2.389   0.834
   50SOL    HW2 1050   6.142   2.514   0.741
   51SOL     OW 1051   1.570   5.396   2.886
   51SOL    HW1 1052   1.594   5.358   2.797
   51SOL    HW2 1053   1.576   5.496   2.883
   52SOL     OW 1054   5.772   2.926   2.174
   52SOL    HW1 1055   5.758   2.847   2.234
   52SOL    HW2 1056   5.771   2.895   2.079
   53SOL     OW 1057   3.859   0.485   2.020
   53SOL    HW1 1058   3.879   0.556   2.087
   53SOL    HW2 1059   3.778   0.512   1.967
   54SOL     OW 1060   5.085   0.700   6.717
   54SOL    HW1 1061   5.160   0.638   6.694
   54SOL    HW2 1062   5.084   0.777   6.654
   55SOL     OW 1063   1.503   4.014   6.063
   55SOL    HW1 1064   1.544   3.925   6.082
   55SOL    HW2 1065   1.415   4.022   6.110
   56SOL     OW 1066   0.753   2.463   6.724
   56SOL    HW1 1067   0.718   2.538   6.780
   56SOL    HW2 1068   0.832   2.421   6.769
   57SOL     OW 1069   4.512   6.396   0.479
   57SOL    HW1 1070   4.427   6.344   0.480
   57SOL    HW2 1071   4.526   6.438   0.569
   58SOL     OW 1072   0.742   0.203   0.144
   58SOL    HW1 1073   0.651   0.227   0.110
   58SOL    HW2 1074   0.805   0.194   0.067
   59SOL     OW 1075   4.675   3.061   5.406
   59SOL    HW1 1076   4.726   3.134   5.451
   59SOL    HW2 1077   4.578   3.084   5.404
   60SOL     OW 1078   5.514   2.025   2.100
   60SOL    HW1 1079   5.470   2.072   2.024
   60SOL    HW2 1080   5.491   2.072   2.186
   61SOL     OW 1081   1.530   5.920   4.478
   61SOL    HW1 1082   1.527   5.821   4.462
   61SOL    HW2 1083   1.513   5.939   4.574
   62SOL     OW 1084   6.095   3.340   2.915
   62SOL    HW1 1085   6.026   3.274   2.887
   62SOL    HW2 1086   6.150   3.301   2.989
   63SOL     OW 1087   4.186   0.293   5.907
   63SOL    HW1 1088   4.176   0.367   5.840
   63SOL    HW2 1089   4.165   0.327   5.998
   64SOL     OW 1090   1.198   3.583   5.069
   64SOL    HW1 1091   1.143   3.500   5.063
   64SOL    HW2 1092   1.258   3.590   4.989
   65SOL     OW 1093   0.888   5.876   4.985
   65SOL    HW1 1094   0.858   5.824   4.905
   65SOL    HW2 1095   0.918   5.967   4.956
   66SOL     OW 1096   3.743   1.413   2.190
   66SOL    HW1 1097   3.662   1.358   2.210
   66SOL    HW2 1098   3.714   1.499   2.147
   67SOL     OW 1099   0.011   3.292   1.200
   67SOL    HW1 1100   6.946   3.255   1.234
   67SOL    HW2 1101   0.019   3.276   1.102
   68SOL     OW 1102   6.806   1.702   6.226
   68SOL    HW1 1103   6.723   1.646   6.221
   68SOL    HW2 1104   6.814   1.758   6.144
   69SOL     OW 1105   1.180   5.862   6.317
   69SOL    HW1 1106   1.182   5.805   6.399
   69SOL    HW2 1107   1.181   5.804   6.236
   70SOL     OW 1108   5.229   4.069   3.690
   70SOL    HW1 1109   5.230   4.158   3.645
   70SOL    HW2 1110   5.182   4.076   3.778
   71SOL     OW 1111   5.377   2.031   3.988
   71SOL    HW1 1112   5.286   1.996   3.966
   71SOL    HW2 1113   5.430   2.041   3.904
   72SOL     OW 1114   0.626   0.956   2.939
   72SOL    HW1 1115   0.573   0.908   2.869
   72SOL    HW2 1116   0.720   0.922   2.939
   73SOL     OW 1117   3.192   0.606   0.354
   73SOL    HW1 1118   3.275   0.589   0.301
   73SOL    HW2 1119   3.155   0.695   0.329
   74SOL     OW 1120   2.323   2.256   1.200
   74SOL    HW1 1121   2.401   2.313   1.224
   74SOL    HW2 1122   2.341   2.210   1.113
   75SOL     OW 1123   2.887   3.307   0.625
   75SOL    HW1 1124   2.945   3.358   0.562
   75SOL    HW2 1125   2.802   3.357   0.640
   76SOL     OW 1126   3.665   4.935   5.760
   76SOL    HW1 1127   3.627   4.867   5.697
   76SOL    HW2 1128   3.607   4.940   5.842
   77SOL     OW 1129   1.144   5.251   4.280
   77SOL    HW1 1130   1.051   5.220   4.297
   77SOL    HW2 1131   1.195   5.253   4.366
   78SOL     OW 1132   4.815   1.816   1.315
   78SOL    HW1 1133   4.856   1.877   1.382
   78SOL    HW2 1134   4.716   1.832   1.311
   79SOL     OW 1135   1.161   4.609   2.874
   79SOL    HW1 1136   1.163   4.550   2.955
   79SOL    HW2 1137   1.157   4.553   2.791
   80SOL     OW 1138   3.826   1.702   5.268
   80SOL    HW1 1139   3.746   1.644   5.280
   80SOL    HW2 1140   3.862   1.691   5.176
   81SOL     OW 1141   4.377   5.478   1.508
   81SOL    HW1 1142   4.332   5.389   1.500
   81SOL    HW2 1143   4.476   5.466   1.507
   82SOL     OW 1144   2.618   6.310   1.917
   82SOL    HW1 1145   2.567   6.265   1.844
   82SOL    HW2 1146   2.645   6.242   1.985
   83SOL     OW 1147   5.240   1.276   4.297
   83SOL    HW1 1148   5.237   1.376   4.298
   83SOL    HW2 1149   5.233   1.241   4.390
   84SOL     OW 1150   5.660   2.925   2.528
   84SOL    HW1 1151   5.564   2.917   2.556
   84SOL    HW2 1152   5.669   3.001   2.463
   85SOL     OW 1153   2.552   6.416   4.030
   85SOL    HW1 1154   2.640   6.371   4.047
   85SOL    HW2 1155   2.500   6.362   3.964
   86SOL     OW 1156   5.612   6.990   6.779
   86SOL    HW1 1157   5.680   0.008   6.842
   86SOL    HW2 1158   5.541   0.036   6.761
   87SOL     OW 1159   1.867   4.074   6.426
   87SOL    HW1 1160   1.934   4.086   6.500
   87SOL    HW2 1161   1.914   4.042   6.344
   88SOL     OW 1162   3.265   3.382   1.226
   88SOL    HW1 1163   3.165   3.377   1.222
   88SOL    HW2 1164   3.292   3.443   1.300
   89SOL     OW 1165   3.130   3.521   3.724
   89SOL    HW1 1166   3.068   3.555   3.795
   89SOL    HW2 1167   3.208   3.583   3.715
   90SOL     OW 1168   5.275   3.740   1.782
   90SOL    HW1 1169   5.215   3.780   1.852
   90SOL    HW2 1170   5.220   3.691   1.715
   91SOL     OW 1171   4.444   5.127   5.768
   91SOL    HW1 1172   4.533   5.124   5.722
   91SOL    HW2 1173   4.378   5.071   5.716
   92SOL     OW 1174   4.993   3.989   0.369
   92SOL    HW1 1175   5.065   4.008   0.303
   92SOL    HW2 1176   4.921   3.935   0.326
   93SOL     OW 1177   2.870   3.522   2.127
   93SOL    HW1 1178   2.863   3.562   2.036
   93SOL    HW2 1179   2.779   3.500   2.162
   94SOL     OW 1180   3.012   2.185   4.109
   94SOL    HW1 1181   3.088   2.197   4.173
   94SOL    HW2 1182   2.933   2.237   4.141
   95SOL     OW 1183   0.416   7.017   4.146
   95SOL    HW1 1184   0.364   6.998   4.229
   95SOL    HW2 1185   0.386   0.082   4.106
   96SOL     OW 1186   6.542   4.805   0.114
   96SOL    HW1 1187   6.525   4.887   0.060
   96SOL    HW2 1188   6.628   4.764   0.084
   97SOL     OW 1189   2.262   4.230   5.626
   97SOL    HW1 1190   2.169   4.257   5.652
   97SOL    HW2 1191   2.322   4.311   5.628
   98SOL     OW 1192   1.681   2.179   3.653
   98SOL    HW1 1193   1.773   2.206   3.625
   98SOL    HW2 1194   1.654   2.097   3.603
   99SOL     OW 1195   3.361   3.973   5.046
   99SOL    HW1 1196   3.455   3.974   5.080
   99SOL    HW2 1197   3.361   4.000   4.949
  100SOL     OW 1198   6.853   0.900   4.941
  100SOL    HW1 1199   6.953   0.900   4.938
  100SOL    HW2 1200   6.819   0.809   4.916
  101SOL     OW 1201   5.855   3.888   2.477
  101SOL    HW1 1202   5.758   3.880   2.499
  101SOL    HW2 1203   5.868   3.868   2.380
  102SOL     OW 1204   4.312   0.309   0.271
  102SOL    HW1 1205   4.280   0.222   0.310
  102SOL    HW2 1206   4.234   0.362   0.239
  103SOL     OW 1207   1.941   1.186   2.185
  103SOL    HW1 1208   2.039   1.177   2.169
  103SOL    HW2 1209   1.921   1.279   2.216
  104SOL     OW 1210   6.433   4.941   1.983
  104SOL    HW1 1211   6.436   4.898   1.893
  104SOL    HW2 1212   6.376   5.023   1.978
  105SOL     OW 1213   6.838   0.571   5.841
  105SOL    HW1 1214   6.925   0.578   5.890
  105SOL    HW2 1215   6.857   0.546   5.745
  106SOL     OW 1216   4.448   3.584   1.023
  106SOL    HW1 1217   4.471   3.667   1.074
  106SOL    HW2 1218   4.490   3.505   1.067
  107SOL     OW 1219   5.827   0.168   1.791
  107SOL    HW1 1220   5.769   0.206   1.718
  107SOL    HW2 1221   5.908   0.126   1.749
  108SOL     OW 1222   2.712   1.383   4.110
  108SOL    HW1 1223   2.636   1.372   4.046
  108SOL    HW2 1224   2.745   1.293   4.139
  109SOL     OW 1225   1.840   1.436   4.426
  109SOL    HW1 1226   1.880   1.436   4.335
  109SOL    HW2 1227   1.740   1.440   4.418
  110SOL     OW 1228   3.218   4.318   5.783
  110SOL    HW1 1229   3.284   4.271   5.726
  110SOL    HW2 1230   3.170   4.388   5.729
  111SOL     OW 1231   6.231   3.048   0.801
  111SOL    HW1 1232   6.136   3.056   0.832
  111SOL    HW2 1233   6.285   3.120   0.843
  112SOL     OW 1234   5.140   6.607   6.400
  112SOL    HW1 1235   5.222   6.554   6.418
  112SOL    HW2 1236   5.069   6.546   6.364
  113SOL     OW 1237   0.252   5.356   2.855
  113SOL    HW1 1238   0.286   5.450   2.852
  113SOL    HW2 1239   0.329   5.293   2.859
  114SOL     OW 1240   0.013   2.669   2.036
  114SOL    HW1 1241   6.996   2.739   1.975
  114SOL    HW2 1242   0.113   2.668   2.027
  115SOL     OW 1243   5.605   6.964   3.491
  115SOL    HW1 1244   5.634   6.889   3.552
  115SOL    HW2 1245   5.511   6.989   3.513
  116SOL     OW 1246   0.456   5.224   0.456
  116SOL    HW1 1247   0.511   5.232   0.539
  116SOL    HW2 1248   0.391   5.300   0.452
  117SOL     OW 1249   2.115   2.871   6.805
  117SOL    HW1 1250   2.053   2.852   6.729
  117SOL    HW2 1251   2.206   2.893   6.768
  118SOL     OW 1252   0.716   2.149   2.908
  118SOL    HW1 1253   0.802   2.099   2.918
  118SOL    HW2 1254   0.674   2.161   2.998
  119SOL     OW 1255   6.136   6.705   5.446
  119SOL    HW1 1256   6.109   6.773   5.377
  119SOL    HW2 1257   6.055   6.664   5.486
  120SOL     OW 1258   5.095   1.964   4.615
  120SOL    HW1 1259   5.065   1.934   4.706
  120SOL    HW2 1260   5.079   1.890   4.549
  121SOL     OW 1261   0.590   5.182   6.880
  121SOL    HW1 1262   0.618   5.227   6.796
  121SOL    HW2 1263   0.635   5.093   6.888
  122SOL     OW 1264   6.643   4.665   6.418
  122SOL    HW1 1265   6.718   4.614   6.459
  122SOL    HW2 1266   6.679   4.737   6.359
  123SOL     OW 1267   0.553   2.322   1.498
  123SOL    HW1 1268   0.490   2.371   1.437
  123SOL    HW2 1269   0.599   2.388   1.557
  124SOL     OW 1270   1.651   2.753   6.983
  124SOL    HW1 1271   1.621   2.837   6.938
  124SOL    HW2 1272   1.654   2.679   6.917
  125SOL     OW 1273   4.424   3.247   0.219
  125SOL    HW1 1274   4.514   3.285   0.195
  125SOL    HW2 1275   4.436   3.162   0.270
  126SOL     OW 1276   3.796   2.904   4.645
  126SOL    HW1 1277   3.838   2.994   4.635
  126SOL    HW2 1278   3.856   2.834   4.605
  127SOL     OW 1279   0.502   5.484   6.084
  127SOL    HW1 1280   0.497   5.538   6.000
  127SOL    HW2 1281   0.557   5.402   6.068
  128SOL     OW 1282   5.004   3.914   6.959
  128SOL    HW1 1283   5.039   3.820   6.963
  128SOL    HW2 1284   4.964   3.930   6.868
  129SOL     OW 1285   1.284   5.748   2.459
  129SOL    HW1 1286   1.220   5.815   2.498
  129SOL    HW2 1287   1.346   5.794   2.395
  130SOL     OW 1288   6.203   3.155   4.045
  130SOL    HW1 1289   6.168   3.162   4.138
  130SOL    HW2 1290   6.303   3.142   4.047
  131SOL     OW 1291   0.035   2.589   3.298
  131SOL    HW1 1292   0.019   2.680   3.338
  131SOL    HW2 1293   7.010   2.520   3.353
  132SOL     OW 1294   3.475   2.994   1.008
  132SOL    HW1 1295   3.412   3.071   1.005
  132SOL    HW2 1296   3.444   2.927   1.076
  133SOL     OW 1297   6.167   6.464   6.420
  133SOL    HW1 1298   6.089   6.418   6.463
  133SOL    HW2 1299   6.136   6.549   6.377
  134SOL     OW 1300   5.708   1.677   1.465
  134SOL    HW1 1301   5.764   1.722   1.396
  134SOL    HW2 1302   5.690   1.740   1.540
  135SOL     OW 1303   4.980   3.574   3.697
  135SOL    HW1 1304   5.080   3.566   3.693
  135SOL    HW2 1305   4.940   3.483   3.695
  136SOL     OW 1306   3.422   0.259   6.430
  136SOL    HW1 1307   3.401   0.227   6.337
  136SOL    HW2 1308   3.460   0.352   6.425
  137SOL     OW 1309   3.319   3.451   6.274
  137SOL    HW1 1310   3.326   3.366   6.223
  137SOL    HW2 1311   3.404   3.467   6.324
  138SOL     OW 1312   1.163   5.168   6.360
  138SOL    HW1 1313   1.191   5.106   6.287
  138SOL    HW2 1314   1.123   5.250   6.320
  139SOL     OW 1315   1.167   0.044   0.841
  139SOL    HW1 1316   1.222   0.080   0.917
  139SOL    HW2 1317   1.224   7.008   0.783
  140SOL     OW 1318   3.967   0.470   1.473
  140SOL    HW1 1319   3.984   0.528   1.394
  140SOL    HW2 1320   4.036   0.397   1.476
  141SOL     OW 1321   0.453   2.801   0.461
  141SOL    HW1 1322   0.502   2.716   0.482
  141SOL    HW2 1323   0.512   2.879   0.480
  142SOL     OW 1324   1.792   3.482   1.202
  142SOL    HW1 1325   1.719   3.550   1.214
  142SOL    HW2 1326   1.880   3.523   1.226
  143SOL     OW 1327   4.802   6.735   2.240
  143SOL    HW1 1328   4.885   6.685   2.213
  143SOL    HW2 1329   4.828   6.820   2.285
  144SOL     OW 1330   3.190   5.738   3.620
  144SOL    HW1 1331   3.269   5.679   3.636
  144SOL    HW2 1332   3.107   5.683   3.619
  145SOL     OW 1333   0.289   4.457   3.399
  145SOL    HW1 1334   0.387   4.467   3.383
  145SOL    HW2 1335   0.271   4.457   3.497
  146SOL     OW 1336   4.895   0.712   6.340
  146SOL    HW1 1337   4.828   0.755   6.401
  146SOL    HW2 1338   4.919   0.622   6.376
  147SOL     OW 1339   4.842   1.058   4.945
  147SOL    HW1 1340   4.854   0.984   5.011
  147SOL    HW2 1341   4.887   1.034   4.859
  148SOL     OW 1342   1.481   5.697   1.574
  148SOL    HW1 1343   1.529   5.783   1.557
  148SOL    HW2 1344   1.519   5.653   1.655
  149SOL     OW 1345   2.171   2.593   4.855
  149SOL    HW1 1346   2.218   2.517   4.810
  149SOL    HW2 1347   2.238   2.662   4.884
  150SOL     OW 1348   4.299   1.818   5.000
  150SOL    HW1 1349   4.334   1.728   5.025
  150SOL    HW2 1350   4.338   1.845   4.912
  151SOL     OW 1351   4.772   2.611   0.983
  151SOL    HW1 1352   4.856   2.665   0.977
  151SOL    HW2 1353   4.772   2.539   0.913
  152SOL     OW 1354   0.290   2.144   0.640
  152SOL    HW1 1355   0.304   2.125   0.543
  152SOL    HW2 1356   0.194   2.128   0.664
  153SOL     OW 1357   2.337   1.379   3.504
  153SOL    HW1 1358   2.433   1.361   3.485
  153SOL    HW2 1359   2.329   1.449   3.574
  154SOL     OW 1360   6.721   2.080   2.650
  154SOL    HW1 1361   6.792   2.116   2.590
  154SOL    HW2 1362   6.639   2.138   2.643
  155SOL     OW 1363   0.195   5.667   2.771
  155SOL    HW1 1364   0.125   5.737   2.784
  155SOL    HW2 1365   0.230   5.672   2.677
  156SOL     OW 1366   5.191   2.990   0.339
  156SOL    HW1 1367   5.148   3.042   0.266
  156SOL    HW2 1368   5.206   3.048   0.419
  157SOL     OW 1369   5.033   5.991   0.801
  157SOL    HW1 1370   5.062   6.071   0.854
  157SOL    HW2 1371   4.944   5.959   0.834
  158SOL     OW 1372   0.307   2.950   3.938
  158SOL    HW1 1373   0.338   2.859   3.912
  158SOL    HW2 1374   0.385   3.012   3.946
  159SOL     OW 1375   6.192   5.684   0.277
  159SOL    HW1 1376   6.127   5.611   0.254
  159SOL    HW2 1377   6.248   5.704   0.197
  160SOL     OW 1378   6.135   6.695   1.631
  160SOL    HW1 1379   6.194   6.745   1.568
  160SOL    HW2 1380   6.184   6.677   1.716
  161SOL     OW 1381   0.610   6.747   1.150
  161SOL    HW1 1382   0.626   6.793   1.062
  161SOL    HW2 1383   0.550   6.804   1.206
  162SOL     OW 1384   4.400   6.519   6.414
  162SOL    HW1 1385   4.426   6.587   6.483
  162SOL    HW2 1386   4.465   6.522   6.338
  163SOL     OW 1387   0.929   3.806   2.599
  163SOL    HW1 1388   0.858   3.834   2.535
  163SOL    HW2 1389   1.019   3.818   2.555
  164SOL     OW 1390   2.744   2.015   3.718
  164SOL    HW1 1391   2.652   2.010   3.681
  164SOL    HW2 1392   2.740   2.017   3.818
  165SOL     OW 1393   0.477   6.710   3.653
  165SOL    HW1 1394   0.456   6.629   3.709
  165SOL    HW2 1395   0.575   6.714   3.636
  166SOL     OW 1396   6.808   3.858   3.144
  166SOL    HW1 1397   6.793   3.896   3.052
  166SOL    HW2 1398   6.797   3.931   3.212
  167SOL     OW 1399   2.816   1.924   6.595
  167SOL    HW1 1400   2.720   1.932   6.570
  167SOL    HW2 1401   2.856   2.016   6.600
  168SOL     OW 1402   3.969   3.662   1.423
  168SOL    HW1 1403   3.953   3.563   1.429
  168SOL    HW2 1404   4.055   3.678   1.375
  169SOL     OW 1405   4.715   1.772   0.774
  169SOL    HW1 1406   4.680   1.713   0.701
  169SOL    HW2 1407   4.641   1.793   0.838
  170SOL     OW 1408   6.193   6.162   1.874
  170SOL    HW1 1409   6.104   6.208   1.874
  170SOL    HW2 1410   6.196   6.097   1.798
  171SOL     OW 1411   3.619   3.329   1.032
  171SOL    HW1 1412   3.581   3.315   0.941
  171SOL    HW2 1413   3.584   3.259   1.095
  172SOL     OW 1414   0.846   2.147   6.494
  172SOL    HW1 1415   0.829   2.196   6.408
  172SOL    HW2 1416   0.793   2.063   6.495
  173SOL     OW 1417   6.346   1.139   4.260
  173SOL    HW1 1418   6.271   1.117   4.322
  173SOL    HW2 1419   6.371   1.058   4.208
  174SOL     OW 1420   5.321   4.749   4.842
  174SOL    HW1 1421   5.349   4.658   4.810
  174SOL    HW2 1422   5.348   4.760   4.938
  175SOL     OW 1423   0.130   0.135   2.232
  175SOL    HW1 1424   0.153   0.079   2.312
  175SOL    HW2 1425   0.073   0.082   2.170
  176SOL     OW 1426   6.116   4.018   1.605
  176SOL    HW1 1427   6.161   4.103   1.576
  176SOL    HW2 1428   6.153   3.990   1.693
  177SOL     OW 1429   5.713   2.119   4.138
  177SOL    HW1 1430   5.777   2.194   4.159
  177SOL    HW2 1431   5.735   2.080   4.049
  178SOL     OW 1432   2.898   6.103   5.076
  178SOL    HW1 1433   2.923   6.147   4.990
  178SOL    HW2 1434   2.813   6.052   5.064
  179SOL     OW 1435   3.579   4.393   1.655
  179SOL    HW1 1436   3.554   4.340   1.735
  179SOL    HW2 1437   3.510   4.463   1.637
  180SOL     OW 1438   3.492   0.970   0.339
  180SOL    HW1 1439   3.417   0.983   0.274
  180SOL    HW2 1440   3.577   0.959   0.288
  181SOL     OW 1441   3.020   1.718   5.450
  181SOL    HW1 1442   3.109   1.728   5.407
  181SOL    HW2 1443   3.007   1.790   5.518
  182SOL     OW 1444   3.569   2.685   6.581
  182SOL    HW1 1445   3.538   2.724   6.495
  182SOL    HW2 1446   3.536   2.740   6.657
  183SOL     OW 1447   3.605   0.844   3.506
  183SOL    HW1 1448   3.511   0.812   3.511
  183SOL    HW2 1449   3.631   0.856   3.410
  184SOL     OW 1450   5.083   5.930   3.550
  184SOL    HW1 1451   5.174   5.888   3.559
  184SOL    HW2 1452   5.049   5.917   3.457
  185SOL     OW 1453   0.046   0.499   5.045
  185SOL    HW1 1454   6.996   0.429   5.044
  185SOL    HW2 1455   0.023   0.568   5.113
  186SOL     OW 1456   4.431   6.625   4.794
  186SOL    HW1 1457   4.483   6.540   4.781
  186SOL    HW2 1458   4.334   6.607   4.782
  187SOL     OW 1459   4.106   6.024   1.422
  187SOL    HW1 1460   4.173   6.021   1.496
  187SOL    HW2 1461   4.018   6.057   1.458
  188SOL     OW 1462   1.336   3.230   3.086
  188SOL    HW1 1463   1.378   3.313   3.049
  188SOL    HW2 1464   1.403   3.155   3.086
  189SOL     OW 1465   5.784   5.141   5.774
  189SOL    HW1 1466   5.792   5.229   5.728
  189SOL    HW2 1467   5.833   5.071   5.721
  190SOL     OW 1468   5.676   0.926   0.286
  190SOL    HW1 1469   5.708   0.914   0.380
  190SOL    HW2 1470   5.587   0.973   0.288
  191SOL     OW 1471   0.195   1.161   5.694
  191SOL    HW1 1472   0.171   1.256   5.673
  191SOL    HW2 1473   0.133   1.125   5.764
  192SOL     OW 1474   6.827   5.306   1.203
  192SOL    HW1 1475   6.841   5.209   1.220
  192SOL    HW2 1476   6.823   5.323   1.105
  193SOL     OW 1477   2.795   6.427   0.205
  193SOL    HW1 1478   2.709   6.403   0.160
  193SOL    HW2 1479   2.814   6.525   0.191
  194SOL     OW 1480   3.670   6.530   2.147
  194SOL    HW1 1481   3.713   6.608   2.192
  194SOL    HW2 1482   3.633   6.559   2.058
  195SOL     OW 1483   3.463   1.422   1.154
  195SOL    HW1 1484   3.533   1.357   1.184
  195SOL    HW2 1485   3.483   1.513   1.191
  196SOL     OW 1486   3.083   2.225   0.214
  196SOL    HW1 1487   3.031   2.235   0.128
  196SOL    HW2 1488   3.063   2.135   0.253
  197SOL     OW 1489   2.127   6.701   0.437
  197SOL    HW1 1490   2.174   6.762   0.373
  197SOL    HW2 1491   2.091   6.754   0.513
  198SOL     OW 1492   4.117   0.482   6.564
  198SOL    HW1 1493   4.209   0.520   6.564
  198SOL    HW2 1494   4.120   0.388   6.599
  199SOL     OW 1495   0.203   0.314   2.484
  199SOL    HW1 1496   0.279   0.253   2.507
  199SOL    HW2 1497   0.236   0.384   2.420
  200SOL     OW 1498   0.784   3.994   2.884
  200SOL    HW1 1499   0.867   3.943   2.909
  200SOL    HW2 1500   0.800   4.044   2.800
  201SOL     OW 1501   4.599   1.291   6.605
  201SOL    HW1 1502   4.647   1.343   6.676
  201SOL    HW2 1503   4.643   1.201   6.594
  202SOL     OW 1504   3.642   0.739   2.468
  202SOL    HW1 1505   3.543   0.750   2.476
  202SOL    HW2 1506   3.684   0.829   2.456
  203SOL     OW 1507   5.640   2.631   0.007
  203SOL    HW1 1508   5.671   2.726   0.003
  203SOL    HW2 1509   5.717   2.569   7.014
  204SOL     OW 1510   2.661   6.051   1.613
  204SOL    HW1 1511   2.652   5.993   1.532
  204SOL    HW2 1512   2.625   6.003   1.693
  205SOL     OW 1513   6.199   0.886   0.076
  205SOL    HW1 1514   6.269   0.950   0.043
  205SOL    HW2 1515   6.232   0.840   0.158
  206SOL     OW 1516   0.386   4.505   1.900
  206SOL    HW1 1517   0.347   4.593   1.926
  206SOL    HW2 1518   0.473   4.492   1.948
  207SOL     OW 1519   4.726   1.419   5.319
  207SOL    HW1 1520   4.760   1.349   5.255
  207SOL    HW2 1521   4.626   1.420   5.318
  208SOL     OW 1522   3.380   4.454   6.203
  208SOL    HW1 1523   3.310   4.500   6.258
  208SOL    HW2 1524   3.398   4.363   6.241
  209SOL     OW 1525   6.457   5.511   5.574
  209SOL    HW1 1526   6.403   5.456   5.511
  209SOL    HW2 1527   6.395   5.565   5.633
  210SOL     OW 1528   3.648   2.059   2.235
  210SOL    HW1 1529   3.637   2.129   2.165
  210SOL    HW2 1530   3.566   2.003   2.239
  211SOL     OW 1531   1.074   2.101   1.585
  211SOL    HW1 1532   1.004   2.034   1.560
  211SOL    HW2 1533   1.099   2.155   1.504
  212SOL     OW 1534   0.659   4.646   3.855
  212SOL    HW1 1535   0.636   4.620   3.761
  212SOL    HW2 1536   0.707   4.570   3.900
  213SOL     OW 1537   4.371   2.457   6.770
  213SOL    HW1 1538   4.432   2.528   6.737
  213SOL    HW2 1539   4.309   2.496   6.839
  214SOL     OW 1540   0.818   0.107   2.541
  214SOL    HW1 1541   0.864   0.098   2.452
  214SOL    HW2 1542   0.886   0.104   2.614
  215SOL     OW 1543   3.225   3.286   2.446
  215SOL    HW1 1544   3.156   3.252   2.509
  215SOL    HW2 1545   3.309   3.232   2.457
  216SOL     OW 1546   1.281   6.157   5.643
  216SOL    HW1 1547   1.313   6.083   5.584
  216SOL    HW2 1548   1.291   6.130   5.739
  217SOL     OW 1549   0.134   2.579   3.670
  217SOL    HW1 1550   0.129   2.678   3.683
  217SOL    HW2 1551   0.215   2.543   3.717
  218SOL     OW 1552   1.123   3.833   5.294
  218SOL    HW1 1553   1.160   3.852   5.203
  218SOL    HW2 1554   1.192   3.787   5.350
  219SOL     OW 1555   4.680   5.557   0.069
  219SOL    HW1 1556   4.689   5.576   0.167
  219SOL    HW2 1557   4.630   5.471   0.056
  220SOL     OW 1558   2.033   4.534   0.955
  220SOL    HW1 1559   2.087   4.505   1.035
  220SOL    HW2 1560   2.006   4.453   0.903
  221SOL     OW 1561   6.649   2.668   3.851
  221SOL    HW1 1562   6.555   2.640   3.835
  221SOL    HW2 1563   6.694   2.604   3.913
  222SOL     OW 1564   1.272   6.407   5.192
  222SOL    HW1 1565   1.204   6.473   5.224
  222SOL    HW2 1566   1.361   6.451   5.183
  223SOL     OW 1567   6.406   3.834   1.561
  223SOL    HW1 1568   6.332   3.836   1.493
  223SOL    HW2 1569   6.372   3.865   1.649
  224SOL     OW 1570   3.447   2.083   1.980
  224SOL    HW1 1571   3.450   2.021   1.902
  224SOL    HW2 1572   3.533   2.133   1.986
  225SOL     OW 1573   0.468   6.929   0.737
  225SOL    HW1 1574   0.374   6.896   0.733
  225SOL    HW2 1575   0.526   6.870   0.680
  226SOL     OW 1576   0.146   5.607   1.182
  226SOL    HW1 1577   0.146   5.522   1.235
  226SOL    HW2 1578   0.122   5.684   1.241
  227SOL     OW 1579   1.708   3.069   3.591
  227SOL    HW1 1580   1.757   3.157   3.596
  227SOL    HW2 1581   1.694   3.044   3.495
  228SOL     OW 1582   3.746   0.037   2.834
  228SOL    HW1 1583   3.769   0.104   2.763
  228SOL    HW2 1584   3.734   0.084   2.921
  229SOL     OW 1585   5.767   5.468   2.548
  229SOL    HW1 1586   5.834   5.424   2.606
  229SOL    HW2 1587   5.751   5.413   2.466
  230SOL     OW 1588   1.586   4.393   5.503
  230SOL    HW1 1589   1.555   4.386   5.408
  230SOL    HW2 1590   1.684   4.374   5.508
  231SOL     OW 1591   0.609   2.011   6.882
  231SOL    HW1 1592   0.644   1.945   6.815
  231SOL    HW2 1593   0.574   1.961   6.961
  232SOL     OW 1594   2.123   4.702   6.365
  232SOL    HW1 1595   2.164   4.664   6.282
  232SOL    HW2 1596   2.024   4.698   6.357
  233SOL     OW 1597   2.782   1.105   6.116
  233SOL    HW1 1598   2.711   1.137   6.053
  233SOL    HW2 1599   2.805   1.010   6.095
  234SOL     OW 1600   3.104   5.913   0.062
  234SOL    HW1 1601   3.016   5.872   0.087
  234SOL    HW2 1602   3.093   6.011   0.048
  235SOL     OW 1603   3.340   3.095   5.063
  235SOL    HW1 1604   3.343   3.113   4.965
  235SOL    HW2 1605   3.424   3.049   5.091
  236SOL     OW 1606   6.918   2.305   5.558
  236SOL    HW1 1607   6.998   2.274   5.505
  236SOL    HW2 1608   6.948   2.370   5.628
  237SOL     OW 1609   0.231   0.423   1.812
  237SOL    HW1 1610   0.243   0.350   1.879
  237SOL    HW2 1611   0.133   0.434   1.792
  238SOL     OW 1612   6.525   2.115   2.251
  238SOL    HW1 1613   6.473   2.075   2.176
  238SOL    HW2 1614   6.578   2.044   2.297
  239SOL     OW 1615   0.403   5.436   0.757
  239SOL    HW1 1616   0.427   5.463   0.664
  239SOL    HW2 1617   0.483   5.394   0.801
  240SOL     OW 1618   6.458   3.784   5.227
  240SOL    HW1 1619   6.515   3.721   5.174
  240SOL    HW2 1620   6.454   3.753   5.322
  241SOL     OW 1621   6.717   1.520   3.690
  241SOL    HW1 1622   6.626   1.550   3.660
  241SOL    HW2 1623   6.778   1.518   3.611
  242SOL     OW 1624   2.239   2.355   3.285
  242SOL    HW1 1625   2.312   2.412   3.250
  242SOL    HW2 1626   2.259   2.259   3.266
  243SOL     OW 1627   4.453   1.443   5.407
  243SOL    HW1 1628   4.370   1.393   5.432
  243SOL    HW2 1629   4.446   1.538   5.437
  244SOL     OW 1630   6.593   0.610   6.175
  244SOL    HW1 1631   6.553   0.653   6.094
  244SOL    HW2 1632   6.584   0.510   6.168
  245SOL     OW 1633   6.071   2.203   3.459
  245SOL    HW1 1634   6.077   2.122   3.518
  245SOL    HW2 1635   6.125   2.186   3.376
  246SOL     OW 1636   4.861   3.339   3.646
  246SOL    HW1 1637   4.874   3.313   3.550
  246SOL    HW2 1638   4.778   3.297   3.681
  247SOL     OW 1639   3.347   0.765   3.495
  247SOL    HW1 1640   3.285   0.830   3.451
  247SOL    HW2 1641   3.301   0.718   3.570
  248SOL     OW 1642   5.600   1.614   2.594
  248SOL    HW1 1643   5.610   1.604   2.495
  248SOL    HW2 1644   5.531   1.551   2.628
  249SOL     OW 1645   2.420   6.763   3.761
  249SOL    HW1 1646   2.442   6.726   3.671
  249SOL    HW2 1647   2.430   6.692   3.830
  250SOL     OW 1648   5.204   3.045   6.055
  250SOL    HW1 1649   5.285   3.018   6.004
  250SOL    HW2 1650   5.124   2.996   6.019
  251SOL     OW 1651   2.153   2.473   0.923
  251SOL    HW1 1652   2.139   2.434   1.014
  251SOL    HW2 1653   2.121   2.408   0.854
  252SOL     OW 1654   0.488   1.635   6.645
  252SOL    HW1 1655   0.510   1.553   6.593
  252SOL    HW2 1656   0.411   1.683   6.602
  253SOL     OW 1657   1.851   3.900   5.377
  253SOL    HW1 1658   1.911   3.960   5.429
  253SOL    HW2 1659   1.818   3.827   5.435
  254SOL     OW 1660   5.757   3.305   5.485
  254SOL    HW1 1661   5.727   3.311   5.580
  254SOL    HW2 1662   5.726   3.219   5.444
  255SOL     OW 1663   3.363   2.089   3.312
  255SOL    HW1 1664   3.390   2.108   3.407
  255SOL    HW2 1665   3.436   2.118   3.250
  256SOL     OW 1666   6.746   5.818   0.170
  256SOL    HW1 1667   6.678   5.881   0.208
  256SOL    HW2 1668   6.810   5.869   0.113
  257SOL     OW 1669   3.192   5.581   6.319
  257SOL    HW1 1670   3.150   5.672   6.310
  257SOL    HW2 1671   3.172   5.527   6.237
  258SOL     OW 1672   5.190   3.895   4.288
  258SOL    HW1 1673   5.093   3.895   4.266
  258SOL    HW2 1674   5.236   3.969   4.238
  259SOL     OW 1675   1.471   1.752   2.918
  259SOL    HW1 1676   1.536   1.705   2.858
  259SOL    HW2 1677   1.383   1.704   2.914
  260SOL     OW 1678   6.689   6.810   5.959
  260SOL    HW1 1679   6.626   6.792   6.034
  260SOL    HW2 1680   6.740   6.726   5.938
  261SOL     OW 1681   1.360   1.985   2.795
  261SOL    HW1 1682   1.437   2.045   2.813
  261SOL    HW2 1683   1.371   1.900   2.847
  262SOL     OW 1684   1.819   5.000   1.810
  262SOL    HW1 1685   1.860   4.994   1.902
  262SOL    HW2 1686   1.872   4.943   1.747
  263SOL     OW 1687   0.101   2.018   5.111
  263SOL    HW1 1688   0.068   1.996   5.203
  263SOL    HW2 1689   0.187   2.069   5.117
  264SOL     OW 1690   2.755   4.161   6.002
  264SOL    HW1 1691   2.667   4.204   6.020
  264SOL    HW2 1692   2.828   4.217   6.043
  265SOL     OW 1693   5.791   5.361   5.606
  265SOL    HW1 1694   5.810   5.448   5.560
  265SOL    HW2 1695   5.812   5.286   5.543
  266SOL     OW 1696   3.549   2.258   6.982
  266SOL    HW1 1697   3.451   2.265   7.002
  266SOL    HW2 1698   3.600   2.305   0.032
  267SOL     OW 1699   1.649   1.567   5.877
  267SOL    HW1 1700   1.635   1.518   5.963
  267SOL    HW2 1701   1.564   1.567   5.824
  268SOL     OW 1702   3.219   5.756   4.020
  268SOL    HW1 1703   3.316   5.766   3.999
  268SOL    HW2 1704   3.209   5.719   4.113
  269SOL     OW 1705   1.749   1.232   5.855
  269SOL    HW1 1706   1.811   1.219   5.777
  269SOL    HW2 1707   1.673   1.168   5.848
  270SOL     OW 1708   5.262   7.012   4.396
  270SOL    HW1 1709   5.177   0.010   4.445
  270SOL    HW2 1710   5.242   6.996   4.299
  271SOL     OW 1711   1.497   1.675   6.968
  271SOL    HW1 1712   1.417   1.734   6.973
  271SOL    HW2 1713   1.578   1.726   6.997
  272SOL     OW 1714   5.035   5.858   2.460
  272SOL    HW1 1715   5.081   5.827   2.377
  272SOL    HW2 1716   4.954   5.802   2.477
  273SOL     OW 1717   3.085   6.988   5.181
  273SOL    HW1 1718   3.003   6.996   5.238
  273SOL    HW2 1719   3.100   6.892   5.158
  274SOL     OW 1720   5.887   1.781   0.989
  274SOL    HW1 1721   5.791   1.759   1.009
  274SOL    HW2 1722   5.921   1.845   1.057
  275SOL     OW 1723   5.555   5.849   4.977
  275SOL    HW1 1724   5.509   5.844   4.888
  275SOL    HW2 1725   5.599   5.938   4.987
  276SOL     OW 1726   0.180   6.430   3.768
  276SOL    HW1 1727   0.267   6.463   3.803
  276SOL    HW2 1728   0.170   6.333   3.790
  277SOL     OW 1729   4.789   1.823   5.592
  277SOL    HW1 1730   4.749   1.820   5.501
  277SOL    HW2 1731   4.742   1.893   5.647
  278SOL     OW 1732   5.871   3.149   3.556
  278SOL    HW1 1733   5.863   3.219   3.486
  278SOL    HW2 1734   5.959   3.156   3.602
  279SOL     OW 1735   0.933   3.934   4.301
  279SOL    HW1 1736   0.954   4.025   4.263
  279SOL    HW2 1737   0.844   3.937   4.347
  280SOL     OW 1738   3.134   0.936   3.455
  280SOL    HW1 1739   3.062   0.923   3.523
  280SOL    HW2 1740   3.094   0.942   3.364
  281SOL     OW 1741   5.310   6.801   4.544
  281SOL    HW1 1742   5.295   6.888   4.498
  281SOL    HW2 1743   5.383   6.811   4.612
  282SOL     OW 1744   1.931   2.358   0.259
  282SOL    HW1 1745   1.959   2.263   0.271
  282SOL    HW2 1746   2.010   2.418   0.269
  283SOL     OW 1747   6.330   2.538   4.553
  283SOL    HW1 1748   6.417   2.501   4.586
  283SOL    HW2 1749   6.268   2.551   4.630
  284SOL     OW 1750   4.687   5.307   3.064
  284SOL    HW1 1751   4.639   5.238   3.010
  284SOL    HW2 1752   4.710   5.385   3.005
  285SOL     OW 1753   4.579   0.474   5.645
  285SOL    HW1 1754   4.593   0.524   5.560
  285SOL    HW2 1755   4.665   0.432   5.674
  286SOL     OW 1756   2.511   5.003   5.455
  286SOL    HW1 1757   2.596   4.950   5.465
  286SOL    HW2 1758   2.474   5.024   5.545
  287SOL     OW 1759   3.178   0.125   6.494
  287SOL    HW1 1760   3.247   0.196   6.476
  287SOL    HW2 1761   3.133   0.143   6.582
  288SOL     OW 1762   3.958   0.952   1.037
  288SOL    HW1 1763   3.936   0.900   1.119
  288SOL    HW2 1764   3.940   0.897   0.955
  289SOL     OW 1765   6.185   5.917   3.369
  289SOL    HW1 1766   6.224   6.009   3.375
  289SOL    HW2 1767   6.246   5.857   3.319
  290SOL     OW 1768   3.335   0.569   6.157
  290SOL    HW1 1769   3.396   0.493   6.176
  290SOL    HW2 1770   3.345   0.597   6.061
  291SOL     OW 1771   3.540   0.192   4.872
  291SOL    HW1 1772   3.531   0.290   4.856
  291SOL    HW2 1773   3.462   0.144   4.830
  292SOL     OW 1774   4.889   0.624   4.129
  292SOL    HW1 1775   4.857   0.697   4.068
  292SOL    HW2 1776   4.882   0.655   4.224
  293SOL     OW 1777   5.674   6.893   2.047
  293SOL    HW1 1778   5.671   6.992   2.060
  293SOL    HW2 1779   5.757   6.856   2.087
  294SOL     OW 1780   5.774   1.103   6.201
  294SOL    HW1 1781   5.795   1.201   6.204
  294SOL    HW2 1782   5.810   1.064   6.117
  295SOL     OW 1783   1.361   1.175   5.107
  295SOL    HW1 1784   1.321   1.105   5.167
  295SOL    HW2 1785   1.296   1.196   5.034
  296SOL     OW 1786   0.190   2.073   1.117
  296SOL    HW1 1787   0.243   2.154   1.090
  296SOL    HW2 1788   0.213   2.049   1.212
  297SOL     OW 1789   5.190   3.446   3.188
  297SOL    HW1 1790   5.283   3.433   3.153
  297SOL    HW2 1791   5.193   3.507   3.267
  298SOL     OW 1792   4.370   0.478   6.340
  298SOL    HW1 1793   4.466   0.499   6.324
  298SOL    HW2 1794   4.356   0.379   6.334
  299SOL     OW 1795   0.668   0.562   0.041
  299SOL    HW1 1796   0.648   0.654   0.077
  299SOL    HW2 1797   0.737   0.570   6.990
  300SOL     OW 1798   4.163   0.235   3.835
  300SOL    HW1 1799   4.137   0.139   3.819
  300SOL    HW2 1800   4.083   0.287   3.861
  301SOL     OW 1801   6.560   5.674   0.403
  301SOL    HW1 1802   6.530   5.769   0.392
  301SOL    HW2 1803   6.553   5.626   0.316
  302SOL     OW 1804   6.990   5.299   2.179
  302SOL    HW1 1805   0.031   5.376   2.191
  302SOL    HW2 1806   0.022   5.216   2.160
  303SOL     OW 1807   5.403   5.687   3.208
  303SOL    HW1 1808   5.304   5.692   3.195
  303SOL    HW2 1809   5.434   5.767   3.259
  304SOL     OW 1810   2.761   5.970   4.797
  304SOL    HW1 1811   2.744   5.874   4.821
  304SOL    HW2 1812   2.709   5.993   4.715
  305SOL     OW 1813   1.077   2.981   1.837
  305SOL    HW1 1814   1.133   2.950   1.760
  305SOL    HW2 1815   1.030   2.902   1.877
  306SOL     OW 1816   0.157   6.873   3.186
  306SOL    HW1 1817   0.157   6.973   3.196
  306SOL    HW2 1818   0.189   6.849   3.094
  307SOL     OW 1819   3.385   2.981   4.092
  307SOL    HW1 1820   3.361   2.895   4.138
  307SOL    HW2 1821   3.427   2.961   4.004
  308SOL     OW 1822   6.159   2.141   2.883
  308SOL    HW1 1823   6.083   2.178   2.936
  308SOL    HW2 1824   6.233   2.208   2.879
  309SOL     OW 1825   1.643   6.162   6.695
  309SOL    HW1 1826   1.560   6.198   6.654
  309SOL    HW2 1827   1.723   6.196   6.646
  310SOL     OW 1828   5.398   0.272   5.699
  310SOL    HW1 1829   5.339   0.332   5.646
  310SOL    HW2 1830   5.376   0.282   5.797
  311SOL     OW 1831   1.836   5.861   2.620
  311SOL    HW1 1832   1.751   5.814   2.598
  311SOL    HW2 1833   1.858   5.927   2.548
  312SOL     OW 1834   3.768   0.633   3.591
  312SOL    HW1 1835   3.831   0.622   3.515
  312SOL    HW2 1836   3.699   0.702   3.568
  313SOL     OW 1837   3.162   3.439   2.733
  313SOL    HW1 1838   3.149   3.352   2.779
  313SOL    HW2 1839   3.107   3.510   2.778
  314SOL     OW 1840   3.163   5.800   6.007
  314SOL    HW1 1841   3.169   5.821   6.104
  314SOL    HW2 1842   3.097   5.727   5.992
  315SOL     OW 1843   6.181   0.769   4.451
  315SOL    HW1 1844   6.235   0.697   4.493
  315SOL    HW2 1845   6.137   0.734   4.368
  316SOL     OW 1846   3.954   1.095   6.229
  316SOL    HW1 1847   4.010   1.045   6.296
  316SOL    HW2 1848   3.898   1.031   6.178
  317SOL     OW 1849   1.088   1.876   1.190
  317SOL    HW1 1850   1.037   1.839   1.113
  317SOL    HW2 1851   1.026   1.921   1.254
  318SOL     OW 1852   0.451   0.445   4.875
  318SOL    HW1 1853   0.494   0.531   4.905
  318SOL    HW2 1854   0.406   0.402   4.953
  319SOL     OW 1855   1.293   1.518   2.985
  319SOL    HW1 1856   1.264   1.573   3.063
  319SOL    HW2 1857   1.213   1.481   2.938
  320SOL     OW 1858   6.038   2.416   6.086
  320SOL    HW1 1859   6.049   2.424   5.987
  320SOL    HW2 1860   6.016   2.322   6.110
  321SOL     OW 1861   4.657   3.211   0.469
  321SOL    HW1 1862   4.746   3.182   0.434
  321SOL    HW2 1863   4.613   3.134   0.515
  322SOL     OW 1864   3.150   3.363   6.043
  322SOL    HW1 1865   3.139   3.427   6.119
  322SOL    HW2 1866   3.147   3.269   6.078
  323SOL     OW 1867   1.070   3.558   2.097
  323SOL    HW1 1868   1.163   3.534   2.070
  323SOL    HW2 1869   1.068   3.581   2.194
  324SOL     OW 1870   0.503   0.455   3.304
  324SOL    HW1 1871   0.429   0.394   3.278
  324SOL    HW2 1872   0.570   0.405   3.359
  325SOL     OW 1873   6.456   3.869   1.219
  325SOL    HW1 1874   6.549   3.880   1.252
  325SOL    HW2 1875   6.403   3.952   1.238
  326SOL     OW 1876   1.050   6.344   6.381
  326SOL    HW1 1877   1.030   6.250   6.352
  326SOL    HW2 1878   1.006   6.408   6.319
  327SOL     OW 1879   5.383   5.651   3.956
  327SOL    HW1 1880   5.431   5.737   3.939
  327SOL    HW2 1881   5.309   5.640   3.889
  328SOL     OW 1882   2.083   3.991   2.752
  328SOL    HW1 1883   2.118   3.994   2.845
  328SOL    HW2 1884   1.983   3.992   2.754
  329SOL     OW 1885   3.202   2.976   1.581
  329SOL    HW1 1886   3.262   2.912   1.532
  329SOL    HW2 1887   3.227   2.978   1.677
  330SOL     OW 1888   2.922   5.085   0.931
  330SOL    HW1 1889   2.875   5.097   1.018
  330SOL    HW2 1890   2.937   4.987   0.915
  331SOL     OW 1891   6.478   5.521   6.521
  331SOL    HW1 1892   6.513   5.446   6.578
  331SOL    HW2 1893   6.381   5.506   6.502
  332SOL     OW 1894   5.806   2.244   3.394
  332SOL    HW1 1895   5.904   2.242   3.415
  332SOL    HW2 1896   5.781   2.332   3.355
  333SOL     OW 1897   3.185   0.839   5.760
  333SOL    HW1 1898   3.130   0.784   5.697
  333SOL    HW2 1899   3.145   0.931   5.766
  334SOL     OW 1900   3.736   3.637   3.365
  334SOL    HW1 1901   3.658   3.680   3.411
  334SOL    HW2 1902   3.811   3.703   3.359
  335SOL     OW 1903   3.707   1.641   0.946
  335SOL    HW1 1904   3.783   1.598   0.897
  335SOL    HW2 1905   3.741   1.678   1.032
  336SOL     OW 1906   2.787   1.840   4.105
  336SOL    HW1 1907   2.767   1.750   4.144
  336SOL    HW2 1908   2.822   1.900   4.177
  337SOL     OW 1909   1.179   1.136   5.682
  337SOL    HW1 1910   1.278   1.149   5.677
  337SOL    HW2 1911   1.140   1.204   5.745
  338SOL     OW 1912   4.120   1.423   1.424
  338SOL    HW1 1913   4.194   1.401   1.361
  338SOL    HW2 1914   4.155   1.422   1.518
  339SOL     OW 1915   3.772   6.063   4.784
  339SOL    HW1 1916   3.843   6.009   4.740
  339SOL    HW2 1917   3.760   6.149   4.735
  340SOL     OW 1918   5.324   2.371   4.369
  340SOL    HW1 1919   5.276   2.336   4.289
  340SOL    HW2 1920   5.318   2.305   4.444
  341SOL     OW 1921   6.180   7.002   3.149
  341SOL    HW1 1922   6.103   0.046   3.149
  341SOL    HW2 1923   6.262   0.026   3.116
  342SOL     OW 1924   4.230   2.296   2.218
  342SOL    HW1 1925   4.297   2.320   2.148
  342SOL    HW2 1926   4.158   2.366   2.221
  343SOL     OW 1927   7.011   6.072   2.437
  343SOL    HW1 1928   0.012   6.093   2.532
  343SOL    HW2 1929   7.004   6.157   2.384
  344SOL     OW 1930   1.128   2.153   0.852
  344SOL    HW1 1931   1.035   2.116   0.857
  344SOL    HW2 1932   1.176   2.113   0.774
  345SOL     OW 1933   6.616   3.548   4.127
  345SOL    HW1 1934   6.581   3.514   4.040
  345SOL    HW2 1935   6.606   3.648   4.130
  346SOL     OW 1936   1.794   6.505   3.573
  346SOL    HW1 1937   1.853   6.424   3.572
  346SOL    HW2 1938   1.772   6.532   3.480
  347SOL     OW 1939   2.392   5.332   0.662
  347SOL    HW1 1940   2.394   5.246   0.713
  347SOL    HW2 1941   2.350   5.316   0.572
  348SOL     OW 1942   4.333   5.030   1.279
  348SOL    HW1 1943   4.419   5.053   1.233
  348SOL    HW2 1944   4.314   5.098   1.351
  349SOL     OW 1945   5.762   4.295   1.563
  349SOL    HW1 1946   5.809   4.378   1.595
  349SOL    HW2 1947   5.670   4.319   1.531
  350SOL     OW 1948   3.426   2.636   0.326
  350SOL    HW1 1949   3.522   2.606   0.326
  350SOL    HW2 1950   3.417   2.719   0.271
  351SOL     OW 1951   3.224   4.312   0.830
  351SOL    HW1 1952   3.221   4.285   0.926
  351SOL    HW2 1953   3.131   4.312   0.793
  352SOL     OW 1954   4.049   0.291   3.007
  352SOL    HW1 1955   4.088   0.261   2.919
  352SOL    HW2 1956   3.980   0.361   2.990
  353SOL     OW 1957   2.037   6.604   6.204
  353SOL    HW1 1958   2.003   6.695   6.225
  353SOL    HW2 1959   2.114   6.610   6.140
  354SOL     OW 1960   0.410   2.754   0.201
  354SOL    HW1 1961   0.386   2.787   0.292
  354SOL    HW2 1962   0.490   2.694   0.207
  355SOL     OW 1963   1.420   1.656   2.443
  355SOL    HW1 1964   1.346   1.694   2.498
  355SOL    HW2 1965   1.483   1.729   2.416
  356SOL     OW 1966   1.619   0.945   5.908
  356SOL    HW1 1967   1.588   0.904   5.994
  356SOL    HW2 1968   1.718   0.932   5.900
  357SOL     OW 1969   5.281   0.245   5.378
  357SOL    HW1 1970   5.276   0.149   5.351
  357SOL    HW2 1971   5.193   0.274   5.415
  358SOL     OW 1972   3.597   5.588   6.653
  358SOL    HW1 1973   3.551   5.543   6.730
  358SOL    HW2 1974   3.693   5.559   6.652
  359SOL     OW 1975   2.194   1.921   2.900
  359SOL    HW1 1976   2.140   1.864   2.838
  359SOL    HW2 1977   2.253   1.981   2.847
  360SOL     OW 1978   1.233   4.217   4.085
  360SOL    HW1 1979   1.165   4.212   4.158
  360SOL    HW2 1980   1.284   4.303   4.093
  361SOL     OW 1981   6.513   1.585   2.980
  361SOL    HW1 1982   6.601   1.562   2.938
  361SOL    HW2 1983   6.438   1.550   2.924
  362SOL     OW 1984   3.754   4.754   0.822
  362SOL    HW1 1985   3.663   4.778   0.855
  362SOL    HW2 1986   3.802   4.702   0.892
  363SOL     OW 1987   5.241   5.535   1.998
  363SOL    HW1 1988   5.300   5.590   2.057
  363SOL    HW2 1989   5.246   5.571   1.904
  364SOL     OW 1990   0.956   6.499   6.175
  364SOL    HW1 1991   0.986   6.445   6.097
  364SOL    HW2 1992   0.952   6.596   6.149
  365SOL     OW 1993   4.382   1.880   3.459
  365SOL    HW1 1994   4.402   1.840   3.549
  365SOL    HW2 1995   4.283   1.894   3.450
  366SOL     OW 1996   4.999   2.250   0.091
  366SOL    HW1 1997   5.079   2.214   0.044
  366SOL    HW2 1998   4.978   2.342   0.057
  367SOL     OW 1999   5.282   1.792   5.660
  367SOL    HW1 2000   5.328   1.757   5.578
  367SOL    HW2 2001   5.184   1.776   5.653
  368SOL     OW 2002   6.648   2.284   5.630
  368SOL    HW1 2003   6.626   2.219   5.703
  368SOL    HW2 2004   6.747   2.284   5.614
  369SOL     OW 2005   6.258   3.402   2.113
  369SOL    HW1 2006   6.174   3.452   2.091
  369SOL    HW2 2007   6.246   3.353   2.199
  370SOL     OW 2008   1.262   3.051   3.758
  370SOL    HW1 2009   1.284   3.148   3.762
  370SOL    HW2 2010   1.346   2.998   3.762
  371SOL     OW 2011   1.192   4.878   0.216
  371SOL    HW1 2012   1.102   4.882   0.260
  371SOL    HW2 2013   1.208   4.962   0.164
  372SOL     OW 2014   3.421   5.922   6.143
  372SOL    HW1 2015   3.439   5.830   6.109
  372SOL    HW2 2016   3.429   5.988   6.068
  373SOL     OW 2017   5.704   5.346   4.222
  373SOL    HW1 2018   5.803   5.352   4.216
  373SOL    HW2 2019   5.663   5.429   4.184
  374SOL     OW 2020   2.915   1.846   3.049
  374SOL    HW1 2021   2.838   1.785   3.065
  374SOL    HW2 2022   2.991   1.794   3.010
  375SOL     OW 2023   1.275   5.309   4.532
  375SOL    HW1 2024   1.295   5.405   4.554
  375SOL    HW2 2025   1.360   5.257   4.527
  376SOL     OW 2026   2.865   0.732   3.999
  376SOL    HW1 2027   2.888   0.828   3.988
  376SOL    HW2 2028   2.782   0.723   4.054
  377SOL     OW 2029   0.811   1.796   6.244
  377SOL    HW1 2030   0.735   1.852   6.210
  377SOL    HW2 2031   0.824   1.813   6.342
  378SOL     OW 2032   4.116   1.041   2.093
  378SOL    HW1 2033   4.057   1.118   2.067
  378SOL    HW2 2034   4.113   0.971   2.022
  379SOL     OW 2035   5.909   1.858   6.561
  379SOL    HW1 2036   5.965   1.821   6.487
  379SOL    HW2 2037   5.921   1.801   6.643
  380SOL     OW 2038   4.015   2.403   0.756
  380SOL    HW1 2039   3.957   2.475   0.795
  380SOL    HW2 2040   4.106   2.439   0.740
  381SOL     OW 2041   1.778   3.736   2.630
  381SOL    HW1 2042   1.728   3.746   2.545
  381SOL    HW2 2043   1.865   3.689   2.613
  382SOL     OW 2044   4.999   0.785   6.964
  382SOL    HW1 2045   5.007   0.770   6.866
  382SOL    HW2 2046   5.077   0.839   6.996
  383SOL     OW 2047   4.531   2.458   0.739
  383SOL    HW1 2048   4.558   2.403   0.818
  383SOL    HW2 2049   4.598   2.447   0.666
  384SOL     OW 2050   5.823   3.861   4.668
  384SOL    HW1 2051   5.745   3.800   4.682
  384SOL    HW2 2052   5.793   3.944   4.621
  385SOL     OW 2053   4.100   3.860   0.657
  385SOL    HW1 2054   4.188   3.888   0.618
  385SOL    HW2 2055   4.029   3.923   0.628
  386SOL     OW 2056   3.892   6.345   3.492
  386SOL    HW1 2057   3.809   6.329   3.546
  386SOL    HW2 2058   3.868   6.350   3.395
  387SOL     OW 2059   2.458   6.599   3.454
  387SOL    HW1 2060   2.469   6.661   3.376
  387SOL    HW2 2061   2.399   6.523   3.428
  388SOL     OW 2062   2.026   4.387   6.393
  388SOL    HW1 2063   1.929   4.362   6.395
  388SOL    HW2 2064   2.039   4.476   6.436
  389SOL     OW 2065   3.055   3.781   3.552
  389SOL    HW1 2066   2.975   3.731   3.519
  389SOL    HW2 2067   3.138   3.735   3.521
  390SOL     OW 2068   2.208   1.175   4.019
  390SOL    HW1 2069   2.169   1.147   3.931
  390SOL    HW2 2070   2.218   1.275   4.020
  391SOL     OW 2071   1.097   3.176   6.869
  391SOL    HW1 2072   1.014   3.157   6.816
  391SOL    HW2 2073   1.075   3.171   6.967
  392SOL     OW 2074   2.437   5.591   2.722
  392SOL    HW1 2075   2.411   5.633   2.635
  392SOL    HW2 2076   2.454   5.663   2.790
  393SOL     OW 2077   6.212   4.617   4.953
  393SOL    HW1 2078   6.242   4.523   4.933
  393SOL    HW2 2079   6.120   4.615   4.992
  394SOL     OW 2080   2.229   0.600   6.879
  394SOL    HW1 2081   2.205   0.520   6.934
  394SOL    HW2 2082   2.149   0.658   6.868
  395SOL     OW 2083   5.896   3.494   1.265
  395SOL    HW1 2084   5.917   3.408   1.311
  395SOL    HW2 2085   5.918   3.571   1.326
  396SOL     OW 2086   3.263   4.128   3.829
  396SOL    HW1 2087   3.279   4.224   3.808
  396SOL    HW2 2088   3.193   4.091   3.768
  397SOL     OW 2089   4.397   2.415   5.580
  397SOL    HW1 2090   4.491   2.438   5.554
  397SOL    HW2 2091   4.370   2.471   5.658
  398SOL     OW 2092   1.149   5.046   2.204
  398SOL    HW1 2093   1.207   5.091   2.136
  398SOL    HW2 2094   1.190   5.056   2.294
  399SOL     OW 2095   4.999   5.214   1.670
  399SOL    HW1 2096   5.037   5.273   1.598
  399SOL    HW2 2097   5.012   5.118   1.644
  400SOL     OW 2098   1.144   5.780   5.084
  400SOL    HW1 2099   1.156   5.717   5.007
  400SOL    HW2 2100   1.060   5.834   5.070
  401SOL     OW 2101   4.764   1.630   0.037
  401SOL    HW1 2102   4.724   1.691   6.989
  401SOL    HW2 2103   4.695   1.564   0.066
  402SOL     OW 2104   5.525   5.614   1.545
  402SOL    HW1 2105   5.511   5.669   1.463
  402SOL    HW2 2106   5.600   5.550   1.529
  403SOL     OW 2107   5.020   2.508   5.815
  403SOL    HW1 2108   5.044   2.563   5.895
  403SOL    HW2 2109   4.926   2.476   5.823
  404SOL     OW 2110   1.047   0.294   4.749
  404SOL    HW1 2111   1.026   0.234   4.826
  404SOL    HW2 2112   0.964   0.308   4.695
  405SOL     OW 2113   0.498   2.156   0.788
  405SOL    HW1 2114   0.549   2.241   0.775
  405SOL    HW2 2115   0.425   2.150   0.721
  406SOL     OW 2116   2.017   2.839   3.931
  406SOL    HW1 2117   2.081   2.915   3.919
  406SOL    HW2 2118   2.068   2.758   3.961
  407SOL     OW 2119   2.999   0.674   4.833
  407SOL    HW1 2120   3.075   0.704   4.776
  407SOL    HW2 2121   3.033   0.649   4.924
  408SOL     OW 2122   1.842   0.630   3.984
  408SOL    HW1 2123   1.805   0.601   3.896
  408SOL    HW2 2124   1.875   0.550   4.035
  409SOL     OW 2125   5.613   3.604   3.472
  409SOL    HW1 2126   5.685   3.546   3.434
  409SOL    HW2 2127   5.532   3.598   3.414
  410SOL     OW 2128   2.550   1.297   6.684
  410SOL    HW1 2129   2.474   1.361   6.675
  410SOL    HW2 2130   2.546   1.230   6.610
  411SOL     OW 2131   5.932   4.471   5.375
  411SOL    HW1 2132   5.883   4.446   5.292
  411SOL    HW2 2133   5.933   4.571   5.384
  412SOL     OW 2134   3.610   0.530   2.631
  412SOL    HW1 2135   3.631   0.605   2.568
  412SOL    HW2 2136   3.565   0.567   2.713
  413SOL     OW 2137   2.884   6.549   0.464
  413SOL    HW1 2138   2.819   6.476   0.445
  413SOL    HW2 2139   2.961   6.513   0.517
  414SOL     OW 2140   3.980   4.083   0.563
  414SOL    HW1 2141   3.909   4.021   0.531
  414SOL    HW2 2142   3.940   4.150   0.626
  415SOL     OW 2143   1.974   6.710   1.254
  415SOL    HW1 2144   1.991   6.802   1.287
  415SOL    HW2 2145   1.969   6.647   1.331
  416SOL     OW 2146   4.221   6.118   5.019
  416SOL    HW1 2147   4.208   6.043   4.954
  416SOL    HW2 2148   4.286   6.090   5.089
  417SOL     OW 2149   4.388   6.309   1.962
  417SOL    HW1 2150   4.292   6.310   1.934
  417SOL    HW2 2151   4.431   6.395   1.936
  418SOL     OW 2152   4.800   5.569   0.970
  418SOL    HW1 2153   4.727   5.532   1.028
  418SOL    HW2 2154   4.777   5.552   0.874
  419SOL     OW 2155   0.013   6.596   1.341
  419SOL    HW1 2156   0.066   6.678   1.364
  419SOL    HW2 2157   0.024   6.576   1.243
  420SOL     OW 2158   5.052   4.972   0.472
  420SOL    HW1 2159   5.026   4.920   0.554
  420SOL    HW2 2160   4.971   5.019   0.436
  421SOL     OW 2161   2.360   6.206   6.372
  421SOL    HW1 2162   2.356   6.296   6.329
  421SOL    HW2 2163   2.306   6.141   6.319
  422SOL     OW 2164   5.374   4.083   6.817
  422SOL    HW1 2165   5.340   4.152   6.882
  422SOL    HW2 2166   5.422   4.129   6.743
  423SOL     OW 2167   0.016   3.612   6.686
  423SOL    HW1 2168   0.027   3.665   6.770
  423SOL    HW2 2169   0.106   3.584   6.652
  424SOL     OW 2170   3.063   4.023   0.132
  424SOL    HW1 2171   3.063   3.924   0.142
  424SOL    HW2 2172   3.141   4.062   0.180
  425SOL     OW 2173   3.451   1.574   0.645
  425SOL    HW1 2174   3.457   1.607   0.739
  425SOL    HW2 2175   3.520   1.505   0.629
  426SOL     OW 2176   5.447   3.871   6.419
  426SOL    HW1 2177   5.395   3.796   6.461
  426SOL    HW2 2178   5.413   3.958   6.452
  427SOL     OW 2179   5.050   3.833   1.242
  427SOL    HW1 2180   5.024   3.750   1.292
  427SOL    HW2 2181   5.145   3.856   1.262
  428SOL     OW 2182   3.948   0.869   5.432
  428SOL    HW1 2183   3.997   0.838   5.351
  428SOL    HW2 2184   4.002   0.940   5.478
  429SOL     OW 2185   1.515   5.026   0.301
  429SOL    HW1 2186   1.419   5.009   0.278
  429SOL    HW2 2187   1.551   4.948   0.352
  430SOL     OW 2188   1.109   0.212   5.041
  430SOL    HW1 2189   1.169   0.146   4.995
  430SOL    HW2 2190   1.145   0.304   5.026
  431SOL     OW 2191   3.421   1.635   0.917
  431SOL    HW1 2192   3.513   1.666   0.941
  431SOL    HW2 2193   3.396   1.558   0.975
  432SOL     OW 2194   7.005   1.506   0.993
  432SOL    HW1 2195   6.937   1.565   0.951
  432SOL    HW2 2196   6.963   1.418   1.015
  433SOL     OW 2197   3.132   6.520   5.293
  433SOL    HW1 2198   3.095   6.522   5.201
  433SOL    HW2 2199   3.068   6.565   5.356
  434SOL     OW 2200   6.260   3.299   1.310
  434SOL    HW1 2201   6.303   3.243   1.381
  434SOL    HW2 2202   6.300   3.391   1.311
  435SOL     OW 2203   2.874   4.169   6.922
  435SOL    HW1 2204   2.869   4.072   6.944
  435SOL    HW2 2205   2.967   4.202   6.939
  436SOL     OW 2206   2.017   0.864   0.565
  436SOL    HW1 2207   2.066   0.810   0.634
  436SOL    HW2 2208   2.081   0.890   0.493
  437SOL     OW 2209   6.894   0.155   6.391
  437SOL    HW1 2210   6.965   0.084   6.387
  437SOL    HW2 2211   6.827   0.130   6.461
  438SOL     OW 2212   1.222   2.886   1.644
  438SOL    HW1 2213   1.284   2.964   1.638
  438SOL    HW2 2214   1.265   2.814   1.698
  439SOL     OW 2215   6.314   5.014   2.838
  439SOL    HW1 2216   6.406   5.026   2.875
  439SOL    HW2 2217   6.258   5.094   2.860
  440SOL     OW 2218   0.853   2.253   3.688
  440SOL    HW1 2219   0.932   2.250   3.749
  440SOL    HW2 2220   0.876   2.307   3.607
  441SOL     OW 2221   1.390   1.333   3.179
  441SOL    HW1 2222   1.459   1.273   3.139
  441SOL    HW2 2223   1.378   1.414   3.120
  442SOL     OW 2224   0.036   3.721   6.943
  442SOL    HW1 2225   0.065   3.814   6.962
  442SOL    HW2 2226   6.991   3.692   7.012
  443SOL     OW 2227   0.948   4.111   5.006
  443SOL    HW1 2228   0.925   4.208   5.021
  443SOL    HW2 2229   0.896   4.055   5.070
  444SOL     OW 2230   4.643   2.567   6.361
  444SOL    HW1 2231   4.592   2.486   6.332
  444SOL    HW2 2232   4.723   2.579   6.303
  445SOL     OW 2233   2.324   4.632   3.596
  445SOL    HW1 2234   2.231   4.666   3.613
  445SOL    HW2 2235   2.323   4.569   3.519
  446SOL     OW 2236   3.565   5.100   3.925
  446SOL    HW1 2237   3.535   5.052   3.842
  446SOL    HW2 2238   3.652   5.145   3.907
  447SOL     OW 2239   6.945   5.751   0.716
  447SOL    HW1 2240   6.866   5.791   0.764
  447SOL    HW2 2241   6.919   5.731   0.622
  448SOL     OW 2242   4.362   1.185   4.597
  448SOL    HW1 2243   4.334   1.266   4.649
  448SOL    HW2 2244   4.286   1.153   4.541
  449SOL     OW 2245   5.484   1.133   4.731
  449SOL    HW1 2246   5.458   1.167   4.821
  449SOL    HW2 2247   5.510   1.211   4.673
  450SOL     OW 2248   0.319   5.903   3.675
  450SOL    HW1 2249   0.280   5.861   3.758
  450SOL    HW2 2250   0.356   5.831   3.616
  451SOL     OW 2251   0.545   1.718   2.882
  451SOL    HW1 2252   0.484   1.777   2.828
  451SOL    HW2 2253   0.638   1.754   2.876
  452SOL     OW 2254   0.337   4.390   6.919
  452SOL    HW1 2255   0.362   4.322   6.851
  452SOL    HW2 2256   0.415   4.451   6.936
  453SOL     OW 2257   3.207   1.216   6.594
  453SOL    HW1 2258   3.209   1.244   6.498
  453SOL    HW2 2259   3.171   1.290   6.650
  454SOL     OW 2260   0.728   6.186   6.595
  454SOL    HW1 2261   0.787   6.116   6.636
  454SOL    HW2 2262   0.710   6.162   6.499
  455SOL     OW 2263   5.852   0.711   4.497
  455SOL    HW1 2264   5.838   0.810   4.506
  455SOL    HW2 2265   5.908   0.678   4.572
  456SOL     OW 2266   4.581   5.895   6.390
  456SOL    HW1 2267   4.481   5.897   6.388
  456SOL    HW2 2268   4.615   5.831   6.321
  457SOL     OW 2269   2.467   4.467   3.414
  457SOL    HW1 2270   2.463   4.368   3.398
  457SOL    HW2 2271   2.515   4.511   3.338
  458SOL     OW 2272   6.120   5.211   5.543
  458SOL    HW1 2273   6.146   5.308   5.542
  458SOL    HW2 2274   6.152   5.169   5.627
  459SOL     OW 2275   1.927   0.640   2.284
  459SOL    HW1 2276   1.953   0.671   2.375
  459SOL    HW2 2277   1.977   0.693   2.215
  460SOL     OW 2278   6.763   1.896   2.852
  460SOL    HW1 2279   6.690   1.912   2.917
  460SOL    HW2 2280   6.770   1.973   2.789
  461SOL     OW 2281   4.640   6.643   5.362
  461SOL    HW1 2282   4.553   6.593   5.364
  461SOL    HW2 2283   4.672   6.657   5.456
  462SOL     OW 2284   3.060   3.108   6.569
  462SOL    HW1 2285   3.130   3.041   6.543
  462SOL    HW2 2286   2.984   3.060   6.613
  463SOL     OW 2287   0.066   4.909   3.363
  463SOL    HW1 2288   0.121   4.831   3.333
  463SOL    HW2 2289   6.997   4.878   3.391
  464SOL     OW 2290   1.444   1.429   6.358
  464SOL    HW1 2291   1.519   1.423   6.292
  464SOL    HW2 2292   1.468   1.379   6.441
  465SOL     OW 2293   0.460   2.350   3.763
  465SOL    HW1 2294   0.523   2.334   3.839
  465SOL    HW2 2295   0.373   2.304   3.781
  466SOL     OW 2296   1.373   6.813   4.100
  466SOL    HW1 2297   1.399   6.814   4.197
  466SOL    HW2 2298   1.331   6.725   4.078
  467SOL     OW 2299   1.785   0.522   5.768
  467SOL    HW1 2300   1.837   0.497   5.686
  467SOL    HW2 2301   1.688   0.504   5.754
  468SOL     OW 2302   3.876   5.370   1.117
  468SOL    HW1 2303   3.910   5.430   1.189
  468SOL    HW2 2304   3.947   5.304   1.093
  469SOL     OW 2305   2.175   5.821   6.886
  469SOL    HW1 2306   2.228   5.737   6.899
  469SOL    HW2 2307   2.231   5.890   6.840
  470SOL     OW 2308   4.034   0.707   2.564
  470SOL    HW1 2309   4.119   0.729   2.612
  470SOL    HW2 2310   4.042   0.614   2.525
  471SOL     OW 2311   2.366   2.778   4.856
  471SOL    HW1 2312   2.392   2.827   4.940
  471SOL    HW2 2313   2.449   2.750   4.807
  472SOL     OW 2314   4.645   5.705   6.197
  472SOL    HW1 2315   4.572   5.697   6.129
  472SOL    HW2 2316   4.643   5.626   6.258
  473SOL     OW 2317   0.802   2.882   2.485
  473SOL    HW1 2318   0.846   2.854   2.571
  473SOL    HW2 2319   0.838   2.971   2.456
  474SOL     OW 2320   3.826   5.266   4.779
  474SOL    HW1 2321   3.757   5.308   4.838
  474SOL    HW2 2322   3.798   5.173   4.756
  475SOL     OW 2323   0.397   6.783   6.536
  475SOL    HW1 2324   0.381   6.787   6.437
  475SOL    HW2 2325   0.316   6.748   6.582
  476SOL     OW 2326   5.995   4.834   2.261
  476SOL    HW1 2327   6.014   4.930   2.241
  476SOL    HW2 2328   5.897   4.816   2.247
  477SOL     OW 2329   2.241   5.121   4.133
  477SOL    HW1 2330   2.258   5.172   4.048
  477SOL    HW2 2331   2.214   5.028   4.111
  478SOL     OW 2332   3.476   5.600   3.610
  478SOL    HW1 2333   3.543   5.528   3.629
  478SOL    HW2 2334   3.523   5.684   3.584
  479SOL     OW 2335   3.160   2.641   0.357
  479SOL    HW1 2336   3.255   2.636   0.326
  479SOL    HW2 2337   3.132   2.552   0.394
  480SOL     OW 2338   1.188   0.043   2.284
  480SOL    HW1 2339   1.280   0.061   2.319
  480SOL    HW2 2340   1.182   6.969   2.254
  481SOL     OW 2341   3.071   0.112   1.580
  481SOL    HW1 2342   3.083   0.014   1.595
  481SOL    HW2 2343   3.159   0.154   1.560
  482SOL     OW 2344   5.772   4.917   2.702
  482SOL    HW1 2345   5.862   4.943   2.736
  482SOL    HW2 2346   5.782   4.849   2.630
  483SOL     OW 2347   5.820   1.653   1.992
  483SOL    HW1 2348   5.890   1.602   1.942
  483SOL    HW2 2349   5.754   1.691   1.927
  484SOL     OW 2350   0.634   3.179   4.232
  484SOL    HW1 2351   0.617   3.209   4.138
  484SOL    HW2 2352   0.703   3.238   4.273
  485SOL     OW 2353   3.423   4.951   2.299
  485SOL    HW1 2354   3.385   5.032   2.345
  485SOL    HW2 2355   3.377   4.940   2.211
  486SOL     OW 2356   1.064   1.100   0.256
  486SOL    HW1 2357   1.125   1.023   0.237
  486SOL    HW2 2358   0.992   1.070   0.319
  487SOL     OW 2359   0.641   2.361   0.085
  487SOL    HW1 2360   0.594   2.379   7.021
  487SOL    HW2 2361   0.713   2.293   0.071
  488SOL     OW 2362   0.329   2.015   1.891
  488SOL    HW1 2363   0.427   2.019   1.874
  488SOL    HW2 2364   0.288   1.941   1.837
  489SOL     OW 2365   3.580   5.894   0.185
  489SOL    HW1 2366   3.658   5.925   0.131
  489SOL    HW2 2367   3.508   5.861   0.124
  490SOL     OW 2368   6.202   6.506   4.177
  490SOL    HW1 2369   6.274   6.537   4.114
  490SOL    HW2 2370   6.222   6.539   4.269
  491SOL     OW 2371   0.746   2.423   2.661
  491SOL    HW1 2372   0.779   2.408   2.754
  491SOL    HW2 2373   0.694   2.509   2.657
  492SOL     OW 2374   2.728   7.013   6.492
  492SOL    HW1 2375   2.801   0.009   6.426
  492SOL    HW2 2376   2.639   0.011   6.450
  493SOL     OW 2377   6.200   4.824   5.496
  493SOL    HW1 2378   6.270   4.761   5.460
  493SOL    HW2 2379   6.109   4.786   5.477
  494SOL     OW 2380   0.250   6.879   6.935
  494SOL    HW1 2381   0.169   6.898   6.991
  494SOL    HW2 2382   0.237   6.920   6.844
  495SOL     OW 2383   4.658   4.736   1.979
  495SOL    HW1 2384   4.716   4.812   2.010
  495SOL    HW2 2385   4.697   4.650   2.012
  496SOL     OW 2386   5.418   3.451   3.031
  496SOL    HW1 2387   5.506   3.439   2.985
  496SOL    HW2 2388   5.362   3.517   2.979
  497SOL     OW 2389   3.270   1.501   4.718
  497SOL    HW1 2390   3.282   1.418   4.772
  497SOL    HW2 2391   3.318   1.493   4.632
  498SOL     OW 2392   0.263   2.891   2.362
  498SOL    HW1 2393   0.249   2.874   2.459
  498SOL    HW2 2394   0.361   2.901   2.344
  499SOL     OW 2395   3.795   0.100   5.013
  499SOL    HW1 2396   3.796   0.009   5.054
  499SOL    HW2 2397   3.701   0.125   4.990
  500SOL     OW 2398   0.617   3.668   2.830
  500SOL    HW1 2399   0.635   3.579   2.787
  500SOL    HW2 2400   0.686   3.685   2.901
  501SOL     OW 2401   1.961   3.253   6.432
  501SOL    HW1 2402   1.934   3.349   6.440
  501SOL    HW2 2403   1.917   3.199   6.504
  502SOL     OW 2404   4.551   4.817   6.827
  502SOL    HW1 2405   4.646   4.793   6.848
  502SOL    HW2 2406   4.541   4.916   6.827
  503SOL     OW 2407   5.835   4.824   5.751
  503SOL    HW1 2408   5.785   4.772   5.682
  503SOL    HW2 2409   5.809   4.793   5.843
  504SOL     OW 2410   2.283   6.255   4.490
  504SOL    HW1 2411   2.223   6.272   4.412
  504SOL    HW2 2412   2.298   6.341   4.539
  505SOL     OW 2413   4.826   0.404   5.725
  505SOL    HW1 2414   4.853   0.499   5.704
  505SOL    HW2 2415   4.809   0.395   5.823
  506SOL     OW 2416   1.887   4.260   5.308
  506SOL    HW1 2417   1.940   4.271   5.224
  506SOL    HW2 2418   1.804   4.208   5.288
  507SOL     OW 2419   3.331   0.071   4.754
  507SOL    HW1 2420   3.235   0.046   4.770
  507SOL    HW2 2421   3.344   0.094   4.658
  508SOL     OW 2422   6.491   3.864   3.121
  508SOL    HW1 2423   6.576   3.888   3.074
  508SOL    HW2 2424   6.445   3.791   3.071
  509SOL     OW 2425   4.650   1.157   1.720
  509SOL    HW1 2426   4.748   1.177   1.719
  509SOL    HW2 2427   4.599   1.243   1.719
  510SOL     OW 2428   6.643   4.677   5.319
  510SOL    HW1 2429   6.544   4.662   5.322
  510SOL    HW2 2430   6.662   4.771   5.292
  511SOL     OW 2431   0.419   6.545   0.334
  511SOL    HW1 2432   0.486   6.556   0.261
  511SOL    HW2 2433   0.465   6.520   0.419
  512SOL     OW 2434   1.663   3.473   6.994
  512SOL    HW1 2435   1.728   3.502   6.924
  512SOL    HW2 2436   1.572   3.508   6.971
  513SOL     OW 2437   6.329   5.764   3.774
  513SOL    HW1 2438   6.370   5.850   3.745
  513SOL    HW2 2439   6.373   5.688   3.726
  514SOL     OW 2440   6.413   1.935   4.059
  514SOL    HW1 2441   6.388   2.008   4.122
  514SOL    HW2 2442   6.511   1.939   4.040
  515SOL     OW 2443   2.281   6.968   5.767
  515SOL    HW1 2444   2.211   6.997   5.832
  515SOL    HW2 2445   2.294   6.870   5.773
  516SOL     OW 2446   2.123   4.721   1.329
  516SOL    HW1 2447   2.169   4.779   1.396
  516SOL    HW2 2448   2.063   4.657   1.377
  517SOL     OW 2449   4.659   0.042   1.770
  517SOL    HW1 2450   4.688   0.131   1.804
  517SOL    HW2 2451   4.730   6.995   1.789
  518SOL     OW 2452   2.514   2.393   1.380
  518SOL    HW1 2453   2.474   2.445   1.455
  518SOL    HW2 2454   2.570   2.319   1.416
  519SOL     OW 2455   0.557   0.200   6.083
  519SOL    HW1 2456   0.577   0.263   6.158
  519SOL    HW2 2457   0.638   0.190   6.026
  520SOL     OW 2458   5.341   5.285   5.989
  520SOL    HW1 2459   5.253   5.333   5.989
  520SOL    HW2 2460   5.334   5.202   5.934
  521SOL     OW 2461   0.042   2.027   6.625
  521SOL    HW1 2462   0.107   1.955   6.650
  521SOL    HW2 2463   0.082   2.086   6.556
  522SOL     OW 2464   3.864   3.203   5.152
  522SOL    HW1 2465   3.949   3.235   5.193
  522SOL    HW2 2466   3.838   3.115   5.194
  523SOL     OW 2467   6.586   0.014   3.839
  523SOL    HW1 2468   6.655   6.977   3.883
  523SOL    HW2 2469   6.507   0.022   3.899
  524SOL     OW 2470   2.950   1.077   6.512
  524SOL    HW1 2471   2.933   1.144   6.440
  524SOL    HW2 2472   2.995   1.123   6.589
  525SOL     OW 2473   2.630   3.771   6.807
  525SOL    HW1 2474   2.598   3.782   6.901
  525SOL    HW2 2475   2.701   3.839   6.787
  526SOL     OW 2476   3.235   5.350   4.391
  526SOL    HW1 2477   3.196   5.292   4.320
  526SOL    HW2 2478   3.334   5.339   4.393
  527SOL     OW 2479   0.009   1.618   6.367
  527SOL    HW1 2480   6.936   1.641   6.341
  527SOL    HW2 2481   0.020   1.631   6.466
  528SOL     OW 2482   2.140   1.545   5.258
  528SOL    HW1 2483   2.145   1.445   5.264
  528SOL    HW2 2484   2.088   1.571   5.177
  529SOL     OW 2485   1.054   5.145   4.790
  529SOL    HW1 2486   1.030   5.235   4.826
  529SOL    HW2 2487   1.062   5.150   4.690
  530SOL     OW 2488   2.439   3.279   5.340
  530SOL    HW1 2489   2.479   3.260   5.430
  530SOL    HW2 2490   2.428   3.193   5.290
  531SOL     OW 2491   0.784   0.429   1.204
  531SOL    HW1 2492   0.749   0.445   1.296
  531SOL    HW2 2493   0.742   0.347   1.165
  532SOL     OW 2494   0.989   1.513   5.588
  532SOL    HW1 2495   1.040   1.451   5.529
  532SOL    HW2 2496   0.902   1.472   5.613
  533SOL     OW 2497   5.372   6.362   4.735
  533SOL    HW1 2498   5.409   6.323   4.651
  533SOL    HW2 2499   5.434   6.435   4.767
  534SOL     OW 2500   4.262   5.315   3.006
  534SOL    HW1 2501   4.259   5.400   3.059
  534SOL    HW2 2502   4.182   5.309   2.947
  535SOL     OW 2503   0.482   4.118   3.463
  535SOL    HW1 2504   0.420   4.158   3.530
  535SOL    HW2 2505   0.562   4.079   3.510
  536SOL     OW 2506   1.376   5.440   1.546
  536SOL    HW1 2507   1.409   5.533   1.530
  536SOL    HW2 2508   1.453   5.377   1.551
  537SOL     OW 2509   2.138   0.131   2.711
  537SOL    HW1 2510   2.076   0.210   2.715
  537SOL    HW2 2511   2.218   0.155   2.655
  538SOL     OW 2512   0.787   6.095   3.218
  538SOL    HW1 2513   0.787   6.061   3.124
  538SOL    HW2 2514   0.877   6.080   3.259
  539SOL     OW 2515   1.590   5.274   2.057
  539SOL    HW1 2516   1.673   5.265   2.112
  539SOL    HW2 2517   1.547   5.185   2.046
  540SOL     OW 2518   1.164   2.344   2.174
  540SOL    HW1 2519   1.192   2.261   2.221
  540SOL    HW2 2520   1.177   2.333   2.075
  541SOL     OW 2521   3.352   6.399   5.414
  541SOL    HW1 2522   3.270   6.435   5.369
  541SOL    HW2 2523   3.326   6.355   5.500
  542SOL     OW 2524   5.776   5.719   6.839
  542SOL    HW1 2525   5.738   5.628   6.855
  542SOL    HW2 2526   5.782   5.768   6.926
  543SOL     OW 2527   1.012   4.773   6.894
  543SOL    HW1 2528   1.109   4.747   6.890
  543SOL    HW2 2529   0.972   4.740   6.980
  544SOL     OW 2530   0.610   5.375   0.913
  544SOL    HW1 2531   0.705   5.344   0.921
  544SOL    HW2 2532   0.577   5.403   1.003
  545SOL     OW 2533   3.907   1.289   2.892
  545SOL    HW1 2534   3.993   1.338   2.879
  545SOL    HW2 2535   3.837   1.353   2.922
  546SOL     OW 2536   1.163   3.467   1.285
  546SOL    HW1 2537   1.158   3.521   1.368
  546SOL    HW2 2538   1.081   3.410   1.276
  547SOL     OW 2539   2.552   3.076   0.266
  547SOL    HW1 2540   2.640   3.123   0.263
  547SOL    HW2 2541   2.478   3.143   0.269
  548SOL     OW 2542   3.823   3.059   4.263
  548SOL    HW1 2543   3.797   2.964   4.281
  548SOL    HW2 2544   3.779   3.090   4.179
  549SOL     OW 2545   5.468   3.363   1.540
  549SOL    HW1 2546   5.544   3.301   1.562
  549SOL    HW2 2547   5.501   3.438   1.483
  550SOL     OW 2548   6.443   3.029   2.426
  550SOL    HW1 2549   6.429   2.937   2.465
  550SOL    HW2 2550   6.428   3.097   2.498
  551SOL     OW 2551   6.150   2.052   0.894
  551SOL    HW1 2552   6.068   2.095   0.856
  551SOL    HW2 2553   6.188   1.988   0.827
  552SOL     OW 2554   3.588   5.527   0.867
  552SOL    HW1 2555   3.551   5.446   0.821
  552SOL    HW2 2556   3.688   5.525   0.863
  553SOL     OW 2557   2.410   1.015   1.346
  553SOL    HW1 2558   2.385   0.980   1.436
  553SOL    HW2 2559   2.435   1.112   1.353
  554SOL     OW 2560   5.957   6.362   5.227
  554SOL    HW1 2561   5.921   6.336   5.316
  554SOL    HW2 2562   5.983   6.279   5.176
  555SOL     OW 2563   1.344   4.520   4.462
  555SOL    HW1 2564   1.383   4.586   4.398
  555SOL    HW2 2565   1.418   4.476   4.513
  556SOL     OW 2566   5.731   2.614   3.645
  556SOL    HW1 2567   5.669   2.674   3.595
  556SOL    HW2 2568   5.777   2.666   3.717
  557SOL     OW 2569   0.125   6.118   6.230
  557SOL    HW1 2570   0.192   6.180   6.190
  557SOL    HW2 2571   0.090   6.056   6.159
  558SOL     OW 2572   4.169   3.677   4.979
  558SOL    HW1 2573   4.128   3.587   4.992
  558SOL    HW2 2574   4.099   3.742   4.948
  559SOL     OW 2575   0.310   6.077   6.716
  559SOL    HW1 2576   0.248   6.056   6.641
  559SOL    HW2 2577   0.384   6.010   6.718
  560SOL     OW 2578   4.531   7.000   0.579
  560SOL    HW1 2579   4.499   6.992   0.485
  560SOL    HW2 2580   4.455   0.008   0.637
  561SOL     OW 2581   5.952   6.845   0.562
  561SOL    HW1 2582   6.022   6.914   0.543
  561SOL    HW2 2583   5.921   6.804   0.476
  562SOL     OW 2584   5.091   1.321   5.637
  562SOL    HW1 2585   5.083   1.250   5.708
  562SOL    HW2 2586   5.181   1.363   5.641
  563SOL     OW 2587   3.299   6.462   4.102
  563SOL    HW1 2588   3.342   6.444   4.191
  563SOL    HW2 2589   3.203   6.434   4.106
  564SOL     OW 2590   6.900   1.131   6.704
  564SOL    HW1 2591   6.882   1.229   6.700
  564SOL    HW2 2592   6.817   1.084   6.734
  565SOL     OW 2593   4.803   3.965   5.626
  565SOL    HW1 2594   4.890   3.975   5.675
  565SOL    HW2 2595   4.774   4.053   5.591
  566SOL     OW 2596   4.697   4.585   2.969
  566SOL    HW1 2597   4.653   4.642   3.039
  566SOL    HW2 2598   4.663   4.611   2.879
  567SOL     OW 2599   3.212   3.829   4.790
  567SOL    HW1 2600   3.301   3.805   4.752
  567SOL    HW2 2601   3.164   3.746   4.816
  568SOL     OW 2602   2.280   2.198   0.314
  568SOL    HW1 2603   2.281   2.259   0.234
  568SOL    HW2 2604   2.371   2.161   0.330
  569SOL     OW 2605   1.945   3.149   1.087
  569SOL    HW1 2606   1.930   3.054   1.062
  569SOL    HW2 2607   1.873   3.179   1.150
  570SOL     OW 2608   0.734   6.179   0.586
  570SOL    HW1 2609   0.714   6.149   0.493
  570SOL    HW2 2610   0.692   6.117   0.652
  571SOL     OW 2611   3.923   5.373   2.585
  571SOL    HW1 2612   3.992   5.316   2.630
  571SOL    HW2 2613   3.968   5.447   2.535
  572SOL     OW 2614   1.184   3.937   5.018
  572SOL    HW1 2615   1.216   3.925   4.924
  572SOL    HW2 2616   1.093   3.979   5.017
  573SOL     OW 2617   3.694   1.796   5.676
  573SOL    HW1 2618   3.767   1.728   5.671
  573SOL    HW2 2619   3.724   1.874   5.731
  574SOL     OW 2620   2.041   2.045   4.526
  574SOL    HW1 2621   2.068   2.133   4.487
  574SOL    HW2 2622   1.942   2.036   4.522
  575SOL     OW 2623   6.046   2.718   0.390
  575SOL    HW1 2624   6.070   2.786   0.320
  575SOL    HW2 2625   5.954   2.737   0.423
  576SOL     OW 2626   1.307   1.511   2.219
  576SOL    HW1 2627   1.217   1.546   2.195
  576SOL    HW2 2628   1.346   1.565   2.293
  577SOL     OW 2629   3.138   1.822   3.421
  577SOL    HW1 2630   3.133   1.921   3.412
  577SOL    HW2 2631   3.053   1.788   3.461
  578SOL     OW 2632   0.480   3.379   3.759
  578SOL    HW1 2633   0.425   3.368   3.677
  578SOL    HW2 2634   0.555   3.443   3.742
  579SOL     OW 2635   4.439   2.506   0.215
  579SOL    HW1 2636   4.350   2.541   0.185
  579SOL    HW2 2637   4.462   2.545   0.303
  580SOL     OW 2638   1.476   5.412   6.508
  580SOL    HW1 2639   1.530   5.330   6.526
  580SOL    HW2 2640   1.386   5.403   6.551
  581SOL     OW 2641   3.979   3.052   2.543
  581SOL    HW1 2642   3.913   2.981   2.521
  581SOL    HW2 2643   3.998   3.052   2.641
  582SOL     OW 2644   5.364   3.449   2.552
  582SOL    HW1 2645   5.269   3.425   2.536
  582SOL    HW2 2646   5.404   3.487   2.468
  583SOL     OW 2647   2.246   4.485   0.029
  583SOL    HW1 2648   2.278   4.443   0.113
  583SOL    HW2 2649   2.309   4.463   6.976
  584SOL     OW 2650   6.843   4.825   5.018
  584SOL    HW1 2651   6.856   4.727   5.030
  584SOL    HW2 2652   6.806   4.843   4.926
  585SOL     OW 2653   0.119   1.611   6.618
  585SOL    HW1 2654   0.113   1.667   6.701
  585SOL    HW2 2655   0.170   1.528   6.637
  586SOL     OW 2656   2.504   6.579   0.462
  586SOL    HW1 2657   2.507   6.510   0.534
  586SOL    HW2 2658   2.522   6.535   0.374
  587SOL     OW 2659   1.111   3.509   5.444
  587SOL    HW1 2660   1.036   3.539   5.384
  587SOL    HW2 2661   1.168   3.588   5.467
  588SOL     OW 2662   3.284   6.504   1.504
  588SOL    HW1 2663   3.261   6.407   1.508
  588SOL    HW2 2664   3.296   6.540   1.596
  589SOL     OW 2665   3.506   5.154   2.504
  589SOL    HW1 2666   3.582   5.184   2.560
  589SOL    HW2 2667   3.537   5.084   2.439
  590SOL     OW 2668   0.132   1.814   1.789
  590SOL    HW1 2669   0.081   1.896   1.816
  590SOL    HW2 2670   0.105   1.787   1.697
  591SOL     OW 2671   3.553   0.038   3.177
  591SOL    HW1 2672   3.650   0.036   3.154
  591SOL    HW2 2673   3.536   6.996   3.253
  592SOL     OW 2674   4.998   0.878   0.420
  592SOL    HW1 2675   4.973   0.793   0.468
  592SOL    HW2 2676   4.918   0.916   0.375
  593SOL     OW 2677   4.841   2.432   3.753
  593SOL    HW1 2678   4.909   2.471   3.815
  593SOL    HW2 2679   4.887   2.389   3.675
  594SOL     OW 2680   4.110   3.218   1.552
  594SOL    HW1 2681   4.158   3.291   1.600
  594SOL    HW2 2682   4.167   3.184   1.477
  595SOL     OW 2683   3.877   6.033   3.582
  595SOL    HW1 2684   3.905   6.059   3.489
  595SOL    HW2 2685   3.814   6.102   3.618
  596SOL     OW 2686   1.358   4.127   3.025
  596SOL    HW1 2687   1.327   4.047   3.078
  596SOL    HW2 2688   1.310   4.209   3.058
  597SOL     OW 2689   4.219   1.355   5.434
  597SOL    HW1 2690   4.135   1.406   5.415
  597SOL    HW2 2691   4.200   1.257   5.429
  598SOL     OW 2692   3.742   4.560   1.067
  598SOL    HW1 2693   3.684   4.481   1.085
  598SOL    HW2 2694   3.833   4.545   1.106
  599SOL     OW 2695   6.020   6.817   2.449
  599SOL    HW1 2696   5.945   6.850   2.505
  599SOL    HW2 2697   6.101   6.873   2.466
  600SOL     OW 2698   2.266   6.834   0.226
  600SOL    HW1 2699   2.363   6.824   0.204
  600SOL    HW2 2700   2.216   6.860   0.143
  601SOL     OW 2701   3.057   5.273   4.185
  601SOL    HW1 2702   3.000   5.348   4.152
  601SOL    HW2 2703   3.117   5.241   4.112
  602SOL     OW 2704   2.314   0.521   1.342
  602SOL    HW1 2705   2.379   0.457   1.300
  602SOL    HW2 2706   2.300   0.497   1.438
  603SOL     OW 2707   4.408   2.040   3.068
  603SOL    HW1 2708   4.429   1.952   3.111
  603SOL    HW2 2709   4.416   2.113   3.136
  604SOL     OW 2710   0.834   4.186   6.163
  604SOL    HW1 2711   0.801   4.105   6.114
  604SOL    HW2 2712   0.922   4.165   6.206
  605SOL     OW 2713   5.746   0.370   4.138
  605SOL    HW1 2714   5.700   0.436   4.197
  605SOL    HW2 2715   5.678   0.323   4.081
  606SOL     OW 2716   3.368   0.230   3.541
  606SOL    HW1 2717   3.318   0.304   3.494
  606SOL    HW2 2718   3.465   0.238   3.522
  607SOL     OW 2719   5.133   0.795   4.571
  607SOL    HW1 2720   5.073   0.869   4.600
  607SOL    HW2 2721   5.127   0.784   4.471
  608SOL     OW 2722   3.708   1.293   1.309
  608SOL    HW1 2723   3.727   1.297   1.211
  608SOL    HW2 2724   3.728   1.382   1.351
  609SOL     OW 2725   3.665   3.786   4.498
  609SOL    HW1 2726   3.607   3.751   4.424
  609SOL    HW2 2727   3.706   3.873   4.471
  610SOL     OW 2728   5.125   2.641   4.374
  610SOL    HW1 2729   5.195   2.570   4.371
  610SOL    HW2 2730   5.083   2.649   4.283
  611SOL     OW 2731   0.705   6.814   0.182
  611SOL    HW1 2732   0.633   6.817   0.112
  611SOL    HW2 2733   0.678   6.873   0.258
  612SOL     OW 2734   2.976   5.527   5.851
  612SOL    HW1 2735   2.999   5.582   5.771
  612SOL    HW2 2736   3.057   5.480   5.884
  613SOL     OW 2737   3.117   1.693   0.031
  613SOL    HW1 2738   3.036   1.675   0.086
  613SOL    HW2 2739   3.093   1.688   6.955
  614SOL     OW 2740   5.022   4.649   1.316
  614SOL    HW1 2741   5.014   4.721   1.384
  614SOL    HW2 2742   5.059   4.688   1.231
  615SOL     OW 2743   6.911   6.849   0.786
  615SOL    HW1 2744   6.961   6.902   0.718
  615SOL    HW2 2745   6.965   6.845   0.871
  616SOL     OW 2746   6.006   1.524   4.458
  616SOL    HW1 2747   5.915   1.488   4.477
  616SOL    HW2 2748   6.008   1.622   4.478
  617SOL     OW 2749   0.575   4.915   5.681
  617SOL    HW1 2750   0.567   4.907   5.780
  617SOL    HW2 2751   0.610   4.829   5.643
  618SOL     OW 2752   6.789   3.463   0.521
  618SOL    HW1 2753   6.801   3.553   0.479
  618SOL    HW2 2754   6.879   3.427   0.548
  619SOL     OW 2755   2.376   0.127   6.833
  619SOL    HW1 2756   2.443   0.078   6.778
  619SOL    HW2 2757   2.410   0.135   6.927
  620SOL     OW 2758   6.632   1.326   2.651
  620SOL    HW1 2759   6.671   1.235   2.633
  620SOL    HW2 2760   6.598   1.364   2.565
  621SOL     OW 2761   3.550   0.904   6.551
  621SOL    HW1 2762   3.468   0.927   6.604
  621SOL    HW2 2763   3.522   0.864   6.463
  622SOL     OW 2764   0.895   1.673   5.099
  622SOL    HW1 2765   0.909   1.764   5.059
  622SOL    HW2 2766   0.797   1.656   5.107
  623SOL     OW 2767   5.939   6.730   4.463
  623SOL    HW1 2768   5.862   6.699   4.408
  623SOL    HW2 2769   5.935   6.829   4.474
  624SOL     OW 2770   6.075   1.261   6.319
  624SOL    HW1 2771   6.033   1.342   6.279
  624SOL    HW2 2772   6.012   1.220   6.385
  625SOL     OW 2773   2.551   1.658   0.441
  625SOL    HW1 2774   2.470   1.680   0.495
  625SOL    HW2 2775   2.572   1.561   0.451
  626SOL     OW 2776   0.464   4.852   3.582
  626SOL    HW1 2777   0.409   4.816   3.658
  626SOL    HW2 2778   0.558   4.819   3.590
  627SOL     OW 2779   6.558   0.270   0.024
  627SOL    HW1 2780   6.538   0.191   6.987
  627SOL    HW2 2781   6.637   0.319   7.008
  628SOL     OW 2782   4.845   4.847   5.922
  628SOL    HW1 2783   4.770   4.868   5.985
  628SOL    HW2 2784   4.856   4.923   5.857
  629SOL     OW 2785   0.394   6.552   6.218
  629SOL    HW1 2786   0.393   6.626   6.285
  629SOL    HW2 2787   0.403   6.464   6.265
  630SOL     OW 2788   6.775   0.994   1.192
  630SOL    HW1 2789   6.822   1.053   1.258
  630SOL    HW2 2790   6.681   0.978   1.223
  631SOL     OW 2791   1.931   2.817   4.608
  631SOL    HW1 2792   1.914   2.895   4.547
  631SOL    HW2 2793   1.972   2.850   4.693
  632SOL     OW 2794   3.511   3.621   6.946
  632SOL    HW1 2795   3.550   3.573   6.868
  632SOL    HW2 2796   3.429   3.573   6.977
  633SOL     OW 2797   1.691   5.896   1.530
  633SOL    HW1 2798   1.769   5.881   1.590
  633SOL    HW2 2799   1.698   5.987   1.489
  634SOL     OW 2800   3.322   3.169   3.822
  634SOL    HW1 2801   3.351   3.079   3.789
  634SOL    HW2 2802   3.382   3.240   3.785
  635SOL     OW 2803   5.634   1.110   6.524
  635SOL    HW1 2804   5.625   1.201   6.565
  635SOL    HW2 2805   5.545   1.066   6.521
  636SOL     OW 2806   2.827   0.829   6.516
  636SOL    HW1 2807   2.837   0.799   6.422
  636SOL    HW2 2808   2.879   0.914   6.530
  637SOL     OW 2809   6.520   1.189   2.259
  637SOL    HW1 2810   6.458   1.123   2.217
  637SOL    HW2 2811   6.584   1.223   2.190
  638SOL     OW 2812   6.248   3.669   4.134
  638SOL    HW1 2813   6.327   3.719   4.170
  638SOL    HW2 2814   6.172   3.733   4.120
  639SOL     OW 2815   5.057   4.843   2.647
  639SOL    HW1 2816   5.138   4.857   2.705
  639SOL    HW2 2817   5.052   4.747   2.620
  640SOL     OW 2818   0.865   2.276   1.670
  640SOL    HW1 2819   0.858   2.273   1.571
  640SOL    HW2 2820   0.773   2.284   1.710
  641SOL     OW 2821   2.439   5.107   4.319
  641SOL    HW1 2822   2.351   5.104   4.270
  641SOL    HW2 2823   2.512   5.125   4.254
  642SOL     OW 2824   0.567   3.769   4.736
  642SOL    HW1 2825   0.516   3.725   4.663
  642SOL    HW2 2826   0.543   3.727   4.824
  643SOL     OW 2827   4.862   5.108   6.974
  643SOL    HW1 2828   4.953   5.142   6.996
  643SOL    HW2 2829   4.852   5.015   7.008
  644SOL     OW 2830   6.923   6.458   4.812
  644SOL    HW1 2831   0.000   6.445   4.803
  644SOL    HW2 2832   6.895   6.538   4.760
  645SOL     OW 2833   3.945   5.084   1.964
  645SOL    HW1 2834   4.030   5.057   1.919
  645SOL    HW2 2835   3.938   5.037   2.052
  646SOL     OW 2836   3.892   1.228   5.241
  646SOL    HW1 2837   3.910   1.326   5.254
  646SOL    HW2 2838   3.886   1.183   5.330
  647SOL     OW 2839   4.329   2.555   5.804
  647SOL    HW1 2840   4.337   2.649   5.770
  647SOL    HW2 2841   4.233   2.534   5.821
  648SOL     OW 2842   5.736   1.437   3.406
  648SOL    HW1 2843   5.765   1.418   3.312
  648SOL    HW2 2844   5.815   1.438   3.466
  649SOL     OW 2845   2.370   5.819   0.612
  649SOL    HW1 2846   2.421   5.762   0.546
  649SOL    HW2 2847   2.279   5.838   0.575
  650SOL     OW 2848   0.179   4.467   1.069
  650SOL    HW1 2849   0.215   4.383   1.109
  650SOL    HW2 2850   0.144   4.448   0.977
  651SOL     OW 2851   1.604   0.347   4.894
  651SOL    HW1 2852   1.672   0.331   4.965
  651SOL    HW2 2853   1.558   0.261   4.872
  652SOL     OW 2854   3.781   6.257   2.126
  652SOL    HW1 2855   3.764   6.234   2.030
  652SOL    HW2 2856   3.771   6.356   2.139
  653SOL     OW 2857   1.004   6.923   1.977
  653SOL    HW1 2858   1.038   7.014   1.952
  653SOL    HW2 2859   0.905   6.921   1.964
  654SOL     OW 2860   0.082   6.796   4.960
  654SOL    HW1 2861   0.176   6.774   4.932
  654SOL    HW2 2862   0.068   6.770   5.055
  655SOL     OW 2863   6.931   3.930   2.188
  655SOL    HW1 2864   6.884   3.861   2.244
  655SOL    HW2 2865   6.886   3.935   2.099
  656SOL     OW 2866   3.786   6.111   0.390
  656SOL    HW1 2867   3.702   6.117   0.444
  656SOL    HW2 2868   3.799   6.196   0.339
  657SOL     OW 2869   3.979   3.147   2.069
  657SOL    HW1 2870   4.030   3.114   1.989
  657SOL    HW2 2871   4.041   3.198   2.129
  658SOL     OW 2872   1.940   3.065   4.210
  658SOL    HW1 2873   1.908   3.067   4.115
  658SOL    HW2 2874   2.028   3.113   4.217
  659SOL     OW 2875   2.577   6.125   6.072
  659SOL    HW1 2876   2.637   6.151   6.147
  659SOL    HW2 2877   2.541   6.033   6.088
  660SOL     OW 2878   5.477   4.606   2.588
  660SOL    HW1 2879   5.545   4.661   2.540
  660SOL    HW2 2880   5.386   4.625   2.551
  661SOL     OW 2881   4.375   4.662   4.275
  661SOL    HW1 2882   4.458   4.636   4.225
  661SOL    HW2 2883   4.296   4.650   4.215
  662SOL     OW 2884   4.909   3.584   0.402
  662SOL    HW1 2885   4.823   3.534   0.409
  662SOL    HW2 2886   4.983   3.522   0.374
  663SOL     OW 2887   0.625   4.368   0.675
  663SOL    HW1 2888   0.574   4.295   0.720
  663SOL    HW2 2889   0.586   4.456   0.700
  664SOL     OW 2890   2.080   6.687   6.956
  664SOL    HW1 2891   2.024   6.768   6.976
  664SOL    HW2 2892   2.177   6.712   6.957
  665SOL     OW 2893   4.105   5.250   1.056
  665SOL    HW1 2894   4.128   5.276   1.150
  665SOL    HW2 2895   4.187   5.219   1.009
  666SOL     OW 2896   3.198   1.660   0.329
  666SOL    HW1 2897   3.104   1.674   0.296
  666SOL    HW2 2898   3.197   1.593   0.403
  667SOL     OW 2899   1.224   2.906   2.904
  667SOL    HW1 2900   1.176   2.988   2.873
  667SOL    HW2 2901   1.167   2.858   2.971
  668SOL     OW 2902   5.454   0.121   0.088
  668SOL    HW1 2903   5.548   0.107   0.120
  668SOL    HW2 2904   5.398   0.043   0.116
  669SOL     OW 2905   1.620   5.848   3.140
  669SOL    HW1 2906   1.655   5.875   3.050
  669SOL    HW2 2907   1.591   5.753   3.137
  670SOL     OW 2908   3.364   2.918   3.664
  670SOL    HW1 2909   3.398   2.856   3.594
  670SOL    HW2 2910   3.275   2.954   3.636
  671SOL     OW 2911   2.087   0.076   5.964
  671SOL    HW1 2912   2.003   0.102   5.916
  671SOL    HW2 2913   2.123   0.156   6.013
  672SOL     OW 2914   2.416   2.541   3.890
  672SOL    HW1 2915   2.390   2.629   3.849
  672SOL    HW2 2916   2.407   2.547   3.989
  673SOL     OW 2917   5.914   0.051   1.292
  673SOL    HW1 2918   5.878   0.051   1.198
  673SOL    HW2 2919   5.839   0.068   1.356
  674SOL     OW 2920   0.450   1.980   3.309
  674SOL    HW1 2921   0.362   1.992   3.354
  674SOL    HW2 2922   0.454   1.890   3.265
  675SOL     OW 2923   6.374   2.987   5.066
  675SOL    HW1 2924   6.379   3.078   5.025
  675SOL    HW2 2925   6.349   2.920   4.996
  676SOL     OW 2926   1.925   4.454   4.230
  676SOL    HW1 2927   1.932   4.409   4.142
  676SOL    HW2 2928   2.017   4.478   4.262
  677SOL     OW 2929   6.319   0.075   0.769
  677SOL    HW1 2930   6.360   0.164   0.749
  677SOL    HW2 2931   6.381   0.022   0.827
  678SOL     OW 2932   2.408   1.735   6.497
  678SOL    HW1 2933   2.355   1.738   6.413
  678SOL    HW2 2934   2.354   1.774   6.572
  679SOL     OW 2935   5.220   6.865   3.015
  679SOL    HW1 2936   5.125   6.883   2.991
  679SOL    HW2 2937   5.228   6.772   3.050
  680SOL     OW 2938   4.959   4.328   5.166
  680SOL    HW1 2939   5.012   4.270   5.104
  680SOL    HW2 2940   4.890   4.273   5.212
  681SOL     OW 2941   1.049   6.719   1.686
  681SOL    HW1 2942   1.020   6.785   1.617
  681SOL    HW2 2943   1.131   6.753   1.732
  682SOL     OW 2944   2.263   5.926   0.860
  682SOL    HW1 2945   2.334   5.874   0.812
  682SOL    HW2 2946   2.217   5.867   0.926
  683SOL     OW 2947   5.498   1.321   0.465
  683SOL    HW1 2948   5.590   1.358   0.477
  683SOL    HW2 2949   5.478   1.258   0.541
  684SOL     OW 2950   0.185   5.716   6.008
  684SOL    HW1 2951   0.207   5.745   5.916
  684SOL    HW2 2952   0.215   5.622   6.022
  685SOL     OW 2953   5.807   0.115   5.575
  685SOL    HW1 2954   5.906   0.097   5.577
  685SOL    HW2 2955   5.778   0.149   5.665
  686SOL     OW 2956   5.381   5.002   2.839
  686SOL    HW1 2957   5.305   4.943   2.868
  686SOL    HW2 2958   5.381   5.009   2.739
  687SOL     OW 2959   6.449   3.538   5.771
  687SOL    HW1 2960   6.428   3.589   5.855
  687SOL    HW2 2961   6.545   3.551   5.747
  688SOL     OW 2962   6.976   4.240   5.769
  688SOL    HW1 2963   6.928   4.231   5.681
  688SOL    HW2 2964   0.052   4.221   5.755
  689SOL     OW 2965   5.845   3.618   5.636
  689SOL    HW1 2966   5.789   3.546   5.677
  689SOL    HW2 2967   5.900   3.663   5.706
  690SOL     OW 2968   1.590   1.982   3.446
  690SOL    HW1 2969   1.517   1.916   3.431
  690SOL    HW2 2970   1.598   2.042   3.366
  691SOL     OW 2971   0.932   3.005   6.375
  691SOL    HW1 2972   0.856   2.963   6.325
  691SOL    HW2 2973   1.011   3.012   6.315
  692SOL     OW 2974   2.191   0.310   3.112
  692SOL    HW1 2975   2.266   0.376   3.120
  692SOL    HW2 2976   2.227   0.217   3.118
  693SOL     OW 2977   7.009   2.009   1.899
  693SOL    HW1 2978   7.008   2.093   1.844
  693SOL    HW2 2979   6.920   1.963   1.890
  694SOL     OW 2980   1.996   0.319   1.340
  694SOL    HW1 2981   1.955   0.233   1.369
  694SOL    HW2 2982   2.073   0.341   1.401
  695SOL     OW 2983   4.387   6.466   5.560
  695SOL    HW1 2984   4.379   6.495   5.465
  695SOL    HW2 2985   4.343   6.377   5.572
  696SOL     OW 2986   4.270   5.538   2.253
  696SOL    HW1 2987   4.366   5.528   2.226
  696SOL    HW2 2988   4.225   5.449   2.247
  697SOL     OW 2989   1.391   4.255   3.565
  697SOL    HW1 2990   1.334   4.176   3.542
  697SOL    HW2 2991   1.470   4.258   3.505
  698SOL     OW 2992   4.505   0.344   3.548
  698SOL    HW1 2993   4.545   0.324   3.638
  698SOL    HW2 2994   4.410   0.372   3.559
  699SOL     OW 2995   1.832   4.257   1.060
  699SOL    HW1 2996   1.912   4.276   1.117
  699SOL    HW2 2997   1.826   4.323   0.986
  700SOL     OW 2998   2.277   1.550   4.596
  700SOL    HW1 2999   2.283   1.628   4.533
  700SOL    HW2 3000   2.329   1.571   4.679
  701SOL     OW 3001   0.382   4.352   6.186
  701SOL    HW1 3002   0.315   4.425   6.172
  701SOL    HW2 3003   0.335   4.266   6.206
  702SOL     OW 3004   5.576   6.108   4.338
  702SOL    HW1 3005   5.609   6.129   4.246
  702SOL    HW2 3006   5.512   6.032   4.334
  703SOL     OW 3007   3.731   3.650   6.511
  703SOL    HW1 3008   3.688   3.571   6.554
  703SOL    HW2 3009   3.681   3.733   6.536
  704SOL     OW 3010   2.154   0.015   7.019
  704SOL    HW1 3011   2.067   6.989   7.007
  704SOL    HW2 3012   2.183   0.055   6.932
  705SOL     OW 3013   6.101   2.174   2.427
  705SOL    HW1 3014   6.167   2.128   2.486
  705SOL    HW2 3015   6.082   2.117   2.347
  706SOL     OW 3016   3.597   1.887   3.499
  706SOL    HW1 3017   3.552   1.818   3.557
  706SOL    HW2 3018   3.549   1.893   3.412
  707SOL     OW 3019   5.137   0.834   1.677
  707SOL    HW1 3020   5.160   0.795   1.766
  707SOL    HW2 3021   5.216   0.882   1.640
  708SOL     OW 3022   4.298   0.900   1.778
  708SOL    HW1 3023   4.223   0.964   1.797
  708SOL    HW2 3024   4.281   0.853   1.692
  709SOL     OW 3025   0.736   4.833   0.312
  709SOL    HW1 3026   0.669   4.770   0.352
  709SOL    HW2 3027   0.696   4.924   0.304
  710SOL     OW 3028   2.954   3.698   2.666
  710SOL    HW1 3029   2.987   3.792   2.664
  710SOL    HW2 3030   2.973   3.654   2.578
  711SOL     OW 3031   0.544   0.516   4.313
  711SOL    HW1 3032   0.592   0.580   4.372
  711SOL    HW2 3033   0.469   0.563   4.266
  712SOL     OW 3034   1.494   3.913   1.571
  712SOL    HW1 3035   1.570   3.951   1.623
  712SOL    HW2 3036   1.482   3.817   1.595
  713SOL     OW 3037   3.717   2.932   2.815
  713SOL    HW1 3038   3.651   2.934   2.891
  713SOL    HW2 3039   3.678   2.883   2.738
  714SOL     OW 3040   4.754   5.056   4.911
  714SOL    HW1 3041   4.726   4.964   4.882
  714SOL    HW2 3042   4.762   5.114   4.830
  715SOL     OW 3043   4.302   6.986   6.432
  715SOL    HW1 3044   4.340   6.921   6.366
  715SOL    HW2 3045   4.227   6.943   6.482
  716SOL     OW 3046   0.050   4.862   1.390
  716SOL    HW1 3047   0.084   4.931   1.327
  716SOL    HW2 3048   0.063   4.771   1.351
  717SOL     OW 3049   6.534   2.469   0.757
  717SOL    HW1 3050   6.484   2.472   0.843
  717SOL    HW2 3051   6.532   2.375   0.721
  718SOL     OW 3052   3.900   3.723   6.138
  718SOL    HW1 3053   3.944   3.708   6.050
  718SOL    HW2 3054   3.884   3.635   6.183
  719SOL     OW 3055   5.694   3.905   1.055
  719SOL    HW1 3056   5.676   3.890   1.152
  719SOL    HW2 3057   5.701   3.817   1.008
  720SOL     OW 3058   2.651   1.584   6.464
  720SOL    HW1 3059   2.625   1.503   6.412
  720SOL    HW2 3060   2.569   1.624   6.507
  721SOL     OW 3061   1.313   0.482   5.941
  721SOL    HW1 3062   1.250   0.411   5.973
  721SOL    HW2 3063   1.407   0.455   5.961
  722SOL     OW 3064   3.848   0.146   4.755
  722SOL    HW1 3065   3.907   0.075   4.717
  722SOL    HW2 3066   3.832   0.128   4.852
  723SOL     OW 3067   1.018   2.697   1.835
  723SOL    HW1 3068   1.011   2.650   1.924
  723SOL    HW2 3069   1.107   2.676   1.794
  724SOL     OW 3070   0.114   0.905   4.967
  724SOL    HW1 3071   0.180   0.924   4.895
  724SOL    HW2 3072   0.161   0.885   5.052
  725SOL     OW 3073   1.971   4.936   2.072
  725SOL    HW1 3074   2.054   4.930   2.017
  725SOL    HW2 3075   1.946   4.844   2.104
  726SOL     OW 3076   4.167   6.695   6.374
  726SOL    HW1 3077   4.111   6.686   6.292
  726SOL    HW2 3078   4.236   6.622   6.375
  727SOL     OW 3079   2.846   5.005   4.130
  727SOL    HW1 3080   2.849   4.923   4.072
  727SOL    HW2 3081   2.925   5.004   4.191
  728SOL     OW 3082   6.943   4.011   5.177
  728SOL    HW1 3083   6.895   4.099   5.176
  728SOL    HW2 3084   6.910   3.953   5.103
  729SOL     OW 3085   2.393   0.312   2.004
  729SOL    HW1 3086   2.482   0.267   2.002
  729SOL    HW2 3087   2.383   0.362   2.090
  730SOL     OW 3088   6.002   0.518   3.631
  730SOL    HW1 3089   6.059   0.562   3.700
  730SOL    HW2 3090   5.945   0.448   3.675
  731SOL     OW 3091   5.643   3.911   3.909
  731SOL    HW1 3092   5.685   3.878   3.824
  731SOL    HW2 3093   5.544   3.897   3.905
  732SOL     OW 3094   6.398   2.971   1.245
  732SOL    HW1 3095   6.453   2.892   1.216
  732SOL    HW2 3096   6.413   3.046   1.181
  733SOL     OW 3097   4.930   4.198   3.677
  733SOL    HW1 3098   4.855   4.217   3.614
  733SOL    HW2 3099   5.015   4.237   3.641
  734SOL     OW 3100   6.523   4.590   0.989
  734SOL    HW1 3101   6.579   4.544   1.058
  734SOL    HW2 3102   6.428   4.596   1.021
  735SOL     OW 3103   1.757   4.400   6.426
  735SOL    HW1 3104   1.716   4.329   6.369
  735SOL    HW2 3105   1.748   4.373   6.523
  736SOL     OW 3106   6.292   0.920   3.338
  736SOL    HW1 3107   6.384   0.943   3.371
  736SOL    HW2 3108   6.232   0.999   3.351
  737SOL     OW 3109   5.286   3.436   0.878
  737SOL    HW1 3110   5.188   3.420   0.862
  737SOL    HW2 3111   5.324   3.360   0.929
  738SOL     OW 3112   0.695   3.906   3.952
  738SOL    HW1 3113   0.661   3.993   3.987
  738SOL    HW2 3114   0.702   3.911   3.852
  739SOL     OW 3115   4.234   6.134   6.326
  739SOL    HW1 3116   4.211   6.221   6.370
  739SOL    HW2 3117   4.154   6.099   6.278
  740SOL     OW 3118   6.584   6.713   1.783
  740SOL    HW1 3119   6.550   6.671   1.699
  740SOL    HW2 3120   6.681   6.693   1.793
  741SOL     OW 3121   1.849   0.004   2.704
  741SOL    HW1 3122   1.833   0.092   2.658
  741SOL    HW2 3123   1.835   6.951   2.639
  742SOL     OW 3124   0.955   0.181   3.284
  742SOL    HW1 3125   0.898   0.101   3.264
  742SOL    HW2 3126   1.014   0.162   3.362
  743SOL     OW 3127   2.026   3.839   4.425
  743SOL    HW1 3128   2.018   3.833   4.325
  743SOL    HW2 3129   2.084   3.917   4.448
  744SOL     OW 3130   0.011   5.467   0.632
  744SOL    HW1 3131   7.016   5.542   0.696
  744SOL    HW2 3132   6.979   5.388   0.659
  745SOL     OW 3133   1.570   5.759   2.568
  745SOL    HW1 3134   1.543   5.800   2.480
  745SOL    HW2 3135   1.493   5.705   2.604
  746SOL     OW 3136   1.612   1.074   5.086
  746SOL    HW1 3137   1.649   1.082   4.993
  746SOL    HW2 3138   1.515   1.097   5.085
  747SOL     OW 3139   5.126   4.703   3.358
  747SOL    HW1 3140   5.116   4.753   3.444
  747SOL    HW2 3141   5.188   4.626   3.371
  748SOL     OW 3142   4.985   3.620   1.424
  748SOL    HW1 3143   5.068   3.571   1.449
  748SOL    HW2 3144   4.918   3.555   1.388
  749SOL     OW 3145   6.943   1.903   5.292
  749SOL    HW1 3146   6.978   1.821   5.246
  749SOL    HW2 3147   6.853   1.926   5.257
  750SOL     OW 3148   2.365   4.359   0.236
  750SOL    HW1 3149   2.281   4.337   0.286
  750SOL    HW2 3150   2.435   4.292   0.258
  751SOL     OW 3151   4.022   0.939   7.001
  751SOL    HW1 3152   4.025   1.033   6.967
  751SOL    HW2 3153   3.935   0.897   6.976
  752SOL     OW 3154   4.736   2.049   1.460
  752SOL    HW1 3155   4.672   1.986   1.416
  752SOL    HW2 3156   4.700   2.076   1.549
  753SOL     OW 3157   2.243   2.773   4.342
  753SOL    HW1 3158   2.178   2.708   4.383
  753SOL    HW2 3159   2.229   2.864   4.382
  754SOL     OW 3160   3.979   5.613   6.999
  754SOL    HW1 3161   3.898   5.646   6.951
  754SOL    HW2 3162   4.033   5.555   6.938
  755SOL     OW 3163   0.345   6.259   0.478
  755SOL    HW1 3164   0.431   6.311   0.483
  755SOL    HW2 3165   0.276   6.314   0.432
  756SOL     OW 3166   5.079   0.800   2.822
  756SOL    HW1 3167   5.072   0.703   2.797
  756SOL    HW2 3168   4.992   0.831   2.861
  757SOL     OW 3169   0.138   6.804   3.971
  757SOL    HW1 3170   0.204   6.746   3.925
  757SOL    HW2 3171   0.060   6.749   4.001
  758SOL     OW 3172   3.865   1.937   0.983
  758SOL    HW1 3173   3.862   1.874   1.060
  758SOL    HW2 3174   3.789   2.001   0.988
  759SOL     OW 3175   1.408   1.842   0.215
  759SOL    HW1 3176   1.434   1.935   0.190
  759SOL    HW2 3177   1.361   1.799   0.139
  760SOL     OW 3178   4.830   1.057   6.315
  760SOL    HW1 3179   4.790   0.987   6.256
  760SOL    HW2 3180   4.842   1.142   6.264
  761SOL     OW 3181   5.891   2.545   0.054
  761SOL    HW1 3182   5.919   2.539   6.980
  761SOL    HW2 3183   5.962   2.591   0.107
  762SOL     OW 3184   2.265   6.714   4.130
  762SOL    HW1 3185   2.350   6.731   4.080
  762SOL    HW2 3186   2.197   6.676   4.068
  763SOL     OW 3187   4.187   5.835   6.706
  763SOL    HW1 3188   4.249   5.759   6.726
  763SOL    HW2 3189   4.106   5.800   6.660
  764SOL     OW 3190   3.951   1.267   2.000
  764SOL    HW1 3191   4.022   1.316   2.051
  764SOL    HW2 3192   3.866   1.266   2.053
  765SOL     OW 3193   0.018   0.110   3.156
  765SOL    HW1 3194   7.004   0.078   3.245
  765SOL    HW2 3195   6.963   0.119   3.092
  766SOL     OW 3196   0.178   6.472   0.220
  766SOL    HW1 3197   0.187   6.392   0.160
  766SOL    HW2 3198   0.269   6.499   0.252
  767SOL     OW 3199   6.169   6.810   2.855
  767SOL    HW1 3200   6.111   6.735   2.884
  767SOL    HW2 3201   6.211   6.788   2.767
  768SOL     OW 3202   2.553   6.492   3.130
  768SOL    HW1 3203   2.497   6.439   3.066
  768SOL    HW2 3204   2.563   6.586   3.096
  769SOL     OW 3205   4.353   0.827   5.512
  769SOL    HW1 3206   4.330   0.813   5.609
  769SOL    HW2 3207   4.339   0.741   5.463
  770SOL     OW 3208   2.933   4.811   3.939
  770SOL    HW1 3209   3.006   4.799   4.006
  770SOL    HW2 3210   2.973   4.841   3.852
  771SOL     OW 3211   0.766   5.198   3.028
  771SOL    HW1 3212   0.674   5.237   3.031
  771SOL    HW2 3213   0.760   5.102   3.001
  772SOL     OW 3214   0.020   3.784   6.291
  772SOL    HW1 3215   6.947   3.789   6.323
  772SOL    HW2 3216   0.079   3.833   6.355
  773SOL     OW 3217   6.999   3.629   2.507
  773SOL    HW1 3218   0.062   3.683   2.509
  773SOL    HW2 3219   7.002   3.559   2.578
  774SOL     OW 3220   1.574   0.889   1.080
  774SOL    HW1 3221   1.515   0.828   1.133
  774SOL    HW2 3222   1.656   0.911   1.132
  775SOL     OW 3223   1.479   2.161   4.542
  775SOL    HW1 3224   1.486   2.062   4.527
  775SOL    HW2 3225   1.394   2.182   4.589
  776SOL     OW 3226   2.506   0.434   6.110
  776SOL    HW1 3227   2.569   0.408   6.183
  776SOL    HW2 3228   2.426   0.480   6.150
  777SOL     OW 3229   3.972   1.558   1.195
  777SOL    HW1 3230   4.021   1.484   1.241
  777SOL    HW2 3231   4.035   1.635   1.180
  778SOL     OW 3232   4.358   6.646   3.878
  778SOL    HW1 3233   4.303   6.569   3.911
  778SOL    HW2 3234   4.431   6.613   3.819
  779SOL     OW 3235   0.883   2.122   2.164
  779SOL    HW1 3236   0.800   2.139   2.110
  779SOL    HW2 3237   0.958   2.102   2.102
  780SOL     OW 3238   6.154   3.657   4.539
  780SOL    HW1 3239   6.149   3.566   4.499
  780SOL    HW2 3240   6.205   3.654   4.625
  781SOL     OW 3241   6.669   0.830   6.474
  781SOL    HW1 3242   6.748   0.773   6.452
  781SOL    HW2 3243   6.653   0.895   6.399
  782SOL     OW 3244   6.712   2.815   0.891
  782SOL    HW1 3245   6.619   2.815   0.854
  782SOL    HW2 3246   6.778   2.804   0.817
  783SOL     OW 3247   2.497   5.056   0.496
  783SOL    HW1 3248   2.589   5.095   0.502
  783SOL    HW2 3249   2.491   4.975   0.555
  784SOL     OW 3250   4.347   0.957   4.878
  784SOL    HW1 3251   4.343   0.982   4.975
  784SOL    HW2 3252   4.343   0.858   4.868
  785SOL     OW 3253   6.388   2.083   3.482
  785SOL    HW1 3254   6.349   2.172   3.504
  785SOL    HW2 3255   6.375   2.021   3.560
  786SOL     OW 3256   0.086   6.722   0.255
  786SOL    HW1 3257   0.116   6.628   0.243
  786SOL    HW2 3258   0.075   6.741   0.353
  787SOL     OW 3259   2.831   2.044   6.202
  787SOL    HW1 3260   2.837   2.138   6.236
  787SOL    HW2 3261   2.781   1.988   6.268
  788SOL     OW 3262   1.585   3.477   3.784
  788SOL    HW1 3263   1.658   3.419   3.819
  788SOL    HW2 3264   1.619   3.531   3.707
  789SOL     OW 3265   5.478   4.115   1.742
  789SOL    HW1 3266   5.464   4.193   1.682
  789SOL    HW2 3267   5.414   4.118   1.818
  790SOL     OW 3268   2.941   1.454   3.569
  790SOL    HW1 3269   2.864   1.505   3.531
  790SOL    HW2 3270   2.907   1.379   3.626
  791SOL     OW 3271   3.001   1.321   4.451
  791SOL    HW1 3272   2.958   1.330   4.541
  791SOL    HW2 3273   3.016   1.411   4.412
  792SOL     OW 3274   5.819   0.405   3.336
  792SOL    HW1 3275   5.791   0.404   3.240
  792SOL    HW2 3276   5.908   0.451   3.345
  793SOL     OW 3277   5.256   0.497   0.183
  793SOL    HW1 3278   5.262   0.438   0.264
  793SOL    HW2 3279   5.306   0.456   0.107
  794SOL     OW 3280   2.140   5.135   5.900
  794SOL    HW1 3281   2.142   5.168   5.994
  794SOL    HW2 3282   2.185   5.200   5.840
  795SOL     OW 3283   4.270   4.249   6.375
  795SOL    HW1 3284   4.296   4.324   6.437
  795SOL    HW2 3285   4.242   4.287   6.287
  796SOL     OW 3286   0.301   2.217   6.995
  796SOL    HW1 3287   0.332   2.312   6.995
  796SOL    HW2 3288   0.325   2.174   6.908
  797SOL     OW 3289   5.866   2.884   4.201
  797SOL    HW1 3290   5.928   2.959   4.179
  797SOL    HW2 3291   5.797   2.874   4.130
  798SOL     OW 3292   5.145   1.164   6.540
  798SOL    HW1 3293   5.150   1.245   6.598
  798SOL    HW2 3294   5.136   1.192   6.445
  799SOL     OW 3295   6.780   2.231   3.129
  799SOL    HW1 3296   6.796   2.311   3.187
  799SOL    HW2 3297   6.687   2.234   3.093
  800SOL     OW 3298   6.191   1.156   2.394
  800SOL    HW1 3299   6.092   1.148   2.406
  800SOL    HW2 3300   6.236   1.144   2.482
  801SOL     OW 3301   7.007   2.201   3.029
  801SOL    HW1 3302   6.915   2.195   3.067
  801SOL    HW2 3303   0.042   2.259   3.088
  802SOL     OW 3304   5.626   1.000   0.558
  802SOL    HW1 3305   5.597   1.081   0.608
  802SOL    HW2 3306   5.546   0.951   0.523
  803SOL     OW 3307   6.506   5.743   4.617
  803SOL    HW1 3308   6.586   5.800   4.634
  803SOL    HW2 3309   6.510   5.706   4.524
  804SOL     OW 3310   0.814   6.885   6.834
  804SOL    HW1 3311   0.726   6.850   6.865
  804SOL    HW2 3312   0.801   6.945   6.755
  805SOL     OW 3313   2.863   2.956   6.028
  805SOL    HW1 3314   2.958   2.926   6.023
  805SOL    HW2 3315   2.858   3.049   6.064
  806SOL     OW 3316   5.234   1.039   0.726
  806SOL    HW1 3317   5.149   1.075   0.766
  806SOL    HW2 3318   5.307   1.107   0.737
  807SOL     OW 3319   1.380   0.195   3.349
  807SOL    HW1 3320   1.320   0.164   3.422
  807SOL    HW2 3321   1.425   0.280   3.377
  808SOL     OW 3322   5.389   3.283   5.723
  808SOL    HW1 3323   5.309   3.310   5.778
  808SOL    HW2 3324   5.362   3.276   5.627
  809SOL     OW 3325   0.668   4.150   6.376
  809SOL    HW1 3326   0.734   4.177   6.306
  809SOL    HW2 3327   0.621   4.067   6.347
  810SOL     OW 3328   5.476   3.697   0.029
  810SOL    HW1 3329   5.551   3.754   7.015
  810SOL    HW2 3330   5.498   3.601   0.014
  811SOL     OW 3331   5.279   4.800   3.757
  811SOL    HW1 3332   5.208   4.857   3.799
  811SOL    HW2 3333   5.365   4.812   3.807
  812SOL     OW 3334   0.250   0.132   1.477
  812SOL    HW1 3335   0.204   0.214   1.441
  812SOL    HW2 3336   0.200   0.097   1.556
  813SOL     OW 3337   5.117   5.084   2.216
  813SOL    HW1 3338   5.181   5.135   2.159
  813SOL    HW2 3339   5.093   5.138   2.296
  814SOL     OW 3340   6.159   6.032   2.253
  814SOL    HW1 3341   6.209   6.000   2.334
  814SOL    HW2 3342   6.198   6.119   2.222
  815SOL     OW 3343   6.585   2.012   1.110
  815SOL    HW1 3344   6.497   2.010   1.158
  815SOL    HW2 3345   6.586   1.941   1.039
  816SOL     OW 3346   6.681   6.175   1.083
  816SOL    HW1 3347   6.590   6.206   1.111
  816SOL    HW2 3348   6.729   6.137   1.163
  817SOL     OW 3349   1.894   3.216   2.380
  817SOL    HW1 3350   1.986   3.190   2.350
  817SOL    HW2 3351   1.847   3.136   2.417
  818SOL     OW 3352   6.112   1.100   0.617
  818SOL    HW1 3353   6.139   1.007   0.595
  818SOL    HW2 3354   6.025   1.122   0.572
  819SOL     OW 3355   6.933   3.025   3.994
  819SOL    HW1 3356   6.971   3.097   3.936
  819SOL    HW2 3357   7.006   2.979   4.044
  820SOL     OW 3358   1.117   3.229   4.800
  820SOL    HW1 3359   1.109   3.325   4.773
  820SOL    HW2 3360   1.213   3.206   4.812
  821SOL     OW 3361   1.524   3.444   6.704
  821SOL    HW1 3362   1.478   3.356   6.692
  821SOL    HW2 3363   1.472   3.501   6.768
  822SOL     OW 3364   1.351   3.679   4.867
  822SOL    HW1 3365   1.296   3.739   4.809
  822SOL    HW2 3366   1.443   3.717   4.877
  823SOL     OW 3367   4.129   4.517   0.195
  823SOL    HW1 3368   4.207   4.522   0.257
  823SOL    HW2 3369   4.050   4.480   0.244
  824SOL     OW 3370   5.120   2.646   5.101
  824SOL    HW1 3371   5.071   2.730   5.128
  824SOL    HW2 3372   5.135   2.590   5.183
  825SOL     OW 3373   2.067   3.737   2.658
  825SOL    HW1 3374   2.074   3.830   2.692
  825SOL    HW2 3375   2.096   3.734   2.562
  826SOL     OW 3376   6.566   3.621   6.737
  826SOL    HW1 3377   6.527   3.626   6.645
  826SOL    HW2 3378   6.494   3.601   6.803
  827SOL     OW 3379   3.521   5.616   0.255
  827SOL    HW1 3380   3.520   5.617   0.155
  827SOL    HW2 3381   3.513   5.709   0.290
  828SOL     OW 3382   5.741   0.427   5.946
  828SOL    HW1 3383   5.791   0.416   6.032
  828SOL    HW2 3384   5.705   0.520   5.939
  829SOL     OW 3385   3.153   3.044   4.365
  829SOL    HW1 3386   3.085   3.072   4.433
  829SOL    HW2 3387   3.244   3.054   4.404
  830SOL     OW 3388   4.730   4.202   5.295
  830SOL    HW1 3389   4.710   4.193   5.393
  830SOL    HW2 3390   4.664   4.265   5.253
  831SOL     OW 3391   0.021   1.120   5.913
  831SOL    HW1 3392   6.987   1.037   5.910
  831SOL    HW2 3393   6.983   1.200   5.906
  832SOL     OW 3394   2.448   2.057   6.290
  832SOL    HW1 3395   2.375   2.077   6.355
  832SOL    HW2 3396   2.408   2.040   6.200
  833SOL     OW 3397   6.443   6.513   6.187
  833SOL    HW1 3398   6.356   6.561   6.172
  833SOL    HW2 3399   6.472   6.526   6.281
  834SOL     OW 3400   2.988   3.589   4.099
  834SOL    HW1 3401   2.979   3.670   4.041
  834SOL    HW2 3402   2.971   3.613   4.194
  835SOL     OW 3403   3.549   6.748   3.588
  835SOL    HW1 3404   3.541   6.833   3.537
  835SOL    HW2 3405   3.615   6.687   3.544
  836SOL     OW 3406   2.740   0.919   0.279
  836SOL    HW1 3407   2.718   0.856   0.204
  836SOL    HW2 3408   2.821   0.972   0.255
  837SOL     OW 3409   4.844   1.503   5.811
  837SOL    HW1 3410   4.846   1.508   5.711
  837SOL    HW2 3411   4.816   1.411   5.839
  838SOL     OW 3412   2.023   5.589   3.707
  838SOL    HW1 3413   2.020   5.528   3.627
  838SOL    HW2 3414   1.936   5.639   3.713
  839SOL     OW 3415   3.121   1.766   2.901
  839SOL    HW1 3416   3.187   1.831   2.939
  839SOL    HW2 3417   3.166   1.678   2.887
  840SOL     OW 3418   0.536   1.475   0.135
  840SOL    HW1 3419   0.494   1.512   0.052
  840SOL    HW2 3420   0.510   1.380   0.147
  841SOL     OW 3421   0.523   3.652   6.868
  841SOL    HW1 3422   0.429   3.619   6.879
  841SOL    HW2 3423   0.584   3.575   6.850
  842SOL     OW 3424   3.747   5.046   2.874
  842SOL    HW1 3425   3.708   5.090   2.955
  842SOL    HW2 3426   3.830   4.996   2.900
  843SOL     OW 3427   6.630   1.731   2.006
  843SOL    HW1 3428   6.655   1.823   2.038
  843SOL    HW2 3429   6.531   1.725   1.997
  844SOL     OW 3430   4.793   5.899   0.939
  844SOL    HW1 3431   4.750   5.943   1.018
  844SOL    HW2 3432   4.773   5.802   0.939
  845SOL     OW 3433   0.329   4.631   5.057
  845SOL    HW1 3434   0.311   4.535   5.035
  845SOL    HW2 3435   0.281   4.690   4.992
  846SOL     OW 3436   6.621   1.567   6.527
  846SOL    HW1 3437   6.661   1.659   6.518
  846SOL    HW2 3438   6.594   1.534   6.437
  847SOL     OW 3439   4.926   3.425   2.331
  847SOL    HW1 3440   4.902   3.512   2.288
  847SOL    HW2 3441   4.882   3.350   2.282
  848SOL     OW 3442   6.032   0.720   6.482
  848SOL    HW1 3443   6.061   0.774   6.403
  848SOL    HW2 3444   5.940   0.748   6.509
  849SOL     OW 3445   0.444   5.220   4.530
  849SOL    HW1 3446   0.484   5.287   4.468
  849SOL    HW2 3447   0.500   5.137   4.532
  850SOL     OW 3448   3.853   0.685   2.790
  850SOL    HW1 3449   3.929   0.697   2.726
  850SOL    HW2 3450   3.780   0.748   2.767
  851SOL     OW 3451   1.319   0.644   0.171
  851SOL    HW1 3452   1.235   0.589   0.173
  851SOL    HW2 3453   1.384   0.609   0.238
  852SOL     OW 3454   2.167   3.654   6.633
  852SOL    HW1 3455   2.193   3.573   6.687
  852SOL    HW2 3456   2.070   3.675   6.649
  853SOL     OW 3457   0.674   3.574   1.270
  853SOL    HW1 3458   0.582   3.554   1.237
  853SOL    HW2 3459   0.727   3.618   1.197
  854SOL     OW 3460   5.209   5.817   2.153
  854SOL    HW1 3461   5.287   5.871   2.184
  854SOL    HW2 3462   5.153   5.871   2.090
  855SOL     OW 3463   5.006   6.714   1.846
  855SOL    HW1 3464   5.051   6.785   1.791
  855SOL    HW2 3465   5.071   6.640   1.863
  856SOL     OW 3466   2.338   6.376   5.092
  856SOL    HW1 3467   2.286   6.434   5.154
  856SOL    HW2 3468   2.282   6.298   5.064
  857SOL     OW 3469   6.136   3.016   1.781
  857SOL    HW1 3470   6.172   3.078   1.712
  857SOL    HW2 3471   6.040   3.036   1.797
  858SOL     OW 3472   3.103   4.685   1.298
  858SOL    HW1 3473   3.068   4.775   1.326
  858SOL    HW2 3474   3.182   4.661   1.354
  859SOL     OW 3475   6.600   4.905   0.386
  859SOL    HW1 3476   6.699   4.920   0.394
  859SOL    HW2 3477   6.576   4.890   0.291
  860SOL     OW 3478   2.479   4.930   1.316
  860SOL    HW1 3479   2.563   4.886   1.282
  860SOL    HW2 3480   2.414   4.860   1.344
  861SOL     OW 3481   3.600   5.853   5.770
  861SOL    HW1 3482   3.505   5.821   5.759
  861SOL    HW2 3483   3.633   5.888   5.682
  862SOL     OW 3484   4.624   4.433   4.489
  862SOL    HW1 3485   4.654   4.338   4.497
  862SOL    HW2 3486   4.663   4.473   4.406
  863SOL     OW 3487   5.868   1.381   1.253
  863SOL    HW1 3488   5.927   1.352   1.177
  863SOL    HW2 3489   5.922   1.391   1.336
  864SOL     OW 3490   6.596   4.211   2.878
  864SOL    HW1 3491   6.514   4.179   2.926
  864SOL    HW2 3492   6.592   4.310   2.867
  865SOL     OW 3493   2.059   6.378   4.328
  865SOL    HW1 3494   2.055   6.414   4.421
  865SOL    HW2 3495   2.012   6.440   4.266
  866SOL     OW 3496   2.986   2.038   1.977
  866SOL    HW1 3497   3.020   2.115   2.031
  866SOL    HW2 3498   3.040   1.956   1.997
  867SOL     OW 3499   2.176   3.386   6.332
  867SOL    HW1 3500   2.120   3.325   6.388
  867SOL    HW2 3501   2.225   3.334   6.263
  868SOL     OW 3502   5.216   1.951   3.241
  868SOL    HW1 3503   5.278   1.881   3.277
  868SOL    HW2 3504   5.211   2.027   3.305
  869SOL     OW 3505   5.993   5.751   2.694
  869SOL    HW1 3506   5.928   5.826   2.710
  869SOL    HW2 3507   5.951   5.684   2.633
  870SOL     OW 3508   6.844   1.274   1.044
  870SOL    HW1 3509   6.827   1.208   0.971
  870SOL    HW2 3510   6.872   1.225   1.127
  871SOL     OW 3511   6.158   2.625   1.102
  871SOL    HW1 3512   6.126   2.705   1.153
  871SOL    HW2 3513   6.086   2.555   1.100
  872SOL     OW 3514   6.055   1.977   3.606
  872SOL    HW1 3515   6.040   1.929   3.520
  872SOL    HW2 3516   6.042   1.914   3.682
  873SOL     OW 3517   4.015   6.977   5.202
  873SOL    HW1 3518   4.091   6.978   5.266
  873SOL    HW2 3519   3.992   6.883   5.178
  874SOL     OW 3520   0.511   3.308   5.551
  874SOL    HW1 3521   0.580   3.258   5.498
  874SOL    HW2 3522   0.427   3.254   5.555
  875SOL     OW 3523   6.568   4.138   0.157
  875SOL    HW1 3524   6.514   4.070   0.107
  875SOL    HW2 3525   6.511   4.180   0.228
  876SOL     OW 3526   0.293   3.411   1.846
  876SOL    HW1 3527   0.241   3.415   1.761
  876SOL    HW2 3528   0.364   3.341   1.840
  877SOL     OW 3529   5.819   5.870   0.378
  877SOL    HW1 3530   5.866   5.899   0.294
  877SOL    HW2 3531   5.789   5.951   0.428
  878SOL     OW 3532   2.685   4.796   0.465
  878SOL    HW1 3533   2.697   4.895   0.478
  878SOL    HW2 3534   2.687   4.775   0.368
  879SOL     OW 3535   4.444   2.454   2.419
  879SOL    HW1 3536   4.404   2.496   2.337
  879SOL    HW2 3537   4.526   2.403   2.393
  880SOL     OW 3538   3.885   5.235   0.325
  880SOL    HW1 3539   3.897   5.219   0.422
  880SOL    HW2 3540   3.824   5.314   0.312
  881SOL     OW 3541   4.142   5.053   5.312
  881SOL    HW1 3542   4.175   5.121   5.246
  881SOL    HW2 3543   4.117   4.969   5.264
  882SOL     OW 3544   1.156   1.173   4.722
  882SOL    HW1 3545   1.140   1.101   4.788
  882SOL    HW2 3546   1.254   1.182   4.704
  883SOL     OW 3547   3.201   5.427   5.978
  883SOL    HW1 3548   3.251   5.350   6.017
  883SOL    HW2 3549   3.253   5.465   5.901
  884SOL     OW 3550   5.190   3.510   1.576
  884SOL    HW1 3551   5.205   3.441   1.647
  884SOL    HW2 3552   5.270   3.512   1.515
  885SOL     OW 3553   4.805   6.562   0.002
  885SOL    HW1 3554   4.763   6.575   6.934
  885SOL    HW2 3555   4.738   6.582   0.074
  886SOL     OW 3556   4.113   1.945   6.123
  886SOL    HW1 3557   4.104   2.039   6.092
  886SOL    HW2 3558   4.068   1.935   6.212
  887SOL     OW 3559   4.133   0.396   6.162
  887SOL    HW1 3560   4.184   0.313   6.187
  887SOL    HW2 3561   4.169   0.474   6.214
  888SOL     OW 3562   6.366   5.970   3.013
  888SOL    HW1 3563   6.329   5.926   3.095
  888SOL    HW2 3564   6.292   6.011   2.960
  889SOL     OW 3565   0.854   6.468   4.613
  889SOL    HW1 3566   0.933   6.428   4.567
  889SOL    HW2 3567   0.880   6.557   4.651
  890SOL     OW 3568   2.753   4.701   2.259
  890SOL    HW1 3569   2.686   4.632   2.290
  890SOL    HW2 3570   2.768   4.691   2.161
  891SOL     OW 3571   5.327   3.436   6.624
  891SOL    HW1 3572   5.403   3.405   6.680
  891SOL    HW2 3573   5.269   3.358   6.600
  892SOL     OW 3574   2.230   4.503   1.187
  892SOL    HW1 3575   2.328   4.498   1.171
  892SOL    HW2 3576   2.208   4.584   1.241
  893SOL     OW 3577   1.278   0.177   0.236
  893SOL    HW1 3578   1.252   0.136   0.149
  893SOL    HW2 3579   1.321   0.107   0.294
  894SOL     OW 3580   0.936   5.930   4.013
  894SOL    HW1 3581   0.893   5.844   3.983
  894SOL    HW2 3582   1.025   5.909   4.055
  895SOL     OW 3583   2.577   6.570   5.199
  895SOL    HW1 3584   2.541   6.487   5.156
  895SOL    HW2 3585   2.537   6.581   5.290
  896SOL     OW 3586   5.627   6.947   2.814
  896SOL    HW1 3587   5.584   6.857   2.820
  896SOL    HW2 3588   5.668   6.959   2.724
  897SOL     OW 3589   5.305   2.515   5.785
  897SOL    HW1 3590   5.209   2.521   5.812
  897SOL    HW2 3591   5.340   2.606   5.763
  898SOL     OW 3592   5.833   6.494   3.363
  898SOL    HW1 3593   5.748   6.463   3.405
  898SOL    HW2 3594   5.871   6.569   3.417
  899SOL     OW 3595   0.743   4.784   5.292
  899SOL    HW1 3596   0.772   4.860   5.350
  899SOL    HW2 3597   0.644   4.786   5.281
  900SOL     OW 3598   0.688   5.858   3.344
  900SOL    HW1 3599   0.691   5.917   3.264
  900SOL    HW2 3600   0.761   5.789   3.338
  901SOL     OW 3601   6.197   1.666   3.644
  901SOL    HW1 3602   6.185   1.741   3.579
  901SOL    HW2 3603   6.143   1.587   3.614
  902SOL     OW 3604   0.193   6.216   0.080
  902SOL    HW1 3605   0.214   6.237   7.006
  902SOL    HW2 3606   0.127   6.140   0.084
  903SOL     OW 3607   1.196   5.396   0.501
  903SOL    HW1 3608   1.149   5.314   0.467
  903SOL    HW2 3609   1.287   5.401   0.461
  904SOL     OW 3610   1.822   1.600   3.427
  904SOL    HW1 3611   1.724   1.595   3.406
  904SOL    HW2 3612   1.835   1.654   3.510
  905SOL     OW 3613   5.293   2.328   4.786
  905SOL    HW1 3614   5.222   2.258   4.783
  905SOL    HW2 3615   5.251   2.419   4.781
  906SOL     OW 3616   5.933   3.833   5.823
  906SOL    HW1 3617   6.017   3.885   5.837
  906SOL    HW2 3618   5.859   3.875   5.875
  907SOL     OW 3619   6.410   2.761   2.452
  907SOL    HW1 3620   6.361   2.781   2.537
  907SOL    HW2 3621   6.351   2.707   2.392
  908SOL     OW 3622   2.005   0.837   4.422
  908SOL    HW1 3623   1.930   0.778   4.391
  908SOL    HW2 3624   2.055   0.872   4.342
  909SOL     OW 3625   3.410   1.269   1.874
  909SOL    HW1 3626   3.377   1.211   1.800
  909SOL    HW2 3627   3.418   1.215   1.958
  910SOL     OW 3628   2.150   2.120   1.391
  910SOL    HW1 3629   2.100   2.060   1.329
  910SOL    HW2 3630   2.227   2.161   1.343
  911SOL     OW 3631   0.222   4.203   1.174
  911SOL    HW1 3632   0.235   4.140   1.098
  911SOL    HW2 3633   0.149   4.170   1.234
  912SOL     OW 3634   1.287   0.702   5.638
  912SOL    HW1 3635   1.222   0.772   5.664
  912SOL    HW2 3636   1.257   0.658   5.553
  913SOL     OW 3637   2.750   0.998   1.969
  913SOL    HW1 3638   2.738   1.017   1.871
  913SOL    HW2 3639   2.817   1.062   2.007
  914SOL     OW 3640   3.239   6.423   2.845
  914SOL    HW1 3641   3.272   6.335   2.879
  914SOL    HW2 3642   3.187   6.469   2.917
  915SOL     OW 3643   0.923   2.262   0.405
  915SOL    HW1 3644   0.952   2.265   0.309
  915SOL    HW2 3645   0.869   2.344   0.425
  916SOL     OW 3646   2.154   2.922   2.930
  916SOL    HW1 3647   2.057   2.919   2.906
  916SOL    HW2 3648   2.206   2.963   2.855
  917SOL     OW 3649   3.548   1.910   0.253
  917SOL    HW1 3650   3.568   1.839   0.320
  917SOL    HW2 3651   3.461   1.891   0.208
  918SOL     OW 3652   1.406   0.662   6.186
  918SOL    HW1 3653   1.371   0.740   6.135
  918SOL    HW2 3654   1.407   0.581   6.127
  919SOL     OW 3655   2.734   6.082   2.325
  919SOL    HW1 3656   2.753   6.068   2.227
  919SOL    HW2 3657   2.659   6.146   2.335
  920SOL     OW 3658   2.601   0.277   3.972
  920SOL    HW1 3659   2.700   0.293   3.977
  920SOL    HW2 3660   2.566   0.254   4.063
  921SOL     OW 3661   5.262   4.769   5.355
  921SOL    HW1 3662   5.205   4.851   5.362
  921SOL    HW2 3663   5.207   4.693   5.319
  922SOL     OW 3664   2.492   4.043   0.040
  922SOL    HW1 3665   2.537   3.964   0.081
  922SOL    HW2 3666   2.561   4.109   0.010
  923SOL     OW 3667   3.991   0.111   6.273
  923SOL    HW1 3668   4.087   0.137   6.262
  923SOL    HW2 3669   3.941   0.185   6.318
  924SOL     OW 3670   5.405   3.625   3.296
  924SOL    HW1 3671   5.309   3.652   3.305
  924SOL    HW2 3672   5.419   3.583   3.207
  925SOL     OW 3673   6.535   1.873   3.007
  925SOL    HW1 3674   6.532   1.775   2.991
  925SOL    HW2 3675   6.494   1.893   3.096
  926SOL     OW 3676   5.093   6.022   1.182
  926SOL    HW1 3677   5.126   5.928   1.196
  926SOL    HW2 3678   5.000   6.030   1.219
  927SOL     OW 3679   3.897   5.156   5.350
  927SOL    HW1 3680   3.890   5.181   5.447
  927SOL    HW2 3681   3.981   5.103   5.336
  928SOL     OW 3682   0.775   1.409   1.299
  928SOL    HW1 3683   0.786   1.337   1.230
  928SOL    HW2 3684   0.691   1.460   1.282
  929SOL     OW 3685   0.574   2.262   2.114
  929SOL    HW1 3686   0.501   2.223   2.171
  929SOL    HW2 3687   0.629   2.325   2.169
  930SOL     OW 3688   4.964   6.623   3.802
  930SOL    HW1 3689   4.917   6.663   3.881
  930SOL    HW2 3690   4.946   6.679   3.721
  931SOL     OW 3691   1.602   2.788   1.970
  931SOL    HW1 3692   1.542   2.775   2.049
  931SOL    HW2 3693   1.696   2.806   2.001
  932SOL     OW 3694   4.694   6.643   1.360
  932SOL    HW1 3695   4.657   6.689   1.440
  932SOL    HW2 3696   4.694   6.544   1.375
  933SOL     OW 3697   2.108   5.987   2.740
  933SOL    HW1 3698   2.033   5.928   2.710
  933SOL    HW2 3699   2.159   6.018   2.660
  934SOL     OW 3700   3.356   0.836   5.225
  934SOL    HW1 3701   3.275   0.823   5.282
  934SOL    HW2 3702   3.329   0.850   5.130
  935SOL     OW 3703   3.365   3.146   6.234
  935SOL    HW1 3704   3.430   3.162   6.309
  935SOL    HW2 3705   3.414   3.150   6.147
  936SOL     OW 3706   0.552   1.557   1.204
  936SOL    HW1 3707   0.554   1.642   1.152
  936SOL    HW2 3708   0.473   1.556   1.265
  937SOL     OW 3709   4.762   2.233   4.191
  937SOL    HW1 3710   4.760   2.313   4.251
  937SOL    HW2 3711   4.717   2.157   4.237
  938SOL     OW 3712   0.376   2.474   0.023
  938SOL    HW1 3713   0.422   2.563   0.030
  938SOL    HW2 3714   0.282   2.489   7.013
  939SOL     OW 3715   6.078   0.891   6.285
  939SOL    HW1 3716   6.156   0.901   6.223
  939SOL    HW2 3717   6.081   0.964   6.354
  940SOL     OW 3718   0.282   0.690   4.666
  940SOL    HW1 3719   0.203   0.641   4.704
  940SOL    HW2 3720   0.250   0.763   4.606
  941SOL     OW 3721   5.687   2.513   4.629
  941SOL    HW1 3722   5.646   2.555   4.548
  941SOL    HW2 3723   5.639   2.428   4.650
  942SOL     OW 3724   5.374   6.649   4.981
  942SOL    HW1 3725   5.342   6.744   4.974
  942SOL    HW2 3726   5.442   6.631   4.911
  943SOL     OW 3727   5.114   2.011   0.882
  943SOL    HW1 3728   5.110   2.110   0.889
  943SOL    HW2 3729   5.191   1.985   0.824
  944SOL     OW 3730   6.100   4.169   4.583
  944SOL    HW1 3731   6.015   4.170   4.634
  944SOL    HW2 3732   6.137   4.076   4.583
  945SOL     OW 3733   5.314   3.900   4.590
  945SOL    HW1 3734   5.253   3.903   4.511
  945SOL    HW2 3735   5.261   3.884   4.673
  946SOL     OW 3736   5.670   2.293   5.332
  946SOL    HW1 3737   5.632   2.358   5.267
  946SOL    HW2 3738   5.597   2.260   5.392
  947SOL     OW 3739   1.891   2.801   5.540
  947SOL    HW1 3740   1.917   2.705   5.550
  947SOL    HW2 3741   1.884   2.824   5.443
  948SOL     OW 3742   3.394   1.869   0.658
  948SOL    HW1 3743   3.338   1.796   0.697
  948SOL    HW2 3744   3.487   1.862   0.693
  949SOL     OW 3745   5.629   6.217   6.328
  949SOL    HW1 3746   5.603   6.303   6.284
  949SOL    HW2 3747   5.687   6.236   6.407
  950SOL     OW 3748   4.125   5.362   1.310
  950SOL    HW1 3749   4.069   5.423   1.365
  950SOL    HW2 3750   4.211   5.408   1.287
  951SOL     OW 3751   1.113   2.209   2.802
  951SOL    HW1 3752   1.129   2.267   2.722
  951SOL    HW2 3753   1.198   2.165   2.829
  952SOL     OW 3754   4.816   2.317   1.841
  952SOL    HW1 3755   4.762   2.386   1.792
  952SOL    HW2 3756   4.913   2.339   1.834
  953SOL     OW 3757   3.924   6.859   6.768
  953SOL    HW1 3758   3.902   6.956   6.775
  953SOL    HW2 3759   3.927   6.819   6.860
  954SOL     OW 3760   6.079   6.076   0.517
  954SOL    HW1 3761   6.146   6.002   0.513
  954SOL    HW2 3762   6.009   6.053   0.584
  955SOL     OW 3763   6.927   6.460   2.526
  955SOL    HW1 3764   6.845   6.495   2.571
  955SOL    HW2 3765   6.909   6.369   2.488
  956SOL     OW 3766   0.913   2.409   0.816
  956SOL    HW1 3767   0.819   2.439   0.799
  956SOL    HW2 3768   0.918   2.310   0.812
  957SOL     OW 3769   2.623   6.211   4.924
  957SOL    HW1 3770   2.649   6.118   4.899
  957SOL    HW2 3771   2.525   6.214   4.944
  958SOL     OW 3772   5.270   2.469   0.847
  958SOL    HW1 3773   5.194   2.446   0.908
  958SOL    HW2 3774   5.268   2.567   0.827
  959SOL     OW 3775   1.873   4.247   2.515
  959SOL    HW1 3776   1.869   4.175   2.445
  959SOL    HW2 3777   1.887   4.335   2.472
  960SOL     OW 3778   1.787   5.296   4.833
  960SOL    HW1 3779   1.792   5.347   4.746
  960SOL    HW2 3780   1.846   5.341   4.900
  961SOL     OW 3781   3.779   6.870   2.032
  961SOL    HW1 3782   3.756   6.828   2.120
  961SOL    HW2 3783   3.853   6.937   2.046
  962SOL     OW 3784   1.590   0.071   4.808
  962SOL    HW1 3785   1.655   0.094   4.736
  962SOL    HW2 3786   1.635   0.013   4.876
  963SOL     OW 3787   6.654   6.816   0.864
  963SOL    HW1 3788   6.722   6.887   0.844
  963SOL    HW2 3789   6.692   6.751   0.930
  964SOL     OW 3790   5.426   3.796   2.075
  964SOL    HW1 3791   5.339   3.839   2.052
  964SOL    HW2 3792   5.418   3.697   2.061
  965SOL     OW 3793   0.496   1.893   0.874
  965SOL    HW1 3794   0.406   1.876   0.835
  965SOL    HW2 3795   0.520   1.990   0.861
  966SOL     OW 3796   0.116   2.117   2.130
  966SOL    HW1 3797   0.111   2.217   2.126
  966SOL    HW2 3798   0.047   2.078   2.068
  967SOL     OW 3799   1.119   6.174   2.039
  967SOL    HW1 3800   1.185   6.120   1.986
  967SOL    HW2 3801   1.122   6.269   2.010
  968SOL     OW 3802   5.548   2.974   2.915
  968SOL    HW1 3803   5.491   2.892   2.920
  968SOL    HW2 3804   5.506   3.048   2.969
  969SOL     OW 3805   4.074   5.727   5.500
  969SOL    HW1 3806   4.055   5.674   5.417
  969SOL    HW2 3807   4.167   5.710   5.530
  970SOL     OW 3808   4.399   2.270   5.339
  970SOL    HW1 3809   4.344   2.190   5.318
  970SOL    HW2 3810   4.378   2.302   5.431
  971SOL     OW 3811   6.854   1.612   1.813
  971SOL    HW1 3812   6.934   1.563   1.849
  971SOL    HW2 3813   6.809   1.660   1.889
  972SOL     OW 3814   6.244   5.452   0.928
  972SOL    HW1 3815   6.339   5.423   0.912
  972SOL    HW2 3816   6.228   5.539   0.880
  973SOL     OW 3817   5.490   4.491   5.808
  973SOL    HW1 3818   5.588   4.473   5.810
  973SOL    HW2 3819   5.456   4.501   5.901
  974SOL     OW 3820   2.815   1.015   4.010
  974SOL    HW1 3821   2.790   1.064   3.927
  974SOL    HW2 3822   2.816   1.079   4.087
  975SOL     OW 3823   3.667   6.554   5.439
  975SOL    HW1 3824   3.684   6.536   5.342
  975SOL    HW2 3825   3.695   6.475   5.493
  976SOL     OW 3826   0.124   4.395   4.014
  976SOL    HW1 3827   0.123   4.387   3.915
  976SOL    HW2 3828   0.043   4.444   4.045
  977SOL     OW 3829   1.878   1.426   4.155
  977SOL    HW1 3830   1.872   1.340   4.105
  977SOL    HW2 3831   1.802   1.486   4.129
  978SOL     OW 3832   5.996   3.224   4.271
  978SOL    HW1 3833   5.907   3.211   4.315
  978SOL    HW2 3834   5.992   3.305   4.212
  979SOL     OW 3835   5.939   0.875   3.589
  979SOL    HW1 3836   5.928   0.968   3.553
  979SOL    HW2 3837   5.868   0.816   3.550
  980SOL     OW 3838   6.646   0.979   4.764
  980SOL    HW1 3839   6.714   0.957   4.834
  980SOL    HW2 3840   6.681   1.051   4.704
  981SOL     OW 3841   6.984   2.668   5.507
  981SOL    HW1 3842   6.924   2.604   5.459
  981SOL    HW2 3843   6.942   2.694   5.594
  982SOL     OW 3844   1.745   2.891   1.314
  982SOL    HW1 3845   1.734   2.985   1.344
  982SOL    HW2 3846   1.663   2.861   1.264
  983SOL     OW 3847   5.539   1.815   3.304
  983SOL    HW1 3848   5.491   1.757   3.238
  983SOL    HW2 3849   5.614   1.763   3.345
  984SOL     OW 3850   4.618   1.514   4.728
  984SOL    HW1 3851   4.635   1.432   4.781
  984SOL    HW2 3852   4.658   1.593   4.774
  985SOL     OW 3853   3.245   5.522   0.437
  985SOL    HW1 3854   3.242   5.423   0.452
  985SOL    HW2 3855   3.322   5.561   0.487
  986SOL     OW 3856   4.586   4.855   6.528
  986SOL    HW1 3857   4.673   4.889   6.563
  986SOL    HW2 3858   4.599   4.819   6.436
  987SOL     OW 3859   4.169   0.066   2.431
  987SOL    HW1 3860   4.262   0.051   2.466
  987SOL    HW2 3861   4.162   0.158   2.393
  988SOL     OW 3862   3.279   3.331   1.960
  988SOL    HW1 3863   3.229   3.298   2.040
  988SOL    HW2 3864   3.266   3.429   1.951
  989SOL     OW 3865   0.334   0.031   6.098
  989SOL    HW1 3866   0.410   0.095   6.110
  989SOL    HW2 3867   0.262   0.074   6.044
  990SOL     OW 3868   4.712   6.846   3.905
  990SOL    HW1 3869   4.797   6.878   3.947
  990SOL    HW2 3870   4.641   6.915   3.918
  991SOL     OW 3871   6.624   1.206   4.585
  991SOL    HW1 3872   6.678   1.283   4.618
  991SOL    HW2 3873   6.615   1.212   4.485
  992SOL     OW 3874   0.676   3.360   0.271
  992SOL    HW1 3875   0.633   3.443   0.235
  992SOL    HW2 3876   0.710   3.378   0.363
  993SOL     OW 3877   3.249   5.187   3.182
  993SOL    HW1 3878   3.214   5.104   3.224
  993SOL    HW2 3879   3.230   5.186   3.084
  994SOL     OW 3880   2.905   3.572   3.271
  994SOL    HW1 3881   2.856   3.560   3.357
  994SOL    HW2 3882   2.903   3.668   3.244
  995SOL     OW 3883   1.129   1.617   4.666
  995SOL    HW1 3884   1.209   1.564   4.640
  995SOL    HW2 3885   1.066   1.559   4.718
  996SOL     OW 3886   1.670   3.813   2.387
  996SOL    HW1 3887   1.600   3.742   2.380
  996SOL    HW2 3888   1.628   3.902   2.371
  997SOL     OW 3889   6.517   1.095   1.295
  997SOL    HW1 3890   6.521   1.069   1.391
  997SOL    HW2 3891   6.437   1.052   1.252
  998SOL     OW 3892   5.034   0.308   2.863
  998SOL    HW1 3893   4.943   0.270   2.878
  998SOL    HW2 3894   5.090   0.241   2.813
  999SOL     OW 3895   0.143   4.989   1.163
  999SOL    HW1 3896   0.172   4.967   1.070
  999SOL    HW2 3897   0.202   5.061   1.200
 1000SOL     OW 3898   3.572   1.734   4.230
 1000SOL    HW1 3899   3.534   1.703   4.317
 1000SOL    HW2 3900   3.499   1.773   4.174
 1001SOL     OW 3901   5.083   0.542   5.740
 1001SOL    HW1 3902   5.057   0.463   5.685
 1001SOL    HW2 3903   5.156   0.593   5.694
 1002SOL     OW 3904   6.494   1.112   0.974
 1002SOL    HW1 3905   6.580   1.075   0.938
 1002SOL    HW2 3906   6.515   1.192   1.031
 1003SOL     OW 3907   3.843   5.695   2.357
 1003SOL    HW1 3908   3.743   5.693   2.369
 1003SOL    HW2 3909   3.871   5.785   2.325
 1004SOL     OW 3910   5.771   6.706   6.802
 1004SOL    HW1 3911   5.749   6.655   6.719
 1004SOL    HW2 3912   5.737   6.800   6.793
 1005SOL     OW 3913   6.987   6.509   3.407
 1005SOL    HW1 3914   0.054   6.463   3.416
 1005SOL    HW2 3915   7.000   6.597   3.362
 1006SOL     OW 3916   2.042   4.863   1.112
 1006SOL    HW1 3917   2.075   4.801   1.183
 1006SOL    HW2 3918   2.057   4.823   1.022
 1007SOL     OW 3919   0.206   0.863   3.903
 1007SOL    HW1 3920   0.184   0.878   3.999
 1007SOL    HW2 3921   0.166   0.776   3.874
 1008SOL     OW 3922   2.074   3.592   3.413
 1008SOL    HW1 3923   2.065   3.513   3.474
 1008SOL    HW2 3924   2.013   3.580   3.334
 1009SOL     OW 3925   1.329   5.966   5.473
 1009SOL    HW1 3926   1.324   5.984   5.375
 1009SOL    HW2 3927   1.338   5.868   5.489
 1010SOL     OW 3928   4.508   2.155   0.323
 1010SOL    HW1 3929   4.512   2.186   0.228
 1010SOL    HW2 3930   4.428   2.195   0.367
 1011SOL     OW 3931   3.248   6.356   3.170
 1011SOL    HW1 3932   3.221   6.283   3.107
 1011SOL    HW2 3933   3.168   6.392   3.217
 1012SOL     OW 3934   5.426   5.423   6.874
 1012SOL    HW1 3935   5.361   5.495   6.901
 1012SOL    HW2 3936   5.409   5.341   6.928
 1013SOL     OW 3937   0.729   1.190   1.498
 1013SOL    HW1 3938   0.716   1.222   1.592
 1013SOL    HW2 3939   0.756   1.266   1.440
 1014SOL     OW 3940   4.412   6.858   5.569
 1014SOL    HW1 3941   4.416   6.803   5.653
 1014SOL    HW2 3942   4.474   6.936   5.577
 1015SOL     OW 3943   3.446   5.544   4.204
 1015SOL    HW1 3944   3.474   5.632   4.240
 1015SOL    HW2 3945   3.473   5.471   4.267
 1016SOL     OW 3946   4.008   2.743   1.308
 1016SOL    HW1 3947   4.075   2.787   1.369
 1016SOL    HW2 3948   3.967   2.664   1.355
 1017SOL     OW 3949   4.055   1.997   6.580
 1017SOL    HW1 3950   3.977   2.004   6.642
 1017SOL    HW2 3951   4.075   2.087   6.541
 1018SOL     OW 3952   1.894   3.007   2.776
 1018SOL    HW1 3953   1.865   3.045   2.864
 1018SOL    HW2 3954   1.883   3.075   2.704
 1019SOL     OW 3955   0.016   1.789   6.835
 1019SOL    HW1 3956   6.965   1.823   6.775
 1019SOL    HW2 3957   0.093   1.853   6.833
 1020SOL     OW 3958   2.655   1.370   1.547
 1020SOL    HW1 3959   2.697   1.385   1.636
 1020SOL    HW2 3960   2.696   1.430   1.479
 1021SOL     OW 3961   6.490   1.430   0.850
 1021SOL    HW1 3962   6.515   1.382   0.934
 1021SOL    HW2 3963   6.566   1.490   0.823
 1022SOL     OW 3964   4.175   3.520   6.099
 1022SOL    HW1 3965   4.192   3.582   6.176
 1022SOL    HW2 3966   4.163   3.574   6.015
 1023SOL     OW 3967   5.485   1.446   2.767
 1023SOL    HW1 3968   5.392   1.441   2.804
 1023SOL    HW2 3969   5.540   1.507   2.824
 1024SOL     OW 3970   6.511   1.027   3.460
 1024SOL    HW1 3971   6.450   1.073   3.524
 1024SOL    HW2 3972   6.583   1.091   3.431
 1025SOL     OW 3973   3.190   4.878   1.026
 1025SOL    HW1 3974   3.164   4.783   1.047
 1025SOL    HW2 3975   3.143   4.908   0.944
 1026SOL     OW 3976   1.651   2.468   0.367
 1026SOL    HW1 3977   1.685   2.400   0.302
 1026SOL    HW2 3978   1.685   2.558   0.341
 1027SOL     OW 3979   2.833   4.808   2.509
 1027SOL    HW1 3980   2.839   4.781   2.413
 1027SOL    HW2 3981   2.924   4.815   2.548
 1028SOL     OW 3982   1.408   6.177   0.810
 1028SOL    HW1 3983   1.503   6.145   0.805
 1028SOL    HW2 3984   1.406   6.265   0.858
 1029SOL     OW 3985   2.421   0.312   6.545
 1029SOL    HW1 3986   2.385   0.396   6.503
 1029SOL    HW2 3987   2.418   0.321   6.644
 1030SOL     OW 3988   4.059   3.411   4.950
 1030SOL    HW1 3989   4.107   3.335   4.993
 1030SOL    HW2 3990   3.960   3.397   4.956
 1031SOL     OW 3991   2.366   5.737   2.204
 1031SOL    HW1 3992   2.280   5.766   2.248
 1031SOL    HW2 3993   2.346   5.695   2.116
 1032SOL     OW 3994   1.620   0.915   4.484
 1032SOL    HW1 3995   1.536   0.928   4.432
 1032SOL    HW2 3996   1.675   0.843   4.442
 1033SOL     OW 3997   2.470   5.908   2.386
 1033SOL    HW1 3998   2.443   5.834   2.325
 1033SOL    HW2 3999   2.569   5.919   2.384
 1034SOL     OW 4000   1.413   4.635   4.052
 1034SOL    HW1 4001   1.359   4.637   3.968
 1034SOL    HW2 4002   1.473   4.715   4.056
 1035SOL     OW 4003   2.445   1.384   4.085
 1035SOL    HW1 4004   2.482   1.392   4.177
 1035SOL    HW2 4005   2.349   1.414   4.085
 1036SOL     OW 4006   4.330   2.286   0.495
 1036SOL    HW1 4007   4.248   2.322   0.449
 1036SOL    HW2 4008   4.314   2.279   0.593
 1037SOL     OW 4009   1.998   2.001   6.561
 1037SOL    HW1 4010   1.913   1.953   6.540
 1037SOL    HW2 4011   2.016   1.995   6.659
 1038SOL     OW 4012   2.077   1.088   5.032
 1038SOL    HW1 4013   2.126   1.050   4.953
 1038SOL    HW2 4014   2.058   1.185   5.016
 1039SOL     OW 4015   3.967   2.124   3.688
 1039SOL    HW1 4016   3.901   2.131   3.613
 1039SOL    HW2 4017   3.935   2.055   3.753
 1040SOL     OW 4018   6.646   4.495   2.863
 1040SOL    HW1 4019   6.698   4.452   2.789
 1040SOL    HW2 4020   6.706   4.509   2.942
 1041SOL     OW 4021   1.210   0.893   4.606
 1041SOL    HW1 4022   1.256   0.884   4.694
 1041SOL    HW2 4023   1.135   0.827   4.601
 1042SOL     OW 4024   5.495   4.986   0.806
 1042SOL    HW1 4025   5.407   5.022   0.775
 1042SOL    HW2 4026   5.569   5.040   0.765
 1043SOL     OW 4027   2.884   1.546   6.175
 1043SOL    HW1 4028   2.952   1.580   6.110
 1043SOL    HW2 4029   2.844   1.623   6.225
 1044SOL     OW 4030   4.339   3.313   1.805
 1044SOL    HW1 4031   4.324   3.367   1.722
 1044SOL    HW2 4032   4.436   3.317   1.829
 1045SOL     OW 4033   3.061   1.643   3.223
 1045SOL    HW1 4034   3.101   1.724   3.265
 1045SOL    HW2 4035   3.129   1.601   3.161
 1046SOL     OW 4036   4.309   0.460   2.105
 1046SOL    HW1 4037   4.259   0.545   2.117
 1046SOL    HW2 4038   4.387   0.475   2.043
 1047SOL     OW 4039   0.937   4.582   2.621
 1047SOL    HW1 4040   0.959   4.678   2.639
 1047SOL    HW2 4041   0.951   4.528   2.705
 1048SOL     OW 4042   5.049   4.613   5.250
 1048SOL    HW1 4043   5.012   4.526   5.219
 1048SOL    HW2 4044   5.020   4.686   5.189
 1049SOL     OW 4045   0.050   3.330   5.086
 1049SOL    HW1 4046   0.038   3.236   5.116
 1049SOL    HW2 4047   7.020   3.344   5.001
 1050SOL     OW 4048   3.527   0.608   0.091
 1050SOL    HW1 4049   3.569   0.657   0.015
 1050SOL    HW2 4050   3.476   0.530   0.056
 1051SOL     OW 4051   4.826   4.495   1.572
 1051SOL    HW1 4052   4.828   4.592   1.548
 1051SOL    HW2 4053   4.869   4.483   1.662
 1052SOL     OW 4054   3.551   0.220   4.322
 1052SOL    HW1 4055   3.614   0.224   4.399
 1052SOL    HW2 4056   3.457   0.218   4.357
 1053SOL     OW 4057   4.434   4.524   3.710
 1053SOL    HW1 4058   4.357   4.488   3.657
 1053SOL    HW2 4059   4.519   4.512   3.658
 1054SOL     OW 4060   3.339   5.997   4.724
 1054SOL    HW1 4061   3.402   5.986   4.647
 1054SOL    HW2 4062   3.254   5.947   4.704
 1055SOL     OW 4063   4.272   5.603   4.949
 1055SOL    HW1 4064   4.195   5.638   5.002
 1055SOL    HW2 4065   4.239   5.559   4.866
 1056SOL     OW 4066   1.983   6.606   5.030
 1056SOL    HW1 4067   1.899   6.620   4.977
 1056SOL    HW2 4068   2.062   6.628   4.972
 1057SOL     OW 4069   3.184   3.839   2.046
 1057SOL    HW1 4070   3.260   3.905   2.045
 1057SOL    HW2 4071   3.121   3.860   1.972
 1058SOL     OW 4072   3.671   0.974   1.768
 1058SOL    HW1 4073   3.703   0.932   1.853
 1058SOL    HW2 4074   3.736   1.045   1.740
 1059SOL     OW 4075   3.932   2.063   1.314
 1059SOL    HW1 4076   3.854   2.006   1.340
 1059SOL    HW2 4077   3.904   2.159   1.315
 1060SOL     OW 4078   2.320   1.846   5.790
 1060SOL    HW1 4079   2.336   1.930   5.842
 1060SOL    HW2 4080   2.399   1.785   5.802
 1061SOL     OW 4081   2.981   5.569   1.637
 1061SOL    HW1 4082   3.022   5.478   1.650
 1061SOL    HW2 4083   2.885   5.566   1.664
 1062SOL     OW 4084   5.489   5.325   4.663
 1062SOL    HW1 4085   5.496   5.377   4.577
 1062SOL    HW2 4086   5.581   5.306   4.698
 1063SOL     OW 4087   2.028   2.606   6.357
 1063SOL    HW1 4088   2.073   2.528   6.313
 1063SOL    HW2 4089   1.932   2.608   6.332
 1064SOL     OW 4090   6.827   2.825   1.899
 1064SOL    HW1 4091   6.751   2.811   1.963
 1064SOL    HW2 4092   6.807   2.776   1.814
 1065SOL     OW 4093   6.468   6.485   4.790
 1065SOL    HW1 4094   6.482   6.399   4.741
 1065SOL    HW2 4095   6.390   6.475   4.852
 1066SOL     OW 4096   4.323   0.918   3.518
 1066SOL    HW1 4097   4.330   1.015   3.498
 1066SOL    HW2 4098   4.244   0.901   3.577
 1067SOL     OW 4099   1.682   3.267   1.676
 1067SOL    HW1 4100   1.642   3.358   1.685
 1067SOL    HW2 4101   1.648   3.209   1.750
 1068SOL     OW 4102   0.529   3.868   1.762
 1068SOL    HW1 4103   0.485   3.958   1.769
 1068SOL    HW2 4104   0.494   3.809   1.835
 1069SOL     OW 4105   3.766   3.850   1.354
 1069SOL    HW1 4106   3.790   3.932   1.405
 1069SOL    HW2 4107   3.830   3.777   1.377
 1070SOL     OW 4108   2.232   1.066   6.891
 1070SOL    HW1 4109   2.267   1.143   6.839
 1070SOL    HW2 4110   2.307   1.005   6.917
 1071SOL     OW 4111   4.258   6.887   3.220
 1071SOL    HW1 4112   4.248   6.890   3.319
 1071SOL    HW2 4113   4.349   6.921   3.194
 1072SOL     OW 4114   4.016   5.864   3.098
 1072SOL    HW1 4115   4.075   5.849   3.018
 1072SOL    HW2 4116   3.930   5.904   3.068
 1073SOL     OW 4117   2.485   4.824   2.803
 1073SOL    HW1 4118   2.457   4.919   2.786
 1073SOL    HW2 4119   2.493   4.776   2.717
 1074SOL     OW 4120   1.400   5.601   2.048
 1074SOL    HW1 4121   1.327   5.608   1.981
 1074SOL    HW2 4122   1.362   5.570   2.136
 1075SOL     OW 4123   0.101   4.494   4.452
 1075SOL    HW1 4124   0.135   4.566   4.392
 1075SOL    HW2 4125   0.005   4.475   4.430
 1076SOL     OW 4126   0.259   4.763   3.270
 1076SOL    HW1 4127   0.339   4.751   3.211
 1076SOL    HW2 4128   0.277   4.719   3.358
 1077SOL     OW 4129   4.716   0.181   0.634
 1077SOL    HW1 4130   4.700   0.272   0.594
 1077SOL    HW2 4131   4.630   0.131   0.638
 1078SOL     OW 4132   0.761   2.179   1.118
 1078SOL    HW1 4133   0.731   2.099   1.170
 1078SOL    HW2 4134   0.728   2.263   1.163
 1079SOL     OW 4135   2.475   5.619   3.104
 1079SOL    HW1 4136   2.448   5.621   3.200
 1079SOL    HW2 4137   2.527   5.536   3.087
 1080SOL     OW 4138   1.776   5.101   4.512
 1080SOL    HW1 4139   1.804   5.154   4.432
 1080SOL    HW2 4140   1.825   5.014   4.513
 1081SOL     OW 4141   1.749   0.894   0.053
 1081SOL    HW1 4142   1.649   0.895   0.043
 1081SOL    HW2 4143   1.773   0.902   0.149
 1082SOL     OW 4144   1.921   6.804   5.933
 1082SOL    HW1 4145   1.941   6.885   5.987
 1082SOL    HW2 4146   1.855   6.746   5.982
 1083SOL     OW 4147   3.979   3.384   1.348
 1083SOL    HW1 4148   4.068   3.428   1.345
 1083SOL    HW2 4149   3.987   3.296   1.396
 1084SOL     OW 4150   6.404   4.050   0.573
 1084SOL    HW1 4151   6.484   4.000   0.606
 1084SOL    HW2 4152   6.329   4.038   0.637
 1085SOL     OW 4153   2.102   3.642   3.755
 1085SOL    HW1 4154   2.125   3.702   3.831
 1085SOL    HW2 4155   2.138   3.679   3.670
 1086SOL     OW 4156   4.202   5.023   1.867
 1086SOL    HW1 4157   4.232   5.117   1.885
 1086SOL    HW2 4158   4.270   4.959   1.903
 1087SOL     OW 4159   4.338   2.993   5.466
 1087SOL    HW1 4160   4.266   2.991   5.396
 1087SOL    HW2 4161   4.360   3.088   5.487
 1088SOL     OW 4162   5.036   3.997   3.316
 1088SOL    HW1 4163   5.005   3.927   3.380
 1088SOL    HW2 4164   4.989   3.985   3.228
 1089SOL     OW 4165   6.870   0.196   2.951
 1089SOL    HW1 4166   6.801   0.170   2.884
 1089SOL    HW2 4167   6.942   0.249   2.906
 1090SOL     OW 4168   0.696   1.662   5.585
 1090SOL    HW1 4169   0.742   1.745   5.616
 1090SOL    HW2 4170   0.680   1.602   5.663
 1091SOL     OW 4171   0.974   1.852   4.880
 1091SOL    HW1 4172   1.028   1.799   4.945
 1091SOL    HW2 4173   0.952   1.795   4.801
 1092SOL     OW 4174   2.357   4.252   0.897
 1092SOL    HW1 4175   2.335   4.348   0.878
 1092SOL    HW2 4176   2.443   4.247   0.946
 1093SOL     OW 4177   0.479   1.905   2.177
 1093SOL    HW1 4178   0.386   1.878   2.151
 1093SOL    HW2 4179   0.478   2.000   2.210
 1094SOL     OW 4180   0.576   6.175   1.714
 1094SOL    HW1 4181   0.530   6.135   1.635
 1094SOL    HW2 4182   0.642   6.109   1.750
 1095SOL     OW 4183   5.680   3.732   6.340
 1095SOL    HW1 4184   5.734   3.792   6.281
 1095SOL    HW2 4185   5.589   3.772   6.353
 1096SOL     OW 4186   3.376   4.594   1.685
 1096SOL    HW1 4187   3.286   4.637   1.694
 1096SOL    HW2 4188   3.442   4.643   1.741
 1097SOL     OW 4189   1.450   5.243   5.466
 1097SOL    HW1 4190   1.355   5.236   5.435
 1097SOL    HW2 4191   1.469   5.336   5.497
 1098SOL     OW 4192   4.363   2.089   2.452
 1098SOL    HW1 4193   4.335   2.143   2.531
 1098SOL    HW2 4194   4.363   2.146   2.370
 1099SOL     OW 4195   3.893   1.731   3.182
 1099SOL    HW1 4196   3.819   1.797   3.170
 1099SOL    HW2 4197   3.960   1.743   3.108
 1100SOL     OW 4198   0.893   0.465   0.212
 1100SOL    HW1 4199   0.821   0.526   0.178
 1100SOL    HW2 4200   0.872   0.437   0.305
 1101SOL     OW 4201   5.648   2.751   0.946
 1101SOL    HW1 4202   5.611   2.684   1.011
 1101SOL    HW2 4203   5.728   2.796   0.985
 1102SOL     OW 4204   0.840   4.771   3.321
 1102SOL    HW1 4205   0.853   4.673   3.335
 1102SOL    HW2 4206   0.895   4.801   3.243
 1103SOL     OW 4207   0.340   3.090   1.317
 1103SOL    HW1 4208   0.277   3.094   1.239
 1103SOL    HW2 4209   0.307   3.021   1.382
 1104SOL     OW 4210   2.713   4.886   6.378
 1104SOL    HW1 4211   2.700   4.812   6.445
 1104SOL    HW2 4212   2.799   4.932   6.397
 1105SOL     OW 4213   4.282   4.990   0.042
 1105SOL    HW1 4214   4.279   4.902   0.091
 1105SOL    HW2 4215   4.193   5.035   0.050
 1106SOL     OW 4216   0.575   2.276   6.848
 1106SOL    HW1 4217   0.643   2.336   6.807
 1106SOL    HW2 4218   0.620   2.197   6.890
 1107SOL     OW 4219   1.223   0.561   0.506
 1107SOL    HW1 4220   1.190   0.646   0.465
 1107SOL    HW2 4221   1.236   0.575   0.604
 1108SOL     OW 4222   0.633   1.984   4.721
 1108SOL    HW1 4223   0.716   2.033   4.693
 1108SOL    HW2 4224   0.584   2.038   4.789
 1109SOL     OW 4225   4.815   0.812   3.943
 1109SOL    HW1 4226   4.754   0.872   3.996
 1109SOL    HW2 4227   4.782   0.806   3.849
 1110SOL     OW 4228   3.278   2.848   2.103
 1110SOL    HW1 4229   3.278   2.750   2.122
 1110SOL    HW2 4230   3.201   2.892   2.149
 1111SOL     OW 4231   5.761   0.081   0.148
 1111SOL    HW1 4232   5.786   7.006   0.136
 1111SOL    HW2 4233   5.760   0.104   0.245
 1112SOL     OW 4234   6.318   0.750   2.632
 1112SOL    HW1 4235   6.402   0.697   2.644
 1112SOL    HW2 4236   6.325   0.807   2.550
 1113SOL     OW 4237   6.627   3.798   2.145
 1113SOL    HW1 4238   6.572   3.719   2.120
 1113SOL    HW2 4239   6.695   3.771   2.213
 1114SOL     OW 4240   4.666   1.290   4.864
 1114SOL    HW1 4241   4.726   1.211   4.878
 1114SOL    HW2 4242   4.573   1.267   4.893
 1115SOL     OW 4243   2.412   3.396   0.889
 1115SOL    HW1 4244   2.440   3.309   0.850
 1115SOL    HW2 4245   2.396   3.462   0.815
 1116SOL     OW 4246   4.753   6.541   4.551
 1116SOL    HW1 4247   4.849   6.564   4.568
 1116SOL    HW2 4248   4.716   6.604   4.482
 1117SOL     OW 4249   2.831   3.376   1.130
 1117SOL    HW1 4250   2.795   3.304   1.070
 1117SOL    HW2 4251   2.763   3.450   1.138
 1118SOL     OW 4252   2.178   3.801   3.497
 1118SOL    HW1 4253   2.139   3.723   3.447
 1118SOL    HW2 4254   2.217   3.866   3.432
 1119SOL     OW 4255   4.115   3.780   1.619
 1119SOL    HW1 4256   4.032   3.752   1.572
 1119SOL    HW2 4257   4.185   3.805   1.551
 1120SOL     OW 4258   4.299   1.138   4.222
 1120SOL    HW1 4259   4.252   1.217   4.261
 1120SOL    HW2 4260   4.232   1.068   4.198
 1121SOL     OW 4261   5.226   3.183   2.113
 1121SOL    HW1 4262   5.319   3.147   2.111
 1121SOL    HW2 4263   5.230   3.283   2.123
 1122SOL     OW 4264   5.108   4.090   0.145
 1122SOL    HW1 4265   5.073   4.005   0.105
 1122SOL    HW2 4266   5.051   4.166   0.114
 1123SOL     OW 4267   3.322   0.485   2.415
 1123SOL    HW1 4268   3.399   0.471   2.352
 1123SOL    HW2 4269   3.328   0.577   2.455
 1124SOL     OW 4270   0.909   4.503   4.428
 1124SOL    HW1 4271   0.944   4.434   4.490
 1124SOL    HW2 4272   0.898   4.590   4.478
 1125SOL     OW 4273   3.602   3.374   5.205
 1125SOL    HW1 4274   3.646   3.285   5.194
 1125SOL    HW2 4275   3.511   3.362   5.246
 1126SOL     OW 4276   5.458   6.202   2.161
 1126SOL    HW1 4277   5.474   6.135   2.234
 1126SOL    HW2 4278   5.539   6.209   2.103
 1127SOL     OW 4279   1.256   5.134   0.100
 1127SOL    HW1 4280   1.170   5.174   0.069
 1127SOL    HW2 4281   1.330   5.200   0.092
 1128SOL     OW 4282   2.443   2.067   4.617
 1128SOL    HW1 4283   2.425   2.062   4.518
 1128SOL    HW2 4284   2.531   2.113   4.632
 1129SOL     OW 4285   5.408   0.428   6.994
 1129SOL    HW1 4286   5.434   0.510   6.943
 1129SOL    HW2 4287   5.478   0.358   6.982
 1130SOL     OW 4288   6.847   4.509   6.508
 1130SOL    HW1 4289   6.939   4.542   6.529
 1130SOL    HW2 4290   6.853   4.435   6.441
 1131SOL     OW 4291   0.711   5.309   5.991
 1131SOL    HW1 4292   0.640   5.244   5.963
 1131SOL    HW2 4293   0.799   5.262   5.997
 1132SOL     OW 4294   5.668   0.204   5.805
 1132SOL    HW1 4295   5.580   0.217   5.760
 1132SOL    HW2 4296   5.695   0.289   5.850
 1133SOL     OW 4297   0.205   3.759   1.590
 1133SOL    HW1 4298   0.198   3.661   1.570
 1133SOL    HW2 4299   0.167   3.777   1.681
 1134SOL     OW 4300   5.498   2.634   5.983
 1134SOL    HW1 4301   5.574   2.579   6.017
 1134SOL    HW2 4302   5.457   2.590   5.903
 1135SOL     OW 4303   3.430   2.110   2.915
 1135SOL    HW1 4304   3.500   2.053   2.872
 1135SOL    HW2 4305   3.380   2.161   2.845
 1136SOL     OW 4306   3.666   5.145   4.168
 1136SOL    HW1 4307   3.679   5.059   4.217
 1136SOL    HW2 4308   3.607   5.130   4.089
 1137SOL     OW 4309   1.890   1.163   6.062
 1137SOL    HW1 4310   1.982   1.136   6.033
 1137SOL    HW2 4311   1.829   1.167   5.983
 1138SOL     OW 4312   0.881   4.230   5.432
 1138SOL    HW1 4313   0.975   4.207   5.406
 1138SOL    HW2 4314   0.882   4.309   5.493
 1139SOL     OW 4315   1.524   6.176   1.679
 1139SOL    HW1 4316   1.613   6.136   1.700
 1139SOL    HW2 4317   1.525   6.274   1.697
 1140SOL     OW 4318   3.863   1.789   3.590
 1140SOL    HW1 4319   3.889   1.714   3.530
 1140SOL    HW2 4320   3.779   1.831   3.557
 1141SOL     OW 4321   6.698   5.661   5.208
 1141SOL    HW1 4322   6.668   5.732   5.272
 1141SOL    HW2 4323   6.634   5.658   5.131
 1142SOL     OW 4324   6.526   0.730   4.224
 1142SOL    HW1 4325   6.449   0.694   4.171
 1142SOL    HW2 4326   6.507   0.722   4.322
 1143SOL     OW 4327   4.244   1.985   2.867
 1143SOL    HW1 4328   4.307   1.997   2.943
 1143SOL    HW2 4329   4.175   2.058   2.869
 1144SOL     OW 4330   6.747   6.031   4.942
 1144SOL    HW1 4331   6.738   5.934   4.917
 1144SOL    HW2 4332   6.737   6.041   5.041
 1145SOL     OW 4333   1.104   5.199   5.116
 1145SOL    HW1 4334   1.080   5.107   5.084
 1145SOL    HW2 4335   1.045   5.266   5.072
 1146SOL     OW 4336   5.356   2.013   0.771
 1146SOL    HW1 4337   5.411   1.934   0.797
 1146SOL    HW2 4338   5.380   2.041   0.678
 1147SOL     OW 4339   6.382   2.403   1.650
 1147SOL    HW1 4340   6.447   2.395   1.726
 1147SOL    HW2 4341   6.373   2.499   1.624
 1148SOL     OW 4342   3.655   0.205   0.307
 1148SOL    HW1 4343   3.591   0.218   0.383
 1148SOL    HW2 4344   3.728   0.143   0.334
 1149SOL     OW 4345   6.629   2.970   2.213
 1149SOL    HW1 4346   6.558   2.991   2.280
 1149SOL    HW2 4347   6.718   2.996   2.250
 1150SOL     OW 4348   1.271   4.676   6.829
 1150SOL    HW1 4349   1.347   4.742   6.826
 1150SOL    HW2 4350   1.281   4.610   6.755
 1151SOL     OW 4351   4.752   5.326   6.706
 1151SOL    HW1 4352   4.795   5.255   6.761
 1151SOL    HW2 4353   4.770   5.309   6.609
 1152SOL     OW 4354   0.867   0.422   4.939
 1152SOL    HW1 4355   0.856   0.324   4.930
 1152SOL    HW2 4356   0.922   0.442   5.021
 1153SOL     OW 4357   2.375   5.099   2.734
 1153SOL    HW1 4358   2.392   5.137   2.643
 1153SOL    HW2 4359   2.342   5.172   2.795
 1154SOL     OW 4360   1.178   5.470   1.845
 1154SOL    HW1 4361   1.127   5.550   1.879
 1154SOL    HW2 4362   1.166   5.462   1.746
 1155SOL     OW 4363   3.768   5.964   2.215
 1155SOL    HW1 4364   3.690   5.925   2.166
 1155SOL    HW2 4365   3.776   6.061   2.192
 1156SOL     OW 4366   2.457   0.193   4.174
 1156SOL    HW1 4367   2.386   0.179   4.105
 1156SOL    HW2 4368   2.484   0.104   4.212
 1157SOL     OW 4369   0.658   2.810   3.873
 1157SOL    HW1 4370   0.669   2.854   3.963
 1157SOL    HW2 4371   0.562   2.787   3.859
 1158SOL     OW 4372   4.745   5.239   5.134
 1158SOL    HW1 4373   4.753   5.186   5.049
 1158SOL    HW2 4374   4.666   5.207   5.185
 1159SOL     OW 4375   4.766   5.096   3.350
 1159SOL    HW1 4376   4.807   5.187   3.346
 1159SOL    HW2 4377   4.795   5.043   3.271
 1160SOL     OW 4378   2.934   3.837   0.408
 1160SOL    HW1 4379   2.965   3.789   0.327
 1160SOL    HW2 4380   2.964   3.788   0.490
 1161SOL     OW 4381   5.314   0.617   3.775
 1161SOL    HW1 4382   5.386   0.549   3.759
 1161SOL    HW2 4383   5.338   0.672   3.855
 1162SOL     OW 4384   3.864   4.100   1.746
 1162SOL    HW1 4385   3.795   4.145   1.803
 1162SOL    HW2 4386   3.936   4.063   1.804
 1163SOL     OW 4387   5.056   2.659   2.844
 1163SOL    HW1 4388   5.055   2.689   2.749
 1163SOL    HW2 4389   4.970   2.685   2.889
 1164SOL     OW 4390   5.591   3.535   3.886
 1164SOL    HW1 4391   5.508   3.561   3.937
 1164SOL    HW2 4392   5.665   3.515   3.950
 1165SOL     OW 4393   1.061   5.208   2.719
 1165SOL    HW1 4394   1.104   5.299   2.724
 1165SOL    HW2 4395   1.113   5.145   2.777
 1166SOL     OW 4396   4.317   2.792   6.848
 1166SOL    HW1 4397   4.381   2.813   6.774
 1166SOL    HW2 4398   4.365   2.794   6.936
 1167SOL     OW 4399   4.775   1.689   5.257
 1167SOL    HW1 4400   4.872   1.696   5.278
 1167SOL    HW2 4401   4.750   1.592   5.249
 1168SOL     OW 4402   5.859   6.347   2.984
 1168SOL    HW1 4403   5.877   6.291   3.065
 1168SOL    HW2 4404   5.787   6.414   3.005
 1169SOL     OW 4405   0.941   3.338   1.994
 1169SOL    HW1 4406   0.965   3.426   2.036
 1169SOL    HW2 4407   0.956   3.342   1.896
 1170SOL     OW 4408   2.853   0.431   1.323
 1170SOL    HW1 4409   2.825   0.337   1.305
 1170SOL    HW2 4410   2.775   0.484   1.355
 1171SOL     OW 4411   2.623   6.092   0.256
 1171SOL    HW1 4412   2.718   6.067   0.277
 1171SOL    HW2 4413   2.621   6.146   0.172
 1172SOL     OW 4414   3.132   3.528   5.205
 1172SOL    HW1 4415   3.144   3.621   5.171
 1172SOL    HW2 4416   3.047   3.523   5.258
 1173SOL     OW 4417   4.158   0.879   6.312
 1173SOL    HW1 4418   4.198   0.792   6.286
 1173SOL    HW2 4419   4.228   0.951   6.305
 1174SOL     OW 4420   2.951   6.229   0.898
 1174SOL    HW1 4421   2.886   6.245   0.824
 1174SOL    HW2 4422   2.921   6.150   0.952
 1175SOL     OW 4423   6.209   4.972   5.966
 1175SOL    HW1 4424   6.151   4.964   5.885
 1175SOL    HW2 4425   6.272   5.049   5.954
 1176SOL     OW 4426   6.006   4.057   0.600
 1176SOL    HW1 4427   6.089   4.048   0.656
 1176SOL    HW2 4428   5.975   4.152   0.603
 1177SOL     OW 4429   6.601   2.545   6.648
 1177SOL    HW1 4430   6.668   2.539   6.721
 1177SOL    HW2 4431   6.519   2.494   6.674
 1178SOL     OW 4432   5.830   4.083   2.007
 1178SOL    HW1 4433   5.827   4.112   1.911
 1178SOL    HW2 4434   5.858   4.160   2.064
 1179SOL     OW 4435   2.693   5.577   6.130
 1179SOL    HW1 4436   2.721   5.642   6.059
 1179SOL    HW2 4437   2.764   5.509   6.143
 1180SOL     OW 4438   2.578   2.180   4.236
 1180SOL    HW1 4439   2.500   2.131   4.274
 1180SOL    HW2 4440   2.627   2.120   4.172
 1181SOL     OW 4441   2.366   4.406   2.976
 1181SOL    HW1 4442   2.273   4.438   2.962
 1181SOL    HW2 4443   2.415   4.404   2.888
 1182SOL     OW 4444   1.589   4.113   3.158
 1182SOL    HW1 4445   1.608   4.015   3.145
 1182SOL    HW2 4446   1.509   4.139   3.104
 1183SOL     OW 4447   4.623   5.475   1.235
 1183SOL    HW1 4448   4.528   5.491   1.210
 1183SOL    HW2 4449   4.628   5.424   1.321
 1184SOL     OW 4450   3.019   2.935   5.454
 1184SOL    HW1 4451   2.983   3.021   5.489
 1184SOL    HW2 4452   3.097   2.954   5.394
 1185SOL     OW 4453   1.916   1.244   6.741
 1185SOL    HW1 4454   1.930   1.186   6.821
 1185SOL    HW2 4455   1.834   1.214   6.692
 1186SOL     OW 4456   4.715   1.656   4.957
 1186SOL    HW1 4457   4.810   1.624   4.953
 1186SOL    HW2 4458   4.698   1.696   5.047
 1187SOL     OW 4459   6.793   0.853   5.700
 1187SOL    HW1 4460   6.724   0.791   5.665
 1187SOL    HW2 4461   6.818   0.919   5.629
 1188SOL     OW 4462   1.380   0.183   5.661
 1188SOL    HW1 4463   1.424   0.258   5.611
 1188SOL    HW2 4464   1.281   0.193   5.655
 1189SOL     OW 4465   6.079   1.241   1.877
 1189SOL    HW1 4466   6.052   1.171   1.811
 1189SOL    HW2 4467   6.071   1.205   1.970
 1190SOL     OW 4468   4.002   5.230   2.945
 1190SOL    HW1 4469   3.993   5.138   2.908
 1190SOL    HW2 4470   3.988   5.227   3.044
 1191SOL     OW 4471   3.224   5.368   6.499
 1191SOL    HW1 4472   3.175   5.292   6.456
 1191SOL    HW2 4473   3.209   5.452   6.446
 1192SOL     OW 4474   5.273   5.355   2.768
 1192SOL    HW1 4475   5.192   5.296   2.767
 1192SOL    HW2 4476   5.344   5.311   2.823
 1193SOL     OW 4477   4.587   0.612   3.663
 1193SOL    HW1 4478   4.604   0.669   3.744
 1193SOL    HW2 4479   4.638   0.526   3.671
 1194SOL     OW 4480   6.208   0.399   0.626
 1194SOL    HW1 4481   6.128   0.357   0.583
 1194SOL    HW2 4482   6.182   0.488   0.664
 1195SOL     OW 4483   4.287   0.713   6.140
 1195SOL    HW1 4484   4.373   0.665   6.123
 1195SOL    HW2 4485   4.291   0.805   6.101
 1196SOL     OW 4486   0.711   5.275   2.254
 1196SOL    HW1 4487   0.745   5.181   2.255
 1196SOL    HW2 4488   0.705   5.309   2.348
 1197SOL     OW 4489   3.372   5.254   6.112
 1197SOL    HW1 4490   3.464   5.293   6.112
 1197SOL    HW2 4491   3.376   5.157   6.133
 1198SOL     OW 4492   2.835   1.519   2.907
 1198SOL    HW1 4493   2.809   1.607   2.867
 1198SOL    HW2 4494   2.899   1.472   2.846
 1199SOL     OW 4495   4.007   3.826   2.683
 1199SOL    HW1 4496   4.077   3.771   2.638
 1199SOL    HW2 4497   3.924   3.827   2.626
 1200SOL     OW 4498   2.826   4.135   0.196
 1200SOL    HW1 4499   2.782   4.055   0.238
 1200SOL    HW2 4500   2.920   4.112   0.171
 1201SOL     OW 4501   1.432   0.766   5.258
 1201SOL    HW1 4502   1.395   0.859   5.267
 1201SOL    HW2 4503   1.532   0.770   5.250
 1202SOL     OW 4504   6.032   6.594   4.792
 1202SOL    HW1 4505   6.020   6.573   4.889
 1202SOL    HW2 4506   6.075   6.684   4.782
 1203SOL     OW 4507   5.597   0.233   1.654
 1203SOL    HW1 4508   5.566   0.158   1.712
 1203SOL    HW2 4509   5.545   0.315   1.675
 1204SOL     OW 4510   2.685   0.461   0.298
 1204SOL    HW1 4511   2.776   0.478   0.260
 1204SOL    HW2 4512   2.619   0.456   0.223
 1205SOL     OW 4513   0.516   2.819   5.657
 1205SOL    HW1 4514   0.473   2.880   5.590
 1205SOL    HW2 4515   0.513   2.725   5.623
 1206SOL     OW 4516   1.571   1.502   4.377
 1206SOL    HW1 4517   1.562   1.480   4.279
 1206SOL    HW2 4518   1.491   1.553   4.406
 1207SOL     OW 4519   5.525   6.777   6.639
 1207SOL    HW1 4520   5.436   6.788   6.594
 1207SOL    HW2 4521   5.547   6.860   6.689
 1208SOL     OW 4522   4.167   3.552   3.531
 1208SOL    HW1 4523   4.178   3.566   3.433
 1208SOL    HW2 4524   4.140   3.639   3.574
 1209SOL     OW 4525   6.294   5.192   4.412
 1209SOL    HW1 4526   6.218   5.233   4.462
 1209SOL    HW2 4527   6.268   5.101   4.380
 1210SOL     OW 4528   3.504   6.787   2.665
 1210SOL    HW1 4529   3.542   6.876   2.692
 1210SOL    HW2 4530   3.405   6.795   2.653
 1211SOL     OW 4531   1.026   4.274   4.585
 1211SOL    HW1 4532   1.115   4.281   4.632
 1211SOL    HW2 4533   0.969   4.206   4.631
 1212SOL     OW 4534   2.072   4.080   4.583
 1212SOL    HW1 4535   2.073   4.168   4.534
 1212SOL    HW2 4536   1.995   4.078   4.646
 1213SOL     OW 4537   5.827   2.429   5.597
 1213SOL    HW1 4538   5.820   2.416   5.499
 1213SOL    HW2 4539   5.747   2.478   5.631
 1214SOL     OW 4540   2.316   2.752   3.421
 1214SOL    HW1 4541   2.267   2.823   3.471
 1214SOL    HW2 4542   2.341   2.786   3.331
 1215SOL     OW 4543   0.768   4.553   1.873
 1215SOL    HW1 4544   0.789   4.651   1.862
 1215SOL    HW2 4545   0.687   4.530   1.820
 1216SOL     OW 4546   2.479   0.303   2.305
 1216SOL    HW1 4547   2.459   0.214   2.263
 1216SOL    HW2 4548   2.394   0.348   2.332
 1217SOL     OW 4549   1.130   0.663   2.113
 1217SOL    HW1 4550   1.047   0.680   2.059
 1217SOL    HW2 4551   1.208   0.652   2.051
 1218SOL     OW 4552   0.939   3.855   3.362
 1218SOL    HW1 4553   1.014   3.795   3.334
 1218SOL    HW2 4554   0.853   3.805   3.359
 1219SOL     OW 4555   3.071   6.081   2.336
 1219SOL    HW1 4556   2.990   6.035   2.372
 1219SOL    HW2 4557   3.132   6.106   2.411
 1220SOL     OW 4558   6.261   3.645   3.281
 1220SOL    HW1 4559   6.315   3.575   3.233
 1220SOL    HW2 4560   6.319   3.723   3.304
 1221SOL     OW 4561   4.669   3.344   0.143
 1221SOL    HW1 4562   4.737   3.382   0.080
 1221SOL    HW2 4563   4.713   3.322   0.230
 1222SOL     OW 4564   7.006   6.275   1.274
 1222SOL    HW1 4565   6.915   6.282   1.313
 1222SOL    HW2 4566   7.013   6.335   1.194
 1223SOL     OW 4567   6.186   6.409   5.347
 1223SOL    HW1 4568   6.099   6.382   5.307
 1223SOL    HW2 4569   6.177   6.501   5.387
 1224SOL     OW 4570   5.709   4.993   2.047
 1224SOL    HW1 4571   5.660   5.069   2.089
 1224SOL    HW2 4572   5.733   5.016   1.952
 1225SOL     OW 4573   4.851   2.054   0.221
 1225SOL    HW1 4574   4.760   2.096   0.224
 1225SOL    HW2 4575   4.914   2.115   0.172
 1226SOL     OW 4576   5.239   5.444   1.173
 1226SOL    HW1 4577   5.225   5.461   1.075
 1226SOL    HW2 4578   5.295   5.362   1.185
 1227SOL     OW 4579   4.695   4.045   6.508
 1227SOL    HW1 4580   4.762   4.003   6.570
 1227SOL    HW2 4581   4.732   4.130   6.472
 1228SOL     OW 4582   3.741   3.211   3.079
 1228SOL    HW1 4583   3.766   3.292   3.131
 1228SOL    HW2 4584   3.734   3.235   2.982
 1229SOL     OW 4585   2.059   5.431   2.621
 1229SOL    HW1 4586   2.098   5.386   2.701
 1229SOL    HW2 4587   2.079   5.529   2.625
 1230SOL     OW 4588   5.566   5.002   1.312
 1230SOL    HW1 4589   5.595   5.022   1.405
 1230SOL    HW2 4590   5.633   4.943   1.267
 1231SOL     OW 4591   1.596   2.352   6.263
 1231SOL    HW1 4592   1.605   2.323   6.358
 1231SOL    HW2 4593   1.576   2.273   6.206
 1232SOL     OW 4594   3.225   0.154   5.710
 1232SOL    HW1 4595   3.148   0.164   5.647
 1232SOL    HW2 4596   3.309   0.137   5.659
 1233SOL     OW 4597   0.981   5.658   5.391
 1233SOL    HW1 4598   1.075   5.637   5.364
 1233SOL    HW2 4599   0.935   5.706   5.317
 1234SOL     OW 4600   0.169   3.459   0.172
 1234SOL    HW1 4601   0.094   3.404   0.134
 1234SOL    HW2 4602   0.226   3.401   0.231
 1235SOL     OW 4603   6.054   4.810   1.187
 1235SOL    HW1 4604   6.142   4.841   1.150
 1235SOL    HW2 4605   5.980   4.845   1.129
 1236SOL     OW 4606   1.459   1.924   2.377
 1236SOL    HW1 4607   1.378   1.980   2.398
 1236SOL    HW2 4608   1.487   1.942   2.283
 1237SOL     OW 4609   0.389   7.018   5.073
 1237SOL    HW1 4610   0.295   0.025   5.094
 1237SOL    HW2 4611   0.402   7.017   4.974
 1238SOL     OW 4612   0.052   0.536   4.743
 1238SOL    HW1 4613   0.070   0.516   4.839
 1238SOL    HW2 4614   6.989   0.588   4.734
 1239SOL     OW 4615   5.575   5.056   5.188
 1239SOL    HW1 4616   5.559   5.110   5.271
 1239SOL    HW2 4617   5.567   5.116   5.108
 1240SOL     OW 4618   6.975   4.542   2.719
 1240SOL    HW1 4619   6.908   4.477   2.683
 1240SOL    HW2 4620   6.949   4.635   2.694
 1241SOL     OW 4621   4.942   4.938   5.175
 1241SOL    HW1 4622   4.986   4.985   5.099
 1241SOL    HW2 4623   4.869   4.880   5.141
 1242SOL     OW 4624   1.157   5.135   0.394
 1242SOL    HW1 4625   1.186   5.154   0.300
 1242SOL    HW2 4626   1.116   5.044   0.397
 1243SOL     OW 4627   1.262   4.351   4.710
 1243SOL    HW1 4628   1.354   4.376   4.680
 1243SOL    HW2 4629   1.239   4.403   4.792
 1244SOL     OW 4630   5.647   0.077   5.262
 1244SOL    HW1 4631   5.689   0.064   5.352
 1244SOL    HW2 4632   5.710   0.045   5.191
 1245SOL     OW 4633   4.808   0.096   0.877
 1245SOL    HW1 4634   4.761   0.122   0.793
 1245SOL    HW2 4635   4.836   0.179   0.927
 1246SOL     OW 4636   5.157   1.052   0.116
 1246SOL    HW1 4637   5.205   1.006   0.190
 1246SOL    HW2 4638   5.104   1.128   0.152
 1247SOL     OW 4639   0.077   6.776   3.515
 1247SOL    HW1 4640   0.013   6.775   3.438
 1247SOL    HW2 4641   0.047   6.709   3.583
 1248SOL     OW 4642   1.349   6.393   3.878
 1248SOL    HW1 4643   1.389   6.398   3.786
 1248SOL    HW2 4644   1.330   6.297   3.901
 1249SOL     OW 4645   5.699   5.457   6.911
 1249SOL    HW1 4646   5.607   5.443   6.873
 1249SOL    HW2 4647   5.715   5.390   6.984
 1250SOL     OW 4648   6.620   3.367   4.990
 1250SOL    HW1 4649   6.584   3.341   4.900
 1250SOL    HW2 4650   6.706   3.318   5.007
 1251SOL     OW 4651   3.059   0.700   2.874
 1251SOL    HW1 4652   2.972   0.665   2.909
 1251SOL    HW2 4653   3.044   0.745   2.786
 1252SOL     OW 4654   1.861   5.997   6.503
 1252SOL    HW1 4655   1.762   5.984   6.509
 1252SOL    HW2 4656   1.908   5.922   6.549
 1253SOL     OW 4657   3.307   0.850   0.980
 1253SOL    HW1 4658   3.345   0.837   1.071
 1253SOL    HW2 4659   3.336   0.775   0.920
 1254SOL     OW 4660   6.041   0.820   2.208
 1254SOL    HW1 4661   6.104   0.755   2.249
 1254SOL    HW2 4662   5.948   0.799   2.237
 1255SOL     OW 4663   5.587   1.372   5.302
 1255SOL    HW1 4664   5.662   1.412   5.355
 1255SOL    HW2 4665   5.566   1.281   5.339
 1256SOL     OW 4666   1.308   5.627   3.828
 1256SOL    HW1 4667   1.373   5.597   3.897
 1256SOL    HW2 4668   1.220   5.582   3.843
 1257SOL     OW 4669   0.417   6.225   4.007
 1257SOL    HW1 4670   0.440   6.183   3.919
 1257SOL    HW2 4671   0.331   6.276   3.998
 1258SOL     OW 4672   4.609   6.827   4.879
 1258SOL    HW1 4673   4.578   6.914   4.838
 1258SOL    HW2 4674   4.552   6.752   4.843
 1259SOL     OW 4675   6.211   0.319   4.343
 1259SOL    HW1 4676   6.168   0.384   4.281
 1259SOL    HW2 4677   6.282   0.365   4.396
 1260SOL     OW 4678   2.245   1.017   1.947
 1260SOL    HW1 4679   2.318   1.079   1.918
 1260SOL    HW2 4680   2.156   1.059   1.929
 1261SOL     OW 4681   6.176   4.206   6.185
 1261SOL    HW1 4682   6.203   4.255   6.267
 1261SOL    HW2 4683   6.076   4.202   6.180
 1262SOL     OW 4684   4.619   5.218   0.528
 1262SOL    HW1 4685   4.608   5.313   0.558
 1262SOL    HW2 4686   4.622   5.158   0.607
 1263SOL     OW 4687   6.932   2.230   1.145
 1263SOL    HW1 4688   6.970   2.322   1.139
 1263SOL    HW2 4689   6.981   2.169   1.083
 1264SOL     OW 4690   0.374   3.513   3.536
 1264SOL    HW1 4691   0.294   3.547   3.585
 1264SOL    HW2 4692   0.378   3.555   3.446
 1265SOL     OW 4693   6.760   5.137   4.814
 1265SOL    HW1 4694   6.844   5.127   4.867
 1265SOL    HW2 4695   6.770   5.213   4.750
 1266SOL     OW 4696   2.302   1.875   4.767
 1266SOL    HW1 4697   2.350   1.944   4.714
 1266SOL    HW2 4698   2.206   1.902   4.777
 1267SOL     OW 4699   7.009   5.080   2.795
 1267SOL    HW1 4700   0.027   5.125   2.715
 1267SOL    HW2 4701   0.059   5.064   2.864
 1268SOL     OW 4702   6.029   3.125   6.984
 1268SOL    HW1 4703   5.951   3.188   6.983
 1268SOL    HW2 4704   6.095   3.152   6.915
 1269SOL     OW 4705   6.941   5.290   5.346
 1269SOL    HW1 4706   0.008   5.252   5.318
 1269SOL    HW2 4707   6.882   5.217   5.381
 1270SOL     OW 4708   1.896   3.273   4.750
 1270SOL    HW1 4709   1.909   3.365   4.713
 1270SOL    HW2 4710   1.893   3.278   4.850
 1271SOL     OW 4711   4.870   0.928   2.982
 1271SOL    HW1 4712   4.886   1.011   2.928
 1271SOL    HW2 4713   4.922   0.934   3.067
 1272SOL     OW 4714   0.835   6.007   1.879
 1272SOL    HW1 4715   0.868   6.099   1.900
 1272SOL    HW2 4716   0.848   5.948   1.958
 1273SOL     OW 4717   2.637   6.324   6.518
 1273SOL    HW1 4718   2.630   6.224   6.518
 1273SOL    HW2 4719   2.547   6.363   6.538
 1274SOL     OW 4720   6.770   2.052   1.724
 1274SOL    HW1 4721   6.684   2.003   1.712
 1274SOL    HW2 4722   6.844   2.000   1.682
 1275SOL     OW 4723   3.401   2.174   4.036
 1275SOL    HW1 4724   3.452   2.139   3.957
 1275SOL    HW2 4725   3.463   2.182   4.114
 1276SOL     OW 4726   6.722   0.309   3.172
 1276SOL    HW1 4727   6.793   0.327   3.241
 1276SOL    HW2 4728   6.766   0.282   3.086
 1277SOL     OW 4729   0.361   0.688   5.340
 1277SOL    HW1 4730   0.317   0.773   5.312
 1277SOL    HW2 4731   0.370   0.686   5.439
 1278SOL     OW 4732   1.988   1.955   6.053
 1278SOL    HW1 4733   1.972   2.040   6.104
 1278SOL    HW2 4734   1.975   1.973   5.956
 1279SOL     OW 4735   2.472   5.223   0.171
 1279SOL    HW1 4736   2.492   5.311   0.215
 1279SOL    HW2 4737   2.381   5.227   0.129
 1280SOL     OW 4738   2.144   6.978   3.325
 1280SOL    HW1 4739   2.051   6.997   3.296
 1280SOL    HW2 4740   2.208   7.008   3.254
 1281SOL     OW 4741   1.120   6.565   3.272
 1281SOL    HW1 4742   1.045   6.505   3.243
 1281SOL    HW2 4743   1.160   6.610   3.192
 1282SOL     OW 4744   0.226   1.048   1.842
 1282SOL    HW1 4745   0.230   0.974   1.774
 1282SOL    HW2 4746   0.237   1.009   1.933
 1283SOL     OW 4747   5.692   5.672   5.740
 1283SOL    HW1 4748   5.644   5.596   5.784
 1283SOL    HW2 4749   5.685   5.663   5.641
 1284SOL     OW 4750   2.717   2.543   1.764
 1284SOL    HW1 4751   2.643   2.572   1.825
 1284SOL    HW2 4752   2.783   2.489   1.816
 1285SOL     OW 4753   4.391   2.577   5.320
 1285SOL    HW1 4754   4.396   2.539   5.413
 1285SOL    HW2 4755   4.295   2.583   5.292
 1286SOL     OW 4756   6.066   4.675   1.844
 1286SOL    HW1 4757   6.076   4.580   1.817
 1286SOL    HW2 4758   6.102   4.688   1.937
 1287SOL     OW 4759   0.263   5.554   6.776
 1287SOL    HW1 4760   0.190   5.511   6.829
 1287SOL    HW2 4761   0.280   5.501   6.692
 1288SOL     OW 4762   6.291   2.951   2.131
 1288SOL    HW1 4763   6.191   2.953   2.124
 1288SOL    HW2 4764   6.320   2.993   2.217
 1289SOL     OW 4765   0.778   5.820   2.817
 1289SOL    HW1 4766   0.863   5.816   2.869
 1289SOL    HW2 4767   0.717   5.746   2.847
 1290SOL     OW 4768   0.629   6.254   1.363
 1290SOL    HW1 4769   0.582   6.181   1.412
 1290SOL    HW2 4770   0.635   6.335   1.422
 1291SOL     OW 4771   2.315   6.075   6.763
 1291SOL    HW1 4772   2.268   6.160   6.788
 1291SOL    HW2 4773   2.350   6.083   6.669
 1292SOL     OW 4774   0.974   6.003   0.523
 1292SOL    HW1 4775   0.946   6.010   0.619
 1292SOL    HW2 4776   0.915   6.060   0.466
 1293SOL     OW 4777   0.436   2.144   6.066
 1293SOL    HW1 4778   0.417   2.208   6.141
 1293SOL    HW2 4779   0.476   2.193   5.989
 1294SOL     OW 4780   0.853   2.340   2.351
 1294SOL    HW1 4781   0.929   2.380   2.402
 1294SOL    HW2 4782   0.889   2.276   2.282
 1295SOL     OW 4783   6.069   2.695   1.550
 1295SOL    HW1 4784   6.053   2.659   1.642
 1295SOL    HW2 4785   6.110   2.624   1.493
 1296SOL     OW 4786   3.560   1.660   6.071
 1296SOL    HW1 4787   3.524   1.628   6.158
 1296SOL    HW2 4788   3.512   1.743   6.043
 1297SOL     OW 4789   6.455   1.404   5.866
 1297SOL    HW1 4790   6.525   1.347   5.909
 1297SOL    HW2 4791   6.365   1.364   5.882
 1298SOL     OW 4792   5.574   2.630   3.345
 1298SOL    HW1 4793   5.588   2.728   3.333
 1298SOL    HW2 4794   5.484   2.604   3.309
 1299SOL     OW 4795   1.145   4.044   3.886
 1299SOL    HW1 4796   1.197   4.106   3.945
 1299SOL    HW2 4797   1.094   3.980   3.943
 1300SOL     OW 4798   3.722   2.761   1.560
 1300SOL    HW1 4799   3.660   2.699   1.609
 1300SOL    HW2 4800   3.694   2.855   1.578
 1301SOL     OW 4801   1.181   0.150   3.538
 1301SOL    HW1 4802   1.175   0.229   3.599
 1301SOL    HW2 4803   1.128   0.074   3.576
 1302SOL     OW 4804   3.276   6.529   4.838
 1302SOL    HW1 4805   3.329   6.523   4.923
 1302SOL    HW2 4806   3.246   6.438   4.811
 1303SOL     OW 4807   3.489   1.684   1.260
 1303SOL    HW1 4808   3.395   1.713   1.245
 1303SOL    HW2 4809   3.529   1.739   1.334
 1304SOL     OW 4810   3.082   0.785   6.711
 1304SOL    HW1 4811   3.107   0.818   6.619
 1304SOL    HW2 4812   3.124   0.696   6.727
 1305SOL     OW 4813   4.706   0.050   5.310
 1305SOL    HW1 4814   4.630   0.047   5.244
 1305SOL    HW2 4815   4.792   0.035   5.262
 1306SOL     OW 4816   0.675   4.625   4.303
 1306SOL    HW1 4817   0.590   4.615   4.355
 1306SOL    HW2 4818   0.744   4.563   4.341
 1307SOL     OW 4819   1.159   2.144   4.220
 1307SOL    HW1 4820   1.177   2.221   4.281
 1307SOL    HW2 4821   1.234   2.078   4.226
 1308SOL     OW 4822   4.591   6.125   3.655
 1308SOL    HW1 4823   4.580   6.030   3.626
 1308SOL    HW2 4824   4.588   6.130   3.755
 1309SOL     OW 4825   6.124   2.899   4.609
 1309SOL    HW1 4826   6.155   2.877   4.702
 1309SOL    HW2 4827   6.089   2.993   4.608
 1310SOL     OW 4828   5.757   3.525   4.816
 1310SOL    HW1 4829   5.770   3.502   4.720
 1310SOL    HW2 4830   5.816   3.467   4.872
 1311SOL     OW 4831   6.132   5.872   5.094
 1311SOL    HW1 4832   6.195   5.839   5.164
 1311SOL    HW2 4833   6.045   5.824   5.103
 1312SOL     OW 4834   0.792   6.659   0.404
 1312SOL    HW1 4835   0.891   6.668   0.402
 1312SOL    HW2 4836   0.753   6.704   0.323
 1313SOL     OW 4837   3.461   5.208   4.696
 1313SOL    HW1 4838   3.541   5.232   4.752
 1313SOL    HW2 4839   3.465   5.259   4.610
 1314SOL     OW 4840   0.402   1.492   5.114
 1314SOL    HW1 4841   0.352   1.493   5.201
 1314SOL    HW2 4842   0.356   1.553   5.049
 1315SOL     OW 4843   2.000   1.425   2.341
 1315SOL    HW1 4844   2.051   1.511   2.355
 1315SOL    HW2 4845   1.945   1.406   2.422
 1316SOL     OW 4846   2.901   6.885   3.385
 1316SOL    HW1 4847   2.864   6.806   3.434
 1316SOL    HW2 4848   2.989   6.910   3.424
 1317SOL     OW 4849   0.351   5.645   3.809
 1317SOL    HW1 4850   0.402   5.653   3.894
 1317SOL    HW2 4851   0.376   5.559   3.763
 1318SOL     OW 4852   0.081   6.675   0.527
 1318SOL    HW1 4853   0.106   6.579   0.544
 1318SOL    HW2 4854   0.128   6.734   0.593
 1319SOL     OW 4855   6.353   1.357   6.630
 1319SOL    HW1 4856   6.288   1.431   6.613
 1319SOL    HW2 4857   6.414   1.347   6.552
 1320SOL     OW 4858   5.334   5.664   6.258
 1320SOL    HW1 4859   5.395   5.589   6.234
 1320SOL    HW2 4860   5.367   5.749   6.217
 1321SOL     OW 4861   3.102   2.508   6.821
 1321SOL    HW1 4862   3.082   2.519   6.918
 1321SOL    HW2 4863   3.189   2.460   6.810
 1322SOL     OW 4864   6.750   1.381   3.939
 1322SOL    HW1 4865   6.699   1.303   3.902
 1322SOL    HW2 4866   6.761   1.450   3.867
 1323SOL     OW 4867   6.849   1.655   4.838
 1323SOL    HW1 4868   6.929   1.715   4.835
 1323SOL    HW2 4869   6.773   1.698   4.789
 1324SOL     OW 4870   1.528   3.522   1.380
 1324SOL    HW1 4871   1.547   3.428   1.407
 1324SOL    HW2 4872   1.497   3.524   1.284
 1325SOL     OW 4873   2.833   5.966   2.570
 1325SOL    HW1 4874   2.790   6.007   2.490
 1325SOL    HW2 4875   2.885   5.885   2.543
 1326SOL     OW 4876   5.646   3.364   4.558
 1326SOL    HW1 4877   5.670   3.295   4.490
 1326SOL    HW2 4878   5.639   3.321   4.648
 1327SOL     OW 4879   3.951   5.408   3.409
 1327SOL    HW1 4880   4.023   5.452   3.463
 1327SOL    HW2 4881   3.877   5.473   3.392
 1328SOL     OW 4882   2.458   2.463   6.383
 1328SOL    HW1 4883   2.471   2.546   6.436
 1328SOL    HW2 4884   2.547   2.421   6.364
 1329SOL     OW 4885   0.456   0.923   0.476
 1329SOL    HW1 4886   0.414   0.839   0.509
 1329SOL    HW2 4887   0.498   0.971   0.553
 1330SOL     OW 4888   6.314   6.797   1.427
 1330SOL    HW1 4889   6.265   6.779   1.341
 1330SOL    HW2 4890   6.315   6.895   1.444
 1331SOL     OW 4891   5.132   0.457   2.495
 1331SOL    HW1 4892   5.086   0.369   2.478
 1331SOL    HW2 4893   5.168   0.458   2.588
 1332SOL     OW 4894   4.319   1.313   1.260
 1332SOL    HW1 4895   4.418   1.298   1.253
 1332SOL    HW2 4896   4.271   1.230   1.231
 1333SOL     OW 4897   3.802   4.288   5.291
 1333SOL    HW1 4898   3.886   4.339   5.310
 1333SOL    HW2 4899   3.822   4.211   5.231
 1334SOL     OW 4900   0.040   4.085   4.560
 1334SOL    HW1 4901   0.102   4.130   4.495
 1334SOL    HW2 4902   0.092   4.019   4.614
 1335SOL     OW 4903   2.780   4.979   3.292
 1335SOL    HW1 4904   2.763   4.909   3.223
 1335SOL    HW2 4905   2.824   5.058   3.250
 1336SOL     OW 4906   0.587   0.571   5.329
 1336SOL    HW1 4907   0.502   0.621   5.341
 1336SOL    HW2 4908   0.621   0.584   5.236
 1337SOL     OW 4909   2.039   1.705   6.140
 1337SOL    HW1 4910   2.032   1.796   6.101
 1337SOL    HW2 4911   2.007   1.637   6.074
 1338SOL     OW 4912   4.258   5.580   0.211
 1338SOL    HW1 4913   4.186   5.649   0.202
 1338SOL    HW2 4914   4.265   5.527   0.127
 1339SOL     OW 4915   6.309   4.262   5.184
 1339SOL    HW1 4916   6.274   4.169   5.193
 1339SOL    HW2 4917   6.316   4.286   5.087
 1340SOL     OW 4918   1.243   2.001   0.369
 1340SOL    HW1 4919   1.315   1.942   0.334
 1340SOL    HW2 4920   1.243   2.088   0.319
 1341SOL     OW 4921   3.543   1.248   4.215
 1341SOL    HW1 4922   3.490   1.251   4.130
 1341SOL    HW2 4923   3.521   1.327   4.272
 1342SOL     OW 4924   0.545   6.463   0.733
 1342SOL    HW1 4925   0.557   6.540   0.670
 1342SOL    HW2 4926   0.624   6.457   0.794
 1343SOL     OW 4927   4.190   5.458   3.557
 1343SOL    HW1 4928   4.227   5.371   3.525
 1343SOL    HW2 4929   4.228   5.533   3.502
 1344SOL     OW 4930   6.152   1.363   3.117
 1344SOL    HW1 4931   6.244   1.394   3.094
 1344SOL    HW2 4932   6.103   1.341   3.033
 1345SOL     OW 4933   0.107   0.380   3.017
 1345SOL    HW1 4934   0.117   0.395   2.919
 1345SOL    HW2 4935   0.053   0.297   3.033
 1346SOL     OW 4936   0.357   0.588   4.097
 1346SOL    HW1 4937   0.412   0.664   4.061
 1346SOL    HW2 4938   0.328   0.529   4.021
 1347SOL     OW 4939   6.240   0.188   3.541
 1347SOL    HW1 4940   6.237   0.223   3.447
 1347SOL    HW2 4941   6.291   0.102   3.543
 1348SOL     OW 4942   5.668   4.536   4.875
 1348SOL    HW1 4943   5.600   4.574   4.937
 1348SOL    HW2 4944   5.638   4.445   4.844
 1349SOL     OW 4945   3.880   3.329   6.582
 1349SOL    HW1 4946   3.919   3.269   6.652
 1349SOL    HW2 4947   3.817   3.393   6.626
 1350SOL     OW 4948   3.071   0.637   6.114
 1350SOL    HW1 4949   3.005   0.569   6.083
 1350SOL    HW2 4950   3.161   0.595   6.123
 1351SOL     OW 4951   0.944   0.799   4.490
 1351SOL    HW1 4952   0.968   0.805   4.393
 1351SOL    HW2 4953   0.958   0.888   4.533
 1352SOL     OW 4954   0.076   0.640   3.799
 1352SOL    HW1 4955   0.140   0.589   3.857
 1352SOL    HW2 4956   7.004   0.622   3.831
 1353SOL     OW 4957   1.118   4.215   3.673
 1353SOL    HW1 4958   1.106   4.172   3.762
 1353SOL    HW2 4959   1.212   4.249   3.664
 1354SOL     OW 4960   0.439   6.329   2.413
 1354SOL    HW1 4961   0.392   6.241   2.402
 1354SOL    HW2 4962   0.532   6.314   2.446
 1355SOL     OW 4963   4.881   2.985   0.146
 1355SOL    HW1 4964   4.850   3.014   0.056
 1355SOL    HW2 4965   4.867   2.887   0.157
 1356SOL     OW 4966   2.951   3.535   2.898
 1356SOL    HW1 4967   2.912   3.444   2.884
 1356SOL    HW2 4968   2.921   3.595   2.824
 1357SOL     OW 4969   2.610   2.955   5.612
 1357SOL    HW1 4970   2.526   2.939   5.663
 1357SOL    HW2 4971   2.683   2.896   5.647
 1358SOL     OW 4972   1.907   2.195   6.172
 1358SOL    HW1 4973   1.993   2.221   6.216
 1358SOL    HW2 4974   1.879   2.267   6.110
 1359SOL     OW 4975   6.138   1.714   0.225
 1359SOL    HW1 4976   6.222   1.733   0.175
 1359SOL    HW2 4977   6.139   1.620   0.260
 1360SOL     OW 4978   3.314   3.842   3.980
 1360SOL    HW1 4979   3.326   3.848   3.881
 1360SOL    HW2 4980   3.401   3.818   4.023
 1361SOL     OW 4981   0.960   6.178   0.276
 1361SOL    HW1 4982   1.015   6.245   0.326
 1361SOL    HW2 4983   0.865   6.211   0.270
 1362SOL     OW 4984   2.595   2.968   5.977
 1362SOL    HW1 4985   2.562   2.944   6.068
 1362SOL    HW2 4986   2.694   2.979   5.979
 1363SOL     OW 4987   6.059   6.479   2.329
 1363SOL    HW1 4988   6.094   6.571   2.345
 1363SOL    HW2 4989   5.975   6.465   2.382
 1364SOL     OW 4990   6.631   3.385   1.420
 1364SOL    HW1 4991   6.621   3.481   1.445
 1364SOL    HW2 4992   6.545   3.337   1.437
 1365SOL     OW 4993   0.823   3.868   6.161
 1365SOL    HW1 4994   0.745   3.883   6.100
 1365SOL    HW2 4995   0.792   3.877   6.256
 1366SOL     OW 4996   6.037   1.582   0.567
 1366SOL    HW1 4997   6.088   1.539   0.492
 1366SOL    HW2 4998   5.939   1.561   0.557
 1367SOL     OW 4999   1.094   5.872   4.606
 1367SOL    HW1 5000   1.127   5.966   4.604
 1367SOL    HW2 5001   1.068   5.843   4.514
 1368SOL     OW 5002   0.869   6.662   5.326
 1368SOL    HW1 5003   0.802   6.737   5.324
 1368SOL    HW2 5004   0.930   6.671   5.248
 1369SOL     OW 5005   2.756   6.490   3.304
 1369SOL    HW1 5006   2.737   6.515   3.399
 1369SOL    HW2 5007   2.676   6.509   3.247
 1370SOL     OW 5008   6.786   2.438   3.320
 1370SOL    HW1 5009   6.749   2.526   3.292
 1370SOL    HW2 5010   6.818   2.443   3.415
 1371SOL     OW 5011   5.941   1.700   4.963
 1371SOL    HW1 5012   6.019   1.715   4.902
 1371SOL    HW2 5013   5.961   1.740   5.053
 1372SOL     OW 5014   6.901   2.349   0.176
 1372SOL    HW1 5015   6.971   2.419   0.190
 1372SOL    HW2 5016   6.832   2.357   0.248
 1373SOL     OW 5017   4.597   2.586   2.023
 1373SOL    HW1 5018   4.649   2.666   2.053
 1373SOL    HW2 5019   4.578   2.594   1.925
 1374SOL     OW 5020   4.431   4.883   0.436
 1374SOL    HW1 5021   4.478   4.824   0.502
 1374SOL    HW2 5022   4.469   4.868   0.345
 1375SOL     OW 5023   5.853   5.682   4.366
 1375SOL    HW1 5024   5.811   5.715   4.450
 1375SOL    HW2 5025   5.940   5.730   4.351
 1376SOL     OW 5026   2.359   5.014   6.199
 1376SOL    HW1 5027   2.424   4.938   6.203
 1376SOL    HW2 5028   2.290   5.003   6.270
 1377SOL     OW 5029   1.568   1.156   3.009
 1377SOL    HW1 5030   1.555   1.178   2.912
 1377SOL    HW2 5031   1.602   1.062   3.018
 1378SOL     OW 5032   4.765   2.440   4.389
 1378SOL    HW1 5033   4.672   2.473   4.407
 1378SOL    HW2 5034   4.829   2.516   4.399
 1379SOL     OW 5035   5.117   5.267   1.424
 1379SOL    HW1 5036   5.109   5.210   1.342
 1379SOL    HW2 5037   5.095   5.362   1.401
 1380SOL     OW 5038   0.235   5.444   1.387
 1380SOL    HW1 5039   0.319   5.482   1.425
 1380SOL    HW2 5040   0.167   5.435   1.459
 1381SOL     OW 5041   6.010   2.462   5.828
 1381SOL    HW1 5042   5.931   2.513   5.795
 1381SOL    HW2 5043   6.094   2.513   5.805
 1382SOL     OW 5044   4.225   2.633   0.177
 1382SOL    HW1 5045   4.203   2.653   0.273
 1382SOL    HW2 5046   4.141   2.609   0.128
 1383SOL     OW 5047   0.202   1.306   1.770
 1383SOL    HW1 5048   0.183   1.214   1.805
 1383SOL    HW2 5049   0.285   1.341   1.814
 1384SOL     OW 5050   5.483   1.031   1.678
 1384SOL    HW1 5051   5.470   1.110   1.617
 1384SOL    HW2 5052   5.563   0.979   1.648
 1385SOL     OW 5053   1.233   5.510   2.296
 1385SOL    HW1 5054   1.249   5.591   2.351
 1385SOL    HW2 5055   1.156   5.526   2.234
 1386SOL     OW 5056   3.170   5.636   4.264
 1386SOL    HW1 5057   3.072   5.633   4.241
 1386SOL    HW2 5058   3.195   5.552   4.312
 1387SOL     OW 5059   3.562   5.711   2.367
 1387SOL    HW1 5060   3.524   5.717   2.275
 1387SOL    HW2 5061   3.487   5.716   2.434
 1388SOL     OW 5062   6.578   0.167   1.373
 1388SOL    HW1 5063   6.628   0.092   1.329
 1388SOL    HW2 5064   6.493   0.183   1.323
 1389SOL     OW 5065   6.091   0.981   2.827
 1389SOL    HW1 5066   6.106   1.079   2.844
 1389SOL    HW2 5067   6.179   0.933   2.830
 1390SOL     OW 5068   6.865   1.815   5.980
 1390SOL    HW1 5069   6.839   1.831   5.885
 1390SOL    HW2 5070   6.913   1.727   5.988
 1391SOL     OW 5071   0.345   2.338   2.937
 1391SOL    HW1 5072   0.300   2.318   3.024
 1391SOL    HW2 5073   0.340   2.257   2.878
 1392SOL     OW 5074   4.885   5.315   5.626
 1392SOL    HW1 5075   4.935   5.247   5.680
 1392SOL    HW2 5076   4.904   5.301   5.529
 1393SOL     OW 5077   4.406   0.252   5.609
 1393SOL    HW1 5078   4.457   0.321   5.661
 1393SOL    HW2 5079   4.437   0.161   5.635
 1394SOL     OW 5080   3.039   5.638   5.593
 1394SOL    HW1 5081   3.113   5.587   5.549
 1394SOL    HW2 5082   3.027   5.726   5.546
 1395SOL     OW 5083   3.924   4.557   5.915
 1395SOL    HW1 5084   3.976   4.485   5.961
 1395SOL    HW2 5085   3.842   4.518   5.874
 1396SOL     OW 5086   6.095   6.083   4.498
 1396SOL    HW1 5087   6.024   6.069   4.567
 1396SOL    HW2 5088   6.182   6.048   4.532
 1397SOL     OW 5089   4.571   6.409   4.693
 1397SOL    HW1 5090   4.607   6.316   4.696
 1397SOL    HW2 5091   4.633   6.468   4.641
 1398SOL     OW 5092   1.312   1.570   5.228
 1398SOL    HW1 5093   1.292   1.633   5.303
 1398SOL    HW2 5094   1.409   1.543   5.233
 1399SOL     OW 5095   3.011   6.112   1.625
 1399SOL    HW1 5096   2.967   6.070   1.704
 1399SOL    HW2 5097   2.961   6.086   1.542
 1400SOL     OW 5098   6.768   0.492   1.924
 1400SOL    HW1 5099   6.708   0.429   1.874
 1400SOL    HW2 5100   6.835   0.440   1.977
 1401SOL     OW 5101   0.321   1.687   4.885
 1401SOL    HW1 5102   0.314   1.610   4.822
 1401SOL    HW2 5103   0.264   1.763   4.853
 1402SOL     OW 5104   0.037   2.987   0.451
 1402SOL    HW1 5105   0.060   2.898   0.492
 1402SOL    HW2 5106   6.962   3.006   0.467
 1403SOL     OW 5107   2.676   6.783   2.516
 1403SOL    HW1 5108   2.612   6.760   2.443
 1403SOL    HW2 5109   2.768   6.754   2.490
 1404SOL     OW 5110   5.433   0.870   0.002
 1404SOL    HW1 5111   5.498   0.934   6.984
 1404SOL    HW2 5112   5.341   0.909   7.019
 1405SOL     OW 5113   1.989   3.615   0.767
 1405SOL    HW1 5114   1.955   3.560   0.691
 1405SOL    HW2 5115   1.994   3.711   0.740
 1406SOL     OW 5116   0.902   4.042   1.309
 1406SOL    HW1 5117   1.000   4.047   1.289
 1406SOL    HW2 5118   0.889   4.022   1.406
 1407SOL     OW 5119   6.528   1.425   2.403
 1407SOL    HW1 5120   6.531   1.339   2.352
 1407SOL    HW2 5121   6.491   1.497   2.344
 1408SOL     OW 5122   5.358   0.872   6.313
 1408SOL    HW1 5123   5.456   0.884   6.296
 1408SOL    HW2 5124   5.340   0.882   6.411
 1409SOL     OW 5125   0.232   0.922   4.509
 1409SOL    HW1 5126   0.299   0.982   4.466
 1409SOL    HW2 5127   0.145   0.971   4.519
 1410SOL     OW 5128   0.813   3.228   0.104
 1410SOL    HW1 5129   0.756   3.283   0.166
 1410SOL    HW2 5130   0.776   3.234   0.011
 1411SOL     OW 5131   1.742   6.736   2.689
 1411SOL    HW1 5132   1.704   6.801   2.754
 1411SOL    HW2 5133   1.719   6.643   2.717
 1412SOL     OW 5134   1.457   2.920   0.332
 1412SOL    HW1 5135   1.420   2.906   0.424
 1412SOL    HW2 5136   1.382   2.926   0.266
 1413SOL     OW 5137   2.465   0.638   4.307
 1413SOL    HW1 5138   2.562   0.629   4.285
 1413SOL    HW2 5139   2.440   0.571   4.377
 1414SOL     OW 5140   2.572   1.754   1.781
 1414SOL    HW1 5141   2.521   1.820   1.727
 1414SOL    HW2 5142   2.631   1.700   1.721
 1415SOL     OW 5143   3.925   6.751   5.101
 1415SOL    HW1 5144   3.944   6.704   5.014
 1415SOL    HW2 5145   3.827   6.754   5.116
 1416SOL     OW 5146   4.306   4.707   2.222
 1416SOL    HW1 5147   4.290   4.662   2.134
 1416SOL    HW2 5148   4.219   4.741   2.258
 1417SOL     OW 5149   2.623   2.345   6.986
 1417SOL    HW1 5150   2.707   2.294   7.005
 1417SOL    HW2 5151   2.646   2.429   6.936
 1418SOL     OW 5152   3.061   3.945   2.739
 1418SOL    HW1 5153   3.072   4.002   2.821
 1418SOL    HW2 5154   3.126   3.976   2.669
 1419SOL     OW 5155   3.503   6.625   4.732
 1419SOL    HW1 5156   3.540   6.579   4.651
 1419SOL    HW2 5157   3.405   6.606   4.739
 1420SOL     OW 5158   1.094   6.151   2.313
 1420SOL    HW1 5159   1.013   6.200   2.345
 1420SOL    HW2 5160   1.109   6.171   2.216
 1421SOL     OW 5161   2.594   2.363   2.674
 1421SOL    HW1 5162   2.567   2.269   2.654
 1421SOL    HW2 5163   2.689   2.377   2.648
 1422SOL     OW 5164   1.960   4.841   1.638
 1422SOL    HW1 5165   1.899   4.772   1.676
 1422SOL    HW2 5166   2.055   4.812   1.648
 1423SOL     OW 5167   5.124   6.803   2.490
 1423SOL    HW1 5168   5.170   6.825   2.576
 1423SOL    HW2 5169   5.028   6.782   2.507
 1424SOL     OW 5170   5.866   5.096   5.498
 1424SOL    HW1 5171   5.868   5.060   5.405
 1424SOL    HW2 5172   5.956   5.131   5.522
 1425SOL     OW 5173   1.971   6.757   3.896
 1425SOL    HW1 5174   1.972   6.829   3.826
 1425SOL    HW2 5175   1.879   6.751   3.936
 1426SOL     OW 5176   1.185   1.690   5.456
 1426SOL    HW1 5177   1.184   1.595   5.485
 1426SOL    HW2 5178   1.092   1.717   5.428
 1427SOL     OW 5179   6.384   0.397   3.802
 1427SOL    HW1 5180   6.450   0.425   3.732
 1427SOL    HW2 5181   6.307   0.350   3.758
 1428SOL     OW 5182   6.036   2.423   0.409
 1428SOL    HW1 5183   6.108   2.361   0.440
 1428SOL    HW2 5184   6.074   2.515   0.398
 1429SOL     OW 5185   6.616   0.343   0.529
 1429SOL    HW1 5186   6.701   0.332   0.579
 1429SOL    HW2 5187   6.635   0.344   0.431
 1430SOL     OW 5188   1.733   4.469   3.767
 1430SOL    HW1 5189   1.651   4.413   3.776
 1430SOL    HW2 5190   1.805   4.434   3.827
 1431SOL     OW 5191   2.663   1.006   2.240
 1431SOL    HW1 5192   2.656   1.101   2.272
 1431SOL    HW2 5193   2.680   1.006   2.141
 1432SOL     OW 5194   2.153   1.082   2.834
 1432SOL    HW1 5195   2.059   1.105   2.860
 1432SOL    HW2 5196   2.212   1.087   2.915
 1433SOL     OW 5197   4.349   0.433   4.034
 1433SOL    HW1 5198   4.315   0.473   3.949
 1433SOL    HW2 5199   4.368   0.336   4.020
 1434SOL     OW 5200   0.584   0.980   5.901
 1434SOL    HW1 5201   0.628   1.056   5.950
 1434SOL    HW2 5202   0.523   1.016   5.830
 1435SOL     OW 5203   5.747   1.332   2.971
 1435SOL    HW1 5204   5.795   1.405   3.019
 1435SOL    HW2 5205   5.659   1.315   3.015
 1436SOL     OW 5206   4.227   3.972   0.039
 1436SOL    HW1 5207   4.140   3.923   0.031
 1436SOL    HW2 5208   4.218   4.043   0.110
 1437SOL     OW 5209   2.783   1.578   3.177
 1437SOL    HW1 5210   2.881   1.598   3.180
 1437SOL    HW2 5211   2.759   1.543   3.087
 1438SOL     OW 5212   2.728   6.852   1.463
 1438SOL    HW1 5213   2.775   6.777   1.510
 1438SOL    HW2 5214   2.770   6.867   1.374
 1439SOL     OW 5215   0.367   5.586   2.416
 1439SOL    HW1 5216   0.385   5.676   2.377
 1439SOL    HW2 5217   0.445   5.557   2.472
 1440SOL     OW 5218   3.073   3.987   0.998
 1440SOL    HW1 5219   2.985   3.969   1.042
 1440SOL    HW2 5220   3.106   3.904   0.955
 1441SOL     OW 5221   6.027   6.587   1.227
 1441SOL    HW1 5222   6.012   6.668   1.169
 1441SOL    HW2 5223   5.972   6.595   1.310
 1442SOL     OW 5224   5.766   5.695   0.088
 1442SOL    HW1 5225   5.688   5.635   0.108
 1442SOL    HW2 5226   5.752   5.784   0.132
 1443SOL     OW 5227   0.874   2.507   2.935
 1443SOL    HW1 5228   0.831   2.458   3.011
 1443SOL    HW2 5229   0.973   2.499   2.941
 1444SOL     OW 5230   5.884   6.278   6.973
 1444SOL    HW1 5231   5.904   6.260   0.048
 1444SOL    HW2 5232   5.851   6.372   6.964
 1445SOL     OW 5233   0.819   3.285   2.452
 1445SOL    HW1 5234   0.740   3.243   2.497
 1445SOL    HW2 5235   0.890   3.215   2.438
 1446SOL     OW 5236   6.166   6.583   6.706
 1446SOL    HW1 5237   6.265   6.593   6.691
 1446SOL    HW2 5238   6.144   6.486   6.720
 1447SOL     OW 5239   5.995   5.132   4.099
 1447SOL    HW1 5240   6.025   5.123   4.004
 1447SOL    HW2 5241   5.988   5.229   4.122
 1448SOL     OW 5242   0.592   2.660   5.219
 1448SOL    HW1 5243   0.681   2.682   5.259
 1448SOL    HW2 5244   0.596   2.672   5.120
 1449SOL     OW 5245   1.548   3.852   4.894
 1449SOL    HW1 5246   1.626   3.848   4.832
 1449SOL    HW2 5247   1.505   3.942   4.888
 1450SOL     OW 5248   1.827   1.755   5.191
 1450SOL    HW1 5249   1.727   1.750   5.186
 1450SOL    HW2 5250   1.855   1.771   5.286
 1451SOL     OW 5251   2.539   6.568   1.629
 1451SOL    HW1 5252   2.568   6.480   1.592
 1451SOL    HW2 5253   2.541   6.565   1.729
 1452SOL     OW 5254   4.319   3.085   6.309
 1452SOL    HW1 5255   4.258   3.140   6.252
 1452SOL    HW2 5256   4.414   3.109   6.290
 1453SOL     OW 5257   0.719   4.023   5.530
 1453SOL    HW1 5258   0.744   3.933   5.494
 1453SOL    HW2 5259   0.755   4.094   5.470
 1454SOL     OW 5260   2.905   2.216   3.608
 1454SOL    HW1 5261   2.850   2.153   3.663
 1454SOL    HW2 5262   2.967   2.164   3.550
 1455SOL     OW 5263   1.286   6.300   2.474
 1455SOL    HW1 5264   1.338   6.239   2.534
 1455SOL    HW2 5265   1.242   6.246   2.402
 1456SOL     OW 5266   6.646   5.685   5.884
 1456SOL    HW1 5267   6.651   5.607   5.945
 1456SOL    HW2 5268   6.735   5.731   5.880
 1457SOL     OW 5269   0.786   3.851   6.431
 1457SOL    HW1 5270   0.721   3.898   6.492
 1457SOL    HW2 5271   0.876   3.848   6.474
 1458SOL     OW 5272   5.928   5.189   6.063
 1458SOL    HW1 5273   5.900   5.144   5.978
 1458SOL    HW2 5274   6.017   5.154   6.091
 1459SOL     OW 5275   4.952   6.349   5.443
 1459SOL    HW1 5276   4.959   6.442   5.479
 1459SOL    HW2 5277   4.901   6.292   5.508
 1460SOL     OW 5278   2.091   6.171   5.443
 1460SOL    HW1 5279   2.065   6.252   5.496
 1460SOL    HW2 5280   2.013   6.109   5.439
 1461SOL     OW 5281   0.074   2.960   2.179
 1461SOL    HW1 5282   0.116   2.945   2.089
 1461SOL    HW2 5283   0.145   2.964   2.249
 1462SOL     OW 5284   0.980   0.021   0.573
 1462SOL    HW1 5285   1.019   0.095   0.626
 1462SOL    HW2 5286   0.953   0.055   0.482
 1463SOL     OW 5287   1.703   6.178   6.983
 1463SOL    HW1 5288   1.799   6.182   6.956
 1463SOL    HW2 5289   1.646   6.173   6.901
 1464SOL     OW 5290   6.781   4.335   4.822
 1464SOL    HW1 5291   6.783   4.244   4.782
 1464SOL    HW2 5292   6.833   4.398   4.764
 1465SOL     OW 5293   1.550   1.613   3.393
 1465SOL    HW1 5294   1.553   1.569   3.304
 1465SOL    HW2 5295   1.458   1.647   3.411
 1466SOL     OW 5296   3.908   2.574   1.499
 1466SOL    HW1 5297   3.906   2.501   1.567
 1466SOL    HW2 5298   3.835   2.640   1.519
 1467SOL     OW 5299   1.169   0.760   3.713
 1467SOL    HW1 5300   1.191   0.721   3.802
 1467SOL    HW2 5301   1.074   0.739   3.690
 1468SOL     OW 5302   2.865   6.352   1.701
 1468SOL    HW1 5303   2.767   6.333   1.702
 1468SOL    HW2 5304   2.915   6.266   1.695
 1469SOL     OW 5305   6.098   5.832   3.637
 1469SOL    HW1 5306   6.119   5.846   3.540
 1469SOL    HW2 5307   6.182   5.809   3.686
 1470SOL     OW 5308   6.409   2.507   1.036
 1470SOL    HW1 5309   6.320   2.548   1.058
 1470SOL    HW2 5310   6.403   2.408   1.045
 1471SOL     OW 5311   5.911   6.616   1.479
 1471SOL    HW1 5312   5.983   6.644   1.542
 1471SOL    HW2 5313   5.826   6.600   1.530
 1472SOL     OW 5314   2.423   6.777   5.992
 1472SOL    HW1 5315   2.490   6.769   5.919
 1472SOL    HW2 5316   2.423   6.870   6.028
 1473SOL     OW 5317   3.231   4.880   4.537
 1473SOL    HW1 5318   3.270   4.864   4.446
 1473SOL    HW2 5319   3.305   4.896   4.603
 1474SOL     OW 5320   4.167   4.405   1.414
 1474SOL    HW1 5321   4.200   4.416   1.508
 1474SOL    HW2 5322   4.239   4.363   1.358
 1475SOL     OW 5323   5.233   0.778   0.241
 1475SOL    HW1 5324   5.161   0.779   0.310
 1475SOL    HW2 5325   5.247   0.684   0.208
 1476SOL     OW 5326   3.909   1.094   1.624
 1476SOL    HW1 5327   3.902   1.114   1.526
 1476SOL    HW2 5328   4.001   1.062   1.645
 1477SOL     OW 5329   4.349   5.541   1.216
 1477SOL    HW1 5330   4.317   5.619   1.269
 1477SOL    HW2 5331   4.351   5.565   1.119
 1478SOL     OW 5332   5.233   5.721   5.353
 1478SOL    HW1 5333   5.215   5.728   5.451
 1478SOL    HW2 5334   5.232   5.813   5.312
 1479SOL     OW 5335   3.548   3.688   1.396
 1479SOL    HW1 5336   3.622   3.752   1.375
 1479SOL    HW2 5337   3.539   3.621   1.322
 1480SOL     OW 5338   3.237   0.900   4.991
 1480SOL    HW1 5339   3.145   0.878   5.023
 1480SOL    HW2 5340   3.232   0.943   4.901
 1481SOL     OW 5341   4.980   2.565   4.892
 1481SOL    HW1 5342   5.026   2.587   4.805
 1481SOL    HW2 5343   5.043   2.584   4.968
 1482SOL     OW 5344   4.200   0.084   0.406
 1482SOL    HW1 5345   4.229   0.042   0.492
 1482SOL    HW2 5346   4.239   0.033   0.329
 1483SOL     OW 5347   4.320   0.985   6.066
 1483SOL    HW1 5348   4.405   0.999   6.015
 1483SOL    HW2 5349   4.252   1.053   6.039
 1484SOL     OW 5350   2.713   5.529   4.412
 1484SOL    HW1 5351   2.623   5.525   4.455
 1484SOL    HW2 5352   2.739   5.438   4.379
 1485SOL     OW 5353   5.009   2.176   2.557
 1485SOL    HW1 5354   5.043   2.166   2.464
 1485SOL    HW2 5355   4.996   2.273   2.578
 1486SOL     OW 5356   5.094   6.985   3.427
 1486SOL    HW1 5357   5.180   7.015   3.385
 1486SOL    HW2 5358   5.033   0.043   3.437
 1487SOL     OW 5359   6.867   0.249   0.667
 1487SOL    HW1 5360   6.834   0.165   0.624
 1487SOL    HW2 5361   6.919   0.302   0.600
 1488SOL     OW 5362   6.587   0.929   2.873
 1488SOL    HW1 5363   6.653   0.882   2.931
 1488SOL    HW2 5364   6.495   0.918   2.910
 1489SOL     OW 5365   4.166   5.063   6.517
 1489SOL    HW1 5366   4.100   5.050   6.442
 1489SOL    HW2 5367   4.188   4.974   6.557
 1490SOL     OW 5368   0.465   2.426   1.893
 1490SOL    HW1 5369   0.514   2.364   1.954
 1490SOL    HW2 5370   0.423   2.499   1.946
 1491SOL     OW 5371   6.997   3.173   1.695
 1491SOL    HW1 5372   6.949   3.238   1.636
 1491SOL    HW2 5373   6.932   3.133   1.760
 1492SOL     OW 5374   6.229   1.191   3.375
 1492SOL    HW1 5375   6.240   1.256   3.451
 1492SOL    HW2 5376   6.200   1.240   3.293
 1493SOL     OW 5377   4.801   2.348   5.918
 1493SOL    HW1 5378   4.709   2.380   5.942
 1493SOL    HW2 5379   4.845   2.310   5.999
 1494SOL     OW 5380   5.428   2.942   5.902
 1494SOL    HW1 5381   5.494   2.978   5.836
 1494SOL    HW2 5382   5.469   2.866   5.953
 1495SOL     OW 5383   5.977   3.841   3.790
 1495SOL    HW1 5384   6.064   3.792   3.801
 1495SOL    HW2 5385   5.922   3.796   3.721
 1496SOL     OW 5386   6.948   6.263   6.933
 1496SOL    HW1 5387   6.924   6.337   6.995
 1496SOL    HW2 5388   0.026   6.249   6.935
 1497SOL     OW 5389   5.653   3.159   2.767
 1497SOL    HW1 5390   5.633   3.089   2.836
 1497SOL    HW2 5391   5.602   3.139   2.684
 1498SOL     OW 5392   3.287   4.998   0.755
 1498SOL    HW1 5393   3.240   5.082   0.729
 1498SOL    HW2 5394   3.246   4.921   0.706
 1499SOL     OW 5395   0.061   3.932   6.072
 1499SOL    HW1 5396   0.051   3.883   6.159
 1499SOL    HW2 5397   6.994   3.933   6.024
 1500SOL     OW 5398   0.521   5.547   1.135
 1500SOL    HW1 5399   0.467   5.617   1.089
 1500SOL    HW2 5400   0.600   5.589   1.179
 1501SOL     OW 5401   5.523   1.557   6.189
 1501SOL    HW1 5402   5.572   1.522   6.108
 1501SOL    HW2 5403   5.588   1.571   6.263
 1502SOL     OW 5404   6.735   0.541   6.624
 1502SOL    HW1 5405   6.767   0.560   6.531
 1502SOL    HW2 5406   6.653   0.594   6.643
 1503SOL     OW 5407   0.749   4.000   2.110
 1503SOL    HW1 5408   0.710   3.909   2.116
 1503SOL    HW2 5409   0.680   4.068   2.134
 1504SOL     OW 5410   0.547   0.718   3.382
 1504SOL    HW1 5411   0.538   0.618   3.376
 1504SOL    HW2 5412   0.617   0.748   3.317
 1505SOL     OW 5413   5.822   6.309   4.811
 1505SOL    HW1 5414   5.857   6.241   4.746
 1505SOL    HW2 5415   5.842   6.401   4.777
 1506SOL     OW 5416   1.438   1.569   0.538
 1506SOL    HW1 5417   1.431   1.573   0.638
 1506SOL    HW2 5418   1.531   1.543   0.512
 1507SOL     OW 5419   1.289   2.360   4.372
 1507SOL    HW1 5420   1.366   2.296   4.365
 1507SOL    HW2 5421   1.304   2.421   4.449
 1508SOL     OW 5422   0.873   0.607   0.586
 1508SOL    HW1 5423   0.936   0.663   0.533
 1508SOL    HW2 5424   0.883   0.629   0.683
 1509SOL     OW 5425   5.133   1.031   4.902
 1509SOL    HW1 5426   5.054   0.999   4.849
 1509SOL    HW2 5427   5.155   1.125   4.875
 1510SOL     OW 5428   3.531   6.659   4.086
 1510SOL    HW1 5429   3.547   6.699   3.995
 1510SOL    HW2 5430   3.442   6.613   4.087
 1511SOL     OW 5431   4.057   3.738   4.017
 1511SOL    HW1 5432   4.079   3.696   3.929
 1511SOL    HW2 5433   4.101   3.687   4.091
 1512SOL     OW 5434   6.490   5.939   1.256
 1512SOL    HW1 5435   6.547   5.862   1.284
 1512SOL    HW2 5436   6.547   6.019   1.241
 1513SOL     OW 5437   2.665   6.915   6.063
 1513SOL    HW1 5438   2.570   6.945   6.074
 1513SOL    HW2 5439   2.693   6.864   6.143
 1514SOL     OW 5440   3.433   2.237   5.910
 1514SOL    HW1 5441   3.489   2.160   5.879
 1514SOL    HW2 5442   3.406   2.293   5.832
 1515SOL     OW 5443   6.643   1.889   2.371
 1515SOL    HW1 5444   6.572   1.831   2.330
 1515SOL    HW2 5445   6.628   1.896   2.469
 1516SOL     OW 5446   6.382   6.247   4.692
 1516SOL    HW1 5447   6.305   6.307   4.673
 1516SOL    HW2 5448   6.366   6.157   4.652
 1517SOL     OW 5449   4.144   6.299   3.588
 1517SOL    HW1 5450   4.050   6.314   3.559
 1517SOL    HW2 5451   4.147   6.289   3.687
 1518SOL     OW 5452   6.970   2.067   0.701
 1518SOL    HW1 5453   6.913   2.044   0.780
 1518SOL    HW2 5454   6.988   2.165   0.700
 1519SOL     OW 5455   6.690   3.941   0.632
 1519SOL    HW1 5456   6.703   4.026   0.581
 1519SOL    HW2 5457   6.752   3.939   0.711
 1520SOL     OW 5458   0.214   5.282   1.847
 1520SOL    HW1 5459   0.299   5.295   1.796
 1520SOL    HW2 5460   0.234   5.244   1.937
 1521SOL     OW 5461   2.221   4.877   5.957
 1521SOL    HW1 5462   2.299   4.903   6.013
 1521SOL    HW2 5463   2.176   4.959   5.923
 1522SOL     OW 5464   5.296   5.553   4.615
 1522SOL    HW1 5465   5.303   5.520   4.709
 1522SOL    HW2 5466   5.353   5.496   4.555
 1523SOL     OW 5467   3.342   6.237   6.881
 1523SOL    HW1 5468   3.397   6.283   6.812
 1523SOL    HW2 5469   3.395   6.226   6.965
 1524SOL     OW 5470   2.224   2.393   2.491
 1524SOL    HW1 5471   2.261   2.388   2.398
 1524SOL    HW2 5472   2.291   2.437   2.551
 1525SOL     OW 5473   5.834   2.887   1.096
 1525SOL    HW1 5474   5.921   2.918   1.134
 1525SOL    HW2 5475   5.768   2.875   1.170
 1526SOL     OW 5476   0.940   1.460   0.377
 1526SOL    HW1 5477   0.919   1.514   0.296
 1526SOL    HW2 5478   1.025   1.493   0.418
 1527SOL     OW 5479   3.334   1.766   4.711
 1527SOL    HW1 5480   3.290   1.678   4.725
 1527SOL    HW2 5481   3.266   1.834   4.685
 1528SOL     OW 5482   4.730   3.753   1.132
 1528SOL    HW1 5483   4.718   3.654   1.138
 1528SOL    HW2 5484   4.823   3.777   1.160
 1529SOL     OW 5485   4.728   1.036   6.570
 1529SOL    HW1 5486   4.781   1.082   6.642
 1529SOL    HW2 5487   4.784   1.029   6.487
 1530SOL     OW 5488   3.558   6.927   1.718
 1530SOL    HW1 5489   3.645   6.967   1.687
 1530SOL    HW2 5490   3.529   6.973   1.802
 1531SOL     OW 5491   3.618   7.001   3.994
 1531SOL    HW1 5492   3.713   0.005   4.010
 1531SOL    HW2 5493   3.571   6.991   4.082
 1532SOL     OW 5494   3.135   5.056   6.127
 1532SOL    HW1 5495   3.189   5.136   6.099
 1532SOL    HW2 5496   3.179   4.973   6.093
 1533SOL     OW 5497   5.315   5.553   1.707
 1533SOL    HW1 5498   5.395   5.573   1.652
 1533SOL    HW2 5499   5.237   5.607   1.676
 1534SOL     OW 5500   3.759   5.730   6.883
 1534SOL    HW1 5501   3.688   5.767   6.823
 1534SOL    HW2 5502   3.809   5.805   6.926
 1535SOL     OW 5503   6.509   6.352   4.428
 1535SOL    HW1 5504   6.538   6.447   4.430
 1535SOL    HW2 5505   6.472   6.326   4.517
 1536SOL     OW 5506   4.130   4.427   6.826
 1536SOL    HW1 5507   4.157   4.342   6.871
 1536SOL    HW2 5508   4.131   4.502   6.893
 1537SOL     OW 5509   3.432   5.256   3.678
 1537SOL    HW1 5510   3.518   5.306   3.670
 1537SOL    HW2 5511   3.382   5.288   3.759
 1538SOL     OW 5512   3.180   1.277   0.431
 1538SOL    HW1 5513   3.170   1.370   0.468
 1538SOL    HW2 5514   3.129   1.213   0.488
 1539SOL     OW 5515   5.234   2.994   1.379
 1539SOL    HW1 5516   5.238   3.091   1.401
 1539SOL    HW2 5517   5.188   2.981   1.291
 1540SOL     OW 5518   2.472   0.123   4.538
 1540SOL    HW1 5519   2.526   0.197   4.498
 1540SOL    HW2 5520   2.496   0.112   4.635
 1541SOL     OW 5521   3.383   3.050   4.500
 1541SOL    HW1 5522   3.370   3.122   4.567
 1541SOL    HW2 5523   3.436   3.084   4.423
 1542SOL     OW 5524   6.457   0.154   2.433
 1542SOL    HW1 5525   6.528   0.211   2.474
 1542SOL    HW2 5526   6.442   0.182   2.338
 1543SOL     OW 5527   2.864   5.397   6.277
 1543SOL    HW1 5528   2.778   5.348   6.286
 1543SOL    HW2 5529   2.940   5.335   6.296
 1544SOL     OW 5530   4.057   3.316   3.616
 1544SOL    HW1 5531   4.100   3.405   3.599
 1544SOL    HW2 5532   4.056   3.262   3.532
 1545SOL     OW 5533   6.107   0.358   1.859
 1545SOL    HW1 5534   6.192   0.389   1.899
 1545SOL    HW2 5535   6.055   0.306   1.926
 1546SOL     OW 5536   4.990   6.581   5.598
 1546SOL    HW1 5537   5.077   6.572   5.646
 1546SOL    HW2 5538   4.915   6.582   5.665
 1547SOL     OW 5539   1.555   4.082   0.291
 1547SOL    HW1 5540   1.476   4.115   0.239
 1547SOL    HW2 5541   1.602   4.011   0.239
 1548SOL     OW 5542   6.023   2.023   0.032
 1548SOL    HW1 5543   6.030   2.003   0.130
 1548SOL    HW2 5544   6.114   2.036   7.016
 1549SOL     OW 5545   3.750   1.655   4.589
 1549SOL    HW1 5546   3.750   1.616   4.681
 1549SOL    HW2 5547   3.844   1.663   4.557
 1550SOL     OW 5548   3.736   3.192   2.504
 1550SOL    HW1 5549   3.755   3.258   2.431
 1550SOL    HW2 5550   3.788   3.108   2.488
 1551SOL     OW 5551   0.954   5.342   6.822
 1551SOL    HW1 5552   0.970   5.287   6.740
 1551SOL    HW2 5553   0.888   5.415   6.801
 1552SOL     OW 5554   2.459   4.641   1.429
 1552SOL    HW1 5555   2.547   4.640   1.477
 1552SOL    HW2 5556   2.385   4.652   1.496
 1553SOL     OW 5557   6.748   1.483   5.760
 1553SOL    HW1 5558   6.649   1.478   5.745
 1553SOL    HW2 5559   6.792   1.526   5.682
 1554SOL     OW 5560   3.088   2.096   3.371
 1554SOL    HW1 5561   3.022   2.141   3.311
 1554SOL    HW2 5562   3.180   2.101   3.330
 1555SOL     OW 5563   6.384   2.949   6.400
 1555SOL    HW1 5564   6.406   2.985   6.309
 1555SOL    HW2 5565   6.379   3.025   6.465
 1556SOL     OW 5566   2.288   1.190   6.385
 1556SOL    HW1 5567   2.200   1.236   6.367
 1556SOL    HW2 5568   2.299   1.178   6.484
 1557SOL     OW 5569   1.823   3.418   6.738
 1557SOL    HW1 5570   1.768   3.349   6.691
 1557SOL    HW2 5571   1.789   3.509   6.715
 1558SOL     OW 5572   0.142   0.120   5.065
 1558SOL    HW1 5573   0.045   0.129   5.087
 1558SOL    HW2 5574   0.154   0.135   4.966
 1559SOL     OW 5575   0.494   2.361   5.888
 1559SOL    HW1 5576   0.443   2.437   5.928
 1559SOL    HW2 5577   0.473   2.354   5.791
 1560SOL     OW 5578   0.323   0.901   6.245
 1560SOL    HW1 5579   0.377   0.879   6.164
 1560SOL    HW2 5580   0.269   0.984   6.228
 1561SOL     OW 5581   4.820   6.468   2.585
 1561SOL    HW1 5582   4.750   6.462   2.515
 1561SOL    HW2 5583   4.871   6.381   2.589
 1562SOL     OW 5584   4.773   0.197   2.891
 1562SOL    HW1 5585   4.707   0.270   2.908
 1562SOL    HW2 5586   4.741   0.113   2.935
 1563SOL     OW 5587   3.241   1.444   6.006
 1563SOL    HW1 5588   3.283   1.467   6.093
 1563SOL    HW2 5589   3.181   1.364   6.017
 1564SOL     OW 5590   1.523   1.995   2.110
 1564SOL    HW1 5591   1.550   2.087   2.136
 1564SOL    HW2 5592   1.596   1.952   2.057
 1565SOL     OW 5593   4.979   3.619   2.031
 1565SOL    HW1 5594   4.941   3.672   1.955
 1565SOL    HW2 5595   4.976   3.521   2.008
 1566SOL     OW 5596   5.456   4.189   3.463
 1566SOL    HW1 5597   5.486   4.112   3.518
 1566SOL    HW2 5598   5.477   4.171   3.367
 1567SOL     OW 5599   6.365   5.597   6.102
 1567SOL    HW1 5600   6.291   5.532   6.088
 1567SOL    HW2 5601   6.452   5.547   6.110
 1568SOL     OW 5602   1.127   0.341   0.384
 1568SOL    HW1 5603   1.164   0.423   0.428
 1568SOL    HW2 5604   1.200   0.295   0.333
 1569SOL     OW 5605   4.311   6.357   4.891
 1569SOL    HW1 5606   4.375   6.393   4.960
 1569SOL    HW2 5607   4.268   6.274   4.926
 1570SOL     OW 5608   2.968   1.575   1.417
 1570SOL    HW1 5609   2.882   1.526   1.401
 1570SOL    HW2 5610   2.974   1.652   1.354
 1571SOL     OW 5611   5.980   3.272   1.801
 1571SOL    HW1 5612   5.926   3.338   1.749
 1571SOL    HW2 5613   6.078   3.289   1.784
 1572SOL     OW 5614   0.291   0.196   1.976
 1572SOL    HW1 5615   0.237   0.170   2.056
 1572SOL    HW2 5616   0.386   0.211   2.004
 1573SOL     OW 5617   4.835   6.985   1.508
 1573SOL    HW1 5618   4.800   0.057   1.505
 1573SOL    HW2 5619   4.842   6.948   1.416
 1574SOL     OW 5620   6.418   2.342   1.385
 1574SOL    HW1 5621   6.414   2.322   1.483
 1574SOL    HW2 5622   6.510   2.369   1.361
 1575SOL     OW 5623   1.620   2.386   0.634
 1575SOL    HW1 5624   1.558   2.454   0.594
 1575SOL    HW2 5625   1.715   2.416   0.619
 1576SOL     OW 5626   5.861   6.221   3.737
 1576SOL    HW1 5627   5.934   6.267   3.687
 1576SOL    HW2 5628   5.776   6.271   3.724
 1577SOL     OW 5629   2.745   0.222   5.875
 1577SOL    HW1 5630   2.784   0.227   5.967
 1577SOL    HW2 5631   2.816   0.245   5.808
 1578SOL     OW 5632   5.168   4.109   5.523
 1578SOL    HW1 5633   5.257   4.071   5.501
 1578SOL    HW2 5634   5.141   4.175   5.453
 1579SOL     OW 5635   0.628   0.934   3.674
 1579SOL    HW1 5636   0.619   0.982   3.587
 1579SOL    HW2 5637   0.692   0.983   3.733
 1580SOL     OW 5638   2.941   4.435   5.347
 1580SOL    HW1 5639   2.850   4.393   5.354
 1580SOL    HW2 5640   2.943   4.496   5.268
 1581SOL     OW 5641   6.782   3.977   4.958
 1581SOL    HW1 5642   6.829   3.892   4.936
 1581SOL    HW2 5643   6.792   4.041   4.882
 1582SOL     OW 5644   0.806   5.288   4.211
 1582SOL    HW1 5645   0.843   5.195   4.202
 1582SOL    HW2 5646   0.825   5.340   4.127
 1583SOL     OW 5647   2.184   2.462   3.691
 1583SOL    HW1 5648   2.088   2.486   3.709
 1583SOL    HW2 5649   2.232   2.450   3.777
 1584SOL     OW 5650   2.443   0.381   5.504
 1584SOL    HW1 5651   2.402   0.470   5.487
 1584SOL    HW2 5652   2.370   0.315   5.525
 1585SOL     OW 5653   5.528   0.917   3.586
 1585SOL    HW1 5654   5.561   0.839   3.639
 1585SOL    HW2 5655   5.462   0.886   3.518
 1586SOL     OW 5656   3.706   4.067   2.610
 1586SOL    HW1 5657   3.688   4.041   2.705
 1586SOL    HW2 5658   3.785   4.016   2.576
 1587SOL     OW 5659   3.548   6.196   0.097
 1587SOL    HW1 5660   3.470   6.248   0.130
 1587SOL    HW2 5661   3.549   6.105   0.139
 1588SOL     OW 5662   5.364   2.263   1.656
 1588SOL    HW1 5663   5.420   2.181   1.659
 1588SOL    HW2 5664   5.314   2.266   1.569
 1589SOL     OW 5665   6.111   4.852   4.566
 1589SOL    HW1 5666   6.095   4.933   4.622
 1589SOL    HW2 5667   6.206   4.852   4.535
 1590SOL     OW 5668   1.954   0.176   6.540
 1590SOL    HW1 5669   2.024   0.105   6.540
 1590SOL    HW2 5670   1.978   0.246   6.607
 1591SOL     OW 5671   1.127   4.245   2.350
 1591SOL    HW1 5672   1.131   4.338   2.386
 1591SOL    HW2 5673   1.061   4.240   2.275
 1592SOL     OW 5674   3.083   3.866   2.425
 1592SOL    HW1 5675   3.063   3.818   2.339
 1592SOL    HW2 5676   3.131   3.951   2.405
 1593SOL     OW 5677   1.448   5.680   4.383
 1593SOL    HW1 5678   1.426   5.736   4.303
 1593SOL    HW2 5679   1.525   5.619   4.361
 1594SOL     OW 5680   6.850   5.194   2.422
 1594SOL    HW1 5681   6.936   5.245   2.428
 1594SOL    HW2 5682   6.803   5.217   2.336
 1595SOL     OW 5683   6.538   4.556   6.680
 1595SOL    HW1 5684   6.462   4.501   6.645
 1595SOL    HW2 5685   6.573   4.614   6.606
 1596SOL     OW 5686   2.497   5.591   6.349
 1596SOL    HW1 5687   2.543   5.676   6.373
 1596SOL    HW2 5688   2.549   5.544   6.277
 1597SOL     OW 5689   2.535   6.276   1.647
 1597SOL    HW1 5690   2.584   6.194   1.615
 1597SOL    HW2 5691   2.444   6.249   1.680
 1598SOL     OW 5692   0.233   4.914   0.931
 1598SOL    HW1 5693   0.147   4.891   0.885
 1598SOL    HW2 5694   0.292   4.964   0.868
 1599SOL     OW 5695   3.571   5.176   7.020
 1599SOL    HW1 5696   3.656   5.227   0.010
 1599SOL    HW2 5697   3.501   5.212   0.061
 1600SOL     OW 5698   4.958   1.191   4.285
 1600SOL    HW1 5699   5.049   1.225   4.261
 1600SOL    HW2 5700   4.916   1.149   4.205
 1601SOL     OW 5701   1.357   5.109   4.786
 1601SOL    HW1 5702   1.272   5.162   4.779
 1601SOL    HW2 5703   1.343   5.032   4.848
 1602SOL     OW 5704   0.987   5.263   3.649
 1602SOL    HW1 5705   0.895   5.230   3.628
 1602SOL    HW2 5706   1.054   5.218   3.590
 1603SOL     OW 5707   7.012   6.254   2.019
 1603SOL    HW1 5708   6.984   6.202   1.938
 1603SOL    HW2 5709   7.021   6.351   1.996
 1604SOL     OW 5710   6.892   4.980   6.486
 1604SOL    HW1 5711   6.929   4.911   6.424
 1604SOL    HW2 5712   6.929   5.069   6.463
 1605SOL     OW 5713   5.993   6.614   2.926
 1605SOL    HW1 5714   5.966   6.532   2.975
 1605SOL    HW2 5715   5.972   6.603   2.829
 1606SOL     OW 5716   4.975   6.963   6.085
 1606SOL    HW1 5717   4.896   6.989   6.028
 1606SOL    HW2 5718   5.059   6.973   6.031
 1607SOL     OW 5719   4.515   2.730   0.713
 1607SOL    HW1 5720   4.486   2.762   0.803
 1607SOL    HW2 5721   4.543   2.634   0.719
 1608SOL     OW 5722   2.474   7.008   0.710
 1608SOL    HW1 5723   2.422   0.016   0.790
 1608SOL    HW2 5724   2.414   6.959   0.647
 1609SOL     OW 5725   4.505   2.440   6.000
 1609SOL    HW1 5726   4.430   2.463   5.939
 1609SOL    HW2 5727   4.487   2.351   6.042
 1610SOL     OW 5728   6.335   6.064   4.303
 1610SOL    HW1 5729   6.242   6.057   4.339
 1610SOL    HW2 5730   6.373   6.154   4.325
 1611SOL     OW 5731   3.333   3.378   1.678
 1611SOL    HW1 5732   3.277   3.326   1.613
 1611SOL    HW2 5733   3.291   3.374   1.768
 1612SOL     OW 5734   2.443   0.764   4.745
 1612SOL    HW1 5735   2.353   0.765   4.703
 1612SOL    HW2 5736   2.433   0.762   4.845
 1613SOL     OW 5737   2.398   5.797   0.133
 1613SOL    HW1 5738   2.463   5.829   0.064
 1613SOL    HW2 5739   2.390   5.866   0.206
 1614SOL     OW 5740   5.883   2.185   6.883
 1614SOL    HW1 5741   5.927   2.121   6.945
 1614SOL    HW2 5742   5.914   2.168   6.789
 1615SOL     OW 5743   0.041   4.255   0.082
 1615SOL    HW1 5744   0.034   4.341   0.031
 1615SOL    HW2 5745   0.125   4.207   0.055
 1616SOL     OW 5746   3.414   1.867   5.946
 1616SOL    HW1 5747   3.360   1.920   6.012
 1616SOL    HW2 5748   3.438   1.925   5.869
 1617SOL     OW 5749   5.152   0.715   3.556
 1617SOL    HW1 5750   5.227   0.760   3.508
 1617SOL    HW2 5751   5.190   0.658   3.630
 1618SOL     OW 5752   5.974   3.102   0.917
 1618SOL    HW1 5753   5.953   3.196   0.890
 1618SOL    HW2 5754   5.990   3.098   1.016
 1619SOL     OW 5755   1.813   3.501   4.063
 1619SOL    HW1 5756   1.803   3.486   4.161
 1619SOL    HW2 5757   1.768   3.586   4.037
 1620SOL     OW 5758   2.863   5.275   1.487
 1620SOL    HW1 5759   2.849   5.371   1.464
 1620SOL    HW2 5760   2.788   5.221   1.451
 1621SOL     OW 5761   1.286   0.585   0.771
 1621SOL    HW1 5762   1.379   0.600   0.738
 1621SOL    HW2 5763   1.288   0.519   0.846
 1622SOL     OW 5764   2.040   1.672   5.039
 1622SOL    HW1 5765   1.988   1.735   5.097
 1622SOL    HW2 5766   2.134   1.706   5.030
 1623SOL     OW 5767   2.705   1.855   5.392
 1623SOL    HW1 5768   2.620   1.889   5.352
 1623SOL    HW2 5769   2.763   1.818   5.320
 1624SOL     OW 5770   3.044   1.290   7.010
 1624SOL    HW1 5771   3.022   1.340   6.926
 1624SOL    HW2 5772   3.051   1.192   6.989
 1625SOL     OW 5773   0.823   5.019   2.303
 1625SOL    HW1 5774   0.885   4.941   2.306
 1625SOL    HW2 5775   0.729   4.987   2.289
 1626SOL     OW 5776   1.891   3.099   6.224
 1626SOL    HW1 5777   1.959   3.097   6.151
 1626SOL    HW2 5778   1.913   3.173   6.287
 1627SOL     OW 5779   5.778   3.018   3.774
 1627SOL    HW1 5780   5.817   3.042   3.863
 1627SOL    HW2 5781   5.831   3.061   3.701
 1628SOL     OW 5782   3.194   4.336   0.417
 1628SOL    HW1 5783   3.118   4.276   0.439
 1628SOL    HW2 5784   3.159   4.426   0.389
 1629SOL     OW 5785   3.562   2.030   3.841
 1629SOL    HW1 5786   3.543   2.067   3.749
 1629SOL    HW2 5787   3.646   1.977   3.838
 1630SOL     OW 5788   0.431   4.466   5.354
 1630SOL    HW1 5789   0.429   4.549   5.298
 1630SOL    HW2 5790   0.526   4.433   5.361
 1631SOL     OW 5791   0.025   6.973   5.780
 1631SOL    HW1 5792   0.029   6.949   5.877
 1631SOL    HW2 5793   0.001   0.049   5.771
 1632SOL     OW 5794   6.318   0.886   1.011
 1632SOL    HW1 5795   6.364   0.971   0.985
 1632SOL    HW2 5796   6.384   0.811   1.007
 1633SOL     OW 5797   5.881   2.384   3.856
 1633SOL    HW1 5798   5.884   2.484   3.865
 1633SOL    HW2 5799   5.786   2.354   3.851
 1634SOL     OW 5800   3.102   0.501   6.828
 1634SOL    HW1 5801   3.109   0.433   6.901
 1634SOL    HW2 5802   3.022   0.482   6.772
 1635SOL     OW 5803   0.448   5.934   5.122
 1635SOL    HW1 5804   0.539   5.894   5.122
 1635SOL    HW2 5805   0.405   5.919   5.033
 1636SOL     OW 5806   2.129   5.867   2.004
 1636SOL    HW1 5807   2.074   5.946   1.977
 1636SOL    HW2 5808   2.074   5.784   1.998
 1637SOL     OW 5809   6.499   3.022   1.968
 1637SOL    HW1 5810   6.422   2.981   2.017
 1637SOL    HW2 5811   6.583   3.008   2.019
 1638SOL     OW 5812   6.970   3.357   4.833
 1638SOL    HW1 5813   7.018   3.355   4.745
 1638SOL    HW2 5814   6.949   3.452   4.858
 1639SOL     OW 5815   5.085   5.325   2.393
 1639SOL    HW1 5816   5.095   5.419   2.359
 1639SOL    HW2 5817   4.988   5.301   2.398
 1640SOL     OW 5818   6.470   0.375   1.020
 1640SOL    HW1 5819   6.377   0.398   1.049
 1640SOL    HW2 5820   6.468   0.342   0.926
 1641SOL     OW 5821   5.415   2.680   5.403
 1641SOL    HW1 5822   5.370   2.765   5.378
 1641SOL    HW2 5823   5.512   2.685   5.377
 1642SOL     OW 5824   6.786   2.062   0.892
 1642SOL    HW1 5825   6.725   1.983   0.891
 1642SOL    HW2 5826   6.743   2.137   0.943
 1643SOL     OW 5827   4.058   6.804   5.473
 1643SOL    HW1 5828   4.053   6.719   5.525
 1643SOL    HW2 5829   4.135   6.801   5.410
 1644SOL     OW 5830   2.775   1.097   1.358
 1644SOL    HW1 5831   2.695   1.139   1.399
 1644SOL    HW2 5832   2.796   1.011   1.405
 1645SOL     OW 5833   2.982   6.550   6.583
 1645SOL    HW1 5834   3.075   6.565   6.550
 1645SOL    HW2 5835   2.948   6.633   6.627
 1646SOL     OW 5836   1.182   4.135   0.747
 1646SOL    HW1 5837   1.100   4.127   0.691
 1646SOL    HW2 5838   1.197   4.050   0.798
 1647SOL     OW 5839   5.846   2.682   3.888
 1647SOL    HW1 5840   5.812   2.646   3.974
 1647SOL    HW2 5841   5.828   2.781   3.884
 1648SOL     OW 5842   4.209   6.945   2.099
 1648SOL    HW1 5843   4.245   0.005   2.052
 1648SOL    HW2 5844   4.256   6.935   2.187
 1649SOL     OW 5845   3.153   1.028   3.819
 1649SOL    HW1 5846   3.096   0.978   3.754
 1649SOL    HW2 5847   3.215   1.089   3.769
 1650SOL     OW 5848   2.770   6.899   4.131
 1650SOL    HW1 5849   2.824   6.976   4.099
 1650SOL    HW2 5850   2.823   6.847   4.198
 1651SOL     OW 5851   1.212   6.902   0.501
 1651SOL    HW1 5852   1.117   6.928   0.517
 1651SOL    HW2 5853   1.271   6.953   0.564
 1652SOL     OW 5854   2.883   2.288   1.638
 1652SOL    HW1 5855   2.925   2.344   1.710
 1652SOL    HW2 5856   2.876   2.342   1.554
 1653SOL     OW 5857   0.962   5.605   1.566
 1653SOL    HW1 5858   0.938   5.689   1.616
 1653SOL    HW2 5859   1.046   5.620   1.514
 1654SOL     OW 5860   6.658   3.282   2.686
 1654SOL    HW1 5861   6.629   3.192   2.718
 1654SOL    HW2 5862   6.628   3.297   2.592
 1655SOL     OW 5863   4.878   4.266   6.437
 1655SOL    HW1 5864   4.922   4.243   6.523
 1655SOL    HW2 5865   4.863   4.365   6.432
 1656SOL     OW 5866   1.164   5.125   3.333
 1656SOL    HW1 5867   1.085   5.088   3.381
 1656SOL    HW2 5868   1.199   5.205   3.383
 1657SOL     OW 5869   1.240   0.327   5.404
 1657SOL    HW1 5870   1.142   0.345   5.390
 1657SOL    HW2 5871   1.285   0.410   5.435
 1658SOL     OW 5872   6.104   6.109   2.967
 1658SOL    HW1 5873   6.019   6.146   2.931
 1658SOL    HW2 5874   6.087   6.018   3.004
 1659SOL     OW 5875   3.829   2.637   6.067
 1659SOL    HW1 5876   3.821   2.689   6.153
 1659SOL    HW2 5877   3.799   2.543   6.083
 1660SOL     OW 5878   1.675   5.921   3.397
 1660SOL    HW1 5879   1.634   6.010   3.417
 1660SOL    HW2 5880   1.655   5.895   3.303
 1661SOL     OW 5881   3.508   0.607   2.225
 1661SOL    HW1 5882   3.553   0.678   2.280
 1661SOL    HW2 5883   3.494   0.641   2.132
 1662SOL     OW 5884   0.889   0.682   3.770
 1662SOL    HW1 5885   0.837   0.765   3.751
 1662SOL    HW2 5886   0.850   0.605   3.718
 1663SOL     OW 5887   2.754   0.358   2.619
 1663SOL    HW1 5888   2.726   0.292   2.549
 1663SOL    HW2 5889   2.850   0.381   2.608
 1664SOL     OW 5890   2.127   5.507   3.937
 1664SOL    HW1 5891   2.184   5.575   3.983
 1664SOL    HW2 5892   2.093   5.544   3.851
 1665SOL     OW 5893   6.865   0.628   3.261
 1665SOL    HW1 5894   6.805   0.561   3.305
 1665SOL    HW2 5895   6.946   0.582   3.224
 1666SOL     OW 5896   5.983   3.039   6.006
 1666SOL    HW1 5897   5.947   2.954   6.045
 1666SOL    HW2 5898   6.073   3.021   5.965
 1667SOL     OW 5899   6.849   0.018   5.998
 1667SOL    HW1 5900   6.827   0.033   6.095
 1667SOL    HW2 5901   6.817   6.949   5.970
 1668SOL     OW 5902   4.297   0.392   5.060
 1668SOL    HW1 5903   4.307   0.293   5.062
 1668SOL    HW2 5904   4.208   0.418   5.098
 1669SOL     OW 5905   5.771   6.704   5.819
 1669SOL    HW1 5906   5.751   6.775   5.887
 1669SOL    HW2 5907   5.792   6.746   5.731
 1670SOL     OW 5908   5.336   4.960   5.777
 1670SOL    HW1 5909   5.268   4.913   5.832
 1670SOL    HW2 5910   5.293   5.039   5.732
 1671SOL     OW 5911   4.564   2.999   6.775
 1671SOL    HW1 5912   4.556   2.921   6.837
 1671SOL    HW2 5913   4.535   3.082   6.822
 1672SOL     OW 5914   1.553   5.010   2.136
 1672SOL    HW1 5915   1.620   5.003   2.210
 1672SOL    HW2 5916   1.506   4.922   2.126
 1673SOL     OW 5917   6.697   3.873   4.290
 1673SOL    HW1 5918   6.736   3.818   4.363
 1673SOL    HW2 5919   6.731   3.967   4.296
 1674SOL     OW 5920   0.812   4.173   0.010
 1674SOL    HW1 5921   0.868   4.177   6.948
 1674SOL    HW2 5922   0.721   4.208   7.012
 1675SOL     OW 5923   4.521   1.639   6.698
 1675SOL    HW1 5924   4.464   1.663   6.619
 1675SOL    HW2 5925   4.617   1.636   6.670
 1676SOL     OW 5926   1.497   0.650   2.769
 1676SOL    HW1 5927   1.492   0.723   2.837
 1676SOL    HW2 5928   1.458   0.682   2.682
 1677SOL     OW 5929   5.720   2.079   5.000
 1677SOL    HW1 5930   5.764   2.103   5.087
 1677SOL    HW2 5931   5.633   2.127   4.992
 1678SOL     OW 5932   5.473   0.040   1.838
 1678SOL    HW1 5933   5.471   7.015   1.927
 1678SOL    HW2 5934   5.394   0.100   1.829
 1679SOL     OW 5935   0.890   3.449   6.426
 1679SOL    HW1 5936   0.872   3.489   6.336
 1679SOL    HW2 5937   0.969   3.493   6.467
 1680SOL     OW 5938   0.821   2.153   4.278
 1680SOL    HW1 5939   0.829   2.089   4.354
 1680SOL    HW2 5940   0.871   2.118   4.199
 1681SOL     OW 5941   6.235   5.704   0.834
 1681SOL    HW1 5942   6.303   5.688   0.762
 1681SOL    HW2 5943   6.247   5.796   0.872
 1682SOL     OW 5944   7.010   3.192   6.011
 1682SOL    HW1 5945   0.001   3.261   5.939
 1682SOL    HW2 5946   6.943   3.225   6.077
 1683SOL     OW 5947   5.526   6.489   1.043
 1683SOL    HW1 5948   5.466   6.535   0.977
 1683SOL    HW2 5949   5.511   6.526   1.134
 1684SOL     OW 5950   0.755   6.404   5.337
 1684SOL    HW1 5951   0.716   6.492   5.310
 1684SOL    HW2 5952   0.713   6.331   5.283
 1685SOL     OW 5953   1.640   1.174   0.160
 1685SOL    HW1 5954   1.737   1.165   0.180
 1685SOL    HW2 5955   1.625   1.252   0.099
 1686SOL     OW 5956   1.172   6.709   6.527
 1686SOL    HW1 5957   1.261   6.673   6.552
 1686SOL    HW2 5958   1.114   6.716   6.608
 1687SOL     OW 5959   1.822   6.165   2.140
 1687SOL    HW1 5960   1.757   6.235   2.170
 1687SOL    HW2 5961   1.780   6.074   2.152
 1688SOL     OW 5962   1.795   1.861   2.803
 1688SOL    HW1 5963   1.762   1.908   2.886
 1688SOL    HW2 5964   1.772   1.915   2.723
 1689SOL     OW 5965   2.068   1.713   2.780
 1689SOL    HW1 5966   2.002   1.755   2.842
 1689SOL    HW2 5967   2.106   1.631   2.822
 1690SOL     OW 5968   1.530   1.462   1.083
 1690SOL    HW1 5969   1.600   1.449   1.013
 1690SOL    HW2 5970   1.507   1.559   1.090
 1691SOL     OW 5971   5.175   4.348   2.655
 1691SOL    HW1 5972   5.239   4.365   2.730
 1691SOL    HW2 5973   5.108   4.280   2.684
 1692SOL     OW 5974   0.782   0.473   1.994
 1692SOL    HW1 5975   0.779   0.376   1.972
 1692SOL    HW2 5976   0.689   0.510   1.998
 1693SOL     OW 5977   2.788   2.325   3.377
 1693SOL    HW1 5978   2.848   2.315   3.456
 1693SOL    HW2 5979   2.781   2.422   3.353
 1694SOL     OW 5980   5.110   5.620   5.001
 1694SOL    HW1 5981   5.015   5.626   4.969
 1694SOL    HW2 5982   5.141   5.710   5.032
 1695SOL     OW 5983   3.047   2.516   5.383
 1695SOL    HW1 5984   3.091   2.588   5.438
 1695SOL    HW2 5985   3.114   2.476   5.320
 1696SOL     OW 5986   4.831   6.134   0.559
 1696SOL    HW1 5987   4.878   6.216   0.594
 1696SOL    HW2 5988   4.773   6.160   0.482
 1697SOL     OW 5989   1.081   1.376   2.001
 1697SOL    HW1 5990   1.149   1.357   1.930
 1697SOL    HW2 5991   1.111   1.454   2.056
 1698SOL     OW 5992   4.401   1.984   1.488
 1698SOL    HW1 5993   4.395   2.080   1.514
 1698SOL    HW2 5994   4.315   1.955   1.446
 1699SOL     OW 5995   2.408   3.373   1.167
 1699SOL    HW1 5996   2.416   3.373   1.067
 1699SOL    HW2 5997   2.334   3.433   1.195
 1700SOL     OW 5998   6.982   3.094   3.121
 1700SOL    HW1 5999   0.030   3.077   3.191
 1700SOL    HW2 6000   6.898   3.046   3.145
 1701SOL     OW 6001   5.738   3.285   4.111
 1701SOL    HW1 6002   5.766   3.373   4.073
 1701SOL    HW2 6003   5.638   3.279   4.112
 1702SOL     OW 6004   4.903   4.218   0.848
 1702SOL    HW1 6005   4.814   4.264   0.848
 1702SOL    HW2 6006   4.889   4.119   0.838
 1703SOL     OW 6007   2.130   3.642   0.290
 1703SOL    HW1 6008   2.148   3.690   0.204
 1703SOL    HW2 6009   2.079   3.558   0.272
 1704SOL     OW 6010   0.584   0.976   1.736
 1704SOL    HW1 6011   0.628   0.933   1.815
 1704SOL    HW2 6012   0.589   1.076   1.745
 1705SOL     OW 6013   4.471   2.997   1.655
 1705SOL    HW1 6014   4.411   2.934   1.705
 1705SOL    HW2 6015   4.545   3.028   1.715
 1706SOL     OW 6016   3.493   0.499   0.770
 1706SOL    HW1 6017   3.406   0.548   0.765
 1706SOL    HW2 6018   3.479   0.411   0.814
 1707SOL     OW 6019   5.493   2.057   3.489
 1707SOL    HW1 6020   5.508   1.979   3.428
 1707SOL    HW2 6021   5.422   2.034   3.556
 1708SOL     OW 6022   6.930   5.124   3.298
 1708SOL    HW1 6023   6.912   5.178   3.381
 1708SOL    HW2 6024   6.992   5.049   3.321
 1709SOL     OW 6025   3.028   6.359   2.403
 1709SOL    HW1 6026   3.123   6.388   2.404
 1709SOL    HW2 6027   3.019   6.274   2.352
 1710SOL     OW 6028   0.625   5.742   4.433
 1710SOL    HW1 6029   0.615   5.840   4.413
 1710SOL    HW2 6030   0.694   5.703   4.373
 1711SOL     OW 6031   1.295   4.712   5.117
 1711SOL    HW1 6032   1.197   4.697   5.130
 1711SOL    HW2 6033   1.346   4.662   5.186
 1712SOL     OW 6034   0.114   4.166   0.434
 1712SOL    HW1 6035   0.040   4.102   0.415
 1712SOL    HW2 6036   0.099   4.208   0.524
 1713SOL     OW 6037   1.335   2.407   1.346
 1713SOL    HW1 6038   1.370   2.316   1.327
 1713SOL    HW2 6039   1.381   2.474   1.287
 1714SOL     OW 6040   3.374   2.059   0.888
 1714SOL    HW1 6041   3.471   2.081   0.901
 1714SOL    HW2 6042   3.361   2.017   0.798
 1715SOL     OW 6043   0.236   2.854   2.645
 1715SOL    HW1 6044   0.217   2.884   2.738
 1715SOL    HW2 6045   0.178   2.775   2.623
 1716SOL     OW 6046   0.235   5.922   6.954
 1716SOL    HW1 6047   0.259   5.988   6.883
 1716SOL    HW2 6048   0.138   5.898   6.946
 1717SOL     OW 6049   2.755   0.055   6.913
 1717SOL    HW1 6050   2.744   0.154   6.920
 1717SOL    HW2 6051   2.847   0.030   6.942
 1718SOL     OW 6052   1.476   4.449   6.792
 1718SOL    HW1 6053   1.515   4.442   6.700
 1718SOL    HW2 6054   1.545   4.482   6.855
 1719SOL     OW 6055   2.061   3.705   1.348
 1719SOL    HW1 6056   1.993   3.727   1.278
 1719SOL    HW2 6057   2.144   3.670   1.304
 1720SOL     OW 6058   6.388   1.081   7.021
 1720SOL    HW1 6059   6.476   1.037   7.005
 1720SOL    HW2 6060   6.346   1.105   6.933
 1721SOL     OW 6061   2.321   6.380   3.419
 1721SOL    HW1 6062   2.225   6.399   3.401
 1721SOL    HW2 6063   2.340   6.284   3.400
 1722SOL     OW 6064   5.894   6.801   2.188
 1722SOL    HW1 6065   5.939   6.827   2.274
 1722SOL    HW2 6066   5.845   6.715   2.201
 1723SOL     OW 6067   0.006   1.751   2.238
 1723SOL    HW1 6068   6.990   1.666   2.277
 1723SOL    HW2 6069   6.975   1.829   2.271
 1724SOL     OW 6070   4.545   0.997   0.154
 1724SOL    HW1 6071   4.514   0.991   0.059
 1724SOL    HW2 6072   4.468   1.019   0.213
 1725SOL     OW 6073   3.587   4.208   1.428
 1725SOL    HW1 6074   3.553   4.265   1.503
 1725SOL    HW2 6075   3.548   4.239   1.342
 1726SOL     OW 6076   0.229   4.412   4.693
 1726SOL    HW1 6077   0.308   4.353   4.678
 1726SOL    HW2 6078   0.191   4.440   4.605
 1727SOL     OW 6079   3.939   3.897   4.928
 1727SOL    HW1 6080   3.908   3.978   4.979
 1727SOL    HW2 6081   3.967   3.925   4.836
 1728SOL     OW 6082   4.471   4.635   3.361
 1728SOL    HW1 6083   4.551   4.577   3.346
 1728SOL    HW2 6084   4.477   4.678   3.451
 1729SOL     OW 6085   1.841   3.296   2.683
 1729SOL    HW1 6086   1.932   3.263   2.709
 1729SOL    HW2 6087   1.842   3.322   2.587
 1730SOL     OW 6088   6.325   2.577   5.089
 1730SOL    HW1 6089   6.227   2.590   5.077
 1730SOL    HW2 6090   6.355   2.497   5.036
 1731SOL     OW 6091   1.847   5.298   0.769
 1731SOL    HW1 6092   1.894   5.284   0.857
 1731SOL    HW2 6093   1.765   5.241   0.766
 1732SOL     OW 6094   0.877   4.682   0.152
 1732SOL    HW1 6095   0.818   4.744   0.204
 1732SOL    HW2 6096   0.897   4.602   0.207
 1733SOL     OW 6097   1.324   3.324   1.087
 1733SOL    HW1 6098   1.368   3.380   1.016
 1733SOL    HW2 6099   1.302   3.382   1.165
 1734SOL     OW 6100   4.620   2.440   1.216
 1734SOL    HW1 6101   4.620   2.341   1.224
 1734SOL    HW2 6102   4.634   2.466   1.120
 1735SOL     OW 6103   5.965   5.400   1.623
 1735SOL    HW1 6104   5.999   5.474   1.680
 1735SOL    HW2 6105   6.040   5.338   1.599
 1736SOL     OW 6106   3.757   3.141   6.856
 1736SOL    HW1 6107   3.711   3.090   6.783
 1736SOL    HW2 6108   3.854   3.153   6.833
 1737SOL     OW 6109   2.112   6.729   3.416
 1737SOL    HW1 6110   2.117   6.821   3.377
 1737SOL    HW2 6111   2.146   6.731   3.510
 1738SOL     OW 6112   2.102   3.141   2.185
 1738SOL    HW1 6113   2.174   3.071   2.180
 1738SOL    HW2 6114   2.057   3.150   2.096
 1739SOL     OW 6115   4.842   2.236   4.570
 1739SOL    HW1 6116   4.805   2.304   4.507
 1739SOL    HW2 6117   4.837   2.271   4.664
 1740SOL     OW 6118   0.558   0.812   6.112
 1740SOL    HW1 6119   0.633   0.750   6.091
 1740SOL    HW2 6120   0.533   0.865   6.031
 1741SOL     OW 6121   1.154   0.364   2.735
 1741SOL    HW1 6122   1.135   0.389   2.830
 1741SOL    HW2 6123   1.253   0.358   2.722
 1742SOL     OW 6124   6.254   0.527   4.610
 1742SOL    HW1 6125   6.294   0.436   4.613
 1742SOL    HW2 6126   6.307   0.589   4.667
 1743SOL     OW 6127   3.368   1.241   1.415
 1743SOL    HW1 6128   3.431   1.308   1.453
 1743SOL    HW2 6129   3.349   1.264   1.319
 1744SOL     OW 6130   2.812   0.849   1.476
 1744SOL    HW1 6131   2.877   0.812   1.543
 1744SOL    HW2 6132   2.758   0.775   1.437
 1745SOL     OW 6133   6.498   2.197   3.085
 1745SOL    HW1 6134   6.420   2.247   3.123
 1745SOL    HW2 6135   6.515   2.116   3.141
 1746SOL     OW 6136   3.050   0.515   5.783
 1746SOL    HW1 6137   3.110   0.537   5.859
 1746SOL    HW2 6138   3.038   0.596   5.725
 1747SOL     OW 6139   3.314   0.390   2.093
 1747SOL    HW1 6140   3.348   0.296   2.103
 1747SOL    HW2 6141   3.388   0.455   2.112
 1748SOL     OW 6142   5.757   2.008   3.223
 1748SOL    HW1 6143   5.787   2.078   3.288
 1748SOL    HW2 6144   5.665   1.977   3.248
 1749SOL     OW 6145   4.164   6.809   5.950
 1749SOL    HW1 6146   4.078   6.835   5.994
 1749SOL    HW2 6147   4.181   6.868   5.871
 1750SOL     OW 6148   4.819   1.644   2.772
 1750SOL    HW1 6149   4.769   1.689   2.846
 1750SOL    HW2 6150   4.770   1.657   2.686
 1751SOL     OW 6151   1.789   5.279   4.126
 1751SOL    HW1 6152   1.792   5.326   4.037
 1751SOL    HW2 6153   1.882   5.270   4.161
 1752SOL     OW 6154   6.225   1.777   0.515
 1752SOL    HW1 6155   6.290   1.757   0.441
 1752SOL    HW2 6156   6.164   1.700   0.528
 1753SOL     OW 6157   1.201   0.178   1.436
 1753SOL    HW1 6158   1.140   0.191   1.357
 1753SOL    HW2 6159   1.171   0.237   1.511
 1754SOL     OW 6160   3.966   3.131   0.731
 1754SOL    HW1 6161   3.868   3.124   0.716
 1754SOL    HW2 6162   3.989   3.098   0.823
 1755SOL     OW 6163   5.264   4.192   1.242
 1755SOL    HW1 6164   5.226   4.196   1.150
 1755SOL    HW2 6165   5.207   4.245   1.305
 1756SOL     OW 6166   0.076   5.414   4.056
 1756SOL    HW1 6167   0.089   5.387   3.961
 1756SOL    HW2 6168   0.040   5.507   4.060
 1757SOL     OW 6169   3.371   6.662   4.461
 1757SOL    HW1 6170   3.320   6.721   4.399
 1757SOL    HW2 6171   3.435   6.716   4.515
 1758SOL     OW 6172   2.373   0.396   3.379
 1758SOL    HW1 6173   2.436   0.320   3.363
 1758SOL    HW2 6174   2.392   0.469   3.314
 1759SOL     OW 6175   0.491   5.151   5.929
 1759SOL    HW1 6176   0.487   5.063   5.881
 1759SOL    HW2 6177   0.448   5.222   5.872
 1760SOL     OW 6178   6.375   0.971   2.145
 1760SOL    HW1 6179   6.391   1.008   2.054
 1760SOL    HW2 6180   6.278   0.980   2.168
 1761SOL     OW 6181   5.968   1.203   1.033
 1761SOL    HW1 6182   5.939   1.110   1.058
 1761SOL    HW2 6183   5.987   1.206   0.935
 1762SOL     OW 6184   6.067   1.774   6.358
 1762SOL    HW1 6185   6.051   1.715   6.279
 1762SOL    HW2 6186   6.150   1.828   6.343
 1763SOL     OW 6187   1.965   3.876   4.162
 1763SOL    HW1 6188   1.995   3.971   4.150
 1763SOL    HW2 6189   1.867   3.874   4.179
 1764SOL     OW 6190   0.689   3.283   3.039
 1764SOL    HW1 6191   0.772   3.317   3.084
 1764SOL    HW2 6192   0.612   3.288   3.102
 1765SOL     OW 6193   2.298   2.582   6.738
 1765SOL    HW1 6194   2.355   2.655   6.701
 1765SOL    HW2 6195   2.246   2.616   6.816
 1766SOL     OW 6196   5.819   3.044   5.093
 1766SOL    HW1 6197   5.877   2.999   5.025
 1766SOL    HW2 6198   5.781   2.975   5.155
 1767SOL     OW 6199   5.524   3.551   2.338
 1767SOL    HW1 6200   5.566   3.641   2.332
 1767SOL    HW2 6201   5.559   3.493   2.264
 1768SOL     OW 6202   4.657   6.436   3.304
 1768SOL    HW1 6203   4.704   6.441   3.393
 1768SOL    HW2 6204   4.608   6.521   3.288
 1769SOL     OW 6205   3.496   1.602   2.450
 1769SOL    HW1 6206   3.506   1.702   2.451
 1769SOL    HW2 6207   3.438   1.575   2.373
 1770SOL     OW 6208   3.051   5.836   5.404
 1770SOL    HW1 6209   3.058   5.917   5.347
 1770SOL    HW2 6210   3.037   5.755   5.346
 1771SOL     OW 6211   3.221   6.078   6.691
 1771SOL    HW1 6212   3.260   6.128   6.768
 1771SOL    HW2 6213   3.258   6.113   6.605
 1772SOL     OW 6214   3.124   6.863   3.010
 1772SOL    HW1 6215   3.213   6.905   2.997
 1772SOL    HW2 6216   3.092   6.825   2.923
 1773SOL     OW 6217   1.808   5.379   6.520
 1773SOL    HW1 6218   1.778   5.466   6.558
 1773SOL    HW2 6219   1.775   5.304   6.578
 1774SOL     OW 6220   4.180   5.764   1.321
 1774SOL    HW1 6221   4.220   5.747   1.411
 1774SOL    HW2 6222   4.095   5.816   1.332
 1775SOL     OW 6223   1.314   3.872   1.913
 1775SOL    HW1 6224   1.242   3.934   1.943
 1775SOL    HW2 6225   1.277   3.780   1.899
 1776SOL     OW 6226   3.954   5.945   4.623
 1776SOL    HW1 6227   3.957   5.893   4.538
 1776SOL    HW2 6228   4.044   5.984   4.642
 1777SOL     OW 6229   4.210   5.846   0.561
 1777SOL    HW1 6230   4.151   5.766   0.572
 1777SOL    HW2 6231   4.155   5.926   0.538
 1778SOL     OW 6232   4.753   3.300   6.483
 1778SOL    HW1 6233   4.807   3.327   6.563
 1778SOL    HW2 6234   4.667   3.351   6.482
 1779SOL     OW 6235   3.721   1.276   5.049
 1779SOL    HW1 6236   3.716   1.214   4.971
 1779SOL    HW2 6237   3.783   1.238   5.118
 1780SOL     OW 6238   3.266   2.911   6.452
 1780SOL    HW1 6239   3.345   2.910   6.390
 1780SOL    HW2 6240   3.216   2.825   6.444
 1781SOL     OW 6241   4.385   5.546   2.828
 1781SOL    HW1 6242   4.396   5.631   2.880
 1781SOL    HW2 6243   4.298   5.503   2.852
 1782SOL     OW 6244   2.858   1.183   3.191
 1782SOL    HW1 6245   2.912   1.237   3.256
 1782SOL    HW2 6246   2.809   1.243   3.128
 1783SOL     OW 6247   2.579   5.113   6.114
 1783SOL    HW1 6248   2.629   5.152   6.191
 1783SOL    HW2 6249   2.484   5.094   6.142
 1784SOL     OW 6250   3.598   0.039   6.178
 1784SOL    HW1 6251   3.523   0.104   6.173
 1784SOL    HW2 6252   3.585   6.988   6.110
 1785SOL     OW 6253   6.088   3.534   2.446
 1785SOL    HW1 6254   6.015   3.511   2.381
 1785SOL    HW2 6255   6.052   3.530   2.539
 1786SOL     OW 6256   2.225   2.890   0.487
 1786SOL    HW1 6257   2.144   2.900   0.545
 1786SOL    HW2 6258   2.202   2.834   0.408
 1787SOL     OW 6259   3.186   1.135   5.238
 1787SOL    HW1 6260   3.224   1.092   5.156
 1787SOL    HW2 6261   3.192   1.234   5.230
 1788SOL     OW 6262   1.563   5.112   5.680
 1788SOL    HW1 6263   1.495   5.128   5.608
 1788SOL    HW2 6264   1.644   5.168   5.662
 1789SOL     OW 6265   5.369   1.991   0.279
 1789SOL    HW1 6266   5.368   2.090   0.266
 1789SOL    HW2 6267   5.278   1.954   0.261
 1790SOL     OW 6268   3.855   6.666   3.506
 1790SOL    HW1 6269   3.937   6.665   3.564
 1790SOL    HW2 6270   3.816   6.574   3.500
 1791SOL     OW 6271   6.949   0.303   2.450
 1791SOL    HW1 6272   6.925   0.212   2.485
 1791SOL    HW2 6273   0.026   0.308   2.436
 1792SOL     OW 6274   0.878   3.909   5.201
 1792SOL    HW1 6275   0.900   3.859   5.117
 1792SOL    HW2 6276   0.934   3.873   5.276
 1793SOL     OW 6277   6.612   0.774   3.572
 1793SOL    HW1 6278   6.711   0.772   3.587
 1793SOL    HW2 6279   6.591   0.839   3.499
 1794SOL     OW 6280   5.012   5.950   5.694
 1794SOL    HW1 6281   4.916   5.940   5.718
 1794SOL    HW2 6282   5.037   6.047   5.697
 1795SOL     OW 6283   0.147   2.501   0.501
 1795SOL    HW1 6284   0.085   2.452   0.561
 1795SOL    HW2 6285   0.115   2.492   0.406
 1796SOL     OW 6286   2.177   0.819   5.804
 1796SOL    HW1 6287   2.186   0.919   5.804
 1796SOL    HW2 6288   2.153   0.788   5.896
 1797SOL     OW 6289   1.077   6.638   0.426
 1797SOL    HW1 6290   1.111   6.728   0.454
 1797SOL    HW2 6291   1.098   6.623   0.329
 1798SOL     OW 6292   4.379   2.402   3.737
 1798SOL    HW1 6293   4.350   2.317   3.694
 1798SOL    HW2 6294   4.479   2.408   3.737
 1799SOL     OW 6295   6.843   2.702   5.181
 1799SOL    HW1 6296   6.816   2.790   5.142
 1799SOL    HW2 6297   6.821   2.701   5.278
 1800SOL     OW 6298   3.957   4.596   1.428
 1800SOL    HW1 6299   4.044   4.552   1.406
 1800SOL    HW2 6300   3.903   4.537   1.487
 1801SOL     OW 6301   7.010   0.812   2.016
 1801SOL    HW1 6302   6.969   0.879   2.078
 1801SOL    HW2 6303   0.014   0.730   2.068
 1802SOL     OW 6304   6.623   5.537   4.350
 1802SOL    HW1 6305   6.628   5.468   4.278
 1802SOL    HW2 6306   6.713   5.581   4.360
 1803SOL     OW 6307   6.975   5.596   0.094
 1803SOL    HW1 6308   6.940   5.591   0.188
 1803SOL    HW2 6309   0.053   5.608   0.097
 1804SOL     OW 6310   3.190   4.322   5.284
 1804SOL    HW1 6311   3.104   4.363   5.316
 1804SOL    HW2 6312   3.265   4.385   5.300
 1805SOL     OW 6313   5.083   3.889   6.534
 1805SOL    HW1 6314   5.067   3.915   6.439
 1805SOL    HW2 6315   5.170   3.840   6.541
 1806SOL     OW 6316   1.451   0.069   1.494
 1806SOL    HW1 6317   1.506   0.097   1.415
 1806SOL    HW2 6318   1.356   0.097   1.479
 1807SOL     OW 6319   6.189   1.769   4.867
 1807SOL    HW1 6320   6.250   1.841   4.833
 1807SOL    HW2 6321   6.238   1.682   4.869
 1808SOL     OW 6322   0.225   5.102   4.605
 1808SOL    HW1 6323   0.195   5.170   4.671
 1808SOL    HW2 6324   0.307   5.135   4.558
 1809SOL     OW 6325   3.084   1.881   5.765
 1809SOL    HW1 6326   3.058   1.930   5.682
 1809SOL    HW2 6327   3.168   1.920   5.802
 1810SOL     OW 6328   3.146   6.820   3.512
 1810SOL    HW1 6329   3.161   6.727   3.477
 1810SOL    HW2 6330   3.197   6.885   3.456
 1811SOL     OW 6331   6.030   5.633   3.286
 1811SOL    HW1 6332   6.127   5.609   3.281
 1811SOL    HW2 6333   5.990   5.591   3.368
 1812SOL     OW 6334   4.554   5.744   4.997
 1812SOL    HW1 6335   4.610   5.668   4.966
 1812SOL    HW2 6336   4.458   5.714   5.004
 1813SOL     OW 6337   5.788   4.107   0.304
 1813SOL    HW1 6338   5.704   4.112   0.250
 1813SOL    HW2 6339   5.835   4.021   0.284
 1814SOL     OW 6340   4.593   0.146   2.208
 1814SOL    HW1 6341   4.649   0.092   2.271
 1814SOL    HW2 6342   4.623   0.241   2.208
 1815SOL     OW 6343   0.009   1.290   3.499
 1815SOL    HW1 6344   0.032   1.194   3.512
 1815SOL    HW2 6345   7.019   1.334   3.589
 1816SOL     OW 6346   2.042   2.937   0.736
 1816SOL    HW1 6347   1.950   2.973   0.755
 1816SOL    HW2 6348   2.040   2.837   0.741
 1817SOL     OW 6349   1.600   6.081   2.496
 1817SOL    HW1 6350   1.647   6.159   2.454
 1817SOL    HW2 6351   1.565   6.108   2.586
 1818SOL     OW 6352   1.466   0.379   2.794
 1818SOL    HW1 6353   1.488   0.476   2.783
 1818SOL    HW2 6354   1.462   0.357   2.891
 1819SOL     OW 6355   1.161   4.093   1.404
 1819SOL    HW1 6356   1.188   4.087   1.501
 1819SOL    HW2 6357   1.191   4.181   1.367
 1820SOL     OW 6358   4.566   0.835   2.570
 1820SOL    HW1 6359   4.650   0.821   2.622
 1820SOL    HW2 6360   4.555   0.933   2.551
 1821SOL     OW 6361   1.861   1.359   2.585
 1821SOL    HW1 6362   1.866   1.352   2.685
 1821SOL    HW2 6363   1.768   1.384   2.558
 1822SOL     OW 6364   3.293   2.526   1.552
 1822SOL    HW1 6365   3.197   2.506   1.572
 1822SOL    HW2 6366   3.352   2.466   1.607
 1823SOL     OW 6367   4.528   6.757   2.492
 1823SOL    HW1 6368   4.569   6.745   2.582
 1823SOL    HW2 6369   4.562   6.687   2.430
 1824SOL     OW 6370   4.337   2.531   1.283
 1824SOL    HW1 6371   4.335   2.627   1.258
 1824SOL    HW2 6372   4.432   2.499   1.289
 1825SOL     OW 6373   1.025   0.745   1.366
 1825SOL    HW1 6374   0.988   0.820   1.421
 1825SOL    HW2 6375   1.123   0.736   1.383
 1826SOL     OW 6376   3.244   0.633   0.752
 1826SOL    HW1 6377   3.215   0.697   0.680
 1826SOL    HW2 6378   3.191   0.549   0.746
 1827SOL     OW 6379   6.712   5.451   1.781
 1827SOL    HW1 6380   6.664   5.384   1.838
 1827SOL    HW2 6381   6.804   5.466   1.818
 1828SOL     OW 6382   0.873   2.831   6.689
 1828SOL    HW1 6383   0.910   2.746   6.725
 1828SOL    HW2 6384   0.886   2.834   6.590
 1829SOL     OW 6385   5.126   5.704   3.171
 1829SOL    HW1 6386   5.082   5.791   3.190
 1829SOL    HW2 6387   5.095   5.669   3.082
 1830SOL     OW 6388   4.233   6.563   3.508
 1830SOL    HW1 6389   4.167   6.508   3.559
 1830SOL    HW2 6390   4.302   6.503   3.468
 1831SOL     OW 6391   5.635   6.268   1.980
 1831SOL    HW1 6392   5.600   6.262   1.887
 1831SOL    HW2 6393   5.643   6.364   2.007
 1832SOL     OW 6394   4.841   2.271   1.063
 1832SOL    HW1 6395   4.864   2.338   1.133
 1832SOL    HW2 6396   4.851   2.179   1.100
 1833SOL     OW 6397   5.373   0.500   5.109
 1833SOL    HW1 6398   5.316   0.530   5.187
 1833SOL    HW2 6399   5.424   0.419   5.135
 1834SOL     OW 6400   3.883   3.394   1.072
 1834SOL    HW1 6401   3.792   3.361   1.046
 1834SOL    HW2 6402   3.894   3.386   1.171
 1835SOL     OW 6403   1.596   5.089   1.167
 1835SOL    HW1 6404   1.647   5.016   1.121
 1835SOL    HW2 6405   1.560   5.153   1.099
 1836SOL     OW 6406   0.562   0.611   0.687
 1836SOL    HW1 6407   0.657   0.586   0.669
 1836SOL    HW2 6408   0.559   0.679   0.760
 1837SOL     OW 6409   0.715   2.393   4.416
 1837SOL    HW1 6410   0.787   2.373   4.483
 1837SOL    HW2 6411   0.715   2.321   4.347
 1838SOL     OW 6412   0.472   3.042   4.388
 1838SOL    HW1 6413   0.546   3.099   4.352
 1838SOL    HW2 6414   0.401   3.101   4.427
 1839SOL     OW 6415   6.357   3.237   4.856
 1839SOL    HW1 6416   6.305   3.164   4.812
 1839SOL    HW2 6417   6.297   3.288   4.917
 1840SOL     OW 6418   2.675   5.978   0.653
 1840SOL    HW1 6419   2.661   5.943   0.746
 1840SOL    HW2 6420   2.707   5.905   0.594
 1841SOL     OW 6421   2.160   3.067   3.864
 1841SOL    HW1 6422   2.192   3.145   3.918
 1841SOL    HW2 6423   2.160   3.091   3.767
 1842SOL     OW 6424   0.776   4.787   0.641
 1842SOL    HW1 6425   0.843   4.722   0.677
 1842SOL    HW2 6426   0.708   4.740   0.586
 1843SOL     OW 6427   2.387   1.339   5.705
 1843SOL    HW1 6428   2.433   1.346   5.793
 1843SOL    HW2 6429   2.356   1.429   5.675
 1844SOL     OW 6430   3.833   2.183   4.454
 1844SOL    HW1 6431   3.803   2.099   4.499
 1844SOL    HW2 6432   3.766   2.208   4.384
 1845SOL     OW 6433   3.731   0.212   6.971
 1845SOL    HW1 6434   3.645   0.198   6.922
 1845SOL    HW2 6435   3.755   0.309   6.969
 1846SOL     OW 6436   3.721   1.809   6.658
 1846SOL    HW1 6437   3.684   1.760   6.579
 1846SOL    HW2 6438   3.667   1.789   6.739
 1847SOL     OW 6439   0.897   6.976   1.087
 1847SOL    HW1 6440   0.965   0.028   1.074
 1847SOL    HW2 6441   0.856   6.986   1.178
 1848SOL     OW 6442   3.215   6.335   2.070
 1848SOL    HW1 6443   3.167   6.421   2.055
 1848SOL    HW2 6444   3.285   6.347   2.140
 1849SOL     OW 6445   3.529   1.452   0.109
 1849SOL    HW1 6446   3.571   1.383   0.167
 1849SOL    HW2 6447   3.430   1.449   0.119
 1850SOL     OW 6448   6.280   2.477   2.878
 1850SOL    HW1 6449   6.306   2.543   2.807
 1850SOL    HW2 6450   6.308   2.385   2.850
 1851SOL     OW 6451   0.392   1.883   2.705
 1851SOL    HW1 6452   0.432   1.974   2.712
 1851SOL    HW2 6453   0.295   1.892   2.683
 1852SOL     OW 6454   3.957   3.063   0.251
 1852SOL    HW1 6455   3.942   2.977   0.201
 1852SOL    HW2 6456   3.897   3.066   0.330
 1853SOL     OW 6457   0.545   3.918   0.953
 1853SOL    HW1 6458   0.510   3.977   1.026
 1853SOL    HW2 6459   0.580   3.834   0.992
 1854SOL     OW 6460   2.949   5.681   4.560
 1854SOL    HW1 6461   2.961   5.608   4.627
 1854SOL    HW2 6462   2.892   5.648   4.484
 1855SOL     OW 6463   4.891   5.266   0.756
 1855SOL    HW1 6464   4.844   5.331   0.696
 1855SOL    HW2 6465   4.984   5.298   0.773
 1856SOL     OW 6466   5.635   2.791   5.155
 1856SOL    HW1 6467   5.557   2.751   5.106
 1856SOL    HW2 6468   5.716   2.734   5.140
 1857SOL     OW 6469   4.090   1.076   4.508
 1857SOL    HW1 6470   4.090   1.036   4.417
 1857SOL    HW2 6471   4.037   1.019   4.571
 1858SOL     OW 6472   5.229   2.995   4.006
 1858SOL    HW1 6473   5.241   3.036   3.916
 1858SOL    HW2 6474   5.284   2.911   4.012
 1859SOL     OW 6475   4.124   1.914   3.406
 1859SOL    HW1 6476   4.098   1.924   3.310
 1859SOL    HW2 6477   4.049   1.945   3.464
 1860SOL     OW 6478   5.892   0.957   4.262
 1860SOL    HW1 6479   5.899   0.867   4.219
 1860SOL    HW2 6480   5.805   0.965   4.310
 1861SOL     OW 6481   5.250   6.342   2.824
 1861SOL    HW1 6482   5.188   6.370   2.897
 1861SOL    HW2 6483   5.345   6.356   2.853
 1862SOL     OW 6484   1.932   1.036   6.937
 1862SOL    HW1 6485   1.843   1.009   6.974
 1862SOL    HW2 6486   2.002   1.022   7.006
 1863SOL     OW 6487   2.839   2.663   1.308
 1863SOL    HW1 6488   2.742   2.677   1.290
 1863SOL    HW2 6489   2.892   2.684   1.226
 1864SOL     OW 6490   0.611   6.374   4.519
 1864SOL    HW1 6491   0.636   6.343   4.428
 1864SOL    HW2 6492   0.689   6.419   4.562
 1865SOL     OW 6493   3.638   2.065   5.851
 1865SOL    HW1 6494   3.702   2.042   5.924
 1865SOL    HW2 6495   3.684   2.120   5.781
 1866SOL     OW 6496   4.655   4.364   2.300
 1866SOL    HW1 6497   4.658   4.353   2.201
 1866SOL    HW2 6498   4.570   4.325   2.335
 1867SOL     OW 6499   0.123   4.181   6.655
 1867SOL    HW1 6500   0.222   4.180   6.639
 1867SOL    HW2 6501   0.095   4.272   6.685
 1868SOL     OW 6502   5.694   4.749   6.009
 1868SOL    HW1 6503   5.629   4.676   5.987
 1868SOL    HW2 6504   5.655   4.837   5.981
 1869SOL     OW 6505   6.378   1.245   5.230
 1869SOL    HW1 6506   6.321   1.323   5.201
 1869SOL    HW2 6507   6.422   1.204   5.151
 1870SOL     OW 6508   2.009   5.167   4.715
 1870SOL    HW1 6509   1.935   5.115   4.672
 1870SOL    HW2 6510   1.985   5.185   4.810
 1871SOL     OW 6511   2.098   0.387   0.710
 1871SOL    HW1 6512   2.092   0.473   0.661
 1871SOL    HW2 6513   2.187   0.344   0.691
 1872SOL     OW 6514   2.321   4.515   0.753
 1872SOL    HW1 6515   2.360   4.570   0.826
 1872SOL    HW2 6516   2.393   4.491   0.687
 1873SOL     OW 6517   4.084   1.144   5.979
 1873SOL    HW1 6518   4.100   1.239   6.008
 1873SOL    HW2 6519   4.056   1.090   6.059
 1874SOL     OW 6520   1.797   1.928   2.040
 1874SOL    HW1 6521   1.864   1.928   2.115
 1874SOL    HW2 6522   1.782   1.834   2.010
 1875SOL     OW 6523   0.121   6.743   6.599
 1875SOL    HW1 6524   0.038   6.733   6.654
 1875SOL    HW2 6525   0.115   6.826   6.545
 1876SOL     OW 6526   2.972   6.864   4.530
 1876SOL    HW1 6527   2.939   6.829   4.443
 1876SOL    HW2 6528   2.902   6.922   4.572
 1877SOL     OW 6529   1.050   0.295   3.920
 1877SOL    HW1 6530   1.029   0.224   3.852
 1877SOL    HW2 6531   0.979   0.294   3.991
 1878SOL     OW 6532   6.816   2.194   4.130
 1878SOL    HW1 6533   6.824   2.257   4.053
 1878SOL    HW2 6534   6.907   2.164   4.158
 1879SOL     OW 6535   0.875   4.093   4.729
 1879SOL    HW1 6536   0.876   3.998   4.699
 1879SOL    HW2 6537   0.903   4.098   4.825
 1880SOL     OW 6538   6.664   1.671   5.266
 1880SOL    HW1 6539   6.708   1.601   5.211
 1880SOL    HW2 6540   6.709   1.759   5.250
 1881SOL     OW 6541   6.484   2.169   0.093
 1881SOL    HW1 6542   6.457   2.248   0.148
 1881SOL    HW2 6543   6.403   2.126   0.054
 1882SOL     OW 6544   1.144   4.215   6.071
 1882SOL    HW1 6545   1.225   4.226   6.013
 1882SOL    HW2 6546   1.121   4.118   6.079
 1883SOL     OW 6547   6.951   2.551   2.605
 1883SOL    HW1 6548   6.878   2.485   2.622
 1883SOL    HW2 6549   6.997   2.529   2.518
 1884SOL     OW 6550   0.215   2.018   1.370
 1884SOL    HW1 6551   0.167   1.931   1.378
 1884SOL    HW2 6552   0.269   2.034   1.453
 1885SOL     OW 6553   2.397   1.628   5.324
 1885SOL    HW1 6554   2.423   1.720   5.293
 1885SOL    HW2 6555   2.312   1.601   5.279
 1886SOL     OW 6556   1.312   6.980   3.226
 1886SOL    HW1 6557   1.396   6.928   3.242
 1886SOL    HW2 6558   1.326   0.053   3.257
 1887SOL     OW 6559   1.374   6.041   6.337
 1887SOL    HW1 6560   1.449   5.976   6.351
 1887SOL    HW2 6561   1.286   5.992   6.342
 1888SOL     OW 6562   2.900   1.393   0.792
 1888SOL    HW1 6563   2.983   1.338   0.791
 1888SOL    HW2 6564   2.825   1.341   0.751
 1889SOL     OW 6565   1.342   3.472   3.374
 1889SOL    HW1 6566   1.418   3.457   3.311
 1889SOL    HW2 6567   1.266   3.411   3.349
 1890SOL     OW 6568   1.029   6.000   3.613
 1890SOL    HW1 6569   0.970   5.937   3.561
 1890SOL    HW2 6570   1.119   5.958   3.626
 1891SOL     OW 6571   3.791   3.368   2.302
 1891SOL    HW1 6572   3.760   3.358   2.208
 1891SOL    HW2 6573   3.882   3.410   2.303
 1892SOL     OW 6574   6.809   0.208   1.548
 1892SOL    HW1 6575   6.731   0.188   1.488
 1892SOL    HW2 6576   6.825   0.130   1.609
 1893SOL     OW 6577   3.472   3.386   3.085
 1893SOL    HW1 6578   3.452   3.466   3.142
 1893SOL    HW2 6579   3.570   3.364   3.092
 1894SOL     OW 6580   3.586   3.685   4.241
 1894SOL    HW1 6581   3.581   3.778   4.204
 1894SOL    HW2 6582   3.526   3.625   4.188
 1895SOL     OW 6583   4.547   0.359   0.507
 1895SOL    HW1 6584   4.459   0.354   0.553
 1895SOL    HW2 6585   4.533   0.369   0.409
 1896SOL     OW 6586   5.055   1.446   0.802
 1896SOL    HW1 6587   4.967   1.441   0.850
 1896SOL    HW2 6588   5.088   1.541   0.805
 1897SOL     OW 6589   2.356   4.856   3.402
 1897SOL    HW1 6590   2.400   4.775   3.441
 1897SOL    HW2 6591   2.312   4.833   3.316
 1898SOL     OW 6592   1.517   5.566   3.160
 1898SOL    HW1 6593   1.431   5.549   3.113
 1898SOL    HW2 6594   1.568   5.481   3.171
 1899SOL     OW 6595   6.891   0.472   1.533
 1899SOL    HW1 6596   6.859   0.378   1.547
 1899SOL    HW2 6597   6.939   0.503   1.615
 1900SOL     OW 6598   2.744   0.328   6.938
 1900SOL    HW1 6599   2.808   0.307   7.012
 1900SOL    HW2 6600   2.791   0.381   6.868
 1901SOL     OW 6601   2.835   3.751   1.342
 1901SOL    HW1 6602   2.744   3.712   1.358
 1901SOL    HW2 6603   2.861   3.735   1.247
 1902SOL     OW 6604   1.770   6.596   4.559
 1902SOL    HW1 6605   1.849   6.538   4.540
 1902SOL    HW2 6606   1.690   6.540   4.578
 1903SOL     OW 6607   0.937   2.669   4.058
 1903SOL    HW1 6608   1.006   2.607   4.020
 1903SOL    HW2 6609   0.900   2.728   3.985
 1904SOL     OW 6610   5.589   5.489   3.113
 1904SOL    HW1 6611   5.527   5.411   3.123
 1904SOL    HW2 6612   5.545   5.571   3.148
 1905SOL     OW 6613   0.912   0.449   4.180
 1905SOL    HW1 6614   0.938   0.538   4.141
 1905SOL    HW2 6615   0.817   0.429   4.155
 1906SOL     OW 6616   2.452   0.255   5.896
 1906SOL    HW1 6617   2.461   0.312   5.977
 1906SOL    HW2 6618   2.542   0.226   5.864
 1907SOL     OW 6619   4.840   3.019   6.887
 1907SOL    HW1 6620   4.878   3.095   6.835
 1907SOL    HW2 6621   4.749   2.997   6.852
 1908SOL     OW 6622   3.639   0.669   1.003
 1908SOL    HW1 6623   3.592   0.599   0.948
 1908SOL    HW2 6624   3.677   0.626   1.085
 1909SOL     OW 6625   0.089   4.306   5.225
 1909SOL    HW1 6626   0.085   4.268   5.317
 1909SOL    HW2 6627   0.004   4.284   5.176
 1910SOL     OW 6628   6.732   6.058   5.911
 1910SOL    HW1 6629   6.718   5.974   5.963
 1910SOL    HW2 6630   6.768   6.129   5.971
 1911SOL     OW 6631   0.070   5.202   4.250
 1911SOL    HW1 6632   0.100   5.264   4.179
 1911SOL    HW2 6633   0.128   5.120   4.250
 1912SOL     OW 6634   2.478   4.825   3.070
 1912SOL    HW1 6635   2.463   4.808   2.973
 1912SOL    HW2 6636   2.534   4.907   3.081
 1913SOL     OW 6637   2.596   4.837   5.102
 1913SOL    HW1 6638   2.658   4.861   5.027
 1913SOL    HW2 6639   2.627   4.752   5.146
 1914SOL     OW 6640   2.459   4.530   6.069
 1914SOL    HW1 6641   2.459   4.479   6.155
 1914SOL    HW2 6642   2.469   4.466   5.992
 1915SOL     OW 6643   5.259   2.552   6.406
 1915SOL    HW1 6644   5.171   2.564   6.451
 1915SOL    HW2 6645   5.261   2.604   6.321
 1916SOL     OW 6646   4.150   0.216   2.002
 1916SOL    HW1 6647   4.147   0.284   2.076
 1916SOL    HW2 6648   4.245   0.203   1.973
 1917SOL     OW 6649   2.539   4.534   1.191
 1917SOL    HW1 6650   2.518   4.574   1.280
 1917SOL    HW2 6651   2.568   4.607   1.128
 1918SOL     OW 6652   0.089   1.698   4.637
 1918SOL    HW1 6653   0.006   1.728   4.588
 1918SOL    HW2 6654   0.081   1.601   4.660
 1919SOL     OW 6655   1.055   2.198   1.101
 1919SOL    HW1 6656   0.960   2.168   1.096
 1919SOL    HW2 6657   1.098   2.191   1.011
 1920SOL     OW 6658   5.158   2.609   1.221
 1920SOL    HW1 6659   5.227   2.538   1.233
 1920SOL    HW2 6660   5.183   2.690   1.275
 1921SOL     OW 6661   1.639   2.916   6.749
 1921SOL    HW1 6662   1.567   2.862   6.706
 1921SOL    HW2 6663   1.728   2.887   6.714
 1922SOL     OW 6664   3.084   3.357   2.165
 1922SOL    HW1 6665   3.099   3.327   2.259
 1922SOL    HW2 6666   3.006   3.419   2.162
 1923SOL     OW 6667   4.629   0.586   5.417
 1923SOL    HW1 6668   4.583   0.503   5.385
 1923SOL    HW2 6669   4.695   0.617   5.348
 1924SOL     OW 6670   4.662   6.965   1.019
 1924SOL    HW1 6671   4.564   6.979   1.004
 1924SOL    HW2 6672   4.714   0.012   0.968
 1925SOL     OW 6673   1.040   4.362   0.878
 1925SOL    HW1 6674   0.956   4.325   0.840
 1925SOL    HW2 6675   1.115   4.297   0.864
 1926SOL     OW 6676   3.569   6.799   2.369
 1926SOL    HW1 6677   3.651   6.751   2.337
 1926SOL    HW2 6678   3.593   6.891   2.399
 1927SOL     OW 6679   1.797   4.962   1.462
 1927SOL    HW1 6680   1.702   4.948   1.489
 1927SOL    HW2 6681   1.857   4.910   1.523
 1928SOL     OW 6682   4.815   4.362   2.999
 1928SOL    HW1 6683   4.790   4.307   2.919
 1928SOL    HW2 6684   4.773   4.453   2.991
 1929SOL     OW 6685   2.774   0.698   2.902
 1929SOL    HW1 6686   2.770   0.680   2.803
 1929SOL    HW2 6687   2.764   0.796   2.918
 1930SOL     OW 6688   4.969   2.748   6.886
 1930SOL    HW1 6689   5.042   2.756   6.954
 1930SOL    HW2 6690   4.908   2.827   6.892
 1931SOL     OW 6691   0.675   1.208   5.144
 1931SOL    HW1 6692   0.710   1.240   5.056
 1931SOL    HW2 6693   0.587   1.164   5.131
 1932SOL     OW 6694   4.600   2.607   2.642
 1932SOL    HW1 6695   4.683   2.551   2.632
 1932SOL    HW2 6696   4.523   2.559   2.599
 1933SOL     OW 6697   1.092   1.432   0.773
 1933SOL    HW1 6698   1.053   1.490   0.702
 1933SOL    HW2 6699   1.116   1.488   0.852
 1934SOL     OW 6700   0.030   0.177   5.970
 1934SOL    HW1 6701   0.048   0.226   6.055
 1934SOL    HW2 6702   6.977   0.111   5.985
 1935SOL     OW 6703   6.538   4.799   4.172
 1935SOL    HW1 6704   6.483   4.881   4.158
 1935SOL    HW2 6705   6.587   4.776   4.088
 1936SOL     OW 6706   4.998   3.082   4.965
 1936SOL    HW1 6707   4.922   3.072   4.900
 1936SOL    HW2 6708   5.062   3.150   4.931
 1937SOL     OW 6709   5.133   5.182   7.013
 1937SOL    HW1 6710   5.218   5.181   0.045
 1937SOL    HW2 6711   5.152   5.209   6.919
 1938SOL     OW 6712   1.017   2.745   6.453
 1938SOL    HW1 6713   0.974   2.675   6.397
 1938SOL    HW2 6714   1.004   2.835   6.411
 1939SOL     OW 6715   1.248   0.012   4.907
 1939SOL    HW1 6716   1.247   7.005   5.003
 1939SOL    HW2 6717   1.339   7.015   4.868
 1940SOL     OW 6718   6.302   4.925   1.502
 1940SOL    HW1 6719   6.292   4.967   1.592
 1940SOL    HW2 6720   6.252   4.979   1.434
 1941SOL     OW 6721   0.707   2.905   4.125
 1941SOL    HW1 6722   0.704   3.004   4.141
 1941SOL    HW2 6723   0.766   2.862   4.193
 1942SOL     OW 6724   5.767   3.458   2.585
 1942SOL    HW1 6725   5.837   3.498   2.644
 1942SOL    HW2 6726   5.682   3.511   2.593
 1943SOL     OW 6727   1.095   1.294   2.590
 1943SOL    HW1 6728   1.146   1.224   2.639
 1943SOL    HW2 6729   1.063   1.258   2.503
 1944SOL     OW 6730   6.501   2.447   1.909
 1944SOL    HW1 6731   6.584   2.430   1.963
 1944SOL    HW2 6732   6.440   2.507   1.961
 1945SOL     OW 6733   4.444   0.226   1.597
 1945SOL    HW1 6734   4.411   0.137   1.627
 1945SOL    HW2 6735   4.541   0.220   1.576
 1946SOL     OW 6736   6.117   5.749   1.601
 1946SOL    HW1 6737   6.137   5.847   1.603
 1946SOL    HW2 6738   6.167   5.707   1.525
 1947SOL     OW 6739   6.109   4.631   3.853
 1947SOL    HW1 6740   6.034   4.617   3.918
 1947SOL    HW2 6741   6.081   4.697   3.783
 1948SOL     OW 6742   4.917   3.425   3.165
 1948SOL    HW1 6743   4.846   3.493   3.185
 1948SOL    HW2 6744   5.007   3.468   3.176
 1949SOL     OW 6745   3.448   5.240   6.609
 1949SOL    HW1 6746   3.412   5.162   6.661
 1949SOL    HW2 6747   3.374   5.283   6.558
 1950SOL     OW 6748   3.672   4.041   4.417
 1950SOL    HW1 6749   3.578   4.057   4.387
 1950SOL    HW2 6750   3.694   4.104   4.492
 1951SOL     OW 6751   6.348   4.327   6.026
 1951SOL    HW1 6752   6.294   4.335   5.942
 1951SOL    HW2 6753   6.294   4.279   6.096
 1952SOL     OW 6754   5.516   4.514   6.913
 1952SOL    HW1 6755   5.563   4.437   6.957
 1952SOL    HW2 6756   5.530   4.597   6.967
 1953SOL     OW 6757   0.900   1.725   6.511
 1953SOL    HW1 6758   0.973   1.786   6.543
 1953SOL    HW2 6759   0.887   1.652   6.578
 1954SOL     OW 6760   4.177   0.077   1.741
 1954SOL    HW1 6761   4.183   0.139   1.819
 1954SOL    HW2 6762   4.124   7.017   1.767
 1955SOL     OW 6763   0.781   1.570   2.258
 1955SOL    HW1 6764   0.725   1.649   2.232
 1955SOL    HW2 6765   0.850   1.553   2.188
 1956SOL     OW 6766   5.611   0.354   2.210
 1956SOL    HW1 6767   5.584   0.426   2.146
 1956SOL    HW2 6768   5.565   0.369   2.298
 1957SOL     OW 6769   5.435   1.946   4.267
 1957SOL    HW1 6770   5.415   1.985   4.177
 1957SOL    HW2 6771   5.525   1.901   4.264
 1958SOL     OW 6772   4.446   1.623   1.319
 1958SOL    HW1 6773   4.375   1.617   1.249
 1958SOL    HW2 6774   4.510   1.697   1.295
 1959SOL     OW 6775   0.405   0.197   4.501
 1959SOL    HW1 6776   0.448   0.139   4.570
 1959SOL    HW2 6777   0.340   0.260   4.546
 1960SOL     OW 6778   5.950   4.227   3.462
 1960SOL    HW1 6779   5.882   4.266   3.400
 1960SOL    HW2 6780   5.910   4.152   3.514
 1961SOL     OW 6781   6.295   3.852   4.889
 1961SOL    HW1 6782   6.298   3.753   4.873
 1961SOL    HW2 6783   6.388   3.887   4.898
 1962SOL     OW 6784   0.551   0.309   2.661
 1962SOL    HW1 6785   0.608   0.294   2.741
 1962SOL    HW2 6786   0.608   0.328   2.581
 1963SOL     OW 6787   0.817   2.022   1.773
 1963SOL    HW1 6788   0.807   1.950   1.704
 1963SOL    HW2 6789   0.841   2.108   1.729
 1964SOL     OW 6790   5.535   4.448   1.525
 1964SOL    HW1 6791   5.510   4.398   1.442
 1964SOL    HW2 6792   5.555   4.543   1.503
 1965SOL     OW 6793   0.509   4.874   3.934
 1965SOL    HW1 6794   0.420   4.850   3.971
 1965SOL    HW2 6795   0.550   4.793   3.892
 1966SOL     OW 6796   1.478   4.515   0.206
 1966SOL    HW1 6797   1.458   4.598   0.153
 1966SOL    HW2 6798   1.489   4.538   0.302
 1967SOL     OW 6799   5.433   3.224   3.339
 1967SOL    HW1 6800   5.487   3.182   3.412
 1967SOL    HW2 6801   5.340   3.239   3.371
 1968SOL     OW 6802   2.586   1.480   5.147
 1968SOL    HW1 6803   2.515   1.519   5.206
 1968SOL    HW2 6804   2.553   1.395   5.106
 1969SOL     OW 6805   3.073   6.856   0.695
 1969SOL    HW1 6806   3.165   6.894   0.681
 1969SOL    HW2 6807   3.006   6.930   0.689
 1970SOL     OW 6808   5.843   5.647   4.875
 1970SOL    HW1 6809   5.928   5.672   4.827
 1970SOL    HW2 6810   5.768   5.645   4.809
 1971SOL     OW 6811   1.352   6.330   5.442
 1971SOL    HW1 6812   1.319   6.272   5.517
 1971SOL    HW2 6813   1.301   6.310   5.359
 1972SOL     OW 6814   5.893   2.342   2.511
 1972SOL    HW1 6815   5.960   2.269   2.495
 1972SOL    HW2 6816   5.925   2.400   2.587
 1973SOL     OW 6817   1.907   4.435   0.328
 1973SOL    HW1 6818   1.863   4.509   0.379
 1973SOL    HW2 6819   1.977   4.392   0.385
 1974SOL     OW 6820   3.602   6.452   4.932
 1974SOL    HW1 6821   3.580   6.525   4.868
 1974SOL    HW2 6822   3.529   6.384   4.931
 1975SOL     OW 6823   1.558   2.201   3.260
 1975SOL    HW1 6824   1.625   2.237   3.195
 1975SOL    HW2 6825   1.471   2.187   3.214
 1976SOL     OW 6826   7.015   6.825   6.298
 1976SOL    HW1 6827   6.925   6.866   6.283
 1976SOL    HW2 6828   0.050   6.887   6.354
 1977SOL     OW 6829   2.054   4.424   5.734
 1977SOL    HW1 6830   2.073   4.380   5.821
 1977SOL    HW2 6831   2.071   4.523   5.742
 1978SOL     OW 6832   2.492   0.035   2.201
 1978SOL    HW1 6833   2.486   6.989   2.274
 1978SOL    HW2 6834   2.529   7.014   2.118
 1979SOL     OW 6835   6.915   4.854   6.741
 1979SOL    HW1 6836   7.009   4.869   6.771
 1979SOL    HW2 6837   6.908   4.872   6.643
 1980SOL     OW 6838   3.532   1.141   0.926
 1980SOL    HW1 6839   3.495   1.123   0.835
 1980SOL    HW2 6840   3.458   1.170   0.987
 1981SOL     OW 6841   4.361   2.378   2.879
 1981SOL    HW1 6842   4.457   2.402   2.866
 1981SOL    HW2 6843   4.336   2.391   2.976
 1982SOL     OW 6844   6.839   2.660   4.699
 1982SOL    HW1 6845   6.931   2.638   4.669
 1982SOL    HW2 6846   6.823   2.621   4.790
 1983SOL     OW 6847   6.857   0.294   1.231
 1983SOL    HW1 6848   6.769   0.341   1.228
 1983SOL    HW2 6849   6.862   0.237   1.313
 1984SOL     OW 6850   5.043   3.183   5.347
 1984SOL    HW1 6851   5.016   3.219   5.258
 1984SOL    HW2 6852   5.026   3.085   5.350
 1985SOL     OW 6853   6.397   3.971   2.052
 1985SOL    HW1 6854   6.444   4.019   1.979
 1985SOL    HW2 6855   6.465   3.929   2.114
 1986SOL     OW 6856   3.196   2.232   1.507
 1986SOL    HW1 6857   3.188   2.209   1.604
 1986SOL    HW2 6858   3.152   2.321   1.490
 1987SOL     OW 6859   2.272   0.588   2.711
 1987SOL    HW1 6860   2.250   0.681   2.683
 1987SOL    HW2 6861   2.208   0.559   2.782
 1988SOL     OW 6862   6.586   1.855   0.868
 1988SOL    HW1 6863   6.619   1.761   0.877
 1988SOL    HW2 6864   6.511   1.857   0.802
 1989SOL     OW 6865   3.367   4.935   5.105
 1989SOL    HW1 6866   3.403   5.018   5.148
 1989SOL    HW2 6867   3.267   4.933   5.113
 1990SOL     OW 6868   3.727   0.379   0.654
 1990SOL    HW1 6869   3.668   0.442   0.706
 1990SOL    HW2 6870   3.692   0.285   0.665
 1991SOL     OW 6871   2.984   5.407   0.704
 1991SOL    HW1 6872   3.008   5.481   0.767
 1991SOL    HW2 6873   3.017   5.429   0.613
 1992SOL     OW 6874   0.422   5.817   1.337
 1992SOL    HW1 6875   0.450   5.723   1.355
 1992SOL    HW2 6876   0.475   5.853   1.260
 1993SOL     OW 6877   2.167   3.386   3.981
 1993SOL    HW1 6878   2.172   3.447   3.902
 1993SOL    HW2 6879   2.074   3.387   4.018
 1994SOL     OW 6880   3.032   3.469   0.461
 1994SOL    HW1 6881   2.992   3.466   0.369
 1994SOL    HW2 6882   3.126   3.503   0.455
 1995SOL     OW 6883   5.551   2.284   4.655
 1995SOL    HW1 6884   5.593   2.195   4.676
 1995SOL    HW2 6885   5.453   2.279   4.673
 1996SOL     OW 6886   3.660   2.002   0.688
 1996SOL    HW1 6887   3.590   2.028   0.622
 1996SOL    HW2 6888   3.683   2.080   0.745
 1997SOL     OW 6889   3.873   0.783   3.798
 1997SOL    HW1 6890   3.819   0.738   3.727
 1997SOL    HW2 6891   3.955   0.823   3.757
 1998SOL     OW 6892   1.757   3.221   1.261
 1998SOL    HW1 6893   1.662   3.217   1.292
 1998SOL    HW2 6894   1.784   3.316   1.247
 1999SOL     OW 6895   1.656   6.543   5.665
 1999SOL    HW1 6896   1.696   6.544   5.573
 1999SOL    HW2 6897   1.603   6.459   5.677
 2000SOL     OW 6898   3.751   4.437   5.555
 2000SOL    HW1 6899   3.719   4.357   5.504
 2000SOL    HW2 6900   3.758   4.516   5.494
 2001SOL     OW 6901   1.967   1.755   6.986
 2001SOL    HW1 6902   1.946   1.674   6.932
 2001SOL    HW2 6903   2.029   1.731   0.039
 2002SOL     OW 6904   0.162   4.278   0.707
 2002SOL    HW1 6905   0.178   4.344   0.634
 2002SOL    HW2 6906   0.244   4.223   0.721
 2003SOL     OW 6907   6.682   5.505   2.097
 2003SOL    HW1 6908   6.755   5.534   2.035
 2003SOL    HW2 6909   6.684   5.562   2.179
 2004SOL     OW 6910   3.462   6.876   3.360
 2004SOL    HW1 6911   3.462   6.795   3.302
 2004SOL    HW2 6912   3.369   6.913   3.365
 2005SOL     OW 6913   1.530   6.083   1.202
 2005SOL    HW1 6914   1.434   6.062   1.183
 2005SOL    HW2 6915   1.584   5.999   1.196
 2006SOL     OW 6916   5.841   6.998   2.576
 2006SOL    HW1 6917   5.853   0.065   2.532
 2006SOL    HW2 6918   5.855   7.007   2.674
 2007SOL     OW 6919   5.615   4.667   0.212
 2007SOL    HW1 6920   5.591   4.628   0.301
 2007SOL    HW2 6921   5.638   4.763   0.222
 2008SOL     OW 6922   1.688   3.618   3.582
 2008SOL    HW1 6923   1.594   3.641   3.557
 2008SOL    HW2 6924   1.751   3.676   3.530
 2009SOL     OW 6925   6.088   6.901   2.020
 2009SOL    HW1 6926   6.012   6.851   2.063
 2009SOL    HW2 6927   6.063   6.924   1.926
 2010SOL     OW 6928   1.329   1.367   1.251
 2010SOL    HW1 6929   1.245   1.417   1.232
 2010SOL    HW2 6930   1.402   1.401   1.191
 2011SOL     OW 6931   1.006   6.676   5.835
 2011SOL    HW1 6932   0.950   6.731   5.773
 2011SOL    HW2 6933   1.061   6.611   5.782
 2012SOL     OW 6934   1.325   3.094   1.986
 2012SOL    HW1 6935   1.352   3.073   2.080
 2012SOL    HW2 6936   1.229   3.071   1.973
 2013SOL     OW 6937   0.324   3.320   2.618
 2013SOL    HW1 6938   0.391   3.261   2.574
 2013SOL    HW2 6939   0.241   3.323   2.562
 2014SOL     OW 6940   3.453   0.563   4.319
 2014SOL    HW1 6941   3.506   0.631   4.270
 2014SOL    HW2 6942   3.440   0.482   4.261
 2015SOL     OW 6943   4.711   0.502   1.453
 2015SOL    HW1 6944   4.668   0.565   1.518
 2015SOL    HW2 6945   4.708   0.542   1.361
 2016SOL     OW 6946   1.477   0.500   5.683
 2016SOL    HW1 6947   1.422   0.478   5.764
 2016SOL    HW2 6948   1.445   0.586   5.644
 2017SOL     OW 6949   4.284   6.380   2.566
 2017SOL    HW1 6950   4.187   6.380   2.588
 2017SOL    HW2 6951   4.337   6.351   2.646
 2018SOL     OW 6952   1.186   1.042   3.752
 2018SOL    HW1 6953   1.252   1.089   3.693
 2018SOL    HW2 6954   1.210   0.945   3.757
 2019SOL     OW 6955   6.080   4.980   6.605
 2019SOL    HW1 6956   6.143   4.988   6.528
 2019SOL    HW2 6957   6.011   5.052   6.600
 2020SOL     OW 6958   2.459   5.874   6.124
 2020SOL    HW1 6959   2.452   5.806   6.051
 2020SOL    HW2 6960   2.516   5.839   6.197
 2021SOL     OW 6961   0.030   5.916   4.194
 2021SOL    HW1 6962   0.036   6.011   4.225
 2021SOL    HW2 6963   0.103   5.862   4.237
 2022SOL     OW 6964   2.106   4.138   5.109
 2022SOL    HW1 6965   2.158   4.131   5.194
 2022SOL    HW2 6966   2.154   4.090   5.036
 2023SOL     OW 6967   0.253   0.059   0.242
 2023SOL    HW1 6968   0.227   0.078   0.337
 2023SOL    HW2 6969   0.171   0.039   0.189
 2024SOL     OW 6970   1.189   5.919   4.090
 2024SOL    HW1 6971   1.173   5.947   4.185
 2024SOL    HW2 6972   1.285   5.893   4.079
 2025SOL     OW 6973   1.689   6.851   4.585
 2025SOL    HW1 6974   1.752   6.927   4.600
 2025SOL    HW2 6975   1.738   6.765   4.589
 2026SOL     OW 6976   6.505   7.019   5.902
 2026SOL    HW1 6977   6.600   7.011   5.869
 2026SOL    HW2 6978   6.491   6.957   5.978
 2027SOL     OW 6979   7.008   5.852   2.291
 2027SOL    HW1 6980   0.064   5.843   2.229
 2027SOL    HW2 6981   0.002   5.930   2.352
 2028SOL     OW 6982   3.770   4.937   4.303
 2028SOL    HW1 6983   3.815   4.926   4.214
 2028SOL    HW2 6984   3.840   4.944   4.374
 2029SOL     OW 6985   5.945   2.695   6.332
 2029SOL    HW1 6986   5.872   2.683   6.400
 2029SOL    HW2 6987   6.032   2.669   6.373
 2030SOL     OW 6988   2.622   6.424   2.631
 2030SOL    HW1 6989   2.693   6.354   2.627
 2030SOL    HW2 6990   2.532   6.381   2.623
 2031SOL     OW 6991   0.063   5.705   3.725
 2031SOL    HW1 6992   0.022   5.635   3.667
 2031SOL    HW2 6993   0.161   5.688   3.733
 2032SOL     OW 6994   2.980   2.274   5.506
 2032SOL    HW1 6995   3.011   2.366   5.484
 2032SOL    HW2 6996   2.942   2.273   5.599
 2033SOL     OW 6997   1.890   2.395   0.537
 2033SOL    HW1 6998   1.883   2.414   0.439
 2033SOL    HW2 6999   1.977   2.349   0.556
 2034SOL     OW 7000   6.634   4.426   5.200
 2034SOL    HW1 7001   6.609   4.457   5.108
 2034SOL    HW2 7002   6.655   4.506   5.257
 2035SOL     OW 7003   5.702   0.389   2.834
 2035SOL    HW1 7004   5.722   0.341   2.748
 2035SOL    HW2 7005   5.667   0.480   2.813
 2036SOL     OW 7006   1.268   4.049   1.661
 2036SOL    HW1 7007   1.347   4.002   1.621
 2036SOL    HW2 7008   1.215   3.984   1.716
 2037SOL     OW 7009   0.033   3.074   6.729
 2037SOL    HW1 7010   0.108   3.105   6.789
 2037SOL    HW2 7011   6.995   3.152   6.709
 2038SOL     OW 7012   1.786   1.558   6.641
 2038SOL    HW1 7013   1.787   1.466   6.601
 2038SOL    HW2 7014   1.877   1.599   6.631
 2039SOL     OW 7015   6.214   5.948   2.557
 2039SOL    HW1 7016   6.144   5.901   2.611
 2039SOL    HW2 7017   6.300   5.898   2.565
 2040SOL     OW 7018   1.669   2.752   0.309
 2040SOL    HW1 7019   1.668   2.699   0.224
 2040SOL    HW2 7020   1.596   2.820   0.306
 2041SOL     OW 7021   1.981   6.945   6.206
 2041SOL    HW1 7022   1.881   6.937   6.206
 2041SOL    HW2 7023   2.011   6.987   6.120
 2042SOL     OW 7024   5.414   1.004   5.781
 2042SOL    HW1 7025   5.365   0.980   5.864
 2042SOL    HW2 7026   5.456   0.922   5.742
 2043SOL     OW 7027   6.745   4.177   1.316
 2043SOL    HW1 7028   6.711   4.138   1.402
 2043SOL    HW2 7029   6.722   4.275   1.313
 2044SOL     OW 7030   4.449   0.429   0.841
 2044SOL    HW1 7031   4.513   0.493   0.799
 2044SOL    HW2 7032   4.389   0.390   0.771
 2045SOL     OW 7033   1.642   6.606   6.284
 2045SOL    HW1 7034   1.568   6.671   6.266
 2045SOL    HW2 7035   1.604   6.514   6.292
 2046SOL     OW 7036   1.020   2.335   4.868
 2046SOL    HW1 7037   1.039   2.337   4.966
 2046SOL    HW2 7038   1.091   2.385   4.819
 2047SOL     OW 7039   0.185   0.191   0.484
 2047SOL    HW1 7040   0.123   0.266   0.464
 2047SOL    HW2 7041   0.269   0.227   0.526
 2048SOL     OW 7042   0.896   2.005   4.475
 2048SOL    HW1 7043   0.960   1.931   4.496
 2048SOL    HW2 7044   0.877   2.058   4.557
 2049SOL     OW 7045   5.413   1.756   4.961
 2049SOL    HW1 7046   5.509   1.752   4.933
 2049SOL    HW2 7047   5.364   1.820   4.901
 2050SOL     OW 7048   0.807   1.050   3.857
 2050SOL    HW1 7049   0.726   1.108   3.857
 2050SOL    HW2 7050   0.799   0.983   3.932
 2051SOL     OW 7051   3.068   6.154   0.596
 2051SOL    HW1 7052   3.062   6.059   0.566
 2051SOL    HW2 7053   2.979   6.183   0.631
 2052SOL     OW 7054   1.077   4.256   6.574
 2052SOL    HW1 7055   1.120   4.274   6.486
 2052SOL    HW2 7056   0.980   4.282   6.569
 2053SOL     OW 7057   0.747   5.142   3.592
 2053SOL    HW1 7058   0.675   5.102   3.648
 2053SOL    HW2 7059   0.706   5.200   3.521
 2054SOL     OW 7060   3.659   3.111   3.746
 2054SOL    HW1 7061   3.713   3.055   3.683
 2054SOL    HW2 7062   3.658   3.206   3.714
 2055SOL     OW 7063   2.918   2.215   5.793
 2055SOL    HW1 7064   2.895   2.119   5.772
 2055SOL    HW2 7065   2.985   2.217   5.867
 2056SOL     OW 7066   3.957   4.863   1.348
 2056SOL    HW1 7067   3.934   4.769   1.374
 2056SOL    HW2 7068   4.021   4.901   1.415
 2057SOL     OW 7069   5.692   2.605   4.115
 2057SOL    HW1 7070   5.675   2.510   4.090
 2057SOL    HW2 7071   5.725   2.609   4.209
 2058SOL     OW 7072   6.879   6.011   3.044
 2058SOL    HW1 7073   6.939   6.073   3.094
 2058SOL    HW2 7074   6.848   5.938   3.104
 2059SOL     OW 7075   1.980   0.340   6.308
 2059SOL    HW1 7076   1.891   0.386   6.306
 2059SOL    HW2 7077   1.968   0.246   6.339
 2060SOL     OW 7078   1.709   3.205   6.612
 2060SOL    HW1 7079   1.628   3.241   6.659
 2060SOL    HW2 7080   1.686   3.119   6.567
 2061SOL     OW 7081   1.647   2.581   2.210
 2061SOL    HW1 7082   1.677   2.555   2.118
 2061SOL    HW2 7083   1.682   2.514   2.276
 2062SOL     OW 7084   7.008   4.935   4.542
 2062SOL    HW1 7085   0.072   4.961   4.587
 2062SOL    HW2 7086   6.966   5.016   4.500
 2063SOL     OW 7087   0.758   0.590   4.765
 2063SOL    HW1 7088   0.794   0.520   4.827
 2063SOL    HW2 7089   0.780   0.565   4.671
 2064SOL     OW 7090   0.706   3.056   3.441
 2064SOL    HW1 7091   0.627   3.118   3.443
 2064SOL    HW2 7092   0.734   3.035   3.534
 2065SOL     OW 7093   4.435   3.103   5.802
 2065SOL    HW1 7094   4.351   3.050   5.806
 2065SOL    HW2 7095   4.512   3.047   5.834
 2066SOL     OW 7096   6.488   3.278   5.232
 2066SOL    HW1 7097   6.425   3.352   5.255
 2066SOL    HW2 7098   6.544   3.304   5.154
 2067SOL     OW 7099   6.234   5.529   1.443
 2067SOL    HW1 7100   6.328   5.529   1.409
 2067SOL    HW2 7101   6.171   5.531   1.365
 2068SOL     OW 7102   4.272   0.726   4.614
 2068SOL    HW1 7103   4.264   0.640   4.666
 2068SOL    HW2 7104   4.247   0.710   4.519
 2069SOL     OW 7105   0.232   2.887   3.673
 2069SOL    HW1 7106   0.225   2.969   3.615
 2069SOL    HW2 7107   0.243   2.915   3.768
 2070SOL     OW 7108   1.005   4.628   0.791
 2070SOL    HW1 7109   1.060   4.571   0.851
 2070SOL    HW2 7110   1.017   4.724   0.815
 2071SOL     OW 7111   6.909   1.406   5.964
 2071SOL    HW1 7112   6.971   1.477   5.997
 2071SOL    HW2 7113   6.836   1.449   5.910
 2072SOL     OW 7114   4.220   4.326   5.629
 2072SOL    HW1 7115   4.217   4.260   5.553
 2072SOL    HW2 7116   4.166   4.291   5.706
 2073SOL     OW 7117   3.066   5.834   6.292
 2073SOL    HW1 7118   3.027   5.920   6.257
 2073SOL    HW2 7119   2.993   5.776   6.328
 2074SOL     OW 7120   0.981   4.430   5.969
 2074SOL    HW1 7121   1.039   4.361   6.011
 2074SOL    HW2 7122   0.900   4.386   5.931
 2075SOL     OW 7123   6.652   1.618   1.372
 2075SOL    HW1 7124   6.701   1.531   1.376
 2075SOL    HW2 7125   6.587   1.616   1.296
 2076SOL     OW 7126   6.040   7.007   4.752
 2076SOL    HW1 7127   6.131   0.001   4.713
 2076SOL    HW2 7128   5.972   7.006   4.680
 2077SOL     OW 7129   6.447   4.223   0.382
 2077SOL    HW1 7130   6.411   4.164   0.455
 2077SOL    HW2 7131   6.403   4.313   0.388
 2078SOL     OW 7132   0.862   3.019   5.747
 2078SOL    HW1 7133   0.903   2.929   5.761
 2078SOL    HW2 7134   0.782   3.011   5.688
 2079SOL     OW 7135   4.801   2.073   2.381
 2079SOL    HW1 7136   4.764   2.150   2.328
 2079SOL    HW2 7137   4.876   2.106   2.439
 2080SOL     OW 7138   2.466   3.427   5.804
 2080SOL    HW1 7139   2.499   3.377   5.884
 2080SOL    HW2 7140   2.497   3.381   5.720
 2081SOL     OW 7141   5.501   6.351   2.894
 2081SOL    HW1 7142   5.536   6.374   2.985
 2081SOL    HW2 7143   5.576   6.356   2.828
 2082SOL     OW 7144   6.671   5.909   3.609
 2082SOL    HW1 7145   6.680   5.809   3.606
 2082SOL    HW2 7146   6.756   5.949   3.641
 2083SOL     OW 7147   0.643   6.325   4.227
 2083SOL    HW1 7148   0.545   6.322   4.244
 2083SOL    HW2 7149   0.673   6.419   4.214
 2084SOL     OW 7150   6.169   1.926   1.723
 2084SOL    HW1 7151   6.239   1.993   1.698
 2084SOL    HW2 7152   6.182   1.843   1.668
 2085SOL     OW 7153   5.186   5.591   0.873
 2085SOL    HW1 7154   5.278   5.600   0.912
 2085SOL    HW2 7155   5.120   5.637   0.933
 2086SOL     OW 7156   4.426   0.585   0.067
 2086SOL    HW1 7157   4.335   0.572   0.107
 2086SOL    HW2 7158   4.440   0.518   7.016
 2087SOL     OW 7159   3.974   1.693   6.620
 2087SOL    HW1 7160   3.878   1.719   6.631
 2087SOL    HW2 7161   4.015   1.678   6.710
 2088SOL     OW 7162   1.239   5.712   6.106
 2088SOL    HW1 7163   1.213   5.744   6.015
 2088SOL    HW2 7164   1.243   5.612   6.107
 2089SOL     OW 7165   2.612   3.827   0.151
 2089SOL    HW1 7166   2.589   3.844   0.247
 2089SOL    HW2 7167   2.662   3.741   0.144
 2090SOL     OW 7168   4.643   3.258   5.727
 2090SOL    HW1 7169   4.548   3.233   5.742
 2090SOL    HW2 7170   4.698   3.176   5.713
 2091SOL     OW 7171   5.661   5.966   2.212
 2091SOL    HW1 7172   5.687   5.877   2.250
 2091SOL    HW2 7173   5.736   6.001   2.155
 2092SOL     OW 7174   4.660   3.613   1.742
 2092SOL    HW1 7175   4.670   3.514   1.757
 2092SOL    HW2 7176   4.722   3.662   1.803
 2093SOL     OW 7177   3.595   1.040   2.167
 2093SOL    HW1 7178   3.513   1.028   2.111
 2093SOL    HW2 7179   3.663   0.971   2.142
 2094SOL     OW 7180   5.201   2.292   6.386
 2094SOL    HW1 7181   5.225   2.389   6.382
 2094SOL    HW2 7182   5.249   2.243   6.313
 2095SOL     OW 7183   5.170   6.323   3.550
 2095SOL    HW1 7184   5.184   6.399   3.613
 2095SOL    HW2 7185   5.080   6.329   3.508
 2096SOL     OW 7186   4.977   6.997   2.331
 2096SOL    HW1 7187   4.999   6.981   2.234
 2096SOL    HW2 7188   5.031   6.934   2.387
 2097SOL     OW 7189   0.924   5.293   6.259
 2097SOL    HW1 7190   0.971   5.354   6.195
 2097SOL    HW2 7191   0.875   5.222   6.207
 2098SOL     OW 7192   3.073   6.048   3.344
 2098SOL    HW1 7193   3.137   6.063   3.269
 2098SOL    HW2 7194   2.979   6.057   3.310
 2099SOL     OW 7195   5.068   1.435   6.261
 2099SOL    HW1 7196   5.084   1.336   6.254
 2099SOL    HW2 7197   5.047   1.472   6.171
 2100SOL     OW 7198   5.283   0.035   1.186
 2100SOL    HW1 7199   5.340   0.074   1.258
 2100SOL    HW2 7200   5.336   0.031   1.101
 2101SOL     OW 7201   6.954   6.582   2.100
 2101SOL    HW1 7202   0.023   6.619   2.119
 2101SOL    HW2 7203   6.884   6.650   2.123
 2102SOL     OW 7204   3.771   2.663   0.646
 2102SOL    HW1 7205   3.678   2.697   0.639
 2102SOL    HW2 7206   3.826   2.698   0.570
 2103SOL     OW 7207   2.888   6.007   0.256
 2103SOL    HW1 7208   2.951   6.008   0.334
 2103SOL    HW2 7209   2.912   6.079   0.192
 2104SOL     OW 7210   1.612   4.727   3.038
 2104SOL    HW1 7211   1.625   4.769   2.949
 2104SOL    HW2 7212   1.609   4.627   3.028
 2105SOL     OW 7213   6.510   4.776   5.606
 2105SOL    HW1 7214   6.598   4.811   5.637
 2105SOL    HW2 7215   6.437   4.810   5.664
 2106SOL     OW 7216   4.252   3.471   0.834
 2106SOL    HW1 7217   4.334   3.529   0.834
 2106SOL    HW2 7218   4.268   3.391   0.776
 2107SOL     OW 7219   5.052   4.611   5.707
 2107SOL    HW1 7220   4.996   4.575   5.633
 2107SOL    HW2 7221   5.064   4.710   5.694
 2108SOL     OW 7222   5.363   0.587   5.946
 2108SOL    HW1 7223   5.415   0.585   5.861
 2108SOL    HW2 7224   5.312   0.502   5.957
 2109SOL     OW 7225   3.212   6.713   3.243
 2109SOL    HW1 7226   3.152   6.711   3.163
 2109SOL    HW2 7227   3.284   6.645   3.232
 2110SOL     OW 7228   3.898   0.040   0.082
 2110SOL    HW1 7229   3.870   6.966   0.076
 2110SOL    HW2 7230   3.838   0.096   0.025
 2111SOL     OW 7231   0.629   2.216   5.450
 2111SOL    HW1 7232   0.703   2.282   5.435
 2111SOL    HW2 7233   0.637   2.179   5.543
 2112SOL     OW 7234   0.695   1.014   6.645
 2112SOL    HW1 7235   0.696   0.914   6.654
 2112SOL    HW2 7236   0.672   1.055   6.733
 2113SOL     OW 7237   0.545   0.679   4.929
 2113SOL    HW1 7238   0.517   0.771   4.900
 2113SOL    HW2 7239   0.598   0.636   4.856
 2114SOL     OW 7240   1.474   1.577   5.681
 2114SOL    HW1 7241   1.405   1.563   5.752
 2114SOL    HW2 7242   1.454   1.660   5.630
 2115SOL     OW 7243   6.455   6.388   2.729
 2115SOL    HW1 7244   6.514   6.307   2.728
 2115SOL    HW2 7245   6.388   6.379   2.802
 2116SOL     OW 7246   0.820   1.888   0.192
 2116SOL    HW1 7247   0.823   1.820   0.118
 2116SOL    HW2 7248   0.726   1.894   0.227
 2117SOL     OW 7249   6.356   1.515   2.144
 2117SOL    HW1 7250   6.348   1.447   2.072
 2117SOL    HW2 7251   6.273   1.516   2.200
 2118SOL     OW 7252   6.253   2.473   2.362
 2118SOL    HW1 7253   6.196   2.390   2.360
 2118SOL    HW2 7254   6.347   2.449   2.338
 2119SOL     OW 7255   2.116   1.508   0.306
 2119SOL    HW1 7256   2.122   1.411   0.285
 2119SOL    HW2 7257   2.029   1.527   0.352
 2120SOL     OW 7258   5.480   0.939   0.911
 2120SOL    HW1 7259   5.422   1.020   0.915
 2120SOL    HW2 7260   5.446   0.871   0.975
 2121SOL     OW 7261   1.201   0.537   6.853
 2121SOL    HW1 7262   1.186   0.500   6.945
 2121SOL    HW2 7263   1.295   0.568   6.845
 2122SOL     OW 7264   6.582   1.281   4.318
 2122SOL    HW1 7265   6.500   1.226   4.300
 2122SOL    HW2 7266   6.655   1.252   4.256
 2123SOL     OW 7267   1.671   5.638   2.815
 2123SOL    HW1 7268   1.663   5.678   2.724
 2123SOL    HW2 7269   1.708   5.705   2.878
 2124SOL     OW 7270   4.021   3.668   5.865
 2124SOL    HW1 7271   3.990   3.584   5.821
 2124SOL    HW2 7272   4.091   3.712   5.809
 2125SOL     OW 7273   1.708   5.791   3.793
 2125SOL    HW1 7274   1.784   5.803   3.729
 2125SOL    HW2 7275   1.741   5.792   3.887
 2126SOL     OW 7276   2.904   4.756   0.077
 2126SOL    HW1 7277   2.924   4.837   0.022
 2126SOL    HW2 7278   2.989   4.707   0.098
 2127SOL     OW 7279   0.648   2.543   4.143
 2127SOL    HW1 7280   0.708   2.527   4.221
 2127SOL    HW2 7281   0.583   2.616   4.165
 2128SOL     OW 7282   5.389   2.755   1.445
 2128SOL    HW1 7283   5.325   2.830   1.460
 2128SOL    HW2 7284   5.386   2.692   1.522
 2129SOL     OW 7285   5.148   4.383   4.058
 2129SOL    HW1 7286   5.099   4.462   4.020
 2129SOL    HW2 7287   5.134   4.304   3.998
 2130SOL     OW 7288   2.198   0.863   2.678
 2130SOL    HW1 7289   2.274   0.892   2.620
 2130SOL    HW2 7290   2.166   0.940   2.734
 2131SOL     OW 7291   5.703   0.966   5.001
 2131SOL    HW1 7292   5.641   0.954   4.923
 2131SOL    HW2 7293   5.780   1.023   4.974
 2132SOL     OW 7294   2.362   2.762   0.098
 2132SOL    HW1 7295   2.393   2.820   0.174
 2132SOL    HW2 7296   2.377   2.666   0.122
 2133SOL     OW 7297   2.855   2.008   1.699
 2133SOL    HW1 7298   2.871   2.106   1.687
 2133SOL    HW2 7299   2.885   1.980   1.790
 2134SOL     OW 7300   1.600   6.319   4.871
 2134SOL    HW1 7301   1.569   6.396   4.817
 2134SOL    HW2 7302   1.666   6.265   4.818
 2135SOL     OW 7303   1.195   0.768   4.259
 2135SOL    HW1 7304   1.233   0.732   4.174
 2135SOL    HW2 7305   1.209   0.702   4.333
 2136SOL     OW 7306   0.675   3.936   3.685
 2136SOL    HW1 7307   0.762   3.975   3.654
 2136SOL    HW2 7308   0.651   3.859   3.626
 2137SOL     OW 7309   0.972   0.652   5.418
 2137SOL    HW1 7310   0.887   0.673   5.467
 2137SOL    HW2 7311   0.955   0.579   5.351
 2138SOL     OW 7312   0.912   2.621   0.177
 2138SOL    HW1 7313   0.901   2.716   0.148
 2138SOL    HW2 7314   1.008   2.594   0.171
 2139SOL     OW 7315   2.884   1.384   5.137
 2139SOL    HW1 7316   2.822   1.461   5.119
 2139SOL    HW2 7317   2.861   1.308   5.077
 2140SOL     OW 7318   2.143   5.446   3.015
 2140SOL    HW1 7319   2.163   5.354   3.048
 2140SOL    HW2 7320   2.049   5.450   2.981
 2141SOL     OW 7321   5.749   1.701   0.526
 2141SOL    HW1 7322   5.712   1.676   0.616
 2141SOL    HW2 7323   5.727   1.796   0.507
 2142SOL     OW 7324   2.607   2.105   3.298
 2142SOL    HW1 7325   2.639   2.012   3.276
 2142SOL    HW2 7326   2.684   2.161   3.327
 2143SOL     OW 7327   3.650   6.858   0.351
 2143SOL    HW1 7328   3.620   6.877   0.257
 2143SOL    HW2 7329   3.584   6.897   0.415
 2144SOL     OW 7330   6.888   1.080   3.125
 2144SOL    HW1 7331   6.893   1.149   3.053
 2144SOL    HW2 7332   6.849   1.121   3.207
 2145SOL     OW 7333   3.861   5.639   3.194
 2145SOL    HW1 7334   3.909   5.720   3.227
 2145SOL    HW2 7335   3.876   5.630   3.095
 2146SOL     OW 7336   3.489   3.001   2.234
 2146SOL    HW1 7337   3.569   3.017   2.177
 2146SOL    HW2 7338   3.440   2.920   2.200
 2147SOL     OW 7339   0.730   0.946   5.255
 2147SOL    HW1 7340   0.760   0.987   5.169
 2147SOL    HW2 7341   0.668   1.008   5.303
 2148SOL     OW 7342   4.967   3.019   3.283
 2148SOL    HW1 7343   4.911   2.939   3.261
 2148SOL    HW2 7344   5.049   3.018   3.226
 2149SOL     OW 7345   3.256   1.092   2.978
 2149SOL    HW1 7346   3.158   1.108   2.969
 2149SOL    HW2 7347   3.271   1.003   3.021
 2150SOL     OW 7348   3.830   1.827   2.120
 2150SOL    HW1 7349   3.765   1.757   2.148
 2150SOL    HW2 7350   3.789   1.918   2.137
 2151SOL     OW 7351   4.093   2.935   5.865
 2151SOL    HW1 7352   4.159   2.954   5.938
 2151SOL    HW2 7353   4.026   3.010   5.861
 2152SOL     OW 7354   6.770   5.851   1.532
 2152SOL    HW1 7355   6.840   5.911   1.570
 2152SOL    HW2 7356   6.762   5.768   1.587
 2153SOL     OW 7357   5.104   2.730   3.588
 2153SOL    HW1 7358   5.128   2.824   3.566
 2153SOL    HW2 7359   5.077   2.682   3.504
 2154SOL     OW 7360   4.612   6.137   5.372
 2154SOL    HW1 7361   4.655   6.067   5.315
 2154SOL    HW2 7362   4.513   6.124   5.371
 2155SOL     OW 7363   6.847   3.668   0.092
 2155SOL    HW1 7364   6.783   3.728   0.141
 2155SOL    HW2 7365   6.799   3.586   0.062
 2156SOL     OW 7366   1.270   0.743   1.471
 2156SOL    HW1 7367   1.347   0.694   1.431
 2156SOL    HW2 7368   1.290   0.841   1.473
 2157SOL     OW 7369   0.777   1.283   4.631
 2157SOL    HW1 7370   0.806   1.378   4.617
 2157SOL    HW2 7371   0.774   1.264   4.729
 2158SOL     OW 7372   4.334   6.334   2.312
 2158SOL    HW1 7373   4.247   6.310   2.269
 2158SOL    HW2 7374   4.319   6.347   2.410
 2159SOL     OW 7375   2.317   5.996   4.316
 2159SOL    HW1 7376   2.334   6.082   4.364
 2159SOL    HW2 7377   2.367   5.995   4.230
 2160SOL     OW 7378   3.190   3.783   0.849
 2160SOL    HW1 7379   3.165   3.725   0.771
 2160SOL    HW2 7380   3.289   3.792   0.853
 2161SOL     OW 7381   5.320   2.694   3.750
 2161SOL    HW1 7382   5.263   2.663   3.674
 2161SOL    HW2 7383   5.413   2.712   3.717
 2162SOL     OW 7384   0.821   1.547   0.133
 2162SOL    HW1 7385   0.730   1.509   0.150
 2162SOL    HW2 7386   0.814   1.625   0.071
 2163SOL     OW 7387   2.187   2.277   0.545
 2163SOL    HW1 7388   2.216   2.230   0.462
 2163SOL    HW2 7389   2.225   2.369   0.546
 2164SOL     OW 7390   1.062   6.939   1.484
 2164SOL    HW1 7391   1.112   0.002   1.468
 2164SOL    HW2 7392   1.101   6.865   1.429
 2165SOL     OW 7393   2.877   6.562   1.901
 2165SOL    HW1 7394   2.904   6.501   1.826
 2165SOL    HW2 7395   2.789   6.531   1.938
 2166SOL     OW 7396   6.832   1.868   6.714
 2166SOL    HW1 7397   6.894   1.943   6.691
 2166SOL    HW2 7398   6.745   1.906   6.747
 2167SOL     OW 7399   2.669   0.514   2.267
 2167SOL    HW1 7400   2.626   0.592   2.222
 2167SOL    HW2 7401   2.607   0.436   2.266
 2168SOL     OW 7402   5.961   5.396   4.510
 2168SOL    HW1 7403   5.962   5.494   4.533
 2168SOL    HW2 7404   6.035   5.350   4.558
 2169SOL     OW 7405   4.760   2.181   5.018
 2169SOL    HW1 7406   4.764   2.081   5.017
 2169SOL    HW2 7407   4.701   2.212   5.092
 2170SOL     OW 7408   5.081   4.794   4.343
 2170SOL    HW1 7409   5.050   4.700   4.353
 2170SOL    HW2 7410   5.031   4.838   4.268
 2171SOL     OW 7411   0.158   2.154   0.196
 2171SOL    HW1 7412   0.206   2.161   0.108
 2171SOL    HW2 7413   0.078   2.214   0.195
 2172SOL     OW 7414   3.002   0.785   0.694
 2172SOL    HW1 7415   2.945   0.762   0.615
 2172SOL    HW2 7416   2.949   0.772   0.778
 2173SOL     OW 7417   5.428   1.502   5.091
 2173SOL    HW1 7418   5.419   1.595   5.055
 2173SOL    HW2 7419   5.487   1.504   5.172
 2174SOL     OW 7420   1.223   5.612   4.568
 2174SOL    HW1 7421   1.284   5.592   4.492
 2174SOL    HW2 7422   1.208   5.710   4.574
 2175SOL     OW 7423   2.465   6.382   5.471
 2175SOL    HW1 7424   2.525   6.396   5.549
 2175SOL    HW2 7425   2.512   6.328   5.402
 2176SOL     OW 7426   1.573   2.249   2.188
 2176SOL    HW1 7427   1.672   2.240   2.183
 2176SOL    HW2 7428   1.537   2.279   2.099
 2177SOL     OW 7429   6.735   1.773   1.572
 2177SOL    HW1 7430   6.691   1.716   1.502
 2177SOL    HW2 7431   6.773   1.714   1.643
 2178SOL     OW 7432   0.630   5.212   0.662
 2178SOL    HW1 7433   0.679   5.141   0.612
 2178SOL    HW2 7434   0.690   5.291   0.677
 2179SOL     OW 7435   1.288   4.647   3.273
 2179SOL    HW1 7436   1.304   4.743   3.253
 2179SOL    HW2 7437   1.318   4.627   3.367
 2180SOL     OW 7438   3.846   2.956   2.290
 2180SOL    HW1 7439   3.854   3.030   2.223
 2180SOL    HW2 7440   3.870   2.869   2.246
 2181SOL     OW 7441   4.982   6.070   6.618
 2181SOL    HW1 7442   4.943   6.011   6.548
 2181SOL    HW2 7443   5.016   6.014   6.694
 2182SOL     OW 7444   6.425   2.387   0.306
 2182SOL    HW1 7445   6.374   2.352   0.384
 2182SOL    HW2 7446   6.366   2.447   0.252
 2183SOL     OW 7447   2.791   3.041   0.615
 2183SOL    HW1 7448   2.855   2.988   0.670
 2183SOL    HW2 7449   2.807   3.139   0.629
 2184SOL     OW 7450   3.803   3.107   6.426
 2184SOL    HW1 7451   3.750   3.062   6.499
 2184SOL    HW2 7452   3.864   3.175   6.467
 2185SOL     OW 7453   1.960   1.262   1.048
 2185SOL    HW1 7454   1.880   1.297   0.999
 2185SOL    HW2 7455   1.997   1.183   1.000
 2186SOL     OW 7456   0.377   5.590   2.982
 2186SOL    HW1 7457   0.472   5.608   2.959
 2186SOL    HW2 7458   0.317   5.644   2.923
 2187SOL     OW 7459   0.474   1.264   6.281
 2187SOL    HW1 7460   0.563   1.220   6.290
 2187SOL    HW2 7461   0.418   1.244   6.361
 2188SOL     OW 7462   5.409   0.473   2.779
 2188SOL    HW1 7463   5.457   0.558   2.800
 2188SOL    HW2 7464   5.426   0.406   2.852
 2189SOL     OW 7465   2.866   0.466   6.677
 2189SOL    HW1 7466   2.821   0.549   6.644
 2189SOL    HW2 7467   2.818   0.386   6.642
 2190SOL     OW 7468   5.092   1.887   1.497
 2190SOL    HW1 7469   5.076   1.799   1.452
 2190SOL    HW2 7470   5.189   1.909   1.494
 2191SOL     OW 7471   2.804   2.008   0.681
 2191SOL    HW1 7472   2.896   2.040   0.701
 2191SOL    HW2 7473   2.777   1.938   0.748
 2192SOL     OW 7474   4.455   5.621   4.623
 2192SOL    HW1 7475   4.466   5.647   4.527
 2192SOL    HW2 7476   4.364   5.647   4.655
 2193SOL     OW 7477   0.281   4.892   6.016
 2193SOL    HW1 7478   0.257   4.883   5.920
 2193SOL    HW2 7479   0.246   4.979   6.052
 2194SOL     OW 7480   2.659   0.622   1.409
 2194SOL    HW1 7481   2.606   0.606   1.492
 2194SOL    HW2 7482   2.598   0.652   1.336
 2195SOL     OW 7483   1.394   4.421   2.498
 2195SOL    HW1 7484   1.323   4.468   2.446
 2195SOL    HW2 7485   1.352   4.358   2.563
 2196SOL     OW 7486   3.664   3.424   6.762
 2196SOL    HW1 7487   3.590   3.388   6.706
 2196SOL    HW2 7488   3.676   3.365   6.842
 2197SOL     OW 7489   4.400   4.537   0.314
 2197SOL    HW1 7490   4.426   4.625   0.275
 2197SOL    HW2 7491   4.376   4.549   0.411
 2198SOL     OW 7492   6.057   4.626   0.444
 2198SOL    HW1 7493   6.071   4.647   0.347
 2198SOL    HW2 7494   6.004   4.542   0.452
 2199SOL     OW 7495   4.542   0.583   1.987
 2199SOL    HW1 7496   4.623   0.571   1.930
 2199SOL    HW2 7497   4.533   0.680   2.012
 2200SOL     OW 7498   2.991   0.359   4.265
 2200SOL    HW1 7499   3.038   0.447   4.255
 2200SOL    HW2 7500   3.041   0.301   4.329
 2201SOL     OW 7501   4.809   4.024   2.046
 2201SOL    HW1 7502   4.856   4.108   2.018
 2201SOL    HW2 7503   4.710   4.038   2.041
 2202SOL     OW 7504   4.470   6.004   3.078
 2202SOL    HW1 7505   4.551   5.961   3.039
 2202SOL    HW2 7506   4.498   6.080   3.137
 2203SOL     OW 7507   3.232   1.549   3.062
 2203SOL    HW1 7508   3.277   1.469   3.102
 2203SOL    HW2 7509   3.223   1.537   2.963
 2204SOL     OW 7510   2.848   2.908   0.888
 2204SOL    HW1 7511   2.853   2.820   0.842
 2204SOL    HW2 7512   2.771   2.908   0.952
 2205SOL     OW 7513   2.512   0.356   0.079
 2205SOL    HW1 7514   2.563   0.331   7.018
 2205SOL    HW2 7515   2.478   0.273   0.124
 2206SOL     OW 7516   2.386   3.049   6.279
 2206SOL    HW1 7517   2.454   3.009   6.218
 2206SOL    HW2 7518   2.329   3.114   6.227
 2207SOL     OW 7519   1.031   4.621   5.129
 2207SOL    HW1 7520   0.948   4.592   5.177
 2207SOL    HW2 7521   1.009   4.636   5.032
 2208SOL     OW 7522   0.462   4.118   1.865
 2208SOL    HW1 7523   0.491   4.172   1.786
 2208SOL    HW2 7524   0.496   4.161   1.948
 2209SOL     OW 7525   1.163   6.011   0.921
 2209SOL    HW1 7526   1.250   6.029   0.874
 2209SOL    HW2 7527   1.087   6.023   0.857
 2210SOL     OW 7528   1.125   6.061   4.330
 2210SOL    HW1 7529   1.026   6.061   4.341
 2210SOL    HW2 7530   1.169   6.062   4.420
 2211SOL     OW 7531   6.427   1.042   6.178
 2211SOL    HW1 7532   6.414   1.140   6.169
 2211SOL    HW2 7533   6.524   1.022   6.196
 2212SOL     OW 7534   1.582   0.244   6.174
 2212SOL    HW1 7535   1.655   0.220   6.238
 2212SOL    HW2 7536   1.501   0.189   6.194
 2213SOL     OW 7537   3.009   0.969   3.200
 2213SOL    HW1 7538   2.956   0.889   3.171
 2213SOL    HW2 7539   2.949   1.049   3.205
 2214SOL     OW 7540   4.592   0.469   5.000
 2214SOL    HW1 7541   4.623   0.376   4.980
 2214SOL    HW2 7542   4.499   0.466   5.035
 2215SOL     OW 7543   5.652   3.230   4.812
 2215SOL    HW1 7544   5.683   3.272   4.898
 2215SOL    HW2 7545   5.599   3.147   4.833
 2216SOL     OW 7546   2.151   0.372   1.582
 2216SOL    HW1 7547   2.140   0.303   1.654
 2216SOL    HW2 7548   2.087   0.448   1.598
 2217SOL     OW 7549   4.559   0.643   1.636
 2217SOL    HW1 7550   4.473   0.592   1.643
 2217SOL    HW2 7551   4.540   0.741   1.648
 2218SOL     OW 7552   0.865   6.383   1.730
 2218SOL    HW1 7553   0.937   6.320   1.700
 2218SOL    HW2 7554   0.788   6.378   1.667
 2219SOL     OW 7555   1.235   2.431   2.657
 2219SOL    HW1 7556   1.152   2.429   2.600
 2219SOL    HW2 7557   1.308   2.478   2.607
 2220SOL     OW 7558   0.501   0.201   0.784
 2220SOL    HW1 7559   0.473   0.105   0.793
 2220SOL    HW2 7560   0.572   0.221   0.850
 2221SOL     OW 7561   7.009   1.625   0.518
 2221SOL    HW1 7562   6.970   1.717   0.505
 2221SOL    HW2 7563   0.085   1.627   0.494
 2222SOL     OW 7564   5.665   6.334   2.663
 2222SOL    HW1 7565   5.752   6.294   2.691
 2222SOL    HW2 7566   5.607   6.263   2.624
 2223SOL     OW 7567   5.575   4.930   1.767
 2223SOL    HW1 7568   5.647   4.863   1.784
 2223SOL    HW2 7569   5.611   5.004   1.710
 2224SOL     OW 7570   0.922   4.791   2.010
 2224SOL    HW1 7571   1.010   4.832   1.983
 2224SOL    HW2 7572   0.874   4.761   1.927
 2225SOL     OW 7573   6.797   4.723   0.797
 2225SOL    HW1 7574   6.714   4.772   0.773
 2225SOL    HW2 7575   6.869   4.788   0.820
 2226SOL     OW 7576   4.446   3.759   1.653
 2226SOL    HW1 7577   4.528   3.706   1.673
 2226SOL    HW2 7578   4.463   3.856   1.673
 2227SOL     OW 7579   0.872   3.197   3.806
 2227SOL    HW1 7580   0.946   3.219   3.870
 2227SOL    HW2 7581   0.881   3.102   3.776
 2228SOL     OW 7582   2.445   5.050   5.201
 2228SOL    HW1 7583   2.470   5.046   5.297
 2228SOL    HW2 7584   2.496   4.980   5.150
 2229SOL     OW 7585   5.315   0.935   3.185
 2229SOL    HW1 7586   5.230   0.987   3.177
 2229SOL    HW2 7587   5.312   0.857   3.123
 2230SOL     OW 7588   1.793   5.764   0.628
 2230SOL    HW1 7589   1.761   5.681   0.674
 2230SOL    HW2 7590   1.762   5.764   0.533
 2231SOL     OW 7591   3.052   6.190   1.194
 2231SOL    HW1 7592   3.113   6.255   1.240
 2231SOL    HW2 7593   3.033   6.223   1.102
 2232SOL     OW 7594   6.521   3.157   2.973
 2232SOL    HW1 7595   6.472   3.070   2.975
 2232SOL    HW2 7596   6.578   3.164   3.055
 2233SOL     OW 7597   3.272   1.449   0.090
 2233SOL    HW1 7598   3.236   1.494   0.172
 2233SOL    HW2 7599   3.200   1.398   0.045
 2234SOL     OW 7600   2.985   2.445   0.672
 2234SOL    HW1 7601   3.042   2.437   0.590
 2234SOL    HW2 7602   2.999   2.365   0.730
 2235SOL     OW 7603   1.768   0.237   1.059
 2235SOL    HW1 7604   1.850   0.206   1.009
 2235SOL    HW2 7605   1.785   0.229   1.157
 2236SOL     OW 7606   6.560   3.942   6.626
 2236SOL    HW1 7607   6.607   3.885   6.694
 2236SOL    HW2 7608   6.626   4.006   6.585
 2237SOL     OW 7609   6.406   2.173   4.211
 2237SOL    HW1 7610   6.377   2.265   4.237
 2237SOL    HW2 7611   6.498   2.155   4.247
 2238SOL     OW 7612   0.505   5.873   2.072
 2238SOL    HW1 7613   0.433   5.932   2.036
 2238SOL    HW2 7614   0.557   5.834   1.996
 2239SOL     OW 7615   5.435   5.239   2.966
 2239SOL    HW1 7616   5.417   5.145   2.939
 2239SOL    HW2 7617   5.485   5.240   3.052
 2240SOL     OW 7618   5.577   3.876   2.585
 2240SOL    HW1 7619   5.491   3.871   2.534
 2240SOL    HW2 7620   5.562   3.930   2.668
 2241SOL     OW 7621   0.753   6.861   2.269
 2241SOL    HW1 7622   0.686   6.935   2.269
 2241SOL    HW2 7623   0.722   6.788   2.329
 2242SOL     OW 7624   4.918   3.060   2.807
 2242SOL    HW1 7625   4.871   3.104   2.731
 2242SOL    HW2 7626   4.875   2.971   2.825
 2243SOL     OW 7627   3.013   6.141   5.350
 2243SOL    HW1 7628   2.969   6.132   5.261
 2243SOL    HW2 7629   2.973   6.218   5.400
 2244SOL     OW 7630   2.425   1.011   5.078
 2244SOL    HW1 7631   2.409   1.108   5.059
 2244SOL    HW2 7632   2.457   1.001   5.172
 2245SOL     OW 7633   0.401   1.692   1.872
 2245SOL    HW1 7634   0.375   1.756   1.799
 2245SOL    HW2 7635   0.375   1.731   1.961
 2246SOL     OW 7636   1.344   3.895   4.228
 2246SOL    HW1 7637   1.260   3.918   4.277
 2246SOL    HW2 7638   1.321   3.853   4.140
 2247SOL     OW 7639   1.844   1.758   5.778
 2247SOL    HW1 7640   1.930   1.707   5.780
 2247SOL    HW2 7641   1.772   1.706   5.823
 2248SOL     OW 7642   5.060   4.367   5.463
 2248SOL    HW1 7643   4.981   4.342   5.519
 2248SOL    HW2 7644   5.031   4.384   5.369
 2249SOL     OW 7645   4.490   5.767   4.397
 2249SOL    HW1 7646   4.470   5.700   4.325
 2249SOL    HW2 7647   4.573   5.818   4.374
 2250SOL     OW 7648   5.312   5.712   0.293
 2250SOL    HW1 7649   5.392   5.751   0.336
 2250SOL    HW2 7650   5.246   5.685   0.363
 2251SOL     OW 7651   0.143   0.752   6.947
 2251SOL    HW1 7652   0.209   0.776   6.876
 2251SOL    HW2 7653   0.069   0.698   6.908
 2252SOL     OW 7654   3.022   1.078   5.743
 2252SOL    HW1 7655   3.091   1.077   5.670
 2252SOL    HW2 7656   2.948   1.140   5.718
 2253SOL     OW 7657   1.648   2.139   5.679
 2253SOL    HW1 7658   1.550   2.145   5.660
 2253SOL    HW2 7659   1.691   2.076   5.614
 2254SOL     OW 7660   1.623   3.799   6.171
 2254SOL    HW1 7661   1.592   3.728   6.108
 2254SOL    HW2 7662   1.719   3.783   6.195
 2255SOL     OW 7663   5.391   2.166   1.071
 2255SOL    HW1 7664   5.369   2.140   0.977
 2255SOL    HW2 7665   5.337   2.109   1.134
 2256SOL     OW 7666   3.561   5.266   1.976
 2256SOL    HW1 7667   3.477   5.226   1.940
 2256SOL    HW2 7668   3.565   5.363   1.952
 2257SOL     OW 7669   1.879   3.857   3.758
 2257SOL    HW1 7670   1.886   3.842   3.660
 2257SOL    HW2 7671   1.971   3.855   3.799
 2258SOL     OW 7672   2.303   5.556   4.957
 2258SOL    HW1 7673   2.376   5.516   5.012
 2258SOL    HW2 7674   2.342   5.598   4.875
 2259SOL     OW 7675   5.710   3.201   6.323
 2259SOL    HW1 7676   5.784   3.249   6.277
 2259SOL    HW2 7677   5.635   3.265   6.341
 2260SOL     OW 7678   5.286   4.439   0.981
 2260SOL    HW1 7679   5.245   4.493   1.055
 2260SOL    HW2 7680   5.248   4.347   0.982
 2261SOL     OW 7681   4.079   6.598   5.660
 2261SOL    HW1 7682   4.161   6.604   5.718
 2261SOL    HW2 7683   4.004   6.558   5.713
 2262SOL     OW 7684   3.928   1.579   3.413
 2262SOL    HW1 7685   3.865   1.501   3.406
 2262SOL    HW2 7686   3.929   1.629   3.327
 2263SOL     OW 7687   6.782   3.846   6.386
 2263SOL    HW1 7688   6.749   3.769   6.441
 2263SOL    HW2 7689   6.779   3.929   6.442
 2264SOL     OW 7690   4.115   3.569   3.811
 2264SOL    HW1 7691   4.176   3.548   3.734
 2264SOL    HW2 7692   4.123   3.497   3.880
 2265SOL     OW 7693   6.904   0.585   2.423
 2265SOL    HW1 7694   6.914   0.492   2.459
 2265SOL    HW2 7695   6.948   0.650   2.485
 2266SOL     OW 7696   6.034   6.848   0.185
 2266SOL    HW1 7697   6.108   6.910   0.211
 2266SOL    HW2 7698   6.035   6.836   0.085
 2267SOL     OW 7699   5.596   1.200   5.660
 2267SOL    HW1 7700   5.555   1.287   5.687
 2267SOL    HW2 7701   5.537   1.125   5.690
 2268SOL     OW 7702   6.349   5.244   0.746
 2268SOL    HW1 7703   6.372   5.217   0.653
 2268SOL    HW2 7704   6.250   5.234   0.760
 2269SOL     OW 7705   0.314   5.648   5.045
 2269SOL    HW1 7706   0.343   5.699   5.126
 2269SOL    HW2 7707   0.393   5.599   5.007
 2270SOL     OW 7708   4.125   3.438   2.005
 2270SOL    HW1 7709   4.198   3.383   1.964
 2270SOL    HW2 7710   4.063   3.470   1.933
 2271SOL     OW 7711   6.851   4.414   3.041
 2271SOL    HW1 7712   6.932   4.369   3.002
 2271SOL    HW2 7713   6.878   4.500   3.085
 2272SOL     OW 7714   4.399   1.960   6.200
 2272SOL    HW1 7715   4.302   1.958   6.225
 2272SOL    HW2 7716   4.418   1.887   6.135
 2273SOL     OW 7717   0.594   1.593   3.680
 2273SOL    HW1 7718   0.612   1.691   3.694
 2273SOL    HW2 7719   0.603   1.545   3.766
 2274SOL     OW 7720   1.167   3.085   3.240
 2274SOL    HW1 7721   1.245   3.129   3.195
 2274SOL    HW2 7722   1.108   3.043   3.171
 2275SOL     OW 7723   5.016   6.977   3.768
 2275SOL    HW1 7724   4.983   0.050   3.766
 2275SOL    HW2 7725   5.099   6.970   3.712
 2276SOL     OW 7726   3.866   5.341   1.824
 2276SOL    HW1 7727   3.877   5.248   1.858
 2276SOL    HW2 7728   3.797   5.343   1.752
 2277SOL     OW 7729   2.962   3.651   0.639
 2277SOL    HW1 7730   2.863   3.645   0.652
 2277SOL    HW2 7731   2.993   3.572   0.585
 2278SOL     OW 7732   5.507   6.818   0.475
 2278SOL    HW1 7733   5.591   6.848   0.521
 2278SOL    HW2 7734   5.524   6.731   0.429
 2279SOL     OW 7735   4.732   4.788   4.782
 2279SOL    HW1 7736   4.685   4.851   4.719
 2279SOL    HW2 7737   4.763   4.708   4.731
 2280SOL     OW 7738   5.283   6.596   5.998
 2280SOL    HW1 7739   5.188   6.570   5.978
 2280SOL    HW2 7740   5.325   6.526   6.055
 2281SOL     OW 7741   2.654   2.866   0.465
 2281SOL    HW1 7742   2.610   2.917   0.391
 2281SOL    HW2 7743   2.706   2.930   0.523
 2282SOL     OW 7744   3.966   6.110   2.450
 2282SOL    HW1 7745   3.992   6.039   2.516
 2282SOL    HW2 7746   3.901   6.072   2.385
 2283SOL     OW 7747   0.202   3.787   2.582
 2283SOL    HW1 7748   0.161   3.715   2.637
 2283SOL    HW2 7749   0.299   3.796   2.605
 2284SOL     OW 7750   2.633   2.417   2.138
 2284SOL    HW1 7751   2.600   2.484   2.072
 2284SOL    HW2 7752   2.724   2.386   2.113
 2285SOL     OW 7753   1.687   4.133   6.995
 2285SOL    HW1 7754   1.663   4.199   0.045
 2285SOL    HW2 7755   1.677   4.040   0.009
 2286SOL     OW 7756   5.563   6.892   4.731
 2286SOL    HW1 7757   5.646   6.944   4.713
 2286SOL    HW2 7758   5.509   6.939   4.801
 2287SOL     OW 7759   2.311   3.068   1.733
 2287SOL    HW1 7760   2.405   3.061   1.699
 2287SOL    HW2 7761   2.276   3.160   1.718
 2288SOL     OW 7762   1.550   6.460   4.036
 2288SOL    HW1 7763   1.461   6.454   3.991
 2288SOL    HW2 7764   1.542   6.428   4.131
 2289SOL     OW 7765   4.615   2.356   0.483
 2289SOL    HW1 7766   4.526   2.349   0.438
 2289SOL    HW2 7767   4.636   2.269   0.528
 2290SOL     OW 7768   3.676   3.197   2.806
 2290SOL    HW1 7769   3.666   3.235   2.714
 2290SOL    HW2 7770   3.697   3.099   2.799
 2291SOL     OW 7771   1.217   2.219   0.197
 2291SOL    HW1 7772   1.238   2.180   0.107
 2291SOL    HW2 7773   1.141   2.284   0.188
 2292SOL     OW 7774   4.717   2.087   2.681
 2292SOL    HW1 7775   4.794   2.036   2.720
 2292SOL    HW2 7776   4.697   2.053   2.589
 2293SOL     OW 7777   0.690   0.534   0.402
 2293SOL    HW1 7778   0.748   0.561   0.479
 2293SOL    HW2 7779   0.607   0.590   0.401
 2294SOL     OW 7780   6.552   1.691   5.567
 2294SOL    HW1 7781   6.547   1.740   5.480
 2294SOL    HW2 7782   6.537   1.594   5.551
 2295SOL     OW 7783   5.801   6.400   0.993
 2295SOL    HW1 7784   5.809   6.382   0.895
 2295SOL    HW2 7785   5.713   6.443   1.012
 2296SOL     OW 7786   3.659   5.403   3.694
 2296SOL    HW1 7787   3.682   5.344   3.771
 2296SOL    HW2 7788   3.739   5.458   3.669
 2297SOL     OW 7789   4.214   4.210   5.363
 2297SOL    HW1 7790   4.131   4.258   5.389
 2297SOL    HW2 7791   4.258   4.258   5.287
 2298SOL     OW 7792   3.775   3.664   4.887
 2298SOL    HW1 7793   3.827   3.749   4.900
 2298SOL    HW2 7794   3.832   3.598   4.837
 2299SOL     OW 7795   6.041   3.204   4.658
 2299SOL    HW1 7796   5.973   3.131   4.669
 2299SOL    HW2 7797   6.032   3.270   4.732
 2300SOL     OW 7798   4.863   6.429   1.970
 2300SOL    HW1 7799   4.891   6.517   1.932
 2300SOL    HW2 7800   4.940   6.387   2.019
 2301SOL     OW 7801   3.502   2.833   4.650
 2301SOL    HW1 7802   3.459   2.896   4.584
 2301SOL    HW2 7803   3.592   2.807   4.617
 2302SOL     OW 7804   5.760   3.432   0.158
 2302SOL    HW1 7805   5.701   3.452   0.235
 2302SOL    HW2 7806   5.785   3.335   0.159
 2303SOL     OW 7807   3.233   1.614   6.814
 2303SOL    HW1 7808   3.238   1.592   6.912
 2303SOL    HW2 7809   3.322   1.649   6.784
 2304SOL     OW 7810   5.692   5.962   2.659
 2304SOL    HW1 7811   5.709   5.955   2.758
 2304SOL    HW2 7812   5.694   5.871   2.619
 2305SOL     OW 7813   2.800   0.021   4.627
 2305SOL    HW1 7814   2.711   7.013   4.663
 2305SOL    HW2 7815   2.790   0.111   4.584
 2306SOL     OW 7816   0.742   4.972   4.440
 2306SOL    HW1 7817   0.760   4.933   4.350
 2306SOL    HW2 7818   0.807   4.935   4.506
 2307SOL     OW 7819   6.504   3.044   6.153
 2307SOL    HW1 7820   6.505   3.066   6.055
 2307SOL    HW2 7821   6.535   3.123   6.205
 2308SOL     OW 7822   1.867   5.438   1.917
 2308SOL    HW1 7823   1.833   5.345   1.902
 2308SOL    HW2 7824   1.882   5.453   2.015
 2309SOL     OW 7825   1.791   0.249   5.333
 2309SOL    HW1 7826   1.872   0.193   5.352
 2309SOL    HW2 7827   1.737   0.258   5.416
 2310SOL     OW 7828   4.804   6.852   1.255
 2310SOL    HW1 7829   4.782   6.892   1.166
 2310SOL    HW2 7830   4.739   6.779   1.277
 2311SOL     OW 7831   3.184   5.122   1.282
 2311SOL    HW1 7832   3.234   5.203   1.251
 2311SOL    HW2 7833   3.107   5.105   1.221
 2312SOL     OW 7834   3.250   5.232   2.234
 2312SOL    HW1 7835   3.151   5.216   2.227
 2312SOL    HW2 7836   3.271   5.270   2.324
 2313SOL     OW 7837   5.286   5.784   1.395
 2313SOL    HW1 7838   5.299   5.854   1.464
 2313SOL    HW2 7839   5.189   5.760   1.389
 2314SOL     OW 7840   1.579   4.825   4.566
 2314SOL    HW1 7841   1.616   4.909   4.607
 2314SOL    HW2 7842   1.505   4.789   4.624
 2315SOL     OW 7843   3.879   2.825   6.716
 2315SOL    HW1 7844   3.966   2.848   6.759
 2315SOL    HW2 7845   3.897   2.779   6.629
 2316SOL     OW 7846   5.549   4.168   2.462
 2316SOL    HW1 7847   5.579   4.223   2.385
 2316SOL    HW2 7848   5.619   4.168   2.533
 2317SOL     OW 7849   0.269   5.054   3.540
 2317SOL    HW1 7850   0.324   4.971   3.548
 2317SOL    HW2 7851   0.177   5.031   3.509
 2318SOL     OW 7852   0.446   1.082   4.399
 2318SOL    HW1 7853   0.517   1.015   4.375
 2318SOL    HW2 7854   0.489   1.171   4.413
 2319SOL     OW 7855   0.883   4.499   3.378
 2319SOL    HW1 7856   0.807   4.435   3.383
 2319SOL    HW2 7857   0.940   4.490   3.459
 2320SOL     OW 7858   6.371   5.176   4.752
 2320SOL    HW1 7859   6.439   5.150   4.683
 2320SOL    HW2 7860   6.344   5.095   4.803
 2321SOL     OW 7861   2.756   5.217   5.006
 2321SOL    HW1 7862   2.850   5.195   5.034
 2321SOL    HW2 7863   2.726   5.151   4.937
 2322SOL     OW 7864   2.904   0.442   6.005
 2322SOL    HW1 7865   2.978   0.421   5.942
 2322SOL    HW2 7866   2.826   0.479   5.955
 2323SOL     OW 7867   5.317   4.196   2.241
 2323SOL    HW1 7868   5.352   4.289   2.251
 2323SOL    HW2 7869   5.394   4.134   2.224
 2324SOL     OW 7870   6.886   4.613   3.723
 2324SOL    HW1 7871   6.843   4.650   3.805
 2324SOL    HW2 7872   6.903   4.515   3.735
 2325SOL     OW 7873   6.888   2.833   0.648
 2325SOL    HW1 7874   6.835   2.849   0.564
 2325SOL    HW2 7875   6.921   2.920   0.683
 2326SOL     OW 7876   1.759   4.811   7.007
 2326SOL    HW1 7877   1.846   4.858   0.001
 2326SOL    HW2 7878   1.684   4.873   0.008
 2327SOL     OW 7879   5.264   1.722   4.279
 2327SOL    HW1 7880   5.332   1.649   4.273
 2327SOL    HW2 7881   5.310   1.811   4.285
 2328SOL     OW 7882   6.126   6.874   3.830
 2328SOL    HW1 7883   6.073   6.925   3.897
 2328SOL    HW2 7884   6.169   6.795   3.874
 2329SOL     OW 7885   6.580   5.982   3.357
 2329SOL    HW1 7886   6.606   6.076   3.338
 2329SOL    HW2 7887   6.614   5.955   3.447
 2330SOL     OW 7888   6.979   3.604   2.013
 2330SOL    HW1 7889   0.040   3.632   1.963
 2330SOL    HW2 7890   6.898   3.638   1.966
 2331SOL     OW 7891   0.615   4.668   5.548
 2331SOL    HW1 7892   0.699   4.653   5.599
 2331SOL    HW2 7893   0.544   4.605   5.580
 2332SOL     OW 7894   6.167   2.598   4.826
 2332SOL    HW1 7895   6.084   2.544   4.840
 2332SOL    HW2 7896   6.247   2.541   4.845
 2333SOL     OW 7897   1.743   4.882   3.809
 2333SOL    HW1 7898   1.790   4.807   3.855
 2333SOL    HW2 7899   1.658   4.903   3.857
 2334SOL     OW 7900   3.086   0.159   1.094
 2334SOL    HW1 7901   3.145   0.200   1.163
 2334SOL    HW2 7902   3.095   0.060   1.097
 2335SOL     OW 7903   4.403   5.657   4.106
 2335SOL    HW1 7904   4.493   5.615   4.099
 2335SOL    HW2 7905   4.335   5.598   4.061
 2336SOL     OW 7906   4.797   2.682   5.557
 2336SOL    HW1 7907   4.772   2.773   5.524
 2336SOL    HW2 7908   4.890   2.684   5.595
 2337SOL     OW 7909   5.808   0.199   3.514
 2337SOL    HW1 7910   5.813   0.282   3.458
 2337SOL    HW2 7911   5.803   0.119   3.454
 2338SOL     OW 7912   1.381   6.621   6.167
 2338SOL    HW1 7913   1.353   6.554   6.098
 2338SOL    HW2 7914   1.309   6.691   6.176
 2339SOL     OW 7915   4.006   4.797   6.400
 2339SOL    HW1 7916   3.941   4.790   6.476
 2339SOL    HW2 7917   3.957   4.785   6.314
 2340SOL     OW 7918   3.807   5.229   3.867
 2340SOL    HW1 7919   3.872   5.247   3.793
 2340SOL    HW2 7920   3.820   5.296   3.940
 2341SOL     OW 7921   6.578   5.280   6.657
 2341SOL    HW1 7922   6.657   5.218   6.654
 2341SOL    HW2 7923   6.503   5.236   6.705
 2342SOL     OW 7924   6.177   6.823   4.877
 2342SOL    HW1 7925   6.135   6.906   4.843
 2342SOL    HW2 7926   6.116   6.779   4.943
 2343SOL     OW 7927   0.872   6.579   0.106
 2343SOL    HW1 7928   0.833   6.670   0.096
 2343SOL    HW2 7929   0.968   6.586   0.132
 2344SOL     OW 7930   2.118   1.724   3.082
 2344SOL    HW1 7931   2.152   1.783   3.008
 2344SOL    HW2 7932   2.160   1.751   3.169
 2345SOL     OW 7933   2.122   1.216   3.499
 2345SOL    HW1 7934   2.201   1.277   3.486
 2345SOL    HW2 7935   2.155   1.122   3.513
 2346SOL     OW 7936   4.931   3.644   5.619
 2346SOL    HW1 7937   4.978   3.706   5.682
 2346SOL    HW2 7938   4.906   3.560   5.668
 2347SOL     OW 7939   1.303   3.213   1.530
 2347SOL    HW1 7940   1.283   3.264   1.614
 2347SOL    HW2 7941   1.217   3.177   1.492
 2348SOL     OW 7942   2.333   5.850   1.608
 2348SOL    HW1 7943   2.246   5.807   1.630
 2348SOL    HW2 7944   2.318   5.923   1.541
 2349SOL     OW 7945   4.808   5.181   6.004
 2349SOL    HW1 7946   4.761   5.270   5.999
 2349SOL    HW2 7947   4.741   5.108   5.996
 2350SOL     OW 7948   2.665   5.959   5.118
 2350SOL    HW1 7949   2.571   5.952   5.153
 2350SOL    HW2 7950   2.713   5.873   5.133
 2351SOL     OW 7951   1.900   5.857   3.620
 2351SOL    HW1 7952   1.841   5.902   3.553
 2351SOL    HW2 7953   1.991   5.845   3.581
 2352SOL     OW 7954   6.402   3.578   1.793
 2352SOL    HW1 7955   6.372   3.674   1.792
 2352SOL    HW2 7956   6.479   3.568   1.856
 2353SOL     OW 7957   3.032   3.518   5.874
 2353SOL    HW1 7958   2.941   3.492   5.841
 2353SOL    HW2 7959   3.068   3.445   5.931
 2354SOL     OW 7960   3.764   2.874   1.249
 2354SOL    HW1 7961   3.706   2.862   1.329
 2354SOL    HW2 7962   3.853   2.832   1.266
 2355SOL     OW 7963   6.647   0.456   1.199
 2355SOL    HW1 7964   6.566   0.425   1.148
 2355SOL    HW2 7965   6.710   0.502   1.137
 2356SOL     OW 7966   2.955   4.818   3.450
 2356SOL    HW1 7967   3.040   4.851   3.409
 2356SOL    HW2 7968   2.883   4.886   3.437
 2357SOL     OW 7969   6.233   4.962   1.032
 2357SOL    HW1 7970   6.293   4.941   0.954
 2357SOL    HW2 7971   6.187   5.049   1.016
 2358SOL     OW 7972   3.408   1.580   5.829
 2358SOL    HW1 7973   3.366   1.524   5.899
 2358SOL    HW2 7974   3.415   1.675   5.861
 2359SOL     OW 7975   2.185   1.561   5.815
 2359SOL    HW1 7976   2.221   1.650   5.841
 2359SOL    HW2 7977   2.201   1.544   5.718
 2360SOL     OW 7978   3.577   4.101   0.283
 2360SOL    HW1 7979   3.526   4.153   0.352
 2360SOL    HW2 7980   3.663   4.069   0.322
 2361SOL     OW 7981   4.420   6.024   1.996
 2361SOL    HW1 7982   4.391   5.980   2.081
 2361SOL    HW2 7983   4.396   6.121   1.998
 2362SOL     OW 7984   4.711   5.334   3.553
 2362SOL    HW1 7985   4.751   5.322   3.462
 2362SOL    HW2 7986   4.659   5.419   3.556
 2363SOL     OW 7987   2.220   3.914   0.832
 2363SOL    HW1 7988   2.139   3.886   0.780
 2363SOL    HW2 7989   2.215   4.011   0.854
 2364SOL     OW 7990   3.217   1.263   2.493
 2364SOL    HW1 7991   3.198   1.178   2.542
 2364SOL    HW2 7992   3.298   1.307   2.532
 2365SOL     OW 7993   5.141   3.676   3.326
 2365SOL    HW1 7994   5.096   3.706   3.410
 2365SOL    HW2 7995   5.089   3.708   3.247
 2366SOL     OW 7996   2.945   4.796   4.806
 2366SOL    HW1 7997   3.018   4.731   4.786
 2366SOL    HW2 7998   2.878   4.753   4.867
 2367SOL     OW 7999   5.613   4.389   6.269
 2367SOL    HW1 8000   5.620   4.306   6.324
 2367SOL    HW2 8001   5.680   4.456   6.301
 2368SOL     OW 8002   5.573   6.600   4.745
 2368SOL    HW1 8003   5.663   6.562   4.721
 2368SOL    HW2 8004   5.577   6.700   4.741
 2369SOL     OW 8005   2.897   1.962   4.323
 2369SOL    HW1 8006   2.890   1.900   4.401
 2369SOL    HW2 8007   2.980   2.017   4.333
 2370SOL     OW 8008   5.996   2.623   1.845
 2370SOL    HW1 8009   5.921   2.559   1.831
 2370SOL    HW2 8010   6.049   2.594   1.926
 2371SOL     OW 8011   0.459   6.310   3.016
 2371SOL    HW1 8012   0.410   6.391   2.982
 2371SOL    HW2 8013   0.428   6.229   2.966
 2372SOL     OW 8014   5.906   6.853   6.360
 2372SOL    HW1 8015   5.970   6.821   6.429
 2372SOL    HW2 8016   5.838   6.913   6.403
 2373SOL     OW 8017   6.209   5.415   6.505
 2373SOL    HW1 8018   6.154   5.493   6.473
 2373SOL    HW2 8019   6.169   5.378   6.589
 2374SOL     OW 8020   6.646   6.637   2.374
 2374SOL    HW1 8021   6.654   6.611   2.470
 2374SOL    HW2 8022   6.675   6.561   2.316
 2375SOL     OW 8023   1.312   0.067   4.228
 2375SOL    HW1 8024   1.285   7.016   4.164
 2375SOL    HW2 8025   1.254   0.147   4.214
 2376SOL     OW 8026   5.424   1.866   3.697
 2376SOL    HW1 8027   5.397   1.802   3.625
 2376SOL    HW2 8028   5.513   1.838   3.734
 2377SOL     OW 8029   4.823   4.571   5.870
 2377SOL    HW1 8030   4.828   4.666   5.903
 2377SOL    HW2 8031   4.896   4.555   5.804
 2378SOL     OW 8032   6.969   0.945   0.425
 2378SOL    HW1 8033   6.872   0.943   0.402
 2378SOL    HW2 8034   0.002   0.920   0.345
 2379SOL     OW 8035   6.452   5.189   1.434
 2379SOL    HW1 8036   6.475   5.126   1.360
 2379SOL    HW2 8037   6.531   5.249   1.452
 2380SOL     OW 8038   4.852   5.653   5.232
 2380SOL    HW1 8039   4.950   5.637   5.235
 2380SOL    HW2 8040   4.809   5.588   5.168
 2381SOL     OW 8041   2.196   4.785   4.602
 2381SOL    HW1 8042   2.193   4.807   4.700
 2381SOL    HW2 8043   2.291   4.775   4.573
 2382SOL     OW 8044   0.319   6.010   2.493
 2382SOL    HW1 8045   0.256   6.020   2.569
 2382SOL    HW2 8046   0.409   6.048   2.518
 2383SOL     OW 8047   5.541   5.677   6.020
 2383SOL    HW1 8048   5.461   5.689   5.960
 2383SOL    HW2 8049   5.534   5.590   6.069
 2384SOL     OW 8050   0.500   1.702   2.348
 2384SOL    HW1 8051   0.498   1.788   2.298
 2384SOL    HW2 8052   0.567   1.709   2.422
 2385SOL     OW 8053   0.667   1.338   0.744
 2385SOL    HW1 8054   0.615   1.280   0.806
 2385SOL    HW2 8055   0.608   1.409   0.707
 2386SOL     OW 8056   5.721   5.556   3.851
 2386SOL    HW1 8057   5.665   5.621   3.902
 2386SOL    HW2 8058   5.667   5.475   3.829
 2387SOL     OW 8059   1.738   1.622   4.011
 2387SOL    HW1 8060   1.793   1.697   4.047
 2387SOL    HW2 8061   1.781   1.586   3.928
 2388SOL     OW 8062   6.360   2.136   5.026
 2388SOL    HW1 8063   6.389   2.160   5.119
 2388SOL    HW2 8064   6.266   2.101   5.028
 2389SOL     OW 8065   4.602   4.630   4.147
 2389SOL    HW1 8066   4.692   4.651   4.184
 2389SOL    HW2 8067   4.611   4.584   4.059
 2390SOL     OW 8068   4.371   3.532   5.762
 2390SOL    HW1 8069   4.346   3.448   5.811
 2390SOL    HW2 8070   4.400   3.601   5.828
 2391SOL     OW 8071   2.907   4.674   6.204
 2391SOL    HW1 8072   2.877   4.645   6.113
 2391SOL    HW2 8073   2.839   4.736   6.243
 2392SOL     OW 8074   4.512   4.434   5.602
 2392SOL    HW1 8075   4.546   4.528   5.612
 2392SOL    HW2 8076   4.412   4.435   5.598
 2393SOL     OW 8077   3.996   4.371   1.173
 2393SOL    HW1 8078   3.934   4.293   1.159
 2393SOL    HW2 8079   4.055   4.352   1.252
 2394SOL     OW 8080   0.437   2.714   3.557
 2394SOL    HW1 8081   0.430   2.736   3.460
 2394SOL    HW2 8082   0.385   2.780   3.611
 2395SOL     OW 8083   0.841   2.877   4.641
 2395SOL    HW1 8084   0.837   2.799   4.704
 2395SOL    HW2 8085   0.845   2.844   4.547
 2396SOL     OW 8086   0.257   0.466   5.481
 2396SOL    HW1 8087   0.304   0.432   5.400
 2396SOL    HW2 8088   0.262   0.398   5.554
 2397SOL     OW 8089   0.081   4.129   5.459
 2397SOL    HW1 8090   0.128   4.131   5.547
 2397SOL    HW2 8091   0.094   4.040   5.415
 2398SOL     OW 8092   3.684   6.436   4.226
 2398SOL    HW1 8093   3.616   6.492   4.177
 2398SOL    HW2 8094   3.717   6.364   4.166
 2399SOL     OW 8095   3.409   2.157   3.591
 2399SOL    HW1 8096   3.335   2.094   3.615
 2399SOL    HW2 8097   3.386   2.249   3.624
 2400SOL     OW 8098   1.178   3.904   0.874
 2400SOL    HW1 8099   1.178   3.922   0.973
 2400SOL    HW2 8100   1.084   3.883   0.845
 2401SOL     OW 8101   2.622   0.017   5.732
 2401SOL    HW1 8102   2.663   0.095   5.779
 2401SOL    HW2 8103   2.528   0.038   5.707
 2402SOL     OW 8104   1.675   4.274   1.477
 2402SOL    HW1 8105   1.591   4.240   1.520
 2402SOL    HW2 8106   1.652   4.320   1.391
 2403SOL     OW 8107   4.069   3.260   3.137
 2403SOL    HW1 8108   3.972   3.254   3.162
 2403SOL    HW2 8109   4.084   3.339   3.077
 2404SOL     OW 8110   5.951   0.964   0.880
 2404SOL    HW1 8111   5.875   0.903   0.856
 2404SOL    HW2 8112   6.035   0.911   0.885
 2405SOL     OW 8113   2.520   3.203   0.772
 2405SOL    HW1 8114   2.573   3.183   0.690
 2405SOL    HW2 8115   2.435   3.150   0.770
 2406SOL     OW 8116   2.990   6.165   4.597
 2406SOL    HW1 8117   3.029   6.077   4.624
 2406SOL    HW2 8118   3.063   6.225   4.564
 2407SOL     OW 8119   2.693   0.752   3.497
 2407SOL    HW1 8120   2.772   0.704   3.536
 2407SOL    HW2 8121   2.668   0.708   3.410
 2408SOL     OW 8122   3.699   6.307   4.654
 2408SOL    HW1 8123   3.701   6.404   4.633
 2408SOL    HW2 8124   3.736   6.255   4.577
 2409SOL     OW 8125   1.489   3.238   1.325
 2409SOL    HW1 8126   1.452   3.275   1.240
 2409SOL    HW2 8127   1.416   3.230   1.393
 2410SOL     OW 8128   0.704   3.076   4.982
 2410SOL    HW1 8129   0.729   3.129   5.063
 2410SOL    HW2 8130   0.682   3.139   4.907
 2411SOL     OW 8131   2.911   3.460   0.213
 2411SOL    HW1 8132   2.993   3.484   0.162
 2411SOL    HW2 8133   2.832   3.506   0.172
 2412SOL     OW 8134   3.670   1.439   6.618
 2412SOL    HW1 8135   3.607   1.364   6.639
 2412SOL    HW2 8136   3.755   1.426   6.671
 2413SOL     OW 8137   0.553   3.171   6.896
 2413SOL    HW1 8138   0.545   3.166   6.796
 2413SOL    HW2 8139   0.510   3.090   6.937
 2414SOL     OW 8140   6.321   2.147   5.304
 2414SOL    HW1 8141   6.273   2.061   5.324
 2414SOL    HW2 8142   6.253   2.218   5.284
 2415SOL     OW 8143   2.754   5.783   0.446
 2415SOL    HW1 8144   2.664   5.750   0.420
 2415SOL    HW2 8145   2.804   5.813   0.364
 2416SOL     OW 8146   0.075   3.519   2.249
 2416SOL    HW1 8147   0.028   3.552   2.168
 2416SOL    HW2 8148   0.016   3.531   2.329
 2417SOL     OW 8149   3.081   2.625   1.742
 2417SOL    HW1 8150   3.010   2.655   1.678
 2417SOL    HW2 8151   3.041   2.568   1.813
 2418SOL     OW 8152   4.715   4.267   6.845
 2418SOL    HW1 8153   4.703   4.220   6.932
 2418SOL    HW2 8154   4.813   4.276   6.825
 2419SOL     OW 8155   2.254   6.655   3.168
 2419SOL    HW1 8156   2.224   6.588   3.099
 2419SOL    HW2 8157   2.195   6.648   3.248
 2420SOL     OW 8158   1.222   3.861   2.605
 2420SOL    HW1 8159   1.264   3.876   2.516
 2420SOL    HW2 8160   1.279   3.901   2.676
 2421SOL     OW 8161   2.765   6.496   4.285
 2421SOL    HW1 8162   2.702   6.572   4.301
 2421SOL    HW2 8163   2.780   6.447   4.371
 2422SOL     OW 8164   4.578   6.008   1.095
 2422SOL    HW1 8165   4.516   5.955   1.152
 2422SOL    HW2 8166   4.537   6.022   1.005
 2423SOL     OW 8167   2.598   5.388   3.041
 2423SOL    HW1 8168   2.637   5.388   2.949
 2423SOL    HW2 8169   2.514   5.333   3.041
 2424SOL     OW 8170   5.465   0.240   6.358
 2424SOL    HW1 8171   5.565   0.249   6.360
 2424SOL    HW2 8172   5.424   0.325   6.327
 2425SOL     OW 8173   5.299   5.424   4.885
 2425SOL    HW1 8174   5.245   5.492   4.934
 2425SOL    HW2 8175   5.302   5.339   4.938
 2426SOL     OW 8176   2.035   3.553   5.675
 2426SOL    HW1 8177   2.014   3.651   5.677
 2426SOL    HW2 8178   2.134   3.540   5.680
 2427SOL     OW 8179   5.219   1.051   6.887
 2427SOL    HW1 8180   5.186   1.034   6.980
 2427SOL    HW2 8181   5.159   1.116   6.841
 2428SOL     OW 8182   1.203   0.732   3.360
 2428SOL    HW1 8183   1.121   0.789   3.369
 2428SOL    HW2 8184   1.176   0.636   3.353
 2429SOL     OW 8185   5.842   5.207   1.861
 2429SOL    HW1 8186   5.907   5.219   1.936
 2429SOL    HW2 8187   5.891   5.184   1.777
 2430SOL     OW 8188   5.917   1.353   6.680
 2430SOL    HW1 8189   5.832   1.364   6.730
 2430SOL    HW2 8190   5.995   1.362   6.743
 2431SOL     OW 8191   0.072   2.960   1.550
 2431SOL    HW1 8192   0.085   2.884   1.615
 2431SOL    HW2 8193   0.046   3.042   1.600
 2432SOL     OW 8194   3.081   5.293   1.829
 2432SOL    HW1 8195   3.158   5.271   1.769
 2432SOL    HW2 8196   3.064   5.215   1.890
 2433SOL     OW 8197   6.387   4.165   5.610
 2433SOL    HW1 8198   6.457   4.193   5.545
 2433SOL    HW2 8199   6.311   4.123   5.561
 2434SOL     OW 8200   4.858   1.130   2.775
 2434SOL    HW1 8201   4.779   1.134   2.714
 2434SOL    HW2 8202   4.937   1.096   2.725
 2435SOL     OW 8203   6.077   6.339   6.773
 2435SOL    HW1 8204   6.017   6.311   6.849
 2435SOL    HW2 8205   6.079   6.267   6.704
 2436SOL     OW 8206   2.111   2.013   2.030
 2436SOL    HW1 8207   2.112   1.939   1.963
 2436SOL    HW2 8208   2.066   1.981   2.114
 2437SOL     OW 8209   0.016   4.491   2.407
 2437SOL    HW1 8210   0.042   4.449   2.494
 2437SOL    HW2 8211   6.988   4.576   2.425
 2438SOL     OW 8212   3.108   1.200   4.815
 2438SOL    HW1 8213   3.187   1.237   4.863
 2438SOL    HW2 8214   3.139   1.139   4.742
 2439SOL     OW 8215   1.300   6.796   1.778
 2439SOL    HW1 8216   1.361   6.772   1.702
 2439SOL    HW2 8217   1.270   6.891   1.767
 2440SOL     OW 8218   6.007   1.183   5.600
 2440SOL    HW1 8219   6.039   1.089   5.591
 2440SOL    HW2 8220   6.083   1.241   5.631
 2441SOL     OW 8221   6.531   0.040   6.884
 2441SOL    HW1 8222   6.448   0.024   6.830
 2441SOL    HW2 8223   6.603   6.998   6.853
 2442SOL     OW 8224   4.935   3.384   1.889
 2442SOL    HW1 8225   4.851   3.369   1.837
 2442SOL    HW2 8226   4.984   3.297   1.899
 2443SOL     OW 8227   0.353   2.539   1.380
 2443SOL    HW1 8228   0.274   2.478   1.389
 2443SOL    HW2 8229   0.369   2.586   1.466
 2444SOL     OW 8230   3.834   5.697   2.057
 2444SOL    HW1 8231   3.905   5.766   2.044
 2444SOL    HW2 8232   3.877   5.610   2.082
 2445SOL     OW 8233   0.289   2.484   0.854
 2445SOL    HW1 8234   0.317   2.551   0.923
 2445SOL    HW2 8235   0.195   2.505   0.825
 2446SOL     OW 8236   1.518   5.066   1.425
 2446SOL    HW1 8237   1.538   5.066   1.327
 2446SOL    HW2 8238   1.559   5.148   1.466
 2447SOL     OW 8239   2.565   6.402   6.896
 2447SOL    HW1 8240   2.468   6.424   6.890
 2447SOL    HW2 8241   2.618   6.470   6.846
 2448SOL     OW 8242   6.741   1.544   4.407
 2448SOL    HW1 8243   6.648   1.507   4.400
 2448SOL    HW2 8244   6.749   1.626   4.351
 2449SOL     OW 8245   1.465   4.046   1.332
 2449SOL    HW1 8246   1.427   3.994   1.409
 2449SOL    HW2 8247   1.417   4.133   1.324
 2450SOL     OW 8248   1.507   6.693   5.852
 2450SOL    HW1 8249   1.577   6.661   5.789
 2450SOL    HW2 8250   1.433   6.625   5.858
 2451SOL     OW 8251   0.966   6.932   4.826
 2451SOL    HW1 8252   1.048   6.985   4.847
 2451SOL    HW2 8253   0.990   6.854   4.768
 2452SOL     OW 8254   2.647   1.702   3.877
 2452SOL    HW1 8255   2.743   1.708   3.852
 2452SOL    HW2 8256   2.626   1.773   3.945
 2453SOL     OW 8257   1.108   1.504   6.469
 2453SOL    HW1 8258   1.132   1.410   6.444
 2453SOL    HW2 8259   1.183   1.544   6.522
 2454SOL     OW 8260   2.937   6.019   1.359
 2454SOL    HW1 8261   2.849   6.000   1.315
 2454SOL    HW2 8262   2.988   6.086   1.305
 2455SOL     OW 8263   3.843   2.497   1.076
 2455SOL    HW1 8264   3.749   2.466   1.095
 2455SOL    HW2 8265   3.907   2.434   1.120
 2456SOL     OW 8266   1.230   4.296   6.360
 2456SOL    HW1 8267   1.255   4.205   6.326
 2456SOL    HW2 8268   1.214   4.357   6.283
 2457SOL     OW 8269   4.831   2.360   4.819
 2457SOL    HW1 8270   4.888   2.435   4.853
 2457SOL    HW2 8271   4.820   2.291   4.891
 2458SOL     OW 8272   1.293   0.586   1.905
 2458SOL    HW1 8273   1.391   0.581   1.885
 2458SOL    HW2 8274   1.263   0.500   1.947
 2459SOL     OW 8275   2.578   6.277   1.186
 2459SOL    HW1 8276   2.600   6.371   1.211
 2459SOL    HW2 8277   2.540   6.275   1.094
 2460SOL     OW 8278   1.505   1.381   5.222
 2460SOL    HW1 8279   1.468   1.296   5.185
 2460SOL    HW2 8280   1.604   1.384   5.207
 2461SOL     OW 8281   4.418   1.055   3.891
 2461SOL    HW1 8282   4.319   1.039   3.895
 2461SOL    HW2 8283   4.440   1.139   3.940
 2462SOL     OW 8284   0.102   3.902   0.744
 2462SOL    HW1 8285   0.159   3.908   0.662
 2462SOL    HW2 8286   0.074   3.807   0.758
 2463SOL     OW 8287   6.782   0.781   6.775
 2463SOL    HW1 8288   6.719   0.804   6.700
 2463SOL    HW2 8289   6.849   0.715   6.742
 2464SOL     OW 8290   0.177   2.179   2.615
 2464SOL    HW1 8291   0.127   2.135   2.541
 2464SOL    HW2 8292   0.217   2.108   2.675
 2465SOL     OW 8293   0.418   5.079   5.558
 2465SOL    HW1 8294   0.464   5.151   5.506
 2465SOL    HW2 8295   0.487   5.020   5.601
 2466SOL     OW 8296   0.636   2.485   1.694
 2466SOL    HW1 8297   0.557   2.462   1.750
 2466SOL    HW2 8298   0.679   2.568   1.728
 2467SOL     OW 8299   5.762   2.130   5.601
 2467SOL    HW1 8300   5.731   2.214   5.557
 2467SOL    HW2 8301   5.705   2.054   5.571
 2468SOL     OW 8302   3.493   6.564   5.737
 2468SOL    HW1 8303   3.520   6.501   5.810
 2468SOL    HW2 8304   3.399   6.545   5.709
 2469SOL     OW 8305   3.207   2.657   5.968
 2469SOL    HW1 8306   3.230   2.638   6.064
 2469SOL    HW2 8307   3.152   2.582   5.932
 2470SOL     OW 8308   2.949   4.987   6.497
 2470SOL    HW1 8309   2.921   4.993   6.592
 2470SOL    HW2 8310   3.048   4.970   6.492
 2471SOL     OW 8311   3.893   5.821   1.335
 2471SOL    HW1 8312   3.917   5.887   1.264
 2471SOL    HW2 8313   3.799   5.838   1.366
 2472SOL     OW 8314   4.875   1.886   4.176
 2472SOL    HW1 8315   4.967   1.915   4.205
 2472SOL    HW2 8316   4.866   1.899   4.077
 2473SOL     OW 8317   0.605   4.352   4.921
 2473SOL    HW1 8318   0.679   4.325   4.982
 2473SOL    HW2 8319   0.530   4.286   4.928
 2474SOL     OW 8320   1.213   5.709   1.519
 2474SOL    HW1 8321   1.200   5.778   1.447
 2474SOL    HW2 8322   1.309   5.707   1.547
 2475SOL     OW 8323   5.006   0.163   0.625
 2475SOL    HW1 8324   4.907   0.156   0.618
 2475SOL    HW2 8325   5.032   0.259   0.634
 2476SOL     OW 8326   5.529   0.695   6.849
 2476SOL    HW1 8327   5.622   0.683   6.886
 2476SOL    HW2 8328   5.483   0.769   6.898
 2477SOL     OW 8329   3.673   0.222   3.602
 2477SOL    HW1 8330   3.742   0.150   3.610
 2477SOL    HW2 8331   3.685   0.287   3.677
 2478SOL     OW 8332   4.809   1.018   3.407
 2478SOL    HW1 8333   4.759   0.971   3.480
 2478SOL    HW2 8334   4.781   1.113   3.403
 2479SOL     OW 8335   0.513   4.207   0.060
 2479SOL    HW1 8336   0.462   4.204   0.146
 2479SOL    HW2 8337   0.450   4.215   7.005
 2480SOL     OW 8338   3.388   2.528   1.285
 2480SOL    HW1 8339   3.396   2.520   1.384
 2480SOL    HW2 8340   3.293   2.521   1.257
 2481SOL     OW 8341   3.171   0.394   0.627
 2481SOL    HW1 8342   3.185   0.380   0.529
 2481SOL    HW2 8343   3.075   0.415   0.644
 2482SOL     OW 8344   5.142   3.207   0.150
 2482SOL    HW1 8345   5.141   3.233   0.053
 2482SOL    HW2 8346   5.185   3.279   0.204
 2483SOL     OW 8347   0.867   2.127   0.884
 2483SOL    HW1 8348   0.817   2.137   0.970
 2483SOL    HW2 8349   0.817   2.063   0.825
 2484SOL     OW 8350   5.593   1.766   1.832
 2484SOL    HW1 8351   5.608   1.863   1.813
 2484SOL    HW2 8352   5.496   1.749   1.847
 2485SOL     OW 8353   5.103   2.665   6.010
 2485SOL    HW1 8354   5.193   2.683   6.051
 2485SOL    HW2 8355   5.043   2.744   6.025
 2486SOL     OW 8356   0.570   3.850   5.229
 2486SOL    HW1 8357   0.566   3.751   5.243
 2486SOL    HW2 8358   0.666   3.879   5.226
 2487SOL     OW 8359   4.547   6.304   0.088
 2487SOL    HW1 8360   4.452   6.275   0.095
 2487SOL    HW2 8361   4.607   6.226   0.107
 2488SOL     OW 8362   6.918   4.032   1.672
 2488SOL    HW1 8363   6.897   4.077   1.759
 2488SOL    HW2 8364   7.014   4.048   1.649
 2489SOL     OW 8365   0.577   5.994   4.378
 2489SOL    HW1 8366   0.533   6.058   4.441
 2489SOL    HW2 8367   0.654   6.039   4.333
 2490SOL     OW 8368   3.110   5.731   2.180
 2490SOL    HW1 8369   3.026   5.698   2.137
 2490SOL    HW2 8370   3.181   5.660   2.171
 2491SOL     OW 8371   3.828   4.439   1.605
 2491SOL    HW1 8372   3.729   4.436   1.590
 2491SOL    HW2 8373   3.859   4.352   1.641
 2492SOL     OW 8374   6.212   4.006   0.799
 2492SOL    HW1 8375   6.279   4.037   0.867
 2492SOL    HW2 8376   6.191   3.909   0.815
 2493SOL     OW 8377   6.829   6.475   1.749
 2493SOL    HW1 8378   6.815   6.502   1.654
 2493SOL    HW2 8379   6.926   6.483   1.771
 2494SOL     OW 8380   5.918   2.400   1.489
 2494SOL    HW1 8381   5.993   2.407   1.422
 2494SOL    HW2 8382   5.954   2.367   1.576
 2495SOL     OW 8383   6.436   5.571   3.581
 2495SOL    HW1 8384   6.382   5.576   3.497
 2495SOL    HW2 8385   6.525   5.615   3.566
 2496SOL     OW 8386   6.361   4.982   6.744
 2496SOL    HW1 8387   6.385   4.914   6.813
 2496SOL    HW2 8388   6.303   5.052   6.785
 2497SOL     OW 8389   0.240   6.479   2.228
 2497SOL    HW1 8390   0.202   6.550   2.286
 2497SOL    HW2 8391   0.330   6.452   2.261
 2498SOL     OW 8392   2.065   3.076   5.260
 2498SOL    HW1 8393   2.005   2.999   5.281
 2498SOL    HW2 8394   2.149   3.069   5.314
 2499SOL     OW 8395   6.127   3.470   1.104
 2499SOL    HW1 8396   6.176   3.385   1.125
 2499SOL    HW2 8397   6.044   3.475   1.160
 2500SOL     OW 8398   3.370   3.959   6.623
 2500SOL    HW1 8399   3.464   3.926   6.608
 2500SOL    HW2 8400   3.371   4.031   6.693
 2501SOL     OW 8401   5.681   5.405   0.424
 2501SOL    HW1 8402   5.738   5.486   0.410
 2501SOL    HW2 8403   5.632   5.413   0.511
 2502SOL     OW 8404   2.602   5.655   4.170
 2502SOL    HW1 8405   2.539   5.698   4.234
 2502SOL    HW2 8406   2.591   5.555   4.174
 2503SOL     OW 8407   2.691   0.240   5.051
 2503SOL    HW1 8408   2.661   0.164   5.110
 2503SOL    HW2 8409   2.783   0.221   5.016
 2504SOL     OW 8410   3.107   5.731   2.712
 2504SOL    HW1 8411   3.119   5.825   2.744
 2504SOL    HW2 8412   3.174   5.672   2.757
 2505SOL     OW 8413   6.913   5.841   2.603
 2505SOL    HW1 8414   6.859   5.883   2.530
 2505SOL    HW2 8415   6.964   5.763   2.565
 2506SOL     OW 8416   5.946   4.413   5.982
 2506SOL    HW1 8417   5.933   4.506   6.017
 2506SOL    HW2 8418   5.889   4.399   5.902
 2507SOL     OW 8419   7.015   3.636   0.334
 2507SOL    HW1 8420   6.917   3.628   0.315
 2507SOL    HW2 8421   0.045   3.589   0.262
 2508SOL     OW 8422   2.991   2.014   4.854
 2508SOL    HW1 8423   2.987   1.923   4.896
 2508SOL    HW2 8424   3.081   2.055   4.870
 2509SOL     OW 8425   6.587   3.493   6.152
 2509SOL    HW1 8426   6.667   3.530   6.106
 2509SOL    HW2 8427   6.505   3.542   6.123
 2510SOL     OW 8428   3.230   3.952   1.620
 2510SOL    HW1 8429   3.319   3.939   1.577
 2510SOL    HW2 8430   3.239   4.009   1.702
 2511SOL     OW 8431   2.424   0.721   5.043
 2511SOL    HW1 8432   2.443   0.671   5.128
 2511SOL    HW2 8433   2.375   0.805   5.063
 2512SOL     OW 8434   3.705   4.565   5.300
 2512SOL    HW1 8435   3.631   4.629   5.276
 2512SOL    HW2 8436   3.692   4.479   5.251
 2513SOL     OW 8437   1.874   6.492   5.815
 2513SOL    HW1 8438   1.872   6.454   5.907
 2513SOL    HW2 8439   1.781   6.509   5.783
 2514SOL     OW 8440   1.081   2.861   3.704
 2514SOL    HW1 8441   1.112   2.817   3.620
 2514SOL    HW2 8442   1.147   2.930   3.732
 2515SOL     OW 8443   1.955   0.735   1.059
 2515SOL    HW1 8444   1.936   0.798   1.133
 2515SOL    HW2 8445   1.869   0.710   1.014
 2516SOL     OW 8446   5.241   1.599   3.735
 2516SOL    HW1 8447   5.281   1.508   3.725
 2516SOL    HW2 8448   5.243   1.626   3.831
 2517SOL     OW 8449   1.125   0.896   4.940
 2517SOL    HW1 8450   1.223   0.880   4.928
 2517SOL    HW2 8451   1.107   0.922   5.035
 2518SOL     OW 8452   2.522   4.692   0.867
 2518SOL    HW1 8453   2.594   4.675   0.799
 2518SOL    HW2 8454   2.562   4.732   0.949
 2519SOL     OW 8455   2.448   1.273   1.397
 2519SOL    HW1 8456   2.535   1.305   1.434
 2519SOL    HW2 8457   2.382   1.349   1.395
 2520SOL     OW 8458   3.133   2.615   0.912
 2520SOL    HW1 8459   3.097   2.590   0.822
 2520SOL    HW2 8460   3.233   2.619   0.908
 2521SOL     OW 8461   3.941   1.669   5.011
 2521SOL    HW1 8462   3.983   1.581   4.989
 2521SOL    HW2 8463   3.917   1.717   4.927
 2522SOL     OW 8464   0.904   1.744   5.347
 2522SOL    HW1 8465   0.916   1.723   5.250
 2522SOL    HW2 8466   0.833   1.685   5.386
 2523SOL     OW 8467   1.850   4.705   0.632
 2523SOL    HW1 8468   1.809   4.714   0.722
 2523SOL    HW2 8469   1.889   4.613   0.621
 2524SOL     OW 8470   1.832   6.760   4.279
 2524SOL    HW1 8471   1.733   6.750   4.282
 2524SOL    HW2 8472   1.857   6.856   4.292
 2525SOL     OW 8473   0.826   3.343   4.341
 2525SOL    HW1 8474   0.854   3.438   4.357
 2525SOL    HW2 8475   0.906   3.288   4.316
 2526SOL     OW 8476   1.244   5.418   6.684
 2526SOL    HW1 8477   1.312   5.463   6.742
 2526SOL    HW2 8478   1.180   5.366   6.740
 2527SOL     OW 8479   5.491   5.869   5.782
 2527SOL    HW1 8480   5.468   5.895   5.876
 2527SOL    HW2 8481   5.558   5.795   5.783
 2528SOL     OW 8482   5.018   5.122   5.764
 2528SOL    HW1 8483   5.005   5.134   5.863
 2528SOL    HW2 8484   5.110   5.149   5.739
 2529SOL     OW 8485   0.437   6.857   6.289
 2529SOL    HW1 8486   0.392   6.914   6.221
 2529SOL    HW2 8487   0.536   6.858   6.275
 2530SOL     OW 8488   2.556   5.722   5.411
 2530SOL    HW1 8489   2.613   5.681   5.483
 2530SOL    HW2 8490   2.541   5.655   5.339
 2531SOL     OW 8491   6.128   5.483   5.566
 2531SOL    HW1 8492   6.172   5.537   5.494
 2531SOL    HW2 8493   6.060   5.539   5.614
 2532SOL     OW 8494   1.110   6.289   1.339
 2532SOL    HW1 8495   1.204   6.278   1.369
 2532SOL    HW2 8496   1.055   6.212   1.371
 2533SOL     OW 8497   5.057   1.219   3.339
 2533SOL    HW1 8498   5.043   1.318   3.336
 2533SOL    HW2 8499   5.045   1.187   3.433
 2534SOL     OW 8500   4.811   1.636   1.667
 2534SOL    HW1 8501   4.793   1.733   1.681
 2534SOL    HW2 8502   4.902   1.624   1.626
 2535SOL     OW 8503   3.636   2.409   6.498
 2535SOL    HW1 8504   3.606   2.502   6.516
 2535SOL    HW2 8505   3.661   2.365   6.585
 2536SOL     OW 8506   1.851   0.476   6.947
 2536SOL    HW1 8507   1.862   0.499   6.851
 2536SOL    HW2 8508   1.754   0.479   6.971
 2537SOL     OW 8509   3.579   0.511   6.376
 2537SOL    HW1 8510   3.629   0.435   6.336
 2537SOL    HW2 8511   3.594   0.512   6.475
 2538SOL     OW 8512   0.052   3.483   3.556
 2538SOL    HW1 8513   0.088   3.561   3.607
 2538SOL    HW2 8514   0.031   3.511   3.462
 2539SOL     OW 8515   6.050   1.078   4.011
 2539SOL    HW1 8516   6.014   1.047   4.099
 2539SOL    HW2 8517   6.102   1.162   4.024
 2540SOL     OW 8518   3.985   1.789   2.921
 2540SOL    HW1 8519   4.046   1.714   2.895
 2540SOL    HW2 8520   3.974   1.851   2.843
 2541SOL     OW 8521   2.740   0.309   4.519
 2541SOL    HW1 8522   2.810   0.342   4.457
 2541SOL    HW2 8523   2.729   0.373   4.595
 2542SOL     OW 8524   1.794   4.371   6.714
 2542SOL    HW1 8525   1.832   4.291   6.761
 2542SOL    HW2 8526   1.758   4.436   6.781
 2543SOL     OW 8527   0.743   1.785   4.400
 2543SOL    HW1 8528   0.766   1.751   4.309
 2543SOL    HW2 8529   0.792   1.870   4.416
 2544SOL     OW 8530   0.842   5.328   1.171
 2544SOL    HW1 8531   0.760   5.272   1.159
 2544SOL    HW2 8532   0.842   5.402   1.104
 2545SOL     OW 8533   1.439   0.115   2.393
 2545SOL    HW1 8534   1.452   0.016   2.396
 2545SOL    HW2 8535   1.493   0.159   2.465
 2546SOL     OW 8536   5.604   1.509   0.711
 2546SOL    HW1 8537   5.513   1.470   0.722
 2546SOL    HW2 8538   5.671   1.450   0.756
 2547SOL     OW 8539   0.199   3.317   6.312
 2547SOL    HW1 8540   0.288   3.360   6.325
 2547SOL    HW2 8541   0.207   3.246   6.242
 2548SOL     OW 8542   0.979   6.280   4.473
 2548SOL    HW1 8543   1.071   6.246   4.491
 2548SOL    HW2 8544   0.912   6.216   4.511
 2549SOL     OW 8545   0.430   0.339   1.564
 2549SOL    HW1 8546   0.380   0.265   1.520
 2549SOL    HW2 8547   0.368   0.393   1.621
 2550SOL     OW 8548   6.235   6.719   0.513
 2550SOL    HW1 8549   6.198   6.806   0.544
 2550SOL    HW2 8550   6.313   6.693   0.570
 2551SOL     OW 8551   2.516   4.448   6.629
 2551SOL    HW1 8552   2.444   4.491   6.574
 2551SOL    HW2 8553   2.605   4.476   6.594
 2552SOL     OW 8554   2.691   4.679   3.970
 2552SOL    HW1 8555   2.780   4.725   3.960
 2552SOL    HW2 8556   2.657   4.652   3.880
 2553SOL     OW 8557   4.077   3.975   6.005
 2553SOL    HW1 8558   4.151   4.043   6.005
 2553SOL    HW2 8559   4.074   3.929   5.916
 2554SOL     OW 8560   2.072   1.982   1.159
 2554SOL    HW1 8561   2.115   1.898   1.125
 2554SOL    HW2 8562   1.981   1.960   1.194
 2555SOL     OW 8563   5.159   2.909   4.424
 2555SOL    HW1 8564   5.135   2.968   4.347
 2555SOL    HW2 8565   5.142   2.813   4.398
 2556SOL     OW 8566   4.071   6.065   0.492
 2556SOL    HW1 8567   4.000   6.041   0.426
 2556SOL    HW2 8568   4.033   6.126   0.562
 2557SOL     OW 8569   1.958   3.891   6.706
 2557SOL    HW1 8570   2.055   3.914   6.707
 2557SOL    HW2 8571   1.908   3.954   6.766
 2558SOL     OW 8572   5.034   1.508   5.987
 2558SOL    HW1 8573   4.963   1.541   5.926
 2558SOL    HW2 8574   5.115   1.566   5.979
 2559SOL     OW 8575   0.512   4.442   5.716
 2559SOL    HW1 8576   0.496   4.450   5.815
 2559SOL    HW2 8577   0.424   4.436   5.669
 2560SOL     OW 8578   6.315   2.288   6.196
 2560SOL    HW1 8579   6.289   2.297   6.100
 2560SOL    HW2 8580   6.237   2.312   6.254
 2561SOL     OW 8581   3.412   4.946   4.722
 2561SOL    HW1 8582   3.425   5.045   4.712
 2561SOL    HW2 8583   3.399   4.924   4.819
 2562SOL     OW 8584   2.182   4.217   0.491
 2562SOL    HW1 8585   2.176   4.271   0.575
 2562SOL    HW2 8586   2.094   4.173   0.474
 2563SOL     OW 8587   2.825   0.758   6.834
 2563SOL    HW1 8588   2.913   0.791   6.799
 2563SOL    HW2 8589   2.752   0.790   6.774
 2564SOL     OW 8590   1.531   5.901   0.618
 2564SOL    HW1 8591   1.520   5.867   0.711
 2564SOL    HW2 8592   1.625   5.929   0.603
 2565SOL     OW 8593   1.226   0.869   1.052
 2565SOL    HW1 8594   1.169   0.838   0.975
 2565SOL    HW2 8595   1.214   0.967   1.064
 2566SOL     OW 8596   2.272   6.771   0.705
 2566SOL    HW1 8597   2.237   6.721   0.784
 2566SOL    HW2 8598   2.295   6.706   0.632
 2567SOL     OW 8599   1.701   0.076   0.636
 2567SOL    HW1 8600   1.768   0.151   0.639
 2567SOL    HW2 8601   1.744   7.016   0.598
 2568SOL     OW 8602   4.070   1.693   6.878
 2568SOL    HW1 8603   4.046   1.715   6.973
 2568SOL    HW2 8604   4.134   1.761   6.843
 2569SOL     OW 8605   3.664   1.000   3.935
 2569SOL    HW1 8606   3.735   0.929   3.941
 2569SOL    HW2 8607   3.574   0.958   3.937
 2570SOL     OW 8608   5.793   1.053   5.519
 2570SOL    HW1 8609   5.879   1.101   5.532
 2570SOL    HW2 8610   5.718   1.109   5.553
 2571SOL     OW 8611   1.427   5.314   3.885
 2571SOL    HW1 8612   1.346   5.351   3.839
 2571SOL    HW2 8613   1.446   5.223   3.850
 2572SOL     OW 8614   2.845   5.195   3.102
 2572SOL    HW1 8615   2.918   5.226   3.163
 2572SOL    HW2 8616   2.866   5.220   3.008
 2573SOL     OW 8617   0.337   1.292   1.126
 2573SOL    HW1 8618   0.414   1.354   1.140
 2573SOL    HW2 8619   0.319   1.283   1.028
 2574SOL     OW 8620   6.211   3.235   0.483
 2574SOL    HW1 8621   6.195   3.204   0.390
 2574SOL    HW2 8622   6.232   3.157   0.542
 2575SOL     OW 8623   6.554   5.930   6.943
 2575SOL    HW1 8624   6.609   6.013   6.945
 2575SOL    HW2 8625   6.612   5.852   6.919
 2576SOL     OW 8626   4.706   6.605   4.052
 2576SOL    HW1 8627   4.791   6.594   4.102
 2576SOL    HW2 8628   4.680   6.701   4.048
 2577SOL     OW 8629   3.093   4.876   2.339
 2577SOL    HW1 8630   3.185   4.837   2.341
 2577SOL    HW2 8631   3.060   4.890   2.433
 2578SOL     OW 8632   3.481   1.694   4.482
 2578SOL    HW1 8633   3.421   1.729   4.555
 2578SOL    HW2 8634   3.574   1.686   4.518
 2579SOL     OW 8635   0.731   6.728   3.613
 2579SOL    HW1 8636   0.804   6.762   3.672
 2579SOL    HW2 8637   0.756   6.742   3.517
 2580SOL     OW 8638   2.581   4.221   0.376
 2580SOL    HW1 8639   2.647   4.292   0.351
 2580SOL    HW2 8640   2.629   4.136   0.397
 2581SOL     OW 8641   2.931   6.701   5.750
 2581SOL    HW1 8642   2.846   6.695   5.801
 2581SOL    HW2 8643   2.974   6.791   5.766
 2582SOL     OW 8644   6.350   3.523   1.449
 2582SOL    HW1 8645   6.434   3.540   1.501
 2582SOL    HW2 8646   6.303   3.609   1.432
 2583SOL     OW 8647   6.404   6.907   0.970
 2583SOL    HW1 8648   6.497   6.894   1.005
 2583SOL    HW2 8649   6.359   6.818   0.962
 2584SOL     OW 8650   4.778   4.823   5.551
 2584SOL    HW1 8651   4.877   4.814   5.550
 2584SOL    HW2 8652   4.741   4.792   5.464
 2585SOL     OW 8653   3.102   5.434   6.755
 2585SOL    HW1 8654   3.112   5.345   6.800
 2585SOL    HW2 8655   3.149   5.432   6.666
 2586SOL     OW 8656   2.235   0.292   5.126
 2586SOL    HW1 8657   2.192   0.346   5.198
 2586SOL    HW2 8658   2.287   0.217   5.167
 2587SOL     OW 8659   0.516   1.253   2.956
 2587SOL    HW1 8660   0.519   1.153   2.948
 2587SOL    HW2 8661   0.607   1.291   2.939
 2588SOL     OW 8662   4.240   2.043   5.212
 2588SOL    HW1 8663   4.166   2.022   5.148
 2588SOL    HW2 8664   4.325   2.002   5.179
 2589SOL     OW 8665   1.360   6.143   6.926
 2589SOL    HW1 8666   1.419   6.224   6.924
 2589SOL    HW2 8667   1.406   6.068   6.878
 2590SOL     OW 8668   2.663   4.826   0.164
 2590SOL    HW1 8669   2.749   4.780   0.140
 2590SOL    HW2 8670   2.616   4.853   0.080
 2591SOL     OW 8671   6.560   5.535   4.023
 2591SOL    HW1 8672   6.490   5.512   4.090
 2591SOL    HW2 8673   6.610   5.616   4.054
 2592SOL     OW 8674   2.472   4.408   6.318
 2592SOL    HW1 8675   2.395   4.347   6.298
 2592SOL    HW2 8676   2.556   4.353   6.325
 2593SOL     OW 8677   2.748   5.669   0.681
 2593SOL    HW1 8678   2.718   5.577   0.657
 2593SOL    HW2 8679   2.765   5.721   0.597
 2594SOL     OW 8680   1.915   4.336   5.040
 2594SOL    HW1 8681   1.952   4.413   4.987
 2594SOL    HW2 8682   1.986   4.267   5.053
 2595SOL     OW 8683   1.670   1.164   4.379
 2595SOL    HW1 8684   1.753   1.212   4.410
 2595SOL    HW2 8685   1.652   1.087   4.440
 2596SOL     OW 8686   1.472   2.456   0.876
 2596SOL    HW1 8687   1.377   2.462   0.847
 2596SOL    HW2 8688   1.528   2.419   0.802
 2597SOL     OW 8689   0.770   6.070   6.318
 2597SOL    HW1 8690   0.860   6.040   6.350
 2597SOL    HW2 8691   0.781   6.130   6.239
 2598SOL     OW 8692   5.774   2.057   2.024
 2598SOL    HW1 8693   5.752   2.067   1.927
 2598SOL    HW2 8694   5.690   2.054   2.077
 2599SOL     OW 8695   3.015   6.977   2.396
 2599SOL    HW1 8696   2.970   6.891   2.421
 2599SOL    HW2 8697   3.114   6.963   2.391
 2600SOL     OW 8698   6.449   4.588   4.495
 2600SOL    HW1 8699   6.413   4.592   4.401
 2600SOL    HW2 8700   6.406   4.512   4.544
 2601SOL     OW 8701   1.251   2.099   2.411
 2601SOL    HW1 8702   1.325   2.156   2.446
 2601SOL    HW2 8703   1.165   2.125   2.455
 2602SOL     OW 8704   1.944   4.838   4.523
 2602SOL    HW1 8705   2.042   4.830   4.543
 2602SOL    HW2 8706   1.926   4.810   4.429
 2603SOL     OW 8707   2.682   1.129   2.811
 2603SOL    HW1 8708   2.733   1.077   2.742
 2603SOL    HW2 8709   2.598   1.164   2.770
 2604SOL     OW 8710   5.512   1.968   2.404
 2604SOL    HW1 8711   5.452   1.897   2.442
 2604SOL    HW2 8712   5.602   1.962   2.448
 2605SOL     OW 8713   1.288   3.566   1.863
 2605SOL    HW1 8714   1.206   3.525   1.824
 2605SOL    HW2 8715   1.368   3.512   1.837
 2606SOL     OW 8716   4.333   4.378   0.767
 2606SOL    HW1 8717   4.243   4.412   0.795
 2606SOL    HW2 8718   4.378   4.336   0.846
 2607SOL     OW 8719   2.316   1.859   0.881
 2607SOL    HW1 8720   2.278   1.777   0.925
 2607SOL    HW2 8721   2.362   1.915   0.949
 2608SOL     OW 8722   2.849   6.045   6.293
 2608SOL    HW1 8723   2.807   6.133   6.270
 2608SOL    HW2 8724   2.868   6.041   6.391
 2609SOL     OW 8725   0.618   0.192   1.120
 2609SOL    HW1 8726   0.535   0.243   1.096
 2609SOL    HW2 8727   0.615   0.101   1.078
 2610SOL     OW 8728   1.070   4.931   4.344
 2610SOL    HW1 8729   1.153   4.971   4.307
 2610SOL    HW2 8730   1.093   4.849   4.397
 2611SOL     OW 8731   5.431   6.497   6.739
 2611SOL    HW1 8732   5.373   6.444   6.801
 2611SOL    HW2 8733   5.460   6.581   6.785
 2612SOL     OW 8734   5.751   0.356   5.477
 2612SOL    HW1 8735   5.831   0.414   5.491
 2612SOL    HW2 8736   5.770   0.263   5.509
 2613SOL     OW 8737   0.837   5.940   6.713
 2613SOL    HW1 8738   0.855   5.886   6.631
 2613SOL    HW2 8739   0.787   5.884   6.779
 2614SOL     OW 8740   6.415   0.664   6.390
 2614SOL    HW1 8741   6.481   0.725   6.435
 2614SOL    HW2 8742   6.457   0.621   6.311
 2615SOL     OW 8743   1.070   3.557   0.705
 2615SOL    HW1 8744   1.164   3.555   0.672
 2615SOL    HW2 8745   1.065   3.514   0.795
 2616SOL     OW 8746   1.630   0.284   5.562
 2616SOL    HW1 8747   1.569   0.348   5.610
 2616SOL    HW2 8748   1.628   0.195   5.608
 2617SOL     OW 8749   5.630   0.394   0.677
 2617SOL    HW1 8750   5.564   0.321   0.661
 2617SOL    HW2 8751   5.624   0.462   0.603
 2618SOL     OW 8752   2.108   6.265   5.981
 2618SOL    HW1 8753   2.043   6.335   6.012
 2618SOL    HW2 8754   2.200   6.290   6.011
 2619SOL     OW 8755   4.725   1.466   2.025
 2619SOL    HW1 8756   4.791   1.523   2.073
 2619SOL    HW2 8757   4.654   1.525   1.985
 2620SOL     OW 8758   0.342   6.541   2.001
 2620SOL    HW1 8759   0.299   6.497   2.080
 2620SOL    HW2 8760   0.426   6.588   2.030
 2621SOL     OW 8761   1.527   6.221   2.728
 2621SOL    HW1 8762   1.589   6.232   2.806
 2621SOL    HW2 8763   1.438   6.261   2.750
 2622SOL     OW 8764   3.393   3.629   6.540
 2622SOL    HW1 8765   3.332   3.578   6.600
 2622SOL    HW2 8766   3.340   3.685   6.477
 2623SOL     OW 8767   1.051   6.769   4.148
 2623SOL    HW1 8768   1.069   6.701   4.078
 2623SOL    HW2 8769   0.963   6.814   4.130
 2624SOL     OW 8770   0.239   2.598   4.185
 2624SOL    HW1 8771   0.328   2.640   4.199
 2624SOL    HW2 8772   0.169   2.649   4.236
 2625SOL     OW 8773   1.795   5.294   5.183
 2625SOL    HW1 8774   1.778   5.216   5.243
 2625SOL    HW2 8775   1.803   5.262   5.089
 2626SOL     OW 8776   6.615   5.469   6.086
 2626SOL    HW1 8777   6.637   5.429   6.175
 2626SOL    HW2 8778   6.606   5.397   6.018
 2627SOL     OW 8779   1.508   6.960   5.590
 2627SOL    HW1 8780   1.460   6.904   5.523
 2627SOL    HW2 8781   1.450   0.016   5.616
 2628SOL     OW 8782   1.770   4.040   2.006
 2628SOL    HW1 8783   1.718   3.998   2.080
 2628SOL    HW2 8784   1.779   4.138   2.022
 2629SOL     OW 8785   3.386   4.148   3.416
 2629SOL    HW1 8786   3.463   4.164   3.353
 2629SOL    HW2 8787   3.308   4.113   3.365
 2630SOL     OW 8788   3.620   0.824   4.296
 2630SOL    HW1 8789   3.554   0.859   4.230
 2630SOL    HW2 8790   3.653   0.898   4.354
 2631SOL     OW 8791   5.877   0.981   0.123
 2631SOL    HW1 8792   5.939   0.904   0.137
 2631SOL    HW2 8793   5.804   0.977   0.191
 2632SOL     OW 8794   5.577   4.493   2.065
 2632SOL    HW1 8795   5.619   4.579   2.095
 2632SOL    HW2 8796   5.526   4.508   1.981
 2633SOL     OW 8797   0.190   2.738   5.879
 2633SOL    HW1 8798   0.092   2.757   5.879
 2633SOL    HW2 8799   0.240   2.824   5.877
 2634SOL     OW 8800   6.239   0.345   5.568
 2634SOL    HW1 8801   6.211   0.385   5.481
 2634SOL    HW2 8802   6.179   0.379   5.641
 2635SOL     OW 8803   5.970   5.399   4.152
 2635SOL    HW1 8804   5.979   5.438   4.060
 2635SOL    HW2 8805   6.033   5.445   4.214
 2636SOL     OW 8806   4.349   6.927   6.176
 2636SOL    HW1 8807   4.297   6.868   6.114
 2636SOL    HW2 8808   4.378   7.010   6.128
 2637SOL     OW 8809   1.754   1.882   3.223
 2637SOL    HW1 8810   1.799   1.866   3.311
 2637SOL    HW2 8811   1.782   1.971   3.187
 2638SOL     OW 8812   1.581   6.774   4.336
 2638SOL    HW1 8813   1.615   6.777   4.430
 2638SOL    HW2 8814   1.512   6.702   4.329
 2639SOL     OW 8815   4.098   4.821   5.164
 2639SOL    HW1 8816   4.051   4.825   5.076
 2639SOL    HW2 8817   4.043   4.768   5.229
 2640SOL     OW 8818   1.547   6.478   4.653
 2640SOL    HW1 8819   1.467   6.534   4.675
 2640SOL    HW2 8820   1.528   6.423   4.572
 2641SOL     OW 8821   5.497   2.478   6.500
 2641SOL    HW1 8822   5.418   2.515   6.452
 2641SOL    HW2 8823   5.477   2.471   6.598
 2642SOL     OW 8824   6.932   1.581   3.979
 2642SOL    HW1 8825   6.959   1.660   4.035
 2642SOL    HW2 8826   6.888   1.513   4.038
 2643SOL     OW 8827   1.719   4.470   3.504
 2643SOL    HW1 8828   1.698   4.375   3.484
 2643SOL    HW2 8829   1.741   4.480   3.601
 2644SOL     OW 8830   5.219   5.222   4.693
 2644SOL    HW1 8831   5.311   5.257   4.710
 2644SOL    HW2 8832   5.152   5.277   4.744
 2645SOL     OW 8833   5.274   5.079   3.371
 2645SOL    HW1 8834   5.311   5.016   3.302
 2645SOL    HW2 8835   5.301   5.049   3.462
 2646SOL     OW 8836   0.316   2.981   5.784
 2646SOL    HW1 8837   0.399   2.944   5.742
 2646SOL    HW2 8838   0.341   3.052   5.850
 2647SOL     OW 8839   5.000   0.073   1.896
 2647SOL    HW1 8840   5.031   0.026   1.814
 2647SOL    HW2 8841   4.994   0.007   1.971
 2648SOL     OW 8842   0.627   6.994   5.582
 2648SOL    HW1 8843   0.583   6.950   5.503
 2648SOL    HW2 8844   0.697   0.037   5.549
 2649SOL     OW 8845   4.917   2.718   1.847
 2649SOL    HW1 8846   4.942   2.815   1.846
 2649SOL    HW2 8847   4.918   2.683   1.753
 2650SOL     OW 8848   3.769   6.563   4.587
 2650SOL    HW1 8849   3.773   6.663   4.590
 2650SOL    HW2 8850   3.805   6.531   4.499
 2651SOL     OW 8851   3.878   2.137   5.062
 2651SOL    HW1 8852   3.941   2.188   5.122
 2651SOL    HW2 8853   3.905   2.041   5.060
 2652SOL     OW 8854   5.162   4.496   5.963
 2652SOL    HW1 8855   5.123   4.549   5.887
 2652SOL    HW2 8856   5.262   4.507   5.962
 2653SOL     OW 8857   3.075   6.503   0.085
 2653SOL    HW1 8858   3.009   6.463   0.149
 2653SOL    HW2 8859   3.072   6.454   7.020
 2654SOL     OW 8860   6.146   0.665   0.711
 2654SOL    HW1 8861   6.066   0.698   0.661
 2654SOL    HW2 8862   6.124   0.656   0.808
 2655SOL     OW 8863   4.766   5.522   2.884
 2655SOL    HW1 8864   4.756   5.594   2.815
 2655SOL    HW2 8865   4.837   5.458   2.855
 2656SOL     OW 8866   3.756   5.763   3.608
 2656SOL    HW1 8867   3.758   5.862   3.602
 2656SOL    HW2 8868   3.763   5.735   3.704
 2657SOL     OW 8869   1.793   3.659   0.216
 2657SOL    HW1 8870   1.762   3.576   0.168
 2657SOL    HW2 8871   1.795   3.642   0.314
 2658SOL     OW 8872   3.756   5.084   6.639
 2658SOL    HW1 8873   3.852   5.100   6.619
 2658SOL    HW2 8874   3.716   5.167   6.679
 2659SOL     OW 8875   6.634   2.443   4.162
 2659SOL    HW1 8876   6.636   2.374   4.090
 2659SOL    HW2 8877   6.721   2.443   4.212
 2660SOL     OW 8878   0.596   2.128   1.847
 2660SOL    HW1 8879   0.682   2.080   1.831
 2660SOL    HW2 8880   0.585   2.147   1.944
 2661SOL     OW 8881   2.094   1.258   0.605
 2661SOL    HW1 8882   2.051   1.347   0.614
 2661SOL    HW2 8883   2.121   1.243   0.509
 2662SOL     OW 8884   3.142   0.783   2.372
 2662SOL    HW1 8885   3.098   0.694   2.359
 2662SOL    HW2 8886   3.093   0.852   2.319
 2663SOL     OW 8887   4.604   6.717   0.138
 2663SOL    HW1 8888   4.666   6.768   0.198
 2663SOL    HW2 8889   4.556   6.648   0.191
 2664SOL     OW 8890   4.277   2.916   6.070
 2664SOL    HW1 8891   4.350   2.855   6.041
 2664SOL    HW2 8892   4.298   2.955   6.160
 2665SOL     OW 8893   1.867   3.738   5.138
 2665SOL    HW1 8894   1.847   3.789   5.222
 2665SOL    HW2 8895   1.956   3.768   5.102
 2666SOL     OW 8896   2.130   3.980   1.863
 2666SOL    HW1 8897   2.190   4.046   1.909
 2666SOL    HW2 8898   2.131   3.893   1.912
 2667SOL     OW 8899   6.458   3.699   4.529
 2667SOL    HW1 8900   6.423   3.724   4.439
 2667SOL    HW2 8901   6.528   3.628   4.519
 2668SOL     OW 8902   6.420   0.972   4.029
 2668SOL    HW1 8903   6.501   0.986   3.971
 2668SOL    HW2 8904   6.349   0.928   3.974
 2669SOL     OW 8905   2.392   0.874   6.986
 2669SOL    HW1 8906   2.434   0.923   0.041
 2669SOL    HW2 8907   2.369   0.780   7.014
 2670SOL     OW 8908   0.213   0.136   6.343
 2670SOL    HW1 8909   0.236   0.117   6.247
 2670SOL    HW2 8910   0.234   0.231   6.364
 2671SOL     OW 8911   4.190   4.982   6.165
 2671SOL    HW1 8912   4.200   4.899   6.220
 2671SOL    HW2 8913   4.281   5.014   6.137
 2672SOL     OW 8914   3.650   0.522   1.845
 2672SOL    HW1 8915   3.571   0.573   1.879
 2672SOL    HW2 8916   3.630   0.489   1.752
 2673SOL     OW 8917   4.713   0.771   2.795
 2673SOL    HW1 8918   4.701   0.682   2.839
 2673SOL    HW2 8919   4.771   0.829   2.853
 2674SOL     OW 8920   0.572   4.675   2.204
 2674SOL    HW1 8921   0.608   4.669   2.297
 2674SOL    HW2 8922   0.591   4.766   2.167
 2675SOL     OW 8923   5.854   0.487   4.894
 2675SOL    HW1 8924   5.803   0.550   4.954
 2675SOL    HW2 8925   5.794   0.457   4.820
 2676SOL     OW 8926   3.526   3.740   2.791
 2676SOL    HW1 8927   3.605   3.795   2.819
 2676SOL    HW2 8928   3.451   3.801   2.764
 2677SOL     OW 8929   2.206   5.121   1.467
 2677SOL    HW1 8930   2.252   5.202   1.430
 2677SOL    HW2 8931   2.127   5.098   1.411
 2678SOL     OW 8932   5.383   2.201   2.814
 2678SOL    HW1 8933   5.323   2.172   2.888
 2678SOL    HW2 8934   5.346   2.285   2.773
 2679SOL     OW 8935   2.073   4.741   3.660
 2679SOL    HW1 8936   2.136   4.795   3.716
 2679SOL    HW2 8937   2.004   4.801   3.620
 2680SOL     OW 8938   0.267   1.666   0.436
 2680SOL    HW1 8939   0.242   1.620   0.351
 2680SOL    HW2 8940   0.291   1.761   0.417
 2681SOL     OW 8941   1.960   2.389   5.474
 2681SOL    HW1 8942   1.884   2.433   5.522
 2681SOL    HW2 8943   2.013   2.458   5.425
 2682SOL     OW 8944   4.111   4.075   1.460
 2682SOL    HW1 8945   4.145   4.037   1.374
 2682SOL    HW2 8946   4.017   4.107   1.448
 2683SOL     OW 8947   2.577   4.683   2.579
 2683SOL    HW1 8948   2.664   4.732   2.576
 2683SOL    HW2 8949   2.562   4.637   2.491
 2684SOL     OW 8950   5.718   6.756   2.993
 2684SOL    HW1 8951   5.699   6.820   2.919
 2684SOL    HW2 8952   5.811   6.769   3.026
 2685SOL     OW 8953   1.625   5.758   5.598
 2685SOL    HW1 8954   1.570   5.793   5.522
 2685SOL    HW2 8955   1.581   5.782   5.685
 2686SOL     OW 8956   1.034   1.404   4.813
 2686SOL    HW1 8957   1.069   1.350   4.737
 2686SOL    HW2 8958   1.097   1.397   4.891
 2687SOL     OW 8959   3.842   1.348   1.743
 2687SOL    HW1 8960   3.864   1.260   1.700
 2687SOL    HW2 8961   3.886   1.353   1.832
 2688SOL     OW 8962   3.551   3.208   6.033
 2688SOL    HW1 8963   3.524   3.295   5.992
 2688SOL    HW2 8964   3.557   3.138   5.962
 2689SOL     OW 8965   1.347   3.464   2.631
 2689SOL    HW1 8966   1.281   3.445   2.557
 2689SOL    HW2 8967   1.423   3.518   2.595
 2690SOL     OW 8968   3.681   1.489   5.814
 2690SOL    HW1 8969   3.698   1.451   5.905
 2690SOL    HW2 8970   3.586   1.519   5.808
 2691SOL     OW 8971   6.913   4.479   4.132
 2691SOL    HW1 8972   6.843   4.441   4.072
 2691SOL    HW2 8973   6.907   4.436   4.222
 2692SOL     OW 8974   3.230   5.978   2.784
 2692SOL    HW1 8975   3.262   6.056   2.837
 2692SOL    HW2 8976   3.247   5.994   2.686
 2693SOL     OW 8977   2.103   5.581   3.261
 2693SOL    HW1 8978   2.139   5.525   3.186
 2693SOL    HW2 8979   2.052   5.523   3.324
 2694SOL     OW 8980   3.737   6.802   3.836
 2694SOL    HW1 8981   3.680   6.872   3.881
 2694SOL    HW2 8982   3.727   6.811   3.737
 2695SOL     OW 8983   0.291   5.504   3.566
 2695SOL    HW1 8984   0.352   5.580   3.540
 2695SOL    HW2 8985   0.254   5.461   3.484
 2696SOL     OW 8986   4.949   4.458   6.831
 2696SOL    HW1 8987   5.033   4.470   6.779
 2696SOL    HW2 8988   4.870   4.461   6.769
 2697SOL     OW 8989   3.483   2.176   0.347
 2697SOL    HW1 8990   3.474   2.082   0.311
 2697SOL    HW2 8991   3.441   2.181   0.437
 2698SOL     OW 8992   1.646   4.393   6.112
 2698SOL    HW1 8993   1.684   4.324   6.050
 2698SOL    HW2 8994   1.600   4.348   6.188
 2699SOL     OW 8995   3.416   6.342   2.265
 2699SOL    HW1 8996   3.486   6.270   2.265
 2699SOL    HW2 8997   3.373   6.347   2.355
 2700SOL     OW 8998   3.720   1.845   1.817
 2700SOL    HW1 8999   3.754   1.822   1.908
 2700SOL    HW2 9000   3.708   1.944   1.810
 2701SOL     OW 9001   5.411   3.088   4.982
 2701SOL    HW1 9002   5.429   3.007   4.927
 2701SOL    HW2 9003   5.352   3.151   4.931
 2702SOL     OW 9004   2.305   1.494   5.008
 2702SOL    HW1 9005   2.309   1.594   5.018
 2702SOL    HW2 9006   2.370   1.465   4.938
 2703SOL     OW 9007   1.144   0.133   1.893
 2703SOL    HW1 9008   1.151   0.222   1.937
 2703SOL    HW2 9009   1.097   0.142   1.805
 2704SOL     OW 9010   5.328   0.318   4.679
 2704SOL    HW1 9011   5.326   0.285   4.773
 2704SOL    HW2 9012   5.258   0.388   4.667
 2705SOL     OW 9013   6.886   0.127   5.183
 2705SOL    HW1 9014   6.806   0.088   5.138
 2705SOL    HW2 9015   6.903   0.078   5.268
 2706SOL     OW 9016   6.831   3.353   3.476
 2706SOL    HW1 9017   6.879   3.429   3.519
 2706SOL    HW2 9018   6.846   3.270   3.529
 2707SOL     OW 9019   3.842   0.566   3.355
 2707SOL    HW1 9020   3.905   0.630   3.309
 2707SOL    HW2 9021   3.755   0.566   3.307
 2708SOL     OW 9022   6.039   2.921   0.213
 2708SOL    HW1 9023   6.050   2.983   0.134
 2708SOL    HW2 9024   5.975   2.962   0.278
 2709SOL     OW 9025   4.495   1.258   4.082
 2709SOL    HW1 9026   4.437   1.204   4.142
 2709SOL    HW2 9027   4.543   1.328   4.136
 2710SOL     OW 9028   1.115   2.544   3.877
 2710SOL    HW1 9029   1.192   2.606   3.891
 2710SOL    HW2 9030   1.095   2.537   3.779
 2711SOL     OW 9031   3.250   2.108   2.142
 2711SOL    HW1 9032   3.228   2.181   2.207
 2711SOL    HW2 9033   3.330   2.135   2.087
 2712SOL     OW 9034   4.058   5.778   1.860
 2712SOL    HW1 9035   4.053   5.696   1.803
 2712SOL    HW2 9036   4.084   5.752   1.953
 2713SOL     OW 9037   3.223   4.780   6.726
 2713SOL    HW1 9038   3.165   4.730   6.790
 2713SOL    HW2 9039   3.319   4.757   6.743
 2714SOL     OW 9040   2.548   4.840   6.694
 2714SOL    HW1 9041   2.580   4.751   6.661
 2714SOL    HW2 9042   2.477   4.874   6.632
 2715SOL     OW 9043   4.250   0.840   0.947
 2715SOL    HW1 9044   4.218   0.905   1.016
 2715SOL    HW2 9045   4.335   0.797   0.979
 2716SOL     OW 9046   4.095   1.989   3.129
 2716SOL    HW1 9047   4.115   1.893   3.108
 2716SOL    HW2 9048   4.078   2.039   3.044
 2717SOL     OW 9049   0.934   0.821   2.976
 2717SOL    HW1 9050   0.998   0.796   2.904
 2717SOL    HW2 9051   0.977   0.889   3.036
 2718SOL     OW 9052   0.442   0.315   5.880
 2718SOL    HW1 9053   0.434   0.406   5.920
 2718SOL    HW2 9054   0.485   0.253   5.945
 2719SOL     OW 9055   2.103   3.457   2.421
 2719SOL    HW1 9056   2.145   3.430   2.334
 2719SOL    HW2 9057   2.116   3.555   2.435
 2720SOL     OW 9058   1.982   6.707   5.662
 2720SOL    HW1 9059   1.990   6.760   5.746
 2720SOL    HW2 9060   1.945   6.617   5.684
 2721SOL     OW 9061   3.438   6.167   1.734
 2721SOL    HW1 9062   3.436   6.122   1.645
 2721SOL    HW2 9063   3.373   6.123   1.796
 2722SOL     OW 9064   4.976   5.983   6.917
 2722SOL    HW1 9065   4.907   5.912   6.899
 2722SOL    HW2 9066   4.982   6.000   7.015
 2723SOL     OW 9067   2.843   6.750   0.268
 2723SOL    HW1 9068   2.751   6.787   0.274
 2723SOL    HW2 9069   2.856   6.682   0.341
 2724SOL     OW 9070   1.270   6.126   1.165
 2724SOL    HW1 9071   1.230   6.082   1.085
 2724SOL    HW2 9072   1.210   6.199   1.198
 2725SOL     OW 9073   5.383   3.678   5.160
 2725SOL    HW1 9074   5.415   3.589   5.130
 2725SOL    HW2 9075   5.459   3.730   5.199
 2726SOL     OW 9076   6.944   1.291   1.703
 2726SOL    HW1 9077   6.944   1.373   1.645
 2726SOL    HW2 9078   0.016   1.271   1.731
 2727SOL     OW 9079   1.476   4.064   4.470
 2727SOL    HW1 9080   1.416   4.052   4.550
 2727SOL    HW2 9081   1.426   4.039   4.387
 2728SOL     OW 9082   5.790   5.979   5.946
 2728SOL    HW1 9083   5.690   5.989   5.938
 2728SOL    HW2 9084   5.812   5.887   5.976
 2729SOL     OW 9085   5.531   5.945   6.316
 2729SOL    HW1 9086   5.626   5.916   6.303
 2729SOL    HW2 9087   5.527   6.044   6.324
 2730SOL     OW 9088   0.961   5.504   2.188
 2730SOL    HW1 9089   0.945   5.411   2.221
 2730SOL    HW2 9090   0.910   5.518   2.103
 2731SOL     OW 9091   3.375   3.568   4.105
 2731SOL    HW1 9092   3.297   3.579   4.044
 2731SOL    HW2 9093   3.355   3.499   4.174
 2732SOL     OW 9094   5.372   1.566   2.084
 2732SOL    HW1 9095   5.306   1.555   2.158
 2732SOL    HW2 9096   5.463   1.539   2.116
 2733SOL     OW 9097   1.130   0.270   6.008
 2733SOL    HW1 9098   1.139   0.231   6.099
 2733SOL    HW2 9099   1.101   0.199   5.944
 2734SOL     OW 9100   3.131   6.261   1.457
 2734SOL    HW1 9101   3.108   6.198   1.531
 2734SOL    HW2 9102   3.053   6.321   1.438
 2735SOL     OW 9103   0.638   1.274   1.740
 2735SOL    HW1 9104   0.637   1.293   1.839
 2735SOL    HW2 9105   0.598   1.351   1.691
 2736SOL     OW 9106   5.035   4.896   3.558
 2736SOL    HW1 9107   5.074   4.959   3.626
 2736SOL    HW2 9108   4.999   4.949   3.481
 2737SOL     OW 9109   2.407   2.312   6.609
 2737SOL    HW1 9110   2.405   2.367   6.525
 2737SOL    HW2 9111   2.382   2.370   6.686
 2738SOL     OW 9112   5.785   6.805   1.802
 2738SOL    HW1 9113   5.712   6.858   1.844
 2738SOL    HW2 9114   5.855   6.867   1.767
 2739SOL     OW 9115   0.826   5.466   1.947
 2739SOL    HW1 9116   0.891   5.423   1.885
 2739SOL    HW2 9117   0.742   5.412   1.949
 2740SOL     OW 9118   6.369   5.806   3.220
 2740SOL    HW1 9119   6.458   5.842   3.250
 2740SOL    HW2 9120   6.383   5.721   3.170
 2741SOL     OW 9121   1.071   1.458   5.107
 2741SOL    HW1 9122   0.999   1.526   5.119
 2741SOL    HW2 9123   1.156   1.493   5.145
 2742SOL     OW 9124   3.373   5.290   1.640
 2742SOL    HW1 9125   3.298   5.277   1.575
 2742SOL    HW2 9126   3.356   5.233   1.721
 2743SOL     OW 9127   5.568   4.027   2.813
 2743SOL    HW1 9128   5.664   4.056   2.815
 2743SOL    HW2 9129   5.514   4.097   2.767
 2744SOL     OW 9130   3.532   4.041   3.187
 2744SOL    HW1 9131   3.618   4.040   3.136
 2744SOL    HW2 9132   3.497   3.947   3.196
 2745SOL     OW 9133   0.189   0.367   6.153
 2745SOL    HW1 9134   0.254   0.382   6.228
 2745SOL    HW2 9135   0.216   0.420   6.073
 2746SOL     OW 9136   1.753   0.866   4.117
 2746SOL    HW1 9137   1.802   0.808   4.051
 2746SOL    HW2 9138   1.758   0.961   4.087
 2747SOL     OW 9139   4.040   5.634   0.595
 2747SOL    HW1 9140   3.974   5.571   0.554
 2747SOL    HW2 9141   4.104   5.582   0.653
 2748SOL     OW 9142   4.584   6.737   1.575
 2748SOL    HW1 9143   4.559   6.828   1.543
 2748SOL    HW2 9144   4.629   6.744   1.664
 2749SOL     OW 9145   2.306   3.237   0.102
 2749SOL    HW1 9146   2.212   3.214   0.079
 2749SOL    HW2 9147   2.350   3.281   0.024
 2750SOL     OW 9148   2.146   5.858   2.291
 2750SOL    HW1 9149   2.146   5.855   2.191
 2750SOL    HW2 9150   2.060   5.899   2.323
 2751SOL     OW 9151   6.773   3.444   0.897
 2751SOL    HW1 9152   6.799   3.531   0.855
 2751SOL    HW2 9153   6.747   3.459   0.993
 2752SOL     OW 9154   3.324   5.037   6.780
 2752SOL    HW1 9155   3.377   5.023   6.863
 2752SOL    HW2 9156   3.280   4.951   6.754
 2753SOL     OW 9157   6.181   6.110   5.392
 2753SOL    HW1 9158   6.251   6.040   5.399
 2753SOL    HW2 9159   6.208   6.178   5.323
 2754SOL     OW 9160   1.264   0.214   6.326
 2754SOL    HW1 9161   1.304   0.295   6.370
 2754SOL    HW2 9162   1.214   0.160   6.393
 2755SOL     OW 9163   2.706   6.873   2.799
 2755SOL    HW1 9164   2.674   6.886   2.705
 2755SOL    HW2 9165   2.720   6.963   2.841
 2756SOL     OW 9166   4.951   6.323   0.147
 2756SOL    HW1 9167   4.905   6.381   0.080
 2756SOL    HW2 9168   5.045   6.357   0.161
 2757SOL     OW 9169   0.636   4.623   1.616
 2757SOL    HW1 9170   0.648   4.551   1.548
 2757SOL    HW2 9171   0.559   4.680   1.591
 2758SOL     OW 9172   5.208   0.803   5.641
 2758SOL    HW1 9173   5.294   0.851   5.620
 2758SOL    HW2 9174   5.187   0.815   5.738
 2759SOL     OW 9175   5.684   5.942   4.541
 2759SOL    HW1 9176   5.699   5.848   4.511
 2759SOL    HW2 9177   5.628   5.990   4.474
 2760SOL     OW 9178   2.442   5.218   2.477
 2760SOL    HW1 9179   2.512   5.152   2.505
 2760SOL    HW2 9180   2.482   5.310   2.478
 2761SOL     OW 9181   2.456   6.201   2.748
 2761SOL    HW1 9182   2.448   6.270   2.820
 2761SOL    HW2 9183   2.483   6.113   2.788
 2762SOL     OW 9184   1.334   6.894   5.156
 2762SOL    HW1 9185   1.338   6.973   5.217
 2762SOL    HW2 9186   1.290   6.817   5.203
 2763SOL     OW 9187   5.288   1.736   3.498
 2763SOL    HW1 9188   5.278   1.663   3.566
 2763SOL    HW2 9189   5.339   1.702   3.419
 2764SOL     OW 9190   6.091   1.164   2.133
 2764SOL    HW1 9191   6.138   1.188   2.217
 2764SOL    HW2 9192   6.015   1.103   2.154
 2765SOL     OW 9193   6.319   1.376   1.926
 2765SOL    HW1 9194   6.349   1.399   1.834
 2765SOL    HW2 9195   6.255   1.299   1.922
 2766SOL     OW 9196   5.731   0.869   1.911
 2766SOL    HW1 9197   5.695   0.866   1.818
 2766SOL    HW2 9198   5.656   0.855   1.976
 2767SOL     OW 9199   5.490   4.229   6.620
 2767SOL    HW1 9200   5.434   4.186   6.549
 2767SOL    HW2 9201   5.478   4.328   6.616
 2768SOL     OW 9202   5.051   1.590   6.686
 2768SOL    HW1 9203   4.956   1.618   6.703
 2768SOL    HW2 9204   5.099   1.663   6.637
 2769SOL     OW 9205   0.132   4.362   1.926
 2769SOL    HW1 9206   0.219   4.409   1.912
 2769SOL    HW2 9207   0.092   4.392   2.013
 2770SOL     OW 9208   0.782   4.802   1.798
 2770SOL    HW1 9209   0.801   4.840   1.707
 2770SOL    HW2 9210   0.684   4.811   1.817
 2771SOL     OW 9211   5.193   1.300   1.335
 2771SOL    HW1 9212   5.255   1.338   1.267
 2771SOL    HW2 9213   5.098   1.316   1.307
 2772SOL     OW 9214   3.162   2.795   6.998
 2772SOL    HW1 9215   3.151   2.802   6.898
 2772SOL    HW2 9216   3.074   2.778   0.019
 2773SOL     OW 9217   3.958   3.870   6.994
 2773SOL    HW1 9218   3.928   3.958   6.956
 2773SOL    HW2 9219   3.897   3.797   6.963
 2774SOL     OW 9220   5.803   3.259   1.992
 2774SOL    HW1 9221   5.726   3.224   1.939
 2774SOL    HW2 9222   5.887   3.250   1.938
 2775SOL     OW 9223   0.386   5.776   1.736
 2775SOL    HW1 9224   0.473   5.729   1.718
 2775SOL    HW2 9225   0.328   5.770   1.655
 2776SOL     OW 9226   3.121   6.326   6.293
 2776SOL    HW1 9227   3.070   6.286   6.369
 2776SOL    HW2 9228   3.148   6.420   6.316
 2777SOL     OW 9229   3.062   1.439   2.353
 2777SOL    HW1 9230   3.115   1.369   2.401
 2777SOL    HW2 9231   2.977   1.457   2.403
 2778SOL     OW 9232   2.452   2.119   5.631
 2778SOL    HW1 9233   2.531   2.175   5.609
 2778SOL    HW2 9234   2.373   2.149   5.577
 2779SOL     OW 9235   5.297   0.522   6.624
 2779SOL    HW1 9236   5.388   0.490   6.649
 2779SOL    HW2 9237   5.252   0.452   6.568
 2780SOL     OW 9238   5.439   5.451   6.596
 2780SOL    HW1 9239   5.474   5.534   6.554
 2780SOL    HW2 9240   5.450   5.457   6.695
 2781SOL     OW 9241   5.764   4.832   1.167
 2781SOL    HW1 9242   5.807   4.921   1.155
 2781SOL    HW2 9243   5.757   4.786   1.079
 2782SOL     OW 9244   2.771   2.872   6.324
 2782SOL    HW1 9245   2.820   2.921   6.251
 2782SOL    HW2 9246   2.836   2.815   6.374
 2783SOL     OW 9247   6.808   5.095   5.463
 2783SOL    HW1 9248   6.779   5.040   5.541
 2783SOL    HW2 9249   6.767   5.060   5.379
 2784SOL     OW 9250   2.200   1.934   1.582
 2784SOL    HW1 9251   2.183   2.011   1.521
 2784SOL    HW2 9252   2.290   1.944   1.625
 2785SOL     OW 9253   6.630   0.646   0.476
 2785SOL    HW1 9254   6.613   0.740   0.506
 2785SOL    HW2 9255   6.552   0.588   0.499
 2786SOL     OW 9256   4.134   6.569   1.285
 2786SOL    HW1 9257   4.122   6.667   1.269
 2786SOL    HW2 9258   4.097   6.544   1.374
 2787SOL     OW 9259   2.278   2.996   5.612
 2787SOL    HW1 9260   2.278   2.992   5.512
 2787SOL    HW2 9261   2.265   2.904   5.649
 2788SOL     OW 9262   2.078   4.496   0.592
 2788SOL    HW1 9263   2.151   4.504   0.659
 2788SOL    HW2 9264   2.095   4.559   0.516
 2789SOL     OW 9265   0.485   2.113   4.014
 2789SOL    HW1 9266   0.571   2.082   3.973
 2789SOL    HW2 9267   0.495   2.120   4.113
 2790SOL     OW 9268   3.895   5.485   2.919
 2790SOL    HW1 9269   3.927   5.392   2.934
 2790SOL    HW2 9270   3.799   5.484   2.892
 2791SOL     OW 9271   1.574   3.364   5.061
 2791SOL    HW1 9272   1.661   3.323   5.087
 2791SOL    HW2 9273   1.591   3.450   5.013
 2792SOL     OW 9274   0.568   1.724   4.761
 2792SOL    HW1 9275   0.472   1.730   4.789
 2792SOL    HW2 9276   0.606   1.816   4.751
 2793SOL     OW 9277   4.974   1.966   2.758
 2793SOL    HW1 9278   4.973   1.869   2.737
 2793SOL    HW2 9279   5.018   2.016   2.683
 2794SOL     OW 9280   0.940   0.310   0.646
 2794SOL    HW1 9281   0.908   0.282   0.556
 2794SOL    HW2 9282   0.952   0.410   0.647
 2795SOL     OW 9283   3.101   3.747   1.449
 2795SOL    HW1 9284   3.131   3.833   1.492
 2795SOL    HW2 9285   3.004   3.734   1.466
 2796SOL     OW 9286   5.529   4.369   2.713
 2796SOL    HW1 9287   5.472   4.370   2.794
 2796SOL    HW2 9288   5.510   4.449   2.656
 2797SOL     OW 9289   5.276   5.215   5.062
 2797SOL    HW1 9290   5.191   5.185   5.020
 2797SOL    HW2 9291   5.262   5.228   5.160
 2798SOL     OW 9292   0.913   3.387   3.603
 2798SOL    HW1 9293   0.945   3.333   3.526
 2798SOL    HW2 9294   0.890   3.327   3.680
 2799SOL     OW 9295   6.334   4.989   6.474
 2799SOL    HW1 9296   6.322   4.897   6.439
 2799SOL    HW2 9297   6.333   4.988   6.574
 2800SOL     OW 9298   2.808   4.970   6.752
 2800SOL    HW1 9299   2.775   5.064   6.765
 2800SOL    HW2 9300   2.730   4.909   6.739
 2801SOL     OW 9301   5.663   5.625   1.839
 2801SOL    HW1 9302   5.637   5.535   1.873
 2801SOL    HW2 9303   5.657   5.626   1.739
 2802SOL     OW 9304   4.208   1.677   6.105
 2802SOL    HW1 9305   4.302   1.709   6.095
 2802SOL    HW2 9306   4.145   1.755   6.102
 2803SOL     OW 9307   2.654   6.773   6.305
 2803SOL    HW1 9308   2.680   6.682   6.336
 2803SOL    HW2 9309   2.593   6.816   6.372
 2804SOL     OW 9310   0.088   4.296   3.353
 2804SOL    HW1 9311   0.138   4.224   3.306
 2804SOL    HW2 9312   0.147   4.376   3.365
 2805SOL     OW 9313   4.999   3.197   0.795
 2805SOL    HW1 9314   4.928   3.261   0.765
 2805SOL    HW2 9315   5.001   3.194   0.895
 2806SOL     OW 9316   6.638   5.474   2.887
 2806SOL    HW1 9317   6.647   5.560   2.837
 2806SOL    HW2 9318   6.723   5.421   2.878
 2807SOL     OW 9319   3.863   4.864   3.325
 2807SOL    HW1 9320   3.928   4.807   3.275
 2807SOL    HW2 9321   3.913   4.932   3.379
 2808SOL     OW 9322   5.415   1.102   3.753
 2808SOL    HW1 9323   5.461   1.047   3.683
 2808SOL    HW2 9324   5.361   1.174   3.709
 2809SOL     OW 9325   5.077   2.380   0.632
 2809SOL    HW1 9326   5.149   2.361   0.698
 2809SOL    HW2 9327   5.115   2.380   0.539
 2810SOL     OW 9328   2.667   0.197   5.342
 2810SOL    HW1 9329   2.584   0.228   5.389
 2810SOL    HW2 9330   2.660   0.100   5.320
 2811SOL     OW 9331   0.701   1.212   3.264
 2811SOL    HW1 9332   0.643   1.167   3.331
 2811SOL    HW2 9333   0.679   1.310   3.261
 2812SOL     OW 9334   4.937   3.839   2.216
 2812SOL    HW1 9335   4.887   3.900   2.154
 2812SOL    HW2 9336   4.963   3.756   2.167
 2813SOL     OW 9337   5.718   0.264   6.568
 2813SOL    HW1 9338   5.755   0.286   6.658
 2813SOL    HW2 9339   5.771   0.312   6.497
 2814SOL     OW 9340   4.479   4.027   5.623
 2814SOL    HW1 9341   4.422   4.016   5.704
 2814SOL    HW2 9342   4.435   3.984   5.544
 2815SOL     OW 9343   0.091   1.162   4.773
 2815SOL    HW1 9344   0.135   1.072   4.761
 2815SOL    HW2 9345   0.049   1.190   4.686
 2816SOL     OW 9346   5.925   0.180   4.260
 2816SOL    HW1 9347   6.018   0.175   4.223
 2816SOL    HW2 9348   5.873   0.249   4.209
 2817SOL     OW 9349   1.719   1.108   1.558
 2817SOL    HW1 9350   1.656   1.049   1.507
 2817SOL    HW2 9351   1.667   1.174   1.612
 2818SOL     OW 9352   6.827   4.859   6.102
 2818SOL    HW1 9353   6.892   4.798   6.058
 2818SOL    HW2 9354   6.737   4.816   6.107
 2819SOL     OW 9355   0.199   3.230   0.410
 2819SOL    HW1 9356   0.280   3.186   0.370
 2819SOL    HW2 9357   0.133   3.159   0.436
 2820SOL     OW 9358   6.969   3.010   2.840
 2820SOL    HW1 9359   6.900   3.035   2.907
 2820SOL    HW2 9360   0.032   2.984   2.886
 2821SOL     OW 9361   1.667   4.440   5.072
 2821SOL    HW1 9362   1.747   4.398   5.028
 2821SOL    HW2 9363   1.604   4.474   5.002
 2822SOL     OW 9364   5.249   2.134   7.005
 2822SOL    HW1 9365   5.333   2.168   0.024
 2822SOL    HW2 9366   5.265   2.110   6.909
 2823SOL     OW 9367   1.872   0.034   2.298
 2823SOL    HW1 9368   1.808   7.018   2.365
 2823SOL    HW2 9369   1.935   6.983   2.268
 2824SOL     OW 9370   2.685   1.085   5.463
 2824SOL    HW1 9371   2.606   1.137   5.432
 2824SOL    HW2 9372   2.769   1.121   5.421
 2825SOL     OW 9373   6.576   6.547   1.267
 2825SOL    HW1 9374   6.482   6.538   1.235
 2825SOL    HW2 9375   6.578   6.603   1.349
 2826SOL     OW 9376   5.123   1.757   4.833
 2826SOL    HW1 9377   5.082   1.696   4.901
 2826SOL    HW2 9378   5.162   1.702   4.759
 2827SOL     OW 9379   6.031   1.330   5.285
 2827SOL    HW1 9380   5.969   1.256   5.258
 2827SOL    HW2 9381   6.054   1.384   5.204
 2828SOL     OW 9382   4.358   0.547   5.755
 2828SOL    HW1 9383   4.350   0.641   5.788
 2828SOL    HW2 9384   4.445   0.535   5.708
 2829SOL     OW 9385   3.798   6.341   6.064
 2829SOL    HW1 9386   3.766   6.424   6.108
 2829SOL    HW2 9387   3.895   6.327   6.087
 2830SOL     OW 9388   4.195   3.536   6.783
 2830SOL    HW1 9389   4.218   3.563   6.877
 2830SOL    HW2 9390   4.128   3.599   6.745
 2831SOL     OW 9391   5.533   6.366   3.739
 2831SOL    HW1 9392   5.451   6.359   3.796
 2831SOL    HW2 9393   5.584   6.449   3.763
 2832SOL     OW 9394   0.227   1.270   1.507
 2832SOL    HW1 9395   0.252   1.179   1.476
 2832SOL    HW2 9396   0.232   1.275   1.607
 2833SOL     OW 9397   5.853   2.388   2.149
 2833SOL    HW1 9398   5.853   2.295   2.186
 2833SOL    HW2 9399   5.818   2.452   2.218
 2834SOL     OW 9400   3.463   1.816   5.523
 2834SOL    HW1 9401   3.554   1.826   5.563
 2834SOL    HW2 9402   3.422   1.731   5.554
 2835SOL     OW 9403   0.367   6.661   2.611
 2835SOL    HW1 9404   0.359   6.725   2.535
 2835SOL    HW2 9405   0.296   6.681   2.679
 2836SOL     OW 9406   0.106   0.055   1.686
 2836SOL    HW1 9407   0.120   6.978   1.686
 2836SOL    HW2 9408   0.016   0.076   1.724
 2837SOL     OW 9409   5.562   3.986   3.643
 2837SOL    HW1 9410   5.528   4.008   3.734
 2837SOL    HW2 9411   5.501   3.919   3.600
 2838SOL     OW 9412   2.974   5.119   2.027
 2838SOL    HW1 9413   2.890   5.163   2.060
 2838SOL    HW2 9414   2.968   5.020   2.042
 2839SOL     OW 9415   5.353   1.727   1.290
 2839SOL    HW1 9416   5.305   1.698   1.207
 2839SOL    HW2 9417   5.336   1.662   1.364
 2840SOL     OW 9418   6.584   1.404   5.546
 2840SOL    HW1 9419   6.683   1.405   5.535
 2840SOL    HW2 9420   6.556   1.320   5.593
 2841SOL     OW 9421   0.770   5.631   1.197
 2841SOL    HW1 9422   0.841   5.626   1.127
 2841SOL    HW2 9423   0.802   5.685   1.274
 2842SOL     OW 9424   6.699   3.234   3.756
 2842SOL    HW1 9425   6.689   3.135   3.752
 2842SOL    HW2 9426   6.794   3.258   3.774
 2843SOL     OW 9427   3.769   1.095   4.837
 2843SOL    HW1 9428   3.869   1.088   4.834
 2843SOL    HW2 9429   3.734   1.109   4.745
 2844SOL     OW 9430   0.425   4.197   6.761
 2844SOL    HW1 9431   0.402   4.100   6.773
 2844SOL    HW2 9432   0.522   4.205   6.739
 2845SOL     OW 9433   0.447   4.592   6.617
 2845SOL    HW1 9434   0.520   4.623   6.556
 2845SOL    HW2 9435   0.399   4.516   6.574
 2846SOL     OW 9436   4.834   1.664   6.364
 2846SOL    HW1 9437   4.756   1.621   6.320
 2846SOL    HW2 9438   4.918   1.619   6.334
 2847SOL     OW 9439   6.377   4.593   4.242
 2847SOL    HW1 9440   6.435   4.673   4.224
 2847SOL    HW2 9441   6.282   4.623   4.256
 2848SOL     OW 9442   0.742   5.238   4.768
 2848SOL    HW1 9443   0.736   5.261   4.865
 2848SOL    HW2 9444   0.675   5.168   4.745
 2849SOL     OW 9445   2.693   1.914   0.948
 2849SOL    HW1 9446   2.753   1.855   1.001
 2849SOL    HW2 9447   2.633   1.966   1.010
 2850SOL     OW 9448   3.610   6.970   0.736
 2850SOL    HW1 9449   3.652   0.004   0.664
 2850SOL    HW2 9450   3.655   6.881   0.741
 2851SOL     OW 9451   0.890   4.480   5.530
 2851SOL    HW1 9452   0.869   4.501   5.625
 2851SOL    HW2 9453   0.961   4.542   5.496
 2852SOL     OW 9454   6.574   3.260   6.285
 2852SOL    HW1 9455   6.644   3.260   6.356
 2852SOL    HW2 9456   6.578   3.347   6.235
 2853SOL     OW 9457   3.713   3.079   0.897
 2853SOL    HW1 9458   3.625   3.050   0.935
 2853SOL    HW2 9459   3.787   3.043   0.955
 2854SOL     OW 9460   2.703   0.554   4.170
 2854SOL    HW1 9461   2.728   0.459   4.188
 2854SOL    HW2 9462   2.618   0.556   4.116
 2855SOL     OW 9463   1.880   1.068   5.196
 2855SOL    HW1 9464   1.806   1.035   5.137
 2855SOL    HW2 9465   1.968   1.055   5.151
 2856SOL     OW 9466   2.541   2.776   5.307
 2856SOL    HW1 9467   2.632   2.805   5.336
 2856SOL    HW2 9468   2.487   2.856   5.281
 2857SOL     OW 9469   3.014   2.446   1.389
 2857SOL    HW1 9470   2.955   2.524   1.369
 2857SOL    HW2 9471   3.045   2.405   1.303
 2858SOL     OW 9472   6.077   3.029   2.643
 2858SOL    HW1 9473   6.176   3.037   2.655
 2858SOL    HW2 9474   6.057   2.980   2.558
 2859SOL     OW 9475   5.051   0.644   1.042
 2859SOL    HW1 9476   4.974   0.649   1.106
 2859SOL    HW2 9477   5.057   0.730   0.991
 2860SOL     OW 9478   3.980   1.766   1.583
 2860SOL    HW1 9479   3.894   1.717   1.568
 2860SOL    HW2 9480   4.033   1.719   1.654
 2861SOL     OW 9481   3.531   5.527   5.371
 2861SOL    HW1 9482   3.534   5.503   5.468
 2861SOL    HW2 9483   3.512   5.625   5.362
 2862SOL     OW 9484   5.431   1.026   4.021
 2862SOL    HW1 9485   5.523   0.987   4.025
 2862SOL    HW2 9486   5.409   1.050   3.926
 2863SOL     OW 9487   6.461   1.657   6.879
 2863SOL    HW1 9488   6.414   1.672   6.792
 2863SOL    HW2 9489   6.560   1.667   6.866
 2864SOL     OW 9490   3.751   0.525   1.213
 2864SOL    HW1 9491   3.833   0.574   1.240
 2864SOL    HW2 9492   3.775   0.430   1.190
 2865SOL     OW 9493   4.587   4.419   5.172
 2865SOL    HW1 9494   4.492   4.441   5.196
 2865SOL    HW2 9495   4.601   4.431   5.074
 2866SOL     OW 9496   0.160   6.019   6.477
 2866SOL    HW1 9497   0.152   5.922   6.453
 2866SOL    HW2 9498   0.161   6.073   6.393
 2867SOL     OW 9499   6.414   4.933   3.134
 2867SOL    HW1 9500   6.506   4.931   3.095
 2867SOL    HW2 9501   6.347   4.946   3.061
 2868SOL     OW 9502   1.186   4.416   4.975
 2868SOL    HW1 9503   1.134   4.482   5.029
 2868SOL    HW2 9504   1.172   4.325   5.012
 2869SOL     OW 9505   5.526   0.541   2.053
 2869SOL    HW1 9506   5.509   0.640   2.051
 2869SOL    HW2 9507   5.438   0.493   2.047
 2870SOL     OW 9508   6.202   2.301   3.227
 2870SOL    HW1 9509   6.219   2.385   3.278
 2870SOL    HW2 9510   6.129   2.316   3.161
 2871SOL     OW 9511   1.698   1.871   6.025
 2871SOL    HW1 9512   1.772   1.879   5.958
 2871SOL    HW2 9513   1.731   1.901   6.115
 2872SOL     OW 9514   2.893   0.497   3.882
 2872SOL    HW1 9515   2.920   0.430   3.951
 2872SOL    HW2 9516   2.883   0.587   3.925
 2873SOL     OW 9517   1.241   5.190   2.455
 2873SOL    HW1 9518   1.314   5.254   2.430
 2873SOL    HW2 9519   1.212   5.208   2.549
 2874SOL     OW 9520   5.570   3.620   2.685
 2874SOL    HW1 9521   5.497   3.578   2.631
 2874SOL    HW2 9522   5.601   3.704   2.641
 2875SOL     OW 9523   4.037   6.014   6.186
 2875SOL    HW1 9524   3.988   5.954   6.250
 2875SOL    HW2 9525   4.023   5.981   6.092
 2876SOL     OW 9526   0.664   0.949   1.084
 2876SOL    HW1 9527   0.687   0.918   1.177
 2876SOL    HW2 9528   0.683   0.875   1.019
 2877SOL     OW 9529   2.823   2.729   5.356
 2877SOL    HW1 9530   2.859   2.820   5.376
 2877SOL    HW2 9531   2.894   2.673   5.315
 2878SOL     OW 9532   2.333   4.700   5.007
 2878SOL    HW1 9533   2.418   4.681   4.959
 2878SOL    HW2 9534   2.354   4.738   5.098
 2879SOL     OW 9535   5.468   5.103   0.471
 2879SOL    HW1 9536   5.399   5.101   0.544
 2879SOL    HW2 9537   5.446   5.033   0.403
 2880SOL     OW 9538   0.693   6.403   1.947
 2880SOL    HW1 9539   0.617   6.419   1.884
 2880SOL    HW2 9540   0.779   6.401   1.896
 2881SOL     OW 9541   6.778   6.374   0.921
 2881SOL    HW1 9542   6.708   6.433   0.880
 2881SOL    HW2 9543   6.735   6.308   0.983
 2882SOL     OW 9544   0.156   3.262   2.209
 2882SOL    HW1 9545   0.123   3.227   2.122
 2882SOL    HW2 9546   0.134   3.359   2.216
 2883SOL     OW 9547   3.669   0.013   2.440
 2883SOL    HW1 9548   3.769   0.011   2.449
 2883SOL    HW2 9549   3.635   0.102   2.470
 2884SOL     OW 9550   0.913   6.382   3.243
 2884SOL    HW1 9551   0.826   6.343   3.214
 2884SOL    HW2 9552   0.962   6.316   3.300
 2885SOL     OW 9553   0.625   2.225   2.484
 2885SOL    HW1 9554   0.684   2.255   2.409
 2885SOL    HW2 9555   0.653   2.270   2.569
 2886SOL     OW 9556   2.255   2.092   6.462
 2886SOL    HW1 9557   2.289   2.138   6.544
 2886SOL    HW2 9558   2.167   2.048   6.482
 2887SOL     OW 9559   1.380   0.144   4.505
 2887SOL    HW1 9560   1.438   0.111   4.431
 2887SOL    HW2 9561   1.284   0.126   4.483
 2888SOL     OW 9562   5.951   4.836   6.981
 2888SOL    HW1 9563   5.933   4.934   6.983
 2888SOL    HW2 9564   6.045   4.819   6.954
 2889SOL     OW 9565   0.660   0.435   1.456
 2889SOL    HW1 9566   0.682   0.524   1.496
 2889SOL    HW2 9567   0.576   0.400   1.497
 2890SOL     OW 9568   4.346   0.484   1.626
 2890SOL    HW1 9569   4.391   0.395   1.617
 2890SOL    HW2 9570   4.279   0.480   1.699
 2891SOL     OW 9571   1.967   4.377   3.927
 2891SOL    HW1 9572   2.045   4.439   3.921
 2891SOL    HW2 9573   1.999   4.282   3.922
 2892SOL     OW 9574   4.504   3.936   6.986
 2892SOL    HW1 9575   4.558   4.014   7.019
 2892SOL    HW2 9576   4.412   3.941   0.003
 2893SOL     OW 9577   2.520   0.190   4.834
 2893SOL    HW1 9578   2.567   0.210   4.921
 2893SOL    HW2 9579   2.451   0.259   4.817
 2894SOL     OW 9580   3.163   3.187   0.325
 2894SOL    HW1 9581   3.195   3.181   0.231
 2894SOL    HW2 9582   3.068   3.154   0.331
 2895SOL     OW 9583   4.025   3.197   6.783
 2895SOL    HW1 9584   4.049   3.126   6.849
 2895SOL    HW2 9585   4.086   3.276   6.795
 2896SOL     OW 9586   2.056   5.409   0.217
 2896SOL    HW1 9587   2.008   5.483   0.266
 2896SOL    HW2 9588   2.014   5.321   0.240
 2897SOL     OW 9589   2.567   6.192   3.192
 2897SOL    HW1 9590   2.473   6.166   3.172
 2897SOL    HW2 9591   2.570   6.287   3.221
 2898SOL     OW 9592   4.263   5.227   1.602
 2898SOL    HW1 9593   4.172   5.254   1.632
 2898SOL    HW2 9594   4.329   5.243   1.676
 2899SOL     OW 9595   0.077   6.988   6.487
 2899SOL    HW1 9596   0.155   0.010   6.441
 2899SOL    HW2 9597   0.065   0.008   6.577
 2900SOL     OW 9598   1.142   5.130   5.821
 2900SOL    HW1 9599   1.119   5.176   5.736
 2900SOL    HW2 9600   1.227   5.078   5.809
 2901SOL     OW 9601   2.999   0.696   1.999
 2901SOL    HW1 9602   3.003   0.778   2.055
 2901SOL    HW2 9603   3.091   0.670   1.971
 2902SOL     OW 9604   5.353   5.880   0.905
 2902SOL    HW1 9605   5.258   5.895   0.880
 2902SOL    HW2 9606   5.385   5.955   0.962
 2903SOL     OW 9607   2.869   1.206   2.127
 2903SOL    HW1 9608   2.801   1.273   2.158
 2903SOL    HW2 9609   2.955   1.253   2.106
 2904SOL     OW 9610   2.146   3.128   4.993
 2904SOL    HW1 9611   2.110   3.117   5.086
 2904SOL    HW2 9612   2.225   3.068   4.981
 2905SOL     OW 9613   1.689   1.483   1.725
 2905SOL    HW1 9614   1.692   1.508   1.822
 2905SOL    HW2 9615   1.770   1.520   1.679
 2906SOL     OW 9616   5.625   5.503   2.155
 2906SOL    HW1 9617   5.541   5.552   2.180
 2906SOL    HW2 9618   5.617   5.467   2.062
 2907SOL     OW 9619   0.116   1.377   5.252
 2907SOL    HW1 9620   0.158   1.315   5.185
 2907SOL    HW2 9621   0.017   1.377   5.239
 2908SOL     OW 9622   3.876   6.088   4.193
 2908SOL    HW1 9623   3.828   6.152   4.132
 2908SOL    HW2 9624   3.845   5.995   4.173
 2909SOL     OW 9625   1.616   5.466   4.303
 2909SOL    HW1 9626   1.621   5.461   4.402
 2909SOL    HW2 9627   1.606   5.374   4.265
 2910SOL     OW 9628   4.237   6.288   5.381
 2910SOL    HW1 9629   4.256   6.194   5.409
 2910SOL    HW2 9630   4.141   6.309   5.397
 2911SOL     OW 9631   2.075   4.456   3.610
 2911SOL    HW1 9632   2.166   4.444   3.650
 2911SOL    HW2 9633   2.044   4.550   3.624
 2912SOL     OW 9634   2.924   6.166   0.054
 2912SOL    HW1 9635   2.968   6.203   6.993
 2912SOL    HW2 9636   2.826   6.153   0.035
 2913SOL     OW 9637   1.544   3.566   2.454
 2913SOL    HW1 9638   1.479   3.509   2.404
 2913SOL    HW2 9639   1.637   3.546   2.423
 2914SOL     OW 9640   5.456   4.975   6.176
 2914SOL    HW1 9641   5.425   4.881   6.185
 2914SOL    HW2 9642   5.514   4.983   6.095
 2915SOL     OW 9643   4.113   1.963   4.178
 2915SOL    HW1 9644   4.107   1.965   4.078
 2915SOL    HW2 9645   4.085   2.051   4.215
 2916SOL     OW 9646   6.285   5.072   5.279
 2916SOL    HW1 9647   6.242   5.055   5.190
 2916SOL    HW2 9648   6.238   5.019   5.349
 2917SOL     OW 9649   4.700   0.223   1.469
 2917SOL    HW1 9650   4.704   0.208   1.370
 2917SOL    HW2 9651   4.730   0.316   1.489
 2918SOL     OW 9652   0.314   3.987   3.882
 2918SOL    HW1 9653   0.216   3.965   3.877
 2918SOL    HW2 9654   0.367   3.910   3.849
 2919SOL     OW 9655   5.725   6.081   0.528
 2919SOL    HW1 9656   5.632   6.083   0.563
 2919SOL    HW2 9657   5.757   6.175   0.513
 2920SOL     OW 9658   3.881   1.812   2.447
 2920SOL    HW1 9659   3.833   1.892   2.410
 2920SOL    HW2 9660   3.980   1.826   2.442
 2921SOL     OW 9661   0.467   0.983   3.175
 2921SOL    HW1 9662   0.529   1.010   3.102
 2921SOL    HW2 9663   0.373   0.999   3.146
 2922SOL     OW 9664   5.073   0.291   5.551
 2922SOL    HW1 9665   4.983   0.326   5.524
 2922SOL    HW2 9666   5.069   0.191   5.557
 2923SOL     OW 9667   6.391   5.194   2.134
 2923SOL    HW1 9668   6.341   5.145   2.206
 2923SOL    HW2 9669   6.388   5.292   2.153
 2924SOL     OW 9670   0.425   1.294   5.444
 2924SOL    HW1 9671   0.525   1.302   5.441
 2924SOL    HW2 9672   0.385   1.386   5.446
 2925SOL     OW 9673   5.742   3.243   1.601
 2925SOL    HW1 9674   5.694   3.195   1.674
 2925SOL    HW2 9675   5.775   3.177   1.533
 2926SOL     OW 9676   6.738   2.268   4.573
 2926SOL    HW1 9677   6.679   2.245   4.496
 2926SOL    HW2 9678   6.821   2.312   4.539
 2927SOL     OW 9679   1.495   2.373   1.950
 2927SOL    HW1 9680   1.586   2.414   1.939
 2927SOL    HW2 9681   1.467   2.331   1.864
 2928SOL     OW 9682   6.357   0.405   0.111
 2928SOL    HW1 9683   6.334   0.465   0.035
 2928SOL    HW2 9684   6.430   0.343   0.083
 2929SOL     OW 9685   1.102   0.171   6.575
 2929SOL    HW1 9686   1.073   0.261   6.606
 2929SOL    HW2 9687   1.024   0.121   6.539
 2930SOL     OW 9688   5.061   0.816   5.050
 2930SOL    HW1 9689   5.081   0.903   5.004
 2930SOL    HW2 9690   4.980   0.827   5.108
 2931SOL     OW 9691   4.699   6.597   6.613
 2931SOL    HW1 9692   4.669   6.503   6.628
 2931SOL    HW2 9693   4.620   6.658   6.617
 2932SOL     OW 9694   1.175   3.954   1.127
 2932SOL    HW1 9695   1.252   3.969   1.189
 2932SOL    HW2 9696   1.118   3.880   1.162
 2933SOL     OW 9697   5.318   2.712   4.037
 2933SOL    HW1 9698   5.292   2.622   4.070
 2933SOL    HW2 9699   5.329   2.710   3.938
 2934SOL     OW 9700   2.692   0.763   0.055
 2934SOL    HW1 9701   2.711   0.752   6.979
 2934SOL    HW2 9702   2.615   0.705   0.081
 2935SOL     OW 9703   5.935   3.340   0.795
 2935SOL    HW1 9704   5.878   3.407   0.842
 2935SOL    HW2 9705   5.923   3.348   0.697
 2936SOL     OW 9706   4.512   5.825   0.165
 2936SOL    HW1 9707   4.550   5.737   0.136
 2936SOL    HW2 9708   4.427   5.842   0.115
 2937SOL     OW 9709   3.502   5.580   0.591
 2937SOL    HW1 9710   3.541   5.506   0.645
 2937SOL    HW2 9711   3.532   5.572   0.496
 2938SOL     OW 9712   5.084   5.528   5.260
 2938SOL    HW1 9713   5.091   5.526   5.160
 2938SOL    HW2 9714   5.140   5.603   5.296
 2939SOL     OW 9715   6.307   6.678   5.199
 2939SOL    HW1 9716   6.392   6.730   5.211
 2939SOL    HW2 9717   6.251   6.687   5.281
 2940SOL     OW 9718   5.462   6.903   5.176
 2940SOL    HW1 9719   5.525   6.963   5.224
 2940SOL    HW2 9720   5.493   6.808   5.183
 2941SOL     OW 9721   0.292   2.199   5.124
 2941SOL    HW1 9722   0.328   2.184   5.216
 2941SOL    HW2 9723   0.360   2.167   5.056
 2942SOL     OW 9724   3.696   0.364   2.283
 2942SOL    HW1 9725   3.647   0.434   2.231
 2942SOL    HW2 9726   3.778   0.404   2.325
 2943SOL     OW 9727   5.846   3.393   3.390
 2943SOL    HW1 9728   5.917   3.458   3.419
 2943SOL    HW2 9729   5.805   3.424   3.305
 2944SOL     OW 9730   3.695   5.247   5.174
 2944SOL    HW1 9731   3.607   5.211   5.206
 2944SOL    HW2 9732   3.767   5.220   5.238
 2945SOL     OW 9733   3.365   3.244   3.503
 2945SOL    HW1 9734   3.343   3.204   3.414
 2945SOL    HW2 9735   3.281   3.269   3.550
 2946SOL     OW 9736   6.915   5.775   5.800
 2946SOL    HW1 9737   6.915   5.675   5.810
 2946SOL    HW2 9738   6.872   5.799   5.713
 2947SOL     OW 9739   6.700   3.865   6.858
 2947SOL    HW1 9740   6.794   3.852   6.891
 2947SOL    HW2 9741   6.660   3.776   6.836
 2948SOL     OW 9742   6.136   4.242   4.871
 2948SOL    HW1 9743   6.234   4.222   4.867
 2948SOL    HW2 9744   6.084   4.158   4.854
 2949SOL     OW 9745   1.457   6.571   0.504
 2949SOL    HW1 9746   1.497   6.663   0.512
 2949SOL    HW2 9747   1.422   6.559   0.411
 2950SOL     OW 9748   6.046   3.510   4.197
 2950SOL    HW1 9749   6.005   3.566   4.269
 2950SOL    HW2 9750   6.127   3.555   4.161
 2951SOL     OW 9751   0.539   1.136   0.880
 2951SOL    HW1 9752   0.439   1.143   0.877
 2951SOL    HW2 9753   0.565   1.051   0.925
 2952SOL     OW 9754   1.530   4.155   2.689
 2952SOL    HW1 9755   1.436   4.183   2.673
 2952SOL    HW2 9756   1.586   4.235   2.710
 2953SOL     OW 9757   4.715   2.513   1.685
 2953SOL    HW1 9758   4.741   2.506   1.589
 2953SOL    HW2 9759   4.637   2.575   1.694
 2954SOL     OW 9760   6.669   6.541   2.630
 2954SOL    HW1 9761   6.665   6.624   2.686
 2954SOL    HW2 9762   6.596   6.479   2.657
 2955SOL     OW 9763   0.596   3.021   0.586
 2955SOL    HW1 9764   0.591   2.970   0.671
 2955SOL    HW2 9765   0.641   3.109   0.602
 2956SOL     OW 9766   0.150   5.052   3.019
 2956SOL    HW1 9767   0.240   5.092   2.999
 2956SOL    HW2 9768   0.117   5.086   3.107
 2957SOL     OW 9769   0.436   3.405   1.479
 2957SOL    HW1 9770   0.474   3.488   1.521
 2957SOL    HW2 9771   0.446   3.410   1.380
 2958SOL     OW 9772   1.574   4.559   5.729
 2958SOL    HW1 9773   1.577   4.493   5.655
 2958SOL    HW2 9774   1.588   4.512   5.816
 2959SOL     OW 9775   4.951   5.499   6.425
 2959SOL    HW1 9776   4.886   5.567   6.459
 2959SOL    HW2 9777   4.994   5.533   6.341
 2960SOL     OW 9778   2.306   2.134   6.876
 2960SOL    HW1 9779   2.404   2.138   6.893
 2960SOL    HW2 9780   2.277   2.217   6.829
 2961SOL     OW 9781   5.725   3.796   4.158
 2961SOL    HW1 9782   5.797   3.851   4.200
 2961SOL    HW2 9783   5.704   3.833   4.067
 2962SOL     OW 9784   4.376   1.223   3.540
 2962SOL    HW1 9785   4.422   1.305   3.505
 2962SOL    HW2 9786   4.433   1.180   3.609
 2963SOL     OW 9787   1.766   1.583   5.520
 2963SOL    HW1 9788   1.726   1.620   5.604
 2963SOL    HW2 9789   1.813   1.656   5.471
 2964SOL     OW 9790   2.093   6.304   1.621
 2964SOL    HW1 9791   2.117   6.218   1.665
 2964SOL    HW2 9792   2.162   6.373   1.641
 2965SOL     OW 9793   0.115   1.438   5.599
 2965SOL    HW1 9794   0.101   1.499   5.521
 2965SOL    HW2 9795   0.168   1.484   5.670
 2966SOL     OW 9796   4.990   4.799   4.072
 2966SOL    HW1 9797   4.903   4.822   4.028
 2966SOL    HW2 9798   5.061   4.861   4.038
 2967SOL     OW 9799   5.600   2.850   3.610
 2967SOL    HW1 9800   5.592   2.916   3.535
 2967SOL    HW2 9801   5.618   2.899   3.695
 2968SOL     OW 9802   0.569   4.116   4.075
 2968SOL    HW1 9803   0.609   4.116   4.167
 2968SOL    HW2 9804   0.473   4.091   4.080
 2969SOL     OW 9805   5.327   2.061   4.545
 2969SOL    HW1 9806   5.236   2.030   4.575
 2969SOL    HW2 9807   5.357   2.007   4.467
 2970SOL     OW 9808   0.529   4.469   5.991
 2970SOL    HW1 9809   0.459   4.434   6.053
 2970SOL    HW2 9810   0.615   4.478   6.040
 2971SOL     OW 9811   5.871   2.823   3.475
 2971SOL    HW1 9812   5.804   2.852   3.543
 2971SOL    HW2 9813   5.887   2.724   3.485
 2972SOL     OW 9814   6.371   3.649   6.023
 2972SOL    HW1 9815   6.309   3.640   5.945
 2972SOL    HW2 9816   6.390   3.746   6.039
 2973SOL     OW 9817   4.955   6.596   4.152
 2973SOL    HW1 9818   5.003   6.531   4.093
 2973SOL    HW2 9819   5.019   6.637   4.216
 2974SOL     OW 9820   6.912   4.661   3.129
 2974SOL    HW1 9821   6.832   4.666   3.190
 2974SOL    HW2 9822   6.909   4.736   3.064
 2975SOL     OW 9823   0.412   0.767   5.640
 2975SOL    HW1 9824   0.451   0.860   5.641
 2975SOL    HW2 9825   0.313   0.773   5.650
 2976SOL     OW 9826   4.231   1.387   2.457
 2976SOL    HW1 9827   4.168   1.433   2.519
 2976SOL    HW2 9828   4.186   1.308   2.416
 2977SOL     OW 9829   3.163   6.740   4.142
 2977SOL    HW1 9830   3.207   6.694   4.065
 2977SOL    HW2 9831   3.231   6.790   4.196
 2978SOL     OW 9832   4.985   5.319   0.242
 2978SOL    HW1 9833   5.059   5.373   0.282
 2978SOL    HW2 9834   4.971   5.346   0.147
 2979SOL     OW 9835   3.882   0.526   2.993
 2979SOL    HW1 9836   3.877   0.595   2.921
 2979SOL    HW2 9837   3.939   0.560   3.068
 2980SOL     OW 9838   0.963   6.239   4.023
 2980SOL    HW1 9839   0.993   6.235   3.927
 2980SOL    HW2 9840   0.968   6.147   4.063
 2981SOL     OW 9841   1.874   0.875   5.830
 2981SOL    HW1 9842   1.891   0.805   5.760
 2981SOL    HW2 9843   1.940   0.864   5.905
 2982SOL     OW 9844   4.548   6.034   2.480
 2982SOL    HW1 9845   4.605   6.014   2.560
 2982SOL    HW2 9846   4.593   6.104   2.425
 2983SOL     OW 9847   6.822   0.644   4.734
 2983SOL    HW1 9848   6.759   0.688   4.670
 2983SOL    HW2 9849   6.776   0.566   4.776
 2984SOL     OW 9850   6.058   5.410   2.060
 2984SOL    HW1 9851   6.080   5.440   1.967
 2984SOL    HW2 9852   6.005   5.481   2.106
 2985SOL     OW 9853   6.963   1.999   3.421
 2985SOL    HW1 9854   6.949   1.926   3.354
 2985SOL    HW2 9855   6.883   2.059   3.422
 2986SOL     OW 9856   1.451   3.950   5.182
 2986SOL    HW1 9857   1.450   3.852   5.204
 2986SOL    HW2 9858   1.388   3.967   5.106
 2987SOL     OW 9859   4.090   1.920   4.681
 2987SOL    HW1 9860   4.189   1.906   4.673
 2987SOL    HW2 9861   4.072   2.009   4.724
 2988SOL     OW 9862   0.693   0.652   1.639
 2988SOL    HW1 9863   0.646   0.740   1.647
 2988SOL    HW2 9864   0.771   0.648   1.701
 2989SOL     OW 9865   6.539   5.274   1.126
 2989SOL    HW1 9866   6.620   5.323   1.095
 2989SOL    HW2 9867   6.554   5.175   1.119
 2990SOL     OW 9868   3.438   1.668   1.656
 2990SOL    HW1 9869   3.495   1.585   1.662
 2990SOL    HW2 9870   3.345   1.642   1.632
 2991SOL     OW 9871   0.311   4.219   0.266
 2991SOL    HW1 9872   0.230   4.209   0.323
 2991SOL    HW2 9873   0.321   4.315   0.238
 2992SOL     OW 9874   3.459   5.549   6.371
 2992SOL    HW1 9875   3.361   5.561   6.351
 2992SOL    HW2 9876   3.480   5.589   6.460
 2993SOL     OW 9877   1.457   5.257   1.017
 2993SOL    HW1 9878   1.367   5.224   1.048
 2993SOL    HW2 9879   1.471   5.351   1.050
 2994SOL     OW 9880   4.843   0.358   0.277
 2994SOL    HW1 9881   4.886   0.424   0.216
 2994SOL    HW2 9882   4.748   0.344   0.249
 2995SOL     OW 9883   1.518   1.955   6.752
 2995SOL    HW1 9884   1.562   2.009   6.824
 2995SOL    HW2 9885   1.440   1.906   6.791
 2996SOL     OW 9886   4.081   5.196   5.992
 2996SOL    HW1 9887   3.985   5.220   6.007
 2996SOL    HW2 9888   4.105   5.118   6.050
 2997SOL     OW 9889   5.373   6.640   0.895
 2997SOL    HW1 9890   5.275   6.628   0.912
 2997SOL    HW2 9891   5.386   6.709   0.825
 2998SOL     OW 9892   5.847   5.719   3.603
 2998SOL    HW1 9893   5.817   5.718   3.698
 2998SOL    HW2 9894   5.939   5.756   3.597
 2999SOL     OW 9895   3.490   0.052   2.737
 2999SOL    HW1 9896   3.570   0.050   2.797
 2999SOL    HW2 9897   3.498   0.128   2.673
 3000SOL     OW 9898   1.477   3.248   6.059
 3000SOL    HW1 9899   1.513   3.247   6.153
 3000SOL    HW2 9900   1.553   3.242   5.994
 3001SOL     OW 9901   4.928   1.092   5.506
 3001SOL    HW1 9902   4.879   1.122   5.424
 3001SOL    HW2 9903   5.014   1.142   5.513
 3002SOL     OW 9904   4.812   0.308   5.431
 3002SOL    HW1 9905   4.850   0.232   5.379
 3002SOL    HW2 9906   4.725   0.336   5.391
 3003SOL     OW 9907   3.131   6.531   5.852
 3003SOL    HW1 9908   3.067   6.606   5.836
 3003SOL    HW2 9909   3.092   6.467   5.918
 3004SOL     OW 9910   6.238   3.518   3.897
 3004SOL    HW1 9911   6.275   3.533   3.989
 3004SOL    HW2 9912   6.165   3.450   3.901
 3005SOL     OW 9913   3.619   3.119   1.253
 3005SOL    HW1 9914   3.666   3.036   1.224
 3005SOL    HW2 9915   3.524   3.097   1.276
 3006SOL     OW 9916   4.882   1.390   1.289
 3006SOL    HW1 9917   4.801   1.381   1.348
 3006SOL    HW2 9918   4.876   1.324   1.214
 3007SOL     OW 9919   6.482   4.668   2.756
 3007SOL    HW1 9920   6.408   4.659   2.822
 3007SOL    HW2 9921   6.559   4.611   2.785
 3008SOL     OW 9922   3.579   6.353   5.897
 3008SOL    HW1 9923   3.521   6.272   5.899
 3008SOL    HW2 9924   3.651   6.344   5.966
 3009SOL     OW 9925   1.043   0.104   2.733
 3009SOL    HW1 9926   1.115   0.073   2.795
 3009SOL    HW2 9927   1.054   0.202   2.717
 3010SOL     OW 9928   3.332   5.595   2.780
 3010SOL    HW1 9929   3.331   5.629   2.874
 3010SOL    HW2 9930   3.363   5.500   2.779
 3011SOL     OW 9931   6.095   0.240   6.940
 3011SOL    HW1 9932   6.118   0.333   6.911
 3011SOL    HW2 9933   6.113   0.230   0.016
 3012SOL     OW 9934   0.331   4.156   3.237
 3012SOL    HW1 9935   0.350   4.186   3.331
 3012SOL    HW2 9936   0.342   4.232   3.174
 3013SOL     OW 9937   5.881   5.619   2.223
 3013SOL    HW1 9938   5.896   5.685   2.150
 3013SOL    HW2 9939   5.793   5.572   2.208
 3014SOL     OW 9940   5.290   1.365   3.921
 3014SOL    HW1 9941   5.264   1.441   3.981
 3014SOL    HW2 9942   5.389   1.354   3.923
 3015SOL     OW 9943   2.541   2.589   0.816
 3015SOL    HW1 9944   2.473   2.604   0.887
 3015SOL    HW2 9945   2.522   2.649   0.738
 3016SOL     OW 9946   3.695   6.207   3.677
 3016SOL    HW1 9947   3.661   6.113   3.672
 3016SOL    HW2 9948   3.631   6.263   3.729
 3017SOL     OW 9949   1.311   6.225   1.524
 3017SOL    HW1 9950   1.247   6.259   1.593
 3017SOL    HW2 9951   1.389   6.183   1.569
 3018SOL     OW 9952   4.161   6.842   6.605
 3018SOL    HW1 9953   4.082   6.824   6.665
 3018SOL    HW2 9954   4.152   6.788   6.522
 3019SOL     OW 9955   3.507   6.257   0.848
 3019SOL    HW1 9956   3.552   6.167   0.850
 3019SOL    HW2 9957   3.436   6.256   0.778
 3020SOL     OW 9958   2.834   3.360   1.460
 3020SOL    HW1 9959   2.869   3.309   1.381
 3020SOL    HW2 9960   2.793   3.446   1.429
 3021SOL     OW 9961   2.024   2.348   6.802
 3021SOL    HW1 9962   2.064   2.402   6.728
 3021SOL    HW2 9963   2.050   2.388   6.890
 3022SOL     OW 9964   4.709   6.439   3.026
 3022SOL    HW1 9965   4.748   6.442   3.118
 3022SOL    HW2 9966   4.710   6.344   2.993
 3023SOL     OW 9967   4.290   5.793   3.162
 3023SOL    HW1 9968   4.352   5.869   3.142
 3023SOL    HW2 9969   4.196   5.822   3.145
 3024SOL     OW 9970   3.342   1.133   7.011
 3024SOL    HW1 9971   3.412   1.177   6.955
 3024SOL    HW2 9972   3.273   1.092   6.952
 3025SOL     OW 9973   2.250   2.840   1.192
 3025SOL    HW1 9974   2.209   2.927   1.164
 3025SOL    HW2 9975   2.298   2.852   1.279
 3026SOL     OW 9976   1.544   3.064   0.899
 3026SOL    HW1 9977   1.613   3.095   0.833
 3026SOL    HW2 9978   1.464   3.124   0.894
 3027SOL     OW 9979   2.137   1.482   2.931
 3027SOL    HW1 9980   2.126   1.557   2.996
 3027SOL    HW2 9981   2.191   1.409   2.974
 3028SOL     OW 9982   1.573   5.577   6.295
 3028SOL    HW1 9983   1.661   5.530   6.286
 3028SOL    HW2 9984   1.512   5.525   6.354
 3029SOL     OW 9985   5.966   5.246   5.235
 3029SOL    HW1 9986   5.914   5.162   5.251
 3029SOL    HW2 9987   6.004   5.278   5.322
 3030SOL     OW 9988   1.431   1.162   5.695
 3030SOL    HW1 9989   1.501   1.224   5.659
 3030SOL    HW2 9990   1.460   1.067   5.681
 3031SOL     OW 9991   0.490   3.962   6.272
 3031SOL    HW1 9992   0.516   3.867   6.256
 3031SOL    HW2 9993   0.403   3.981   6.226
 3032SOL     OW 9994   4.695   0.414   6.066
 3032SOL    HW1 9995   4.788   0.449   6.073
 3032SOL    HW2 9996   4.630   0.486   6.088
 3033SOL     OW 9997   0.281   4.003   0.114
 3033SOL    HW1 9998   0.323   4.072   0.173
 3033SOL    HW2 9999   0.205   3.960   0.161
 3034SOL     OW10000   3.435   6.351   3.860
 3034SOL    HW110001   3.389   6.263   3.845
 3034SOL    HW210002   3.404   6.391   3.946
 3035SOL     OW10003   5.903   1.505   0.136
 3035SOL    HW110004   5.880   1.602   0.141
 3035SOL    HW210005   5.818   1.452   0.134
 3036SOL     OW10006   0.948   4.142   6.811
 3036SOL    HW110007   0.911   4.088   6.735
 3036SOL    HW210008   1.030   4.190   6.780
 3037SOL     OW10009   6.735   6.231   4.765
 3037SOL    HW110010   6.801   6.298   4.799
 3037SOL    HW210011   6.733   6.152   4.826
 3038SOL     OW10012   5.371   6.855   5.875
 3038SOL    HW110013   5.468   6.873   5.890
 3038SOL    HW210014   5.346   6.770   5.921
 3039SOL     OW10015   0.188   4.055   1.886
 3039SOL    HW110016   0.142   4.142   1.867
 3039SOL    HW210017   0.286   4.066   1.873
 3040SOL     OW10018   2.916   3.681   6.242
 3040SOL    HW110019   2.849   3.609   6.257
 3040SOL    HW210020   2.942   3.682   6.146
 3041SOL     OW10021   2.100   2.614   5.417
 3041SOL    HW110022   2.161   2.635   5.494
 3041SOL    HW210023   2.130   2.666   5.337
 3042SOL     OW10024   4.689   0.388   2.124
 3042SOL    HW110025   4.777   0.422   2.156
 3042SOL    HW210026   4.631   0.466   2.098
 3043SOL     OW10027   0.955   5.739   6.976
 3043SOL    HW110028   0.865   5.733   6.935
 3043SOL    HW210029   0.962   5.822   0.010
 3044SOL     OW10030   3.216   4.104   6.007
 3044SOL    HW110031   3.213   4.110   5.907
 3044SOL    HW210032   3.213   4.008   6.035
 3045SOL     OW10033   4.913   1.633   2.504
 3045SOL    HW110034   5.005   1.607   2.533
 3045SOL    HW210035   4.917   1.720   2.455
 3046SOL     OW10036   1.417   2.865   5.656
 3046SOL    HW110037   1.352   2.916   5.713
 3046SOL    HW210038   1.510   2.897   5.676
 3047SOL     OW10039   6.063   5.559   2.431
 3047SOL    HW110040   5.979   5.545   2.379
 3047SOL    HW210041   6.071   5.655   2.458
 3048SOL     OW10042   3.801   3.446   1.643
 3048SOL    HW110043   3.712   3.491   1.642
 3048SOL    HW210044   3.796   3.360   1.592
 3049SOL     OW10045   0.946   0.662   1.906
 3049SOL    HW110046   0.893   0.583   1.936
 3049SOL    HW210047   0.884   0.736   1.881
 3050SOL     OW10048   4.276   5.736   3.710
 3050SOL    HW110049   4.334   5.666   3.751
 3050SOL    HW210050   4.272   5.721   3.611
 3051SOL     OW10051   2.892   5.665   6.398
 3051SOL    HW110052   2.895   5.579   6.349
 3051SOL    HW210053   2.921   5.651   6.493
 3052SOL     OW10054   3.820   0.354   2.653
 3052SOL    HW110055   3.889   0.381   2.586
 3052SOL    HW210056   3.760   0.431   2.672
 3053SOL     OW10057   6.000   6.814   6.947
 3053SOL    HW110058   5.935   6.754   6.900
 3053SOL    HW210059   6.087   6.814   6.897
 3054SOL     OW10060   0.554   3.797   0.132
 3054SOL    HW110061   0.576   3.894   0.133
 3054SOL    HW210062   0.579   3.758   0.042
 3055SOL     OW10063   5.702   6.519   3.112
 3055SOL    HW110064   5.707   6.613   3.079
 3055SOL    HW210065   5.750   6.512   3.200
 3056SOL     OW10066   0.077   0.457   0.163
 3056SOL    HW110067   0.037   0.377   0.207
 3056SOL    HW210068   0.111   0.520   0.233
 3057SOL     OW10069   6.303   4.573   2.541
 3057SOL    HW110070   6.352   4.600   2.624
 3057SOL    HW210071   6.320   4.476   2.523
 3058SOL     OW10072   6.236   5.845   0.492
 3058SOL    HW110073   6.222   5.779   0.418
 3058SOL    HW210074   6.304   5.810   0.556
 3059SOL     OW10075   0.555   2.856   4.929
 3059SOL    HW110076   0.580   2.836   4.834
 3059SOL    HW210077   0.610   2.934   4.961
 3060SOL     OW10078   0.260   6.185   1.400
 3060SOL    HW110079   0.241   6.274   1.443
 3060SOL    HW210080   0.182   6.158   1.344
 3061SOL     OW10081   0.012   0.687   5.365
 3061SOL    HW110082   0.038   0.746   5.289
 3061SOL    HW210083   0.095   0.654   5.410
 3062SOL     OW10084   2.611   6.021   1.298
 3062SOL    HW110085   2.588   6.115   1.274
 3062SOL    HW210086   2.533   5.962   1.276
 3063SOL     OW10087   1.612   5.293   1.536
 3063SOL    HW110088   1.683   5.318   1.470
 3063SOL    HW210089   1.650   5.291   1.628
 3064SOL     OW10090   6.569   3.843   3.399
 3064SOL    HW110091   6.552   3.851   3.301
 3064SOL    HW210092   6.483   3.857   3.449
 3065SOL     OW10093   1.470   0.831   7.015
 3065SOL    HW110094   1.480   0.755   0.058
 3065SOL    HW210095   1.405   0.806   6.943
 3066SOL     OW10096   6.249   4.515   0.929
 3066SOL    HW110097   6.259   4.452   0.853
 3066SOL    HW210098   6.218   4.466   1.010
 3067SOL     OW10099   4.507   0.273   4.561
 3067SOL    HW110100   4.555   0.349   4.604
 3067SOL    HW210101   4.432   0.244   4.620
 3068SOL     OW10102   5.768   5.878   1.308
 3068SOL    HW110103   5.792   5.799   1.363
 3068SOL    HW210104   5.670   5.877   1.288
 3069SOL     OW10105   0.554   5.400   1.791
 3069SOL    HW110106   0.549   5.301   1.781
 3069SOL    HW210107   0.556   5.425   1.888
 3070SOL     OW10108   2.509   1.649   3.288
 3070SOL    HW110109   2.484   1.577   3.223
 3070SOL    HW210110   2.485   1.620   3.381
 3071SOL     OW10111   6.121   0.188   4.032
 3071SOL    HW110112   6.214   0.154   4.014
 3071SOL    HW210113   6.089   0.241   3.954
 3072SOL     OW10114   0.591   6.641   2.163
 3072SOL    HW110115   0.572   6.688   2.249
 3072SOL    HW210116   0.638   6.555   2.181
 3073SOL     OW10117   1.255   3.734   5.500
 3073SOL    HW110118   1.354   3.742   5.502
 3073SOL    HW210119   1.214   3.815   5.541
 3074SOL     OW10120   4.864   2.562   6.713
 3074SOL    HW110121   4.915   2.619   6.778
 3074SOL    HW210122   4.790   2.515   6.761
 3075SOL     OW10123   1.869   6.377   1.203
 3075SOL    HW110124   1.963   6.358   1.230
 3075SOL    HW210125   1.829   6.443   1.266
 3076SOL     OW10126   6.358   0.635   5.161
 3076SOL    HW110127   6.293   0.585   5.217
 3076SOL    HW210128   6.387   0.578   5.084
 3077SOL     OW10129   5.857   4.327   4.732
 3077SOL    HW110130   5.910   4.277   4.801
 3077SOL    HW210131   5.881   4.424   4.735
 3078SOL     OW10132   1.841   3.790   1.931
 3078SOL    HW110133   1.903   3.772   1.855
 3078SOL    HW210134   1.835   3.889   1.945
 3079SOL     OW10135   0.040   2.292   4.932
 3079SOL    HW110136   0.105   2.240   4.988
 3079SOL    HW210137   0.073   2.294   4.837
 3080SOL     OW10138   5.945   5.201   1.380
 3080SOL    HW110139   6.044   5.200   1.391
 3080SOL    HW210140   5.919   5.153   1.297
 3081SOL     OW10141   0.528   4.142   5.676
 3081SOL    HW110142   0.585   4.087   5.617
 3081SOL    HW210143   0.541   4.239   5.655
 3082SOL     OW10144   3.560   0.275   2.547
 3082SOL    HW110145   3.478   0.322   2.578
 3082SOL    HW210146   3.641   0.329   2.572
 3083SOL     OW10147   3.631   0.456   1.584
 3083SOL    HW110148   3.594   0.530   1.527
 3083SOL    HW210149   3.702   0.408   1.533
 3084SOL     OW10150   5.260   5.152   4.386
 3084SOL    HW110151   5.313   5.068   4.391
 3084SOL    HW210152   5.253   5.193   4.477
 3085SOL     OW10153   6.710   5.515   2.566
 3085SOL    HW110154   6.718   5.579   2.643
 3085SOL    HW210155   6.638   5.449   2.586
 3086SOL     OW10156   5.104   1.628   2.743
 3086SOL    HW110157   5.140   1.684   2.818
 3086SOL    HW210158   5.006   1.616   2.755
 3087SOL     OW10159   6.416   4.159   3.100
 3087SOL    HW110160   6.431   4.185   3.196
 3087SOL    HW210161   6.363   4.074   3.096
 3088SOL     OW10162   2.554   4.579   5.302
 3088SOL    HW110163   2.642   4.598   5.346
 3088SOL    HW210164   2.553   4.485   5.268
 3089SOL     OW10165   0.939   2.639   6.865
 3089SOL    HW110166   0.932   2.542   6.843
 3089SOL    HW210167   1.007   2.652   6.938
 3090SOL     OW10168   1.405   1.258   0.789
 3090SOL    HW110169   1.356   1.331   0.836
 3090SOL    HW210170   1.503   1.272   0.799
 3091SOL     OW10171   2.140   6.757   1.048
 3091SOL    HW110172   2.195   6.677   1.024
 3091SOL    HW210173   2.078   6.733   1.123
 3092SOL     OW10174   6.790   6.686   0.593
 3092SOL    HW110175   6.845   6.733   0.663
 3092SOL    HW210176   6.815   6.590   0.589
 3093SOL     OW10177   6.210   5.539   5.234
 3093SOL    HW110178   6.117   5.549   5.198
 3093SOL    HW210179   6.239   5.625   5.276
 3094SOL     OW10180   3.483   5.553   5.016
 3094SOL    HW110181   3.579   5.552   5.045
 3094SOL    HW210182   3.469   5.628   4.951
 3095SOL     OW10183   2.606   4.658   4.260
 3095SOL    HW110184   2.683   4.696   4.311
 3095SOL    HW210185   2.627   4.659   4.162
 3096SOL     OW10186   0.181   6.973   5.341
 3096SOL    HW110187   0.137   6.889   5.373
 3096SOL    HW210188   0.129   7.010   5.264
 3097SOL     OW10189   0.790   2.500   0.439
 3097SOL    HW110190   0.721   2.544   0.497
 3097SOL    HW210191   0.779   2.532   0.344
 3098SOL     OW10192   2.685   3.500   0.600
 3098SOL    HW110193   2.660   3.516   0.505
 3098SOL    HW210194   2.603   3.499   0.658
 3099SOL     OW10195   0.722   6.193   5.506
 3099SOL    HW110196   0.733   6.280   5.459
 3099SOL    HW210197   0.772   6.195   5.593
 3100SOL     OW10198   6.765   6.319   6.421
 3100SOL    HW110199   6.796   6.413   6.412
 3100SOL    HW210200   6.823   6.271   6.486
 3101SOL     OW10201   4.881   6.766   6.336
 3101SOL    HW110202   4.800   6.825   6.347
 3101SOL    HW210203   4.880   6.725   6.245
 3102SOL     OW10204   1.614   4.071   1.085
 3102SOL    HW110205   1.570   4.101   1.170
 3102SOL    HW210206   1.698   4.122   1.072
 3103SOL     OW10207   4.342   2.799   1.146
 3103SOL    HW110208   4.439   2.800   1.120
 3103SOL    HW210209   4.287   2.772   1.066
 3104SOL     OW10210   5.544   5.583   4.170
 3104SOL    HW110211   5.614   5.647   4.140
 3104SOL    HW210212   5.466   5.586   4.107
 3105SOL     OW10213   5.799   6.599   4.190
 3105SOL    HW110214   5.819   6.659   4.113
 3105SOL    HW210215   5.727   6.641   4.246
 3106SOL     OW10216   6.478   2.712   3.037
 3106SOL    HW110217   6.398   2.689   3.093
 3106SOL    HW210218   6.558   2.721   3.096
 3107SOL     OW10219   3.171   0.402   3.742
 3107SOL    HW110220   3.156   0.341   3.819
 3107SOL    HW210221   3.161   0.351   3.656
 3108SOL     OW10222   2.158   0.948   4.196
 3108SOL    HW110223   2.254   0.932   4.222
 3108SOL    HW210224   2.152   1.033   4.144
 3109SOL     OW10225   5.038   6.204   3.130
 3109SOL    HW110226   5.127   6.161   3.142
 3109SOL    HW210227   5.049   6.291   3.082
 3110SOL     OW10228   0.440   3.163   2.287
 3110SOL    HW110229   0.340   3.163   2.276
 3110SOL    HW210230   0.479   3.241   2.237
 3111SOL     OW10231   0.008   5.241   3.588
 3111SOL    HW110232   0.107   5.238   3.602
 3111SOL    HW210233   6.988   5.157   3.623
 3112SOL     OW10234   4.679   3.648   6.657
 3112SOL    HW110235   4.659   3.641   6.755
 3112SOL    HW210236   4.623   3.721   6.617
 3113SOL     OW10237   2.065   6.450   3.403
 3113SOL    HW110238   1.992   6.400   3.357
 3113SOL    HW210239   2.041   6.546   3.409
 3114SOL     OW10240   5.861   4.723   0.621
 3114SOL    HW110241   5.923   4.686   0.552
 3114SOL    HW210242   5.885   4.819   0.638
 3115SOL     OW10243   3.911   3.692   0.393
 3115SOL    HW110244   3.842   3.740   0.447
 3115SOL    HW210245   3.875   3.604   0.362
 3116SOL     OW10246   6.375   2.215   6.444
 3116SOL    HW110247   6.312   2.144   6.475
 3116SOL    HW210248   6.367   2.226   6.345
 3117SOL     OW10249   4.169   3.263   5.252
 3117SOL    HW110250   4.123   3.174   5.259
 3117SOL    HW210251   4.118   3.331   5.305
 3118SOL     OW10252   6.903   4.272   0.710
 3118SOL    HW110253   7.002   4.283   0.708
 3118SOL    HW210254   6.867   4.308   0.796
 3119SOL     OW10255   1.512   4.327   5.274
 3119SOL    HW110256   1.503   4.235   5.235
 3119SOL    HW210257   1.567   4.384   5.214
 3120SOL     OW10258   2.889   5.214   4.661
 3120SOL    HW110259   2.942   5.131   4.640
 3120SOL    HW210260   2.829   5.196   4.739
 3121SOL     OW10261   6.782   1.143   2.380
 3121SOL    HW110262   6.785   1.110   2.474
 3121SOL    HW210263   6.687   1.151   2.350
 3122SOL     OW10264   2.649   5.807   6.334
 3122SOL    HW110265   2.669   5.756   6.250
 3122SOL    HW210266   2.731   5.857   6.362
 3123SOL     OW10267   3.976   6.925   4.078
 3123SOL    HW110268   4.015   6.896   3.991
 3123SOL    HW210269   3.940   7.018   4.071
 3124SOL     OW10270   4.229   1.421   5.714
 3124SOL    HW110271   4.160   1.482   5.753
 3124SOL    HW210272   4.222   1.423   5.614
 3125SOL     OW10273   6.213   1.730   5.514
 3125SOL    HW110274   6.286   1.697   5.455
 3125SOL    HW210275   6.211   1.676   5.598
 3126SOL     OW10276   4.670   5.979   6.830
 3126SOL    HW110277   4.688   6.033   6.912
 3126SOL    HW210278   4.669   5.882   6.854
 3127SOL     OW10279   0.955   2.027   4.079
 3127SOL    HW110280   0.988   1.942   4.038
 3127SOL    HW210281   1.030   2.071   4.129
 3128SOL     OW10282   2.305   1.260   0.799
 3128SOL    HW110283   2.362   1.179   0.810
 3128SOL    HW210284   2.230   1.240   0.736
 3129SOL     OW10285   6.835   4.189   5.510
 3129SOL    HW110286   6.931   4.175   5.483
 3129SOL    HW210287   6.781   4.109   5.482
 3130SOL     OW10288   2.114   4.661   2.147
 3130SOL    HW110289   2.015   4.657   2.138
 3130SOL    HW210290   2.139   4.654   2.244
 3131SOL     OW10291   6.436   3.420   2.446
 3131SOL    HW110292   6.522   3.374   2.423
 3131SOL    HW210293   6.369   3.352   2.475
 3132SOL     OW10294   5.859   6.348   5.516
 3132SOL    HW110295   5.902   6.435   5.541
 3132SOL    HW210296   5.761   6.353   5.535
 3133SOL     OW10297   3.046   2.086   3.051
 3133SOL    HW110298   2.987   2.005   3.050
 3133SOL    HW210299   3.142   2.057   3.055
 3134SOL     OW10300   4.980   3.257   1.486
 3134SOL    HW110301   4.906   3.286   1.426
 3134SOL    HW210302   5.067   3.291   1.452
 3135SOL     OW10303   3.801   2.143   3.331
 3135SOL    HW110304   3.736   2.142   3.255
 3135SOL    HW210305   3.750   2.146   3.418
 3136SOL     OW10306   6.141   5.779   5.905
 3136SOL    HW110307   6.239   5.770   5.894
 3136SOL    HW210308   6.116   5.876   5.906
 3137SOL     OW10309   5.650   1.743   4.127
 3137SOL    HW110310   5.718   1.791   4.072
 3137SOL    HW210311   5.696   1.683   4.193
 3138SOL     OW10312   6.139   1.204   4.649
 3138SOL    HW110313   6.111   1.138   4.579
 3138SOL    HW210314   6.224   1.172   4.691
 3139SOL     OW10315   4.970   6.078   5.376
 3139SOL    HW110316   4.986   6.177   5.378
 3139SOL    HW210317   5.051   6.032   5.340
 3140SOL     OW10318   6.735   6.109   6.790
 3140SOL    HW110319   6.815   6.152   6.831
 3140SOL    HW210320   6.764   6.036   6.728
 3141SOL     OW10321   1.672   5.821   7.007
 3141SOL    HW110322   1.765   5.837   0.018
 3141SOL    HW210323   1.629   5.749   0.042
 3142SOL     OW10324   4.362   6.247   5.755
 3142SOL    HW110325   4.446   6.295   5.779
 3142SOL    HW210326   4.307   6.233   5.837
 3143SOL     OW10327   6.523   2.029   0.383
 3143SOL    HW110328   6.540   2.076   0.297
 3143SOL    HW210329   6.598   1.966   0.403
 3144SOL     OW10330   1.779   3.678   6.629
 3144SOL    HW110331   1.835   3.758   6.605
 3144SOL    HW210332   1.817   3.597   6.584
 3145SOL     OW10333   2.728   5.736   2.900
 3145SOL    HW110334   2.751   5.729   2.997
 3145SOL    HW210335   2.771   5.818   2.861
 3146SOL     OW10336   1.523   0.419   3.452
 3146SOL    HW110337   1.469   0.408   3.536
 3146SOL    HW210338   1.504   0.508   3.411
 3147SOL     OW10339   4.933   3.751   0.634
 3147SOL    HW110340   4.941   3.847   0.608
 3147SOL    HW210341   4.898   3.698   0.558
 3148SOL     OW10342   3.879   5.446   4.593
 3148SOL    HW110343   3.896   5.527   4.648
 3148SOL    HW210344   3.866   5.367   4.654
 3149SOL     OW10345   3.458   0.109   5.571
 3149SOL    HW110346   3.537   0.164   5.544
 3149SOL    HW210347   3.413   0.071   5.490
 3150SOL     OW10348   5.995   6.411   4.384
 3150SOL    HW110349   5.911   6.433   4.333
 3150SOL    HW210350   6.074   6.439   4.330
 3151SOL     OW10351   4.177   1.397   6.095
 3151SOL    HW110352   4.195   1.343   6.177
 3151SOL    HW210353   4.162   1.493   6.119
 3152SOL     OW10354   0.725   5.183   1.635
 3152SOL    HW110355   0.756   5.213   1.544
 3152SOL    HW210356   0.791   5.211   1.704
 3153SOL     OW10357   6.296   4.326   2.419
 3153SOL    HW110358   6.207   4.372   2.412
 3153SOL    HW210359   6.289   4.234   2.380
 3154SOL     OW10360   5.817   2.690   5.826
 3154SOL    HW110361   5.721   2.699   5.799
 3154SOL    HW210362   5.828   2.721   5.920
 3155SOL     OW10363   5.571   5.803   0.702
 3155SOL    HW110364   5.661   5.835   0.733
 3155SOL    HW210365   5.506   5.810   0.778
 3156SOL     OW10366   3.775   4.013   3.668
 3156SOL    HW110367   3.683   4.011   3.707
 3156SOL    HW210368   3.843   4.009   3.741
 3157SOL     OW10369   2.143   3.797   3.983
 3157SOL    HW110370   2.064   3.804   4.043
 3157SOL    HW210371   2.218   3.853   4.019
 3158SOL     OW10372   4.854   6.598   1.118
 3158SOL    HW110373   4.836   6.651   1.200
 3158SOL    HW210374   4.784   6.617   1.049
 3159SOL     OW10375   4.951   5.509   6.796
 3159SOL    HW110376   5.032   5.497   6.739
 3159SOL    HW210377   4.883   5.440   6.773
 3160SOL     OW10378   4.739   4.595   6.999
 3160SOL    HW110379   4.693   4.564   0.060
 3160SOL    HW210380   4.800   4.523   6.966
 3161SOL     OW10381   1.353   0.972   3.175
 3161SOL    HW110382   1.380   1.066   3.152
 3161SOL    HW210383   1.253   0.964   3.172
 3162SOL     OW10384   0.393   5.119   6.221
 3162SOL    HW110385   0.429   5.154   6.135
 3162SOL    HW210386   0.297   5.092   6.209
 3163SOL     OW10387   3.638   3.910   6.512
 3163SOL    HW110388   3.659   3.909   6.414
 3163SOL    HW210389   3.709   3.962   6.560
 3164SOL     OW10390   5.326   4.280   0.615
 3164SOL    HW110391   5.370   4.204   0.664
 3164SOL    HW210392   5.230   4.258   0.599
 3165SOL     OW10393   0.390   1.258   2.357
 3165SOL    HW110394   0.436   1.343   2.382
 3165SOL    HW210395   0.314   1.278   2.295
 3166SOL     OW10396   5.479   3.380   6.402
 3166SOL    HW110397   5.439   3.427   6.481
 3166SOL    HW210398   5.431   3.294   6.386
 3167SOL     OW10399   0.481   5.136   1.735
 3167SOL    HW110400   0.565   5.160   1.686
 3167SOL    HW210401   0.417   5.091   1.673
 3168SOL     OW10402   5.668   3.321   1.163
 3168SOL    HW110403   5.616   3.372   1.232
 3168SOL    HW210404   5.694   3.383   1.089
 3169SOL     OW10405   1.045   2.947   4.814
 3169SOL    HW110406   1.064   3.045   4.811
 3169SOL    HW210407   0.964   2.926   4.760
 3170SOL     OW10408   4.183   0.808   0.178
 3170SOL    HW110409   4.136   0.856   0.104
 3170SOL    HW210410   4.125   0.805   0.259
 3171SOL     OW10411   5.073   6.445   2.996
 3171SOL    HW110412   5.116   6.485   3.077
 3171SOL    HW210413   5.017   6.514   2.950
 3172SOL     OW10414   6.658   0.079   5.062
 3172SOL    HW110415   6.590   0.026   5.010
 3172SOL    HW210416   6.614   0.124   5.139
 3173SOL     OW10417   2.297   0.566   1.793
 3173SOL    HW110418   2.246   0.480   1.802
 3173SOL    HW210419   2.373   0.552   1.730
 3174SOL     OW10420   2.571   3.255   6.016
 3174SOL    HW110421   2.573   3.155   6.005
 3174SOL    HW210422   2.550   3.278   6.111
 3175SOL     OW10423   1.092   6.441   0.933
 3175SOL    HW110424   1.153   6.520   0.940
 3175SOL    HW210425   1.116   6.387   0.853
 3176SOL     OW10426   0.667   4.208   6.631
 3176SOL    HW110427   0.664   4.167   6.540
 3176SOL    HW210428   0.735   4.281   6.633
 3177SOL     OW10429   6.127   5.723   6.203
 3177SOL    HW110430   6.217   5.681   6.218
 3177SOL    HW210431   6.101   5.711   6.107
 3178SOL     OW10432   0.831   3.955   1.558
 3178SOL    HW110433   0.760   3.932   1.492
 3178SOL    HW210434   0.790   3.997   1.639
 3179SOL     OW10435   1.689   1.629   1.991
 3179SOL    HW110436   1.594   1.653   1.975
 3179SOL    HW210437   1.693   1.546   2.047
 3180SOL     OW10438   5.503   0.644   6.224
 3180SOL    HW110439   5.545   0.727   6.259
 3180SOL    HW210440   5.454   0.664   6.139
 3181SOL     OW10441   0.931   0.850   3.365
 3181SOL    HW110442   0.842   0.818   3.334
 3181SOL    HW210443   0.920   0.904   3.448
 3182SOL     OW10444   2.137   5.772   5.514
 3182SOL    HW110445   2.048   5.814   5.497
 3182SOL    HW210446   2.127   5.696   5.578
 3183SOL     OW10447   4.223   3.474   1.335
 3183SOL    HW110448   4.233   3.569   1.305
 3183SOL    HW210449   4.288   3.417   1.285
 3184SOL     OW10450   2.578   1.875   2.058
 3184SOL    HW110451   2.608   1.824   1.978
 3184SOL    HW210452   2.602   1.971   2.047
 3185SOL     OW10453   6.450   6.833   6.088
 3185SOL    HW110454   6.499   6.792   6.165
 3185SOL    HW210455   6.364   6.784   6.073
 3186SOL     OW10456   3.052   0.811   2.636
 3186SOL    HW110457   2.987   0.886   2.635
 3186SOL    HW210458   3.086   0.794   2.543
 3187SOL     OW10459   3.382   4.532   0.556
 3187SOL    HW110460   3.326   4.576   0.626
 3187SOL    HW210461   3.343   4.443   0.532
 3188SOL     OW10462   4.078   6.072   3.354
 3188SOL    HW110463   4.061   6.096   3.259
 3188SOL    HW210464   4.146   6.134   3.393
 3189SOL     OW10465   1.309   6.215   2.908
 3189SOL    HW110466   1.341   6.146   2.974
 3189SOL    HW210467   1.224   6.255   2.940
 3190SOL     OW10468   1.088   6.140   2.747
 3190SOL    HW110469   1.069   6.233   2.715
 3190SOL    HW210470   1.170   6.140   2.804
 3191SOL     OW10471   4.237   0.511   1.096
 3191SOL    HW110472   4.227   0.423   1.050
 3191SOL    HW210473   4.249   0.583   1.028
 3192SOL     OW10474   0.114   3.215   1.952
 3192SOL    HW110475   0.168   3.297   1.971
 3192SOL    HW210476   0.089   3.213   1.855
 3193SOL     OW10477   4.590   2.832   6.276
 3193SOL    HW110478   4.607   2.910   6.336
 3193SOL    HW210479   4.611   2.747   6.325
 3194SOL     OW10480   0.481   3.378   5.895
 3194SOL    HW110481   0.502   3.368   5.798
 3194SOL    HW210482   0.549   3.437   5.938
 3195SOL     OW10483   0.956   3.202   3.390
 3195SOL    HW110484   1.044   3.167   3.357
 3195SOL    HW210485   0.900   3.126   3.423
 3196SOL     OW10486   6.639   7.003   5.381
 3196SOL    HW110487   6.584   0.024   5.454
 3196SOL    HW210488   6.718   6.957   5.422
 3197SOL     OW10489   1.196   4.566   3.831
 3197SOL    HW110490   1.170   4.662   3.818
 3197SOL    HW210491   1.118   4.515   3.866
 3198SOL     OW10492   0.265   1.898   6.792
 3198SOL    HW110493   0.298   1.989   6.767
 3198SOL    HW210494   0.343   1.838   6.813
 3199SOL     OW10495   4.651   1.907   1.843
 3199SOL    HW110496   4.623   1.864   1.757
 3199SOL    HW210497   4.692   1.996   1.824
 3200SOL     OW10498   6.843   1.748   0.970
 3200SOL    HW110499   6.875   1.826   0.916
 3200SOL    HW210500   6.834   1.776   1.066
 3201SOL     OW10501   4.549   4.756   3.134
 3201SOL    HW110502   4.598   4.836   3.168
 3201SOL    HW210503   4.514   4.703   3.211
 3202SOL     OW10504   1.606   5.567   1.813
 3202SOL    HW110505   1.553   5.591   1.894
 3202SOL    HW210506   1.661   5.486   1.831
 3203SOL     OW10507   6.567   6.928   1.624
 3203SOL    HW110508   6.484   6.949   1.572
 3203SOL    HW210509   6.552   6.848   1.681
 3204SOL     OW10510   6.528   5.813   1.893
 3204SOL    HW110511   6.621   5.850   1.882
 3204SOL    HW210512   6.471   5.880   1.939
 3205SOL     OW10513   0.440   3.763   3.817
 3205SOL    HW110514   0.481   3.722   3.736
 3205SOL    HW210515   0.509   3.769   3.890
 3206SOL     OW10516   1.559   6.880   6.356
 3206SOL    HW110517   1.622   6.853   6.428
 3206SOL    HW210518   1.611   6.907   6.275
 3207SOL     OW10519   0.603   1.314   4.428
 3207SOL    HW110520   0.679   1.292   4.489
 3207SOL    HW210521   0.638   1.345   4.340
 3208SOL     OW10522   4.788   6.794   5.190
 3208SOL    HW110523   4.696   6.825   5.167
 3208SOL    HW210524   4.782   6.707   5.239
 3209SOL     OW10525   2.461   0.601   4.011
 3209SOL    HW110526   2.419   0.619   4.100
 3209SOL    HW210527   2.488   0.687   3.969
 3210SOL     OW10528   6.864   4.712   2.494
 3210SOL    HW110529   6.775   4.742   2.527
 3210SOL    HW210530   6.935   4.774   2.528
 3211SOL     OW10531   1.841   4.091   2.287
 3211SOL    HW110532   1.908   4.142   2.234
 3211SOL    HW210533   1.861   3.993   2.281
 3212SOL     OW10534   4.824   2.177   6.190
 3212SOL    HW110535   4.844   2.091   6.143
 3212SOL    HW210536   4.859   2.172   6.284
 3213SOL     OW10537   5.796   6.359   1.618
 3213SOL    HW110538   5.768   6.455   1.620
 3213SOL    HW210539   5.894   6.353   1.596
 3214SOL     OW10540   4.625   5.928   5.979
 3214SOL    HW110541   4.657   5.834   5.986
 3214SOL    HW210542   4.605   5.963   6.071
 3215SOL     OW10543   5.856   1.729   6.796
 3215SOL    HW110544   5.778   1.678   6.831
 3215SOL    HW210545   5.941   1.686   6.828
 3216SOL     OW10546   5.697   6.796   3.750
 3216SOL    HW110547   5.673   6.865   3.817
 3216SOL    HW210548   5.630   6.722   3.753
 3217SOL     OW10549   6.824   3.881   1.938
 3217SOL    HW110550   6.734   3.855   1.974
 3217SOL    HW210551   6.815   3.964   1.883
 3218SOL     OW10552   2.976   0.137   3.127
 3218SOL    HW110553   2.990   0.186   3.041
 3218SOL    HW210554   3.063   0.126   3.174
 3219SOL     OW10555   6.337   0.631   4.040
 3219SOL    HW110556   6.355   0.541   4.000
 3219SOL    HW210557   6.356   0.702   3.973
 3220SOL     OW10558   6.229   3.557   5.582
 3220SOL    HW110559   6.260   3.631   5.523
 3220SOL    HW210560   6.303   3.530   5.643
 3221SOL     OW10561   2.895   6.767   3.130
 3221SOL    HW110562   2.872   6.782   3.227
 3221SOL    HW210563   2.969   6.828   3.104
 3222SOL     OW10564   5.954   2.502   2.704
 3222SOL    HW110565   5.956   2.515   2.804
 3222SOL    HW210566   5.898   2.573   2.663
 3223SOL     OW10567   2.105   5.443   4.788
 3223SOL    HW110568   2.085   5.350   4.818
 3223SOL    HW210569   2.175   5.484   4.847
 3224SOL     OW10570   3.848   5.323   6.965
 3224SOL    HW110571   3.850   5.411   7.013
 3224SOL    HW210572   3.937   5.277   6.976
 3225SOL     OW10573   2.611   3.493   6.752
 3225SOL    HW110574   2.602   3.591   6.770
 3225SOL    HW210575   2.684   3.479   6.684
 3226SOL     OW10576   1.481   0.823   3.982
 3226SOL    HW110577   1.474   0.893   3.911
 3226SOL    HW210578   1.552   0.849   4.047
 3227SOL     OW10579   2.567   1.158   6.436
 3227SOL    HW110580   2.492   1.203   6.388
 3227SOL    HW210581   2.654   1.184   6.393
 3228SOL     OW10582   5.519   3.498   4.974
 3228SOL    HW110583   5.603   3.487   4.920
 3228SOL    HW210584   5.474   3.584   4.949
 3229SOL     OW10585   4.039   2.277   5.205
 3229SOL    HW110586   4.112   2.315   5.148
 3229SOL    HW210587   4.072   2.268   5.299
 3230SOL     OW10588   1.239   0.661   3.987
 3230SOL    HW110589   1.260   0.564   3.993
 3230SOL    HW210590   1.324   0.713   3.976
 3231SOL     OW10591   6.128   6.185   1.310
 3231SOL    HW110592   6.186   6.133   1.247
 3231SOL    HW210593   6.035   6.187   1.276
 3232SOL     OW10594   1.551   4.872   4.019
 3232SOL    HW110595   1.597   4.938   4.079
 3232SOL    HW210596   1.483   4.920   3.964
 3233SOL     OW10597   0.524   4.118   1.146
 3233SOL    HW110598   0.437   4.166   1.152
 3233SOL    HW210599   0.597   4.176   1.183
 3234SOL     OW10600   0.485   1.735   5.402
 3234SOL    HW110601   0.418   1.661   5.400
 3234SOL    HW210602   0.567   1.706   5.453
 3235SOL     OW10603   5.170   0.174   2.675
 3235SOL    HW110604   5.247   0.111   2.660
 3235SOL    HW210605   5.089   0.138   2.629
 3236SOL     OW10606   0.663   2.968   1.864
 3236SOL    HW110607   0.653   3.005   1.771
 3236SOL    HW210608   0.685   3.042   1.927
 3237SOL     OW10609   3.235   0.358   4.662
 3237SOL    HW110610   3.323   0.385   4.702
 3237SOL    HW210611   3.193   0.437   4.618
 3238SOL     OW10612   0.260   6.617   6.821
 3238SOL    HW110613   0.260   6.717   6.834
 3238SOL    HW210614   0.254   6.597   6.723
 3239SOL     OW10615   6.658   6.732   5.613
 3239SOL    HW110616   6.672   6.730   5.712
 3239SOL    HW210617   6.563   6.755   5.593
 3240SOL     OW10618   1.039   1.770   4.437
 3240SOL    HW110619   1.003   1.698   4.377
 3240SOL    HW210620   1.076   1.728   4.520
 3241SOL     OW10621   5.579   0.531   4.274
 3241SOL    HW110622   5.495   0.524   4.220
 3241SOL    HW210623   5.557   0.519   4.371
 3242SOL     OW10624   3.712   6.598   0.393
 3242SOL    HW110625   3.682   6.689   0.363
 3242SOL    HW210626   3.647   6.564   0.461
 3243SOL     OW10627   3.510   5.332   0.701
 3243SOL    HW110628   3.428   5.331   0.643
 3243SOL    HW210629   3.544   5.239   0.711
 3244SOL     OW10630   3.042   6.212   6.555
 3244SOL    HW110631   2.965   6.221   6.618
 3244SOL    HW210632   3.095   6.131   6.579
 3245SOL     OW10633   3.873   2.433   6.372
 3245SOL    HW110634   3.778   2.438   6.403
 3245SOL    HW210635   3.876   2.390   6.281
 3246SOL     OW10636   5.593   6.385   3.479
 3246SOL    HW110637   5.590   6.362   3.576
 3246SOL    HW210638   5.534   6.464   3.462
 3247SOL     OW10639   0.433   2.790   4.219
 3247SOL    HW110640   0.478   2.876   4.193
 3247SOL    HW210641   0.367   2.808   4.292
 3248SOL     OW10642   6.125   3.792   2.133
 3248SOL    HW110643   6.108   3.694   2.118
 3248SOL    HW210644   6.224   3.808   2.135
 3249SOL     OW10645   2.264   4.224   4.830
 3249SOL    HW110646   2.276   4.134   4.873
 3249SOL    HW210647   2.281   4.296   4.898
 3250SOL     OW10648   3.984   6.561   1.911
 3250SOL    HW110649   4.060   6.579   1.849
 3250SOL    HW210650   4.002   6.602   2.000
 3251SOL     OW10651   3.197   0.815   3.076
 3251SOL    HW110652   3.123   0.855   3.129
 3251SOL    HW210653   3.159   0.769   2.996
 3252SOL     OW10654   3.280   1.942   3.052
 3252SOL    HW110655   3.316   1.926   3.144
 3252SOL    HW210656   3.340   2.006   3.004
 3253SOL     OW10657   4.974   3.130   1.070
 3253SOL    HW110658   4.898   3.092   1.124
 3253SOL    HW210659   5.053   3.145   1.130
 3254SOL     OW10660   5.328   5.165   2.559
 3254SOL    HW110661   5.316   5.245   2.618
 3254SOL    HW210662   5.280   5.179   2.473
 3255SOL     OW10663   4.150   4.840   0.361
 3255SOL    HW110664   4.249   4.829   0.369
 3255SOL    HW210665   4.128   4.936   0.341
 3256SOL     OW10666   6.907   5.885   5.272
 3256SOL    HW110667   6.818   5.891   5.317
 3256SOL    HW210668   6.894   5.866   5.175
 3257SOL     OW10669   2.297   2.174   0.783
 3257SOL    HW110670   2.272   2.210   0.693
 3257SOL    HW210671   2.217   2.178   0.843
 3258SOL     OW10672   6.098   0.154   1.626
 3258SOL    HW110673   6.055   0.184   1.541
 3258SOL    HW210674   6.092   0.227   1.694
 3259SOL     OW10675   5.438   6.477   3.155
 3259SOL    HW110676   5.533   6.508   3.158
 3259SOL    HW210677   5.434   6.379   3.177
 3260SOL     OW10678   1.614   2.539   6.798
 3260SOL    HW110679   1.537   2.483   6.769
 3260SOL    HW210680   1.669   2.564   6.718
 3261SOL     OW10681   4.212   0.470   2.824
 3261SOL    HW110682   4.236   0.514   2.910
 3261SOL    HW210683   4.115   0.487   2.804
 3262SOL     OW10684   3.776   1.512   3.048
 3262SOL    HW110685   3.844   1.580   3.077
 3262SOL    HW210686   3.702   1.508   3.116
 3263SOL     OW10687   3.736   5.769   1.795
 3263SOL    HW110688   3.780   5.717   1.868
 3263SOL    HW210689   3.804   5.826   1.749
 3264SOL     OW10690   5.207   5.227   6.732
 3264SOL    HW110691   5.264   5.189   6.659
 3264SOL    HW210692   5.195   5.325   6.718
 3265SOL     OW10693   4.395   0.408   6.880
 3265SOL    HW110694   4.297   0.400   6.865
 3265SOL    HW210695   4.438   0.442   6.796
 3266SOL     OW10696   0.299   1.596   5.981
 3266SOL    HW110697   0.346   1.621   5.897
 3266SOL    HW210698   0.305   1.497   5.995
 3267SOL     OW10699   3.475   2.505   1.023
 3267SOL    HW110700   3.489   2.591   0.974
 3267SOL    HW210701   3.449   2.525   1.118
 3268SOL     OW10702   0.440   4.345   6.455
 3268SOL    HW110703   0.481   4.261   6.489
 3268SOL    HW210704   0.457   4.353   6.357
 3269SOL     OW10705   4.535   3.506   0.765
 3269SOL    HW110706   4.510   3.563   0.687
 3269SOL    HW210707   4.523   3.558   0.850
 3270SOL     OW10708   1.204   6.387   4.704
 3270SOL    HW110709   1.261   6.467   4.683
 3270SOL    HW210710   1.152   6.404   4.787
 3271SOL     OW10711   5.844   2.128   0.861
 3271SOL    HW110712   5.886   2.178   0.785
 3271SOL    HW210713   5.793   2.050   0.825
 3272SOL     OW10714   5.347   0.258   0.316
 3272SOL    HW110715   5.250   0.234   0.318
 3272SOL    HW210716   5.395   0.198   0.253
 3273SOL     OW10717   6.456   6.829   2.396
 3273SOL    HW110718   6.429   6.870   2.310
 3273SOL    HW210719   6.545   6.783   2.385
 3274SOL     OW10720   3.474   2.016   6.298
 3274SOL    HW110721   3.415   1.950   6.345
 3274SOL    HW210722   3.570   1.994   6.316
 3275SOL     OW10723   2.745   1.099   6.775
 3275SOL    HW110724   2.733   1.029   6.705
 3275SOL    HW210725   2.671   1.166   6.768
 3276SOL     OW10726   3.327   6.315   0.168
 3276SOL    HW110727   3.302   6.264   0.251
 3276SOL    HW210728   3.253   6.377   0.143
 3277SOL     OW10729   6.858   6.656   5.134
 3277SOL    HW110730   6.865   6.739   5.078
 3277SOL    HW210731   6.805   6.587   5.084
 3278SOL     OW10732   1.143   0.947   6.942
 3278SOL    HW110733   1.161   0.914   0.013
 3278SOL    HW210734   1.126   1.046   6.944
 3279SOL     OW10735   2.006   6.941   0.853
 3279SOL    HW110736   2.061   6.895   0.922
 3279SOL    HW210737   2.021   0.019   0.859
 3280SOL     OW10738   1.430   4.806   6.184
 3280SOL    HW110739   1.512   4.860   6.206
 3280SOL    HW210740   1.435   4.776   6.089
 3281SOL     OW10741   2.672   5.862   0.051
 3281SOL    HW110742   2.714   5.935   0.106
 3281SOL    HW210743   2.640   5.900   6.986
 3282SOL     OW10744   2.056   5.707   2.662
 3282SOL    HW110745   1.986   5.779   2.662
 3282SOL    HW210746   2.100   5.702   2.751
 3283SOL     OW10747   2.364   0.329   3.651
 3283SOL    HW110748   2.362   0.377   3.563
 3283SOL    HW210749   2.311   0.244   3.644
 3284SOL     OW10750   6.795   3.604   6.573
 3284SOL    HW110751   6.716   3.591   6.633
 3284SOL    HW210752   6.877   3.618   6.627
 3285SOL     OW10753   0.064   2.175   4.195
 3285SOL    HW110754   0.123   2.239   4.244
 3285SOL    HW210755   0.120   2.120   4.133
 3286SOL     OW10756   3.390   4.486   5.557
 3286SOL    HW110757   3.364   4.399   5.598
 3286SOL    HW210758   3.421   4.549   5.629
 3287SOL     OW10759   1.199   5.182   1.063
 3287SOL    HW110760   1.104   5.189   1.095
 3287SOL    HW210761   1.200   5.164   0.965
 3288SOL     OW10762   0.506   6.534   6.832
 3288SOL    HW110763   0.408   6.550   6.845
 3288SOL    HW210764   0.521   6.438   6.810
 3289SOL     OW10765   1.832   5.630   4.244
 3289SOL    HW110766   1.761   5.573   4.286
 3289SOL    HW210767   1.920   5.584   4.253
 3290SOL     OW10768   6.809   5.063   1.343
 3290SOL    HW110769   6.799   5.125   1.421
 3290SOL    HW210770   6.854   4.979   1.374
 3291SOL     OW10771   2.038   6.978   1.203
 3291SOL    HW110772   2.077   6.904   1.148
 3291SOL    HW210773   2.087   0.041   1.185
 3292SOL     OW10774   0.882   6.255   5.884
 3292SOL    HW110775   0.923   6.213   5.803
 3292SOL    HW210776   0.954   6.298   5.939
 3293SOL     OW10777   6.904   1.306   2.959
 3293SOL    HW110778   6.857   1.308   2.871
 3293SOL    HW210779   6.976   1.375   2.959
 3294SOL     OW10780   0.453   0.215   0.195
 3294SOL    HW110781   0.430   0.297   0.248
 3294SOL    HW210782   0.398   0.138   0.228
 3295SOL     OW10783   1.224   2.596   6.546
 3295SOL    HW110784   1.158   2.671   6.537
 3295SOL    HW210785   1.260   2.572   6.455
 3296SOL     OW10786   0.750   6.449   2.595
 3296SOL    HW110787   0.841   6.409   2.583
 3296SOL    HW210788   0.680   6.381   2.574
 3297SOL     OW10789   3.203   2.641   6.508
 3297SOL    HW110790   3.165   2.686   6.589
 3297SOL    HW210791   3.262   2.566   6.536
 3298SOL     OW10792   6.455   3.467   3.164
 3298SOL    HW110793   6.541   3.418   3.177
 3298SOL    HW210794   6.452   3.508   3.073
 3299SOL     OW10795   2.237   6.921   5.008
 3299SOL    HW110796   2.238   6.833   4.960
 3299SOL    HW210797   2.197   6.990   4.948
 3300SOL     OW10798   6.327   6.953   4.617
 3300SOL    HW110799   6.312   6.970   4.520
 3300SOL    HW210800   6.354   6.858   4.631
 3301SOL     OW10801   0.421   3.568   2.481
 3301SOL    HW110802   0.375   3.509   2.548
 3301SOL    HW210803   0.461   3.647   2.528
 3302SOL     OW10804   1.096   4.819   3.660
 3302SOL    HW110805   1.066   4.888   3.594
 3302SOL    HW210806   1.024   4.807   3.729
 3303SOL     OW10807   3.353   3.707   3.117
 3303SOL    HW110808   3.418   3.681   3.045
 3303SOL    HW210809   3.274   3.645   3.115
 3304SOL     OW10810   0.811   6.085   4.562
 3304SOL    HW110811   0.803   6.007   4.500
 3304SOL    HW210812   0.728   6.092   4.618
 3305SOL     OW10813   1.479   1.038   1.960
 3305SOL    HW110814   1.554   1.102   1.976
 3305SOL    HW210815   1.477   0.970   2.033
 3306SOL     OW10816   1.123   3.439   2.788
 3306SOL    HW110817   1.217   3.464   2.766
 3306SOL    HW210818   1.062   3.469   2.715
 3307SOL     OW10819   0.712   5.915   0.151
 3307SOL    HW110820   0.810   5.933   0.140
 3307SOL    HW210821   0.665   5.934   0.065
 3308SOL     OW10822   4.239   5.900   0.983
 3308SOL    HW110823   4.300   5.940   0.914
 3308SOL    HW210824   4.232   5.962   1.061
 3309SOL     OW10825   0.649   4.919   2.983
 3309SOL    HW110826   0.598   4.909   2.897
 3309SOL    HW210827   0.709   4.840   2.996
 3310SOL     OW10828   1.680   6.364   1.929
 3310SOL    HW110829   1.616   6.317   1.989
 3310SOL    HW210830   1.642   6.452   1.901
 3311SOL     OW10831   3.968   6.281   0.643
 3311SOL    HW110832   3.924   6.322   0.723
 3311SOL    HW210833   3.950   6.336   0.562
 3312SOL     OW10834   2.735   3.600   0.035
 3312SOL    HW110835   2.751   3.589   6.959
 3312SOL    HW210836   2.656   3.544   0.062
 3313SOL     OW10837   6.885   5.166   4.433
 3313SOL    HW110838   6.964   5.192   4.379
 3313SOL    HW210839   6.805   5.155   4.373
 3314SOL     OW10840   0.814   3.241   5.920
 3314SOL    HW110841   0.749   3.246   5.995
 3314SOL    HW210842   0.796   3.159   5.866
 3315SOL     OW10843   7.020   1.964   2.934
 3315SOL    HW110844   7.011   2.061   2.957
 3315SOL    HW210845   6.934   1.931   2.895
 3316SOL     OW10846   4.675   0.790   0.597
 3316SOL    HW110847   4.648   0.883   0.620
 3316SOL    HW210848   4.593   0.734   0.581
 3317SOL     OW10849   4.181   2.514   1.533
 3317SOL    HW110850   4.224   2.498   1.444
 3317SOL    HW210851   4.089   2.552   1.519
 3318SOL     OW10852   2.843   5.498   4.747
 3318SOL    HW110853   2.859   5.406   4.784
 3318SOL    HW210854   2.823   5.492   4.649
 3319SOL     OW10855   0.520   5.507   4.904
 3319SOL    HW110856   0.563   5.531   4.817
 3319SOL    HW210857   0.475   5.418   4.896
 3320SOL     OW10858   0.368   1.099   6.493
 3320SOL    HW110859   0.405   1.011   6.464
 3320SOL    HW210860   0.273   1.087   6.521
 3321SOL     OW10861   3.459   4.057   3.669
 3321SOL    HW110862   3.423   4.091   3.582
 3321SOL    HW210863   3.389   4.069   3.740
 3322SOL     OW10864   4.607   1.807   1.588
 3322SOL    HW110865   4.540   1.876   1.559
 3322SOL    HW210866   4.598   1.725   1.530
 3323SOL     OW10867   2.192   5.316   0.452
 3323SOL    HW110868   2.188   5.406   0.408
 3323SOL    HW210869   2.117   5.259   0.419
 3324SOL     OW10870   0.516   2.045   0.413
 3324SOL    HW110871   0.482   2.126   0.365
 3324SOL    HW210872   0.606   2.064   0.453
 3325SOL     OW10873   1.991   3.258   0.592
 3325SOL    HW110874   1.984   3.167   0.551
 3325SOL    HW210875   2.023   3.250   0.687
 3326SOL     OW10876   6.448   0.856   1.754
 3326SOL    HW110877   6.508   0.808   1.819
 3326SOL    HW210878   6.504   0.910   1.692
 3327SOL     OW10879   3.073   6.079   2.067
 3327SOL    HW110880   3.109   6.172   2.072
 3327SOL    HW210881   3.049   6.047   2.159
 3328SOL     OW10882   4.451   1.074   2.515
 3328SOL    HW110883   4.504   1.157   2.535
 3328SOL    HW210884   4.369   1.099   2.463
 3329SOL     OW10885   5.401   1.052   5.256
 3329SOL    HW110886   5.496   1.042   5.285
 3329SOL    HW210887   5.377   0.977   5.195
 3330SOL     OW10888   6.708   5.729   2.754
 3330SOL    HW110889   6.671   5.771   2.837
 3330SOL    HW210890   6.790   5.779   2.725
 3331SOL     OW10891   2.121   3.261   2.641
 3331SOL    HW110892   2.124   3.318   2.559
 3331SOL    HW210893   2.189   3.188   2.634
 3332SOL     OW10894   3.431   5.006   1.089
 3332SOL    HW110895   3.363   4.939   1.059
 3332SOL    HW210896   3.394   5.098   1.078
 3333SOL     OW10897   2.570   3.039   1.606
 3333SOL    HW110898   2.653   3.003   1.564
 3333SOL    HW210899   2.585   3.134   1.633
 3334SOL     OW10900   2.264   2.070   2.268
 3334SOL    HW110901   2.297   1.992   2.320
 3334SOL    HW210902   2.275   2.052   2.170
 3335SOL     OW10903   3.699   4.468   5.823
 3335SOL    HW110904   3.697   4.382   5.875
 3335SOL    HW210905   3.717   4.448   5.726
 3336SOL     OW10906   4.962   5.676   3.972
 3336SOL    HW110907   5.001   5.657   4.063
 3336SOL    HW210908   5.031   5.656   3.902
 3337SOL     OW10909   3.277   3.248   3.261
 3337SOL    HW110910   3.243   3.158   3.233
 3337SOL    HW210911   3.327   3.290   3.185
 3338SOL     OW10912   2.842   2.689   1.578
 3338SOL    HW110913   2.856   2.633   1.497
 3338SOL    HW210914   2.782   2.642   1.642
 3339SOL     OW10915   1.838   0.004   5.735
 3339SOL    HW110916   1.888   6.950   5.777
 3339SOL    HW210917   1.740   7.008   5.741
 3340SOL     OW10918   3.853   0.994   4.156
 3340SOL    HW110919   3.793   1.012   4.078
 3340SOL    HW210920   3.818   1.042   4.237
 3341SOL     OW10921   1.669   3.703   2.869
 3341SOL    HW110922   1.637   3.611   2.892
 3341SOL    HW210923   1.729   3.699   2.789
 3342SOL     OW10924   0.218   0.798   2.271
 3342SOL    HW110925   0.157   0.721   2.253
 3342SOL    HW210926   0.239   0.801   2.369
 3343SOL     OW10927   4.864   5.238   6.460
 3343SOL    HW110928   4.931   5.186   6.513
 3343SOL    HW210929   4.905   5.325   6.432
 3344SOL     OW10930   0.555   3.351   2.143
 3344SOL    HW110931   0.506   3.411   2.079
 3344SOL    HW210932   0.604   3.407   2.210
 3345SOL     OW10933   6.291   5.042   0.025
 3345SOL    HW110934   6.357   5.072   0.094
 3345SOL    HW210935   6.239   5.120   7.013
 3346SOL     OW10936   1.723   0.894   0.345
 3346SOL    HW110937   1.727   0.796   0.362
 3346SOL    HW210938   1.681   0.939   0.424
 3347SOL     OW10939   0.308   3.865   5.977
 3347SOL    HW110940   0.378   3.924   6.017
 3347SOL    HW210941   0.218   3.904   5.994
 3348SOL     OW10942   3.707   3.898   6.246
 3348SOL    HW110943   3.793   3.860   6.214
 3348SOL    HW210944   3.724   3.983   6.295
 3349SOL     OW10945   1.412   4.598   3.502
 3349SOL    HW110946   1.368   4.607   3.591
 3349SOL    HW210947   1.502   4.556   3.513
 3350SOL     OW10948   1.531   4.425   4.637
 3350SOL    HW110949   1.587   4.345   4.659
 3350SOL    HW210950   1.586   4.493   4.590
 3351SOL     OW10951   4.864   0.781   1.639
 3351SOL    HW110952   4.833   0.815   1.550
 3351SOL    HW210953   4.960   0.807   1.653
 3352SOL     OW10954   6.434   1.384   6.892
 3352SOL    HW110955   6.453   1.482   6.906
 3352SOL    HW210956   6.426   1.366   6.794
 3353SOL     OW10957   3.287   0.208   1.272
 3353SOL    HW110958   3.278   0.110   1.256
 3353SOL    HW210959   3.374   0.240   1.234
 3354SOL     OW10960   2.652   4.199   6.319
 3354SOL    HW110961   2.676   4.184   6.415
 3354SOL    HW210962   2.666   4.115   6.267
 3355SOL     OW10963   1.911   0.829   4.964
 3355SOL    HW110964   1.954   0.919   4.958
 3355SOL    HW210965   1.932   0.776   4.883
 3356SOL     OW10966   1.750   0.482   6.243
 3356SOL    HW110967   1.713   0.574   6.227
 3356SOL    HW210968   1.694   0.415   6.195
 3357SOL     OW10969   3.109   3.229   1.549
 3357SOL    HW110970   3.139   3.138   1.577
 3357SOL    HW210971   3.079   3.226   1.453
 3358SOL     OW10972   6.874   0.713   1.369
 3358SOL    HW110973   6.784   0.743   1.336
 3358SOL    HW210974   6.864   0.628   1.419
 3359SOL     OW10975   0.345   6.522   4.542
 3359SOL    HW110976   0.347   6.609   4.593
 3359SOL    HW210977   0.430   6.511   4.491
 3360SOL     OW10978   1.194   3.582   4.317
 3360SOL    HW110979   1.290   3.607   4.304
 3360SOL    HW210980   1.162   3.526   4.241
 3361SOL     OW10981   6.397   6.660   4.600
 3361SOL    HW110982   6.486   6.666   4.555
 3361SOL    HW210983   6.404   6.600   4.679
 3362SOL     OW10984   3.985   0.624   4.020
 3362SOL    HW110985   3.940   0.637   4.109
 3362SOL    HW210986   3.933   0.669   3.949
 3363SOL     OW10987   5.679   3.828   6.916
 3363SOL    HW110988   5.662   3.842   6.819
 3363SOL    HW210989   5.777   3.826   6.934
 3364SOL     OW10990   1.710   3.409   2.913
 3364SOL    HW110991   1.735   3.356   2.832
 3364SOL    HW210992   1.785   3.408   2.978
 3365SOL     OW10993   2.164   3.999   3.314
 3365SOL    HW110994   2.067   4.024   3.317
 3365SOL    HW210995   2.212   4.057   3.248
 3366SOL     OW10996   5.886   3.971   4.295
 3366SOL    HW110997   5.860   3.938   4.386
 3366SOL    HW210998   5.951   4.046   4.304
 3367SOL     OW10999   3.967   3.776   3.591
 3367SOL    HW111000   3.969   3.707   3.663
 3367SOL    HW211001   3.915   3.856   3.622
 3368SOL     OW11002   1.603   0.510   1.898
 3368SOL    HW111003   1.661   0.559   1.833
 3368SOL    HW211004   1.622   0.543   1.991
 3369SOL     OW11005   4.951   1.773   0.872
 3369SOL    HW111006   4.872   1.779   0.811
 3369SOL    HW211007   5.019   1.840   0.844
 3370SOL     OW11008   1.065   5.488   2.724
 3370SOL    HW111009   1.081   5.581   2.692
 3370SOL    HW211010   0.990   5.447   2.671
 3371SOL     OW11011   2.243   2.913   2.174
 3371SOL    HW111012   2.211   2.888   2.082
 3371SOL    HW211013   2.280   2.831   2.219
 3372SOL     OW11014   6.502   3.513   2.841
 3372SOL    HW111015   6.577   3.578   2.846
 3372SOL    HW211016   6.532   3.432   2.789
 3373SOL     OW11017   6.581   2.981   1.513
 3373SOL    HW111018   6.587   2.912   1.441
 3373SOL    HW211019   6.634   2.952   1.593
 3374SOL     OW11020   0.498   6.689   4.346
 3374SOL    HW111021   0.595   6.684   4.369
 3374SOL    HW211022   0.447   6.725   4.424
 3375SOL     OW11023   6.759   4.916   5.650
 3375SOL    HW111024   6.812   4.932   5.733
 3375SOL    HW211025   6.787   4.830   5.607
 3376SOL     OW11026   3.247   3.377   4.285
 3376SOL    HW111027   3.183   3.334   4.221
 3376SOL    HW211028   3.322   3.314   4.305
 3377SOL     OW11029   6.547   4.934   3.701
 3377SOL    HW111030   6.589   4.965   3.616
 3377SOL    HW211031   6.471   4.993   3.725
 3378SOL     OW11032   1.401   6.210   0.254
 3378SOL    HW111033   1.477   6.146   0.243
 3378SOL    HW211034   1.362   6.199   0.346
 3379SOL     OW11035   0.005   3.977   3.638
 3379SOL    HW111036   6.996   3.888   3.604
 3379SOL    HW211037   0.004   4.044   3.563
 3380SOL     OW11038   2.748   4.707   0.717
 3380SOL    HW111039   2.781   4.615   0.697
 3380SOL    HW211040   2.706   4.747   0.636
 3381SOL     OW11041   1.842   3.518   6.396
 3381SOL    HW111042   1.744   3.528   6.413
 3381SOL    HW211043   1.868   3.576   6.319
 3382SOL     OW11044   0.048   3.419   0.514
 3382SOL    HW111045   0.101   3.358   0.455
 3382SOL    HW211046   0.007   3.492   0.459
 3383SOL     OW11047   4.312   5.259   0.647
 3383SOL    HW111048   4.238   5.323   0.668
 3383SOL    HW211049   4.274   5.166   0.640
 3384SOL     OW11050   3.386   4.257   6.481
 3384SOL    HW111051   3.415   4.350   6.503
 3384SOL    HW211052   3.465   4.196   6.484
 3385SOL     OW11053   0.226   2.074   4.024
 3385SOL    HW111054   0.189   2.133   3.952
 3385SOL    HW211055   0.326   2.071   4.017
 3386SOL     OW11056   0.625   4.625   4.879
 3386SOL    HW111057   0.628   4.525   4.874
 3386SOL    HW211058   0.575   4.653   4.961
 3387SOL     OW11059   6.310   0.853   2.976
 3387SOL    HW111060   6.290   0.801   2.893
 3387SOL    HW211061   6.228   0.860   3.032
 3388SOL     OW11062   6.609   3.926   0.958
 3388SOL    HW111063   6.701   3.957   0.935
 3388SOL    HW211064   6.611   3.874   1.043
 3389SOL     OW11065   5.585   6.091   6.919
 3389SOL    HW111066   5.532   6.019   6.875
 3389SOL    HW211067   5.563   6.180   6.878
 3390SOL     OW11068   2.816   5.869   6.070
 3390SOL    HW111069   2.821   5.914   6.159
 3390SOL    HW211070   2.832   5.936   5.997
 3391SOL     OW11071   5.819   3.548   4.053
 3391SOL    HW111072   5.902   3.518   4.099
 3391SOL    HW211073   5.780   3.627   4.101
 3392SOL     OW11074   4.798   0.137   5.704
 3392SOL    HW111075   4.828   0.232   5.717
 3392SOL    HW211076   4.865   0.088   5.648
 3393SOL     OW11077   5.048   5.948   0.515
 3393SOL    HW111078   4.956   5.971   0.481
 3393SOL    HW211079   5.050   5.960   0.614
 3394SOL     OW11080   2.533   5.609   1.220
 3394SOL    HW111081   2.492   5.692   1.259
 3394SOL    HW211082   2.496   5.593   1.129
 3395SOL     OW11083   2.184   0.111   3.561
 3395SOL    HW111084   2.103   0.162   3.531
 3395SOL    HW211085   2.188   0.024   3.512
 3396SOL     OW11086   4.864   1.163   4.526
 3396SOL    HW111087   4.838   1.253   4.559
 3396SOL    HW211088   4.901   1.171   4.433
 3397SOL     OW11089   2.319   5.619   6.972
 3397SOL    HW111090   2.331   5.679   0.029
 3397SOL    HW211091   2.406   5.606   6.925
 3398SOL     OW11092   6.378   2.409   4.895
 3398SOL    HW111093   6.392   2.318   4.932
 3398SOL    HW211094   6.439   2.423   4.816
 3399SOL     OW11095   6.787   6.155   1.738
 3399SOL    HW111096   6.710   6.209   1.704
 3399SOL    HW211097   6.871   6.208   1.728
 3400SOL     OW11098   5.076   2.310   6.070
 3400SOL    HW111099   5.172   2.282   6.074
 3400SOL    HW211100   5.025   2.242   6.017
 3401SOL     OW11101   6.004   3.387   5.421
 3401SOL    HW111102   6.058   3.452   5.475
 3401SOL    HW211103   5.910   3.387   5.455
 3402SOL     OW11104   6.003   3.267   1.385
 3402SOL    HW111105   6.093   3.288   1.348
 3402SOL    HW211106   5.999   3.294   1.481
 3403SOL     OW11107   5.367   6.458   6.435
 3403SOL    HW111108   5.444   6.453   6.371
 3403SOL    HW211109   5.400   6.486   6.525
 3404SOL     OW11110   5.101   4.331   4.774
 3404SOL    HW111111   5.154   4.307   4.855
 3404SOL    HW211112   5.040   4.255   4.750
 3405SOL     OW11113   5.216   6.378   6.909
 3405SOL    HW111114   5.242   6.284   6.887
 3405SOL    HW211115   5.217   6.390   7.008
 3406SOL     OW11116   2.626   5.096   1.741
 3406SOL    HW111117   2.649   5.151   1.821
 3406SOL    HW211118   2.628   5.154   1.659
 3407SOL     OW11119   1.024   3.926   6.967
 3407SOL    HW111120   0.932   3.895   6.945
 3407SOL    HW211121   1.038   4.017   6.929
 3408SOL     OW11122   4.599   0.839   3.474
 3408SOL    HW111123   4.631   0.786   3.552
 3408SOL    HW211124   4.499   0.831   3.467
 3409SOL     OW11125   4.533   0.571   1.197
 3409SOL    HW111126   4.510   0.480   1.162
 3409SOL    HW211127   4.452   0.610   1.242
 3410SOL     OW11128   6.332   0.598   3.418
 3410SOL    HW111129   6.397   0.552   3.479
 3410SOL    HW211130   6.284   0.669   3.469
 3411SOL     OW11131   5.532   3.326   6.748
 3411SOL    HW111132   5.529   3.272   6.832
 3411SOL    HW211133   5.620   3.373   6.741
 3412SOL     OW11134   5.496   3.048   2.132
 3412SOL    HW111135   5.577   3.017   2.181
 3412SOL    HW211136   5.498   3.011   2.039
 3413SOL     OW11137   0.105   1.535   6.952
 3413SOL    HW111138   0.030   1.469   6.947
 3413SOL    HW211139   0.077   1.619   6.904
 3414SOL     OW11140   3.177   4.240   1.115
 3414SOL    HW111141   3.135   4.152   1.093
 3414SOL    HW211142   3.147   4.271   1.205
 3415SOL     OW11143   1.756   1.341   6.460
 3415SOL    HW111144   1.779   1.414   6.395
 3415SOL    HW211145   1.680   1.288   6.424
 3416SOL     OW11146   6.057   6.809   6.559
 3416SOL    HW111147   6.005   6.880   6.607
 3416SOL    HW211148   6.080   6.736   6.623
 3417SOL     OW11149   5.467   6.664   3.436
 3417SOL    HW111150   5.386   6.716   3.461
 3417SOL    HW211151   5.496   6.688   3.344
 3418SOL     OW11152   4.343   5.233   0.913
 3418SOL    HW111153   4.427   5.264   0.958
 3418SOL    HW211154   4.348   5.253   0.816
 3419SOL     OW11155   2.674   5.220   5.390
 3419SOL    HW111156   2.640   5.278   5.317
 3419SOL    HW211157   2.597   5.183   5.442
 3420SOL     OW11158   4.466   2.066   2.154
 3420SOL    HW111159   4.409   2.129   2.101
 3420SOL    HW211160   4.562   2.088   2.140
 3421SOL     OW11161   6.944   2.665   3.962
 3421SOL    HW111162   6.939   2.764   3.961
 3421SOL    HW211163   6.913   2.631   4.051
 3422SOL     OW11164   2.282   6.553   0.940
 3422SOL    HW111165   2.277   6.453   0.943
 3422SOL    HW211166   2.375   6.581   0.917
 3423SOL     OW11167   1.265   4.475   5.658
 3423SOL    HW111168   1.272   4.512   5.566
 3423SOL    HW211169   1.291   4.378   5.657
 3424SOL     OW11170   4.287   1.305   1.874
 3424SOL    HW111171   4.359   1.352   1.822
 3424SOL    HW211172   4.329   1.252   1.949
 3425SOL     OW11173   5.958   3.728   6.896
 3425SOL    HW111174   6.043   3.781   6.887
 3425SOL    HW211175   5.971   3.637   6.857
 3426SOL     OW11176   5.803   3.316   6.557
 3426SOL    HW111177   5.797   3.413   6.534
 3426SOL    HW211178   5.778   3.261   6.477
 3427SOL     OW11179   1.129   2.432   0.497
 3427SOL    HW111180   1.049   2.382   0.464
 3427SOL    HW211181   1.210   2.402   0.447
 3428SOL     OW11182   4.795   6.309   5.177
 3428SOL    HW111183   4.725   6.238   5.187
 3428SOL    HW211184   4.823   6.340   5.268
 3429SOL     OW11185   5.852   0.143   1.032
 3429SOL    HW111186   5.920   0.154   0.959
 3429SOL    HW211187   5.786   0.218   1.028
 3430SOL     OW11188   2.327   4.704   5.313
 3430SOL    HW111189   2.418   4.664   5.318
 3430SOL    HW211190   2.322   4.786   5.369
 3431SOL     OW11191   0.803   4.503   2.377
 3431SOL    HW111192   0.825   4.504   2.475
 3431SOL    HW211193   0.779   4.410   2.350
 3432SOL     OW11194   1.236   4.331   6.918
 3432SOL    HW111195   1.169   4.397   6.951
 3432SOL    HW211196   1.300   4.376   6.856
 3433SOL     OW11197   2.876   1.847   6.852
 3433SOL    HW111198   2.865   1.881   6.758
 3433SOL    HW211199   2.848   1.751   6.856
 3434SOL     OW11200   3.594   2.601   1.744
 3434SOL    HW111201   3.503   2.634   1.771
 3434SOL    HW211202   3.594   2.501   1.744
 3435SOL     OW11203   2.486   0.945   1.082
 3435SOL    HW111204   2.568   1.001   1.070
 3435SOL    HW211205   2.452   0.957   1.176
 3436SOL     OW11206   3.709   6.577   6.140
 3436SOL    HW111207   3.746   6.571   6.232
 3436SOL    HW211208   3.624   6.629   6.141
 3437SOL     OW11209   1.688   6.983   6.111
 3437SOL    HW111210   1.606   6.949   6.064
 3437SOL    HW211211   1.724   0.041   6.061
 3438SOL     OW11212   1.513   3.572   1.080
 3438SOL    HW111213   1.534   3.509   1.005
 3438SOL    HW211214   1.505   3.665   1.045
 3439SOL     OW11215   2.515   5.482   1.862
 3439SOL    HW111216   2.515   5.446   1.956
 3439SOL    HW211217   2.443   5.551   1.853
 3440SOL     OW11218   3.786   4.089   5.100
 3440SOL    HW111219   3.729   4.123   5.026
 3440SOL    HW211220   3.737   4.018   5.150
 3441SOL     OW11221   5.559   4.977   5.930
 3441SOL    HW111222   5.605   5.061   5.904
 3441SOL    HW211223   5.483   4.960   5.868
 3442SOL     OW11224   3.048   3.212   1.221
 3442SOL    HW111225   3.035   3.119   1.255
 3442SOL    HW211226   2.965   3.241   1.173
 3443SOL     OW11227   0.968   5.769   2.331
 3443SOL    HW111228   0.974   5.674   2.299
 3443SOL    HW211229   0.962   5.770   2.431
 3444SOL     OW11230   5.811   3.583   6.523
 3444SOL    HW111231   5.910   3.594   6.508
 3444SOL    HW211232   5.762   3.644   6.461
 3445SOL     OW11233   6.077   4.787   3.631
 3445SOL    HW111234   6.077   4.887   3.632
 3445SOL    HW211235   6.170   4.754   3.615
 3446SOL     OW11236   4.710   0.899   1.412
 3446SOL    HW111237   4.786   0.963   1.405
 3446SOL    HW211238   4.668   0.906   1.502
 3447SOL     OW11239   4.759   0.760   6.565
 3447SOL    HW111240   4.737   0.853   6.594
 3447SOL    HW211241   4.767   0.701   6.646
 3448SOL     OW11242   1.914   4.870   5.093
 3448SOL    HW111243   1.877   4.839   5.005
 3448SOL    HW211244   1.909   4.796   5.160
 3449SOL     OW11245   7.020   4.591   5.759
 3449SOL    HW111246   6.947   4.591   5.692
 3449SOL    HW211247   6.981   4.586   5.851
 3450SOL     OW11248   2.255   6.274   1.992
 3450SOL    HW111249   2.201   6.353   2.021
 3450SOL    HW211250   2.293   6.228   2.072
 3451SOL     OW11251   2.187   1.386   1.669
 3451SOL    HW111252   2.250   1.405   1.593
 3451SOL    HW211253   2.095   1.372   1.633
 3452SOL     OW11254   4.561   1.345   4.512
 3452SOL    HW111255   4.577   1.407   4.590
 3452SOL    HW211256   4.483   1.287   4.532
 3453SOL     OW11257   4.182   6.365   6.464
 3453SOL    HW111258   4.123   6.389   6.540
 3453SOL    HW211259   4.264   6.423   6.466
 3454SOL     OW11260   0.151   2.895   0.766
 3454SOL    HW111261   0.162   2.854   0.676
 3454SOL    HW211262   0.238   2.894   0.814
 3455SOL     OW11263   0.919   2.974   5.363
 3455SOL    HW111264   0.902   2.886   5.317
 3455SOL    HW211265   1.014   3.001   5.347
 3456SOL     OW11266   5.532   5.860   3.899
 3456SOL    HW111267   5.589   5.924   3.951
 3456SOL    HW211268   5.480   5.910   3.830
 3457SOL     OW11269   2.719   4.623   6.577
 3457SOL    HW111270   2.813   4.638   6.546
 3457SOL    HW211271   2.719   4.573   6.663
 3458SOL     OW11272   4.124   1.095   1.788
 3458SOL    HW111273   4.195   1.162   1.809
 3458SOL    HW211274   4.035   1.133   1.814
 3459SOL     OW11275   4.970   6.138   2.422
 3459SOL    HW111276   4.980   6.184   2.511
 3459SOL    HW211277   5.007   6.046   2.428
 3460SOL     OW11278   3.883   1.835   4.803
 3460SOL    HW111279   3.818   1.843   4.728
 3460SOL    HW211280   3.970   1.876   4.776
 3461SOL     OW11281   5.737   5.375   4.961
 3461SOL    HW111282   5.698   5.459   4.999
 3461SOL    HW211283   5.671   5.301   4.970
 3462SOL     OW11284   1.326   3.610   6.428
 3462SOL    HW111285   1.290   3.580   6.340
 3462SOL    HW211286   1.339   3.709   6.426
 3463SOL     OW11287   5.148   4.190   0.974
 3463SOL    HW111288   5.212   4.137   0.919
 3463SOL    HW211289   5.057   4.187   0.932
 3464SOL     OW11290   6.931   4.558   5.096
 3464SOL    HW111291   6.916   4.460   5.082
 3464SOL    HW211292   7.014   4.571   5.150
 3465SOL     OW11293   0.856   1.301   2.146
 3465SOL    HW111294   0.778   1.346   2.102
 3465SOL    HW211295   0.940   1.326   2.098
 3466SOL     OW11296   6.231   4.015   5.438
 3466SOL    HW111297   6.188   3.926   5.456
 3466SOL    HW211298   6.260   4.019   5.343
 3467SOL     OW11299   2.275   3.008   6.525
 3467SOL    HW111300   2.308   3.024   6.432
 3467SOL    HW211301   2.176   3.001   6.525
 3468SOL     OW11302   4.243   6.643   3.072
 3468SOL    HW111303   4.262   6.665   2.977
 3468SOL    HW211304   4.236   6.727   3.126
 3469SOL     OW11305   4.988   3.697   2.669
 3469SOL    HW111306   5.018   3.731   2.580
 3469SOL    HW211307   4.962   3.601   2.661
 3470SOL     OW11308   6.841   5.511   1.377
 3470SOL    HW111309   6.905   5.478   1.446
 3470SOL    HW211310   6.843   5.451   1.297
 3471SOL     OW11311   4.234   0.488   4.771
 3471SOL    HW111312   4.140   0.467   4.748
 3471SOL    HW211313   4.251   0.464   4.867
 3472SOL     OW11314   3.772   1.103   5.478
 3472SOL    HW111315   3.676   1.093   5.506
 3472SOL    HW211316   3.817   1.015   5.483
 3473SOL     OW11317   5.167   0.588   4.928
 3473SOL    HW111318   5.149   0.675   4.973
 3473SOL    HW211319   5.236   0.537   4.980
 3474SOL     OW11320   5.373   4.542   0.697
 3474SOL    HW111321   5.399   4.515   0.790
 3474SOL    HW211322   5.339   4.462   0.648
 3475SOL     OW11323   2.132   6.166   5.135
 3475SOL    HW111324   2.152   6.163   5.233
 3475SOL    HW211325   2.048   6.218   5.119
 3476SOL     OW11326   4.618   1.778   4.171
 3476SOL    HW111327   4.681   1.853   4.187
 3476SOL    HW211328   4.524   1.811   4.177
 3477SOL     OW11329   4.410   5.805   1.820
 3477SOL    HW111330   4.496   5.811   1.769
 3477SOL    HW211331   4.405   5.881   1.885
 3478SOL     OW11332   4.161   4.844   6.716
 3478SOL    HW111333   4.071   4.803   6.702
 3478SOL    HW211334   4.184   4.843   6.814
 3479SOL     OW11335   0.498   0.534   2.001
 3479SOL    HW111336   0.441   0.510   1.922
 3479SOL    HW211337   0.495   0.633   2.014
 3480SOL     OW11338   1.443   1.180   3.920
 3480SOL    HW111339   1.466   1.141   3.831
 3480SOL    HW211340   1.373   1.250   3.909
 3481SOL     OW11341   2.389   6.845   6.392
 3481SOL    HW111342   2.411   6.942   6.400
 3481SOL    HW211343   2.291   6.833   6.382
 3482SOL     OW11344   1.101   1.605   1.007
 3482SOL    HW111345   1.025   1.667   0.989
 3482SOL    HW211346   1.081   1.552   1.090
 3483SOL     OW11347   3.750   1.117   0.715
 3483SOL    HW111348   3.658   1.131   0.677
 3483SOL    HW211349   3.758   1.024   0.750
 3484SOL     OW11350   3.007   3.323   3.595
 3484SOL    HW111351   2.991   3.252   3.664
 3484SOL    HW211352   3.036   3.407   3.640
 3485SOL     OW11353   6.796   1.397   4.651
 3485SOL    HW111354   6.796   1.449   4.566
 3485SOL    HW211355   6.860   1.439   4.715
 3486SOL     OW11356   4.566   1.759   2.653
 3486SOL    HW111357   4.468   1.742   2.659
 3486SOL    HW211358   4.584   1.821   2.576
 3487SOL     OW11359   0.607   0.665   6.793
 3487SOL    HW111360   0.623   0.684   6.890
 3487SOL    HW211361   0.508   0.662   6.775
 3488SOL     OW11362   5.904   3.113   3.976
 3488SOL    HW111363   6.004   3.115   3.977
 3488SOL    HW211364   5.868   3.161   4.056
 3489SOL     OW11365   2.576   6.561   0.898
 3489SOL    HW111366   2.649   6.592   0.838
 3489SOL    HW211367   2.591   6.597   0.990
 3490SOL     OW11368   3.708   3.198   0.643
 3490SOL    HW111369   3.683   3.157   0.730
 3490SOL    HW211370   3.662   3.286   0.632
 3491SOL     OW11371   6.841   2.982   5.097
 3491SOL    HW111372   6.802   3.005   5.008
 3491SOL    HW211373   6.925   3.034   5.111
 3492SOL     OW11374   5.861   5.147   6.630
 3492SOL    HW111375   5.809   5.119   6.549
 3492SOL    HW211376   5.859   5.246   6.638
 3493SOL     OW11377   6.885   5.231   0.467
 3493SOL    HW111378   6.952   5.215   0.540
 3493SOL    HW211379   6.852   5.144   0.433
 3494SOL     OW11380   3.012   6.664   1.088
 3494SOL    HW111381   3.111   6.649   1.082
 3494SOL    HW211382   2.966   6.575   1.088
 3495SOL     OW11383   5.290   4.781   0.847
 3495SOL    HW111384   5.310   4.713   0.776
 3495SOL    HW211385   5.365   4.847   0.852
 3496SOL     OW11386   1.669   4.229   0.481
 3496SOL    HW111387   1.616   4.177   0.414
 3496SOL    HW211388   1.609   4.291   0.530
 3497SOL     OW11389   4.630   6.711   3.670
 3497SOL    HW111390   4.680   6.624   3.664
 3497SOL    HW211391   4.622   6.738   3.766
 3498SOL     OW11392   1.902   1.407   1.888
 3498SOL    HW111393   1.918   1.435   1.794
 3498SOL    HW211394   1.985   1.424   1.942
 3499SOL     OW11395   6.236   3.779   3.814
 3499SOL    HW111396   6.275   3.690   3.839
 3499SOL    HW211397   6.210   3.829   3.896
 3500SOL     OW11398   6.466   2.849   0.773
 3500SOL    HW111399   6.412   2.925   0.811
 3500SOL    HW211400   6.407   2.769   0.764
 3501SOL     OW11401   0.753   4.442   4.096
 3501SOL    HW111402   0.701   4.484   4.171
 3501SOL    HW211403   0.780   4.349   4.123
 3502SOL     OW11404   1.117   3.648   1.513
 3502SOL    HW111405   1.111   3.700   1.428
 3502SOL    HW211406   1.048   3.681   1.577
 3503SOL     OW11407   4.837   6.201   3.576
 3503SOL    HW111408   4.903   6.155   3.634
 3503SOL    HW211409   4.748   6.157   3.585
 3504SOL     OW11410   2.140   3.048   2.461
 3504SOL    HW111411   2.217   3.071   2.403
 3504SOL    HW211412   2.077   2.989   2.411
 3505SOL     OW11413   4.640   5.498   4.776
 3505SOL    HW111414   4.708   5.486   4.704
 3505SOL    HW211415   4.567   5.558   4.744
 3506SOL     OW11416   5.702   4.750   2.187
 3506SOL    HW111417   5.693   4.815   2.112
 3506SOL    HW211418   5.650   4.782   2.266
 3507SOL     OW11419   0.694   0.615   6.400
 3507SOL    HW111420   0.659   0.708   6.384
 3507SOL    HW211421   0.695   0.596   6.498
 3508SOL     OW11422   6.503   3.320   6.729
 3508SOL    HW111423   6.558   3.246   6.769
 3508SOL    HW211424   6.555   3.364   6.656
 3509SOL     OW11425   0.092   6.897   0.999
 3509SOL    HW111426   0.181   6.936   1.025
 3509SOL    HW211427   0.022   6.929   1.063
 3510SOL     OW11428   1.615   2.894   1.644
 3510SOL    HW111429   1.574   2.915   1.555
 3510SOL    HW211430   1.615   2.795   1.658
 3511SOL     OW11431   0.739   0.704   5.153
 3511SOL    HW111432   0.699   0.692   5.062
 3511SOL    HW211433   0.710   0.792   5.191
 3512SOL     OW11434   3.344   3.114   1.233
 3512SOL    HW111435   3.314   3.208   1.241
 3512SOL    HW211436   3.275   3.060   1.185
 3513SOL     OW11437   6.200   4.446   1.362
 3513SOL    HW111438   6.144   4.452   1.280
 3513SOL    HW211439   6.182   4.525   1.420
 3514SOL     OW11440   1.523   6.725   1.608
 3514SOL    HW111441   1.605   6.777   1.583
 3514SOL    HW211442   1.484   6.683   1.525
 3515SOL     OW11443   3.320   6.198   3.478
 3515SOL    HW111444   3.250   6.127   3.486
 3515SOL    HW211445   3.289   6.282   3.522
 3516SOL     OW11446   3.523   1.171   0.523
 3516SOL    HW111447   3.514   1.261   0.480
 3516SOL    HW211448   3.487   1.101   0.462
 3517SOL     OW11449   1.053   0.758   6.760
 3517SOL    HW111450   1.096   0.830   6.814
 3517SOL    HW211451   1.100   0.671   6.777
 3518SOL     OW11452   4.507   3.390   6.151
 3518SOL    HW111453   4.430   3.416   6.094
 3518SOL    HW211454   4.503   3.440   6.238
 3519SOL     OW11455   2.793   6.825   1.116
 3519SOL    HW111456   2.814   6.918   1.086
 3519SOL    HW211457   2.876   6.769   1.111
 3520SOL     OW11458   3.515   5.572   1.389
 3520SOL    HW111459   3.511   5.625   1.305
 3520SOL    HW211460   3.474   5.625   1.464
 3521SOL     OW11461   5.570   2.435   0.183
 3521SOL    HW111462   5.646   2.426   0.247
 3521SOL    HW211463   5.580   2.520   0.131
 3522SOL     OW11464   3.157   5.778   1.687
 3522SOL    HW111465   3.093   5.704   1.667
 3522SOL    HW211466   3.130   5.860   1.636
 3523SOL     OW11467   2.000   4.792   5.555
 3523SOL    HW111468   2.052   4.716   5.518
 3523SOL    HW211469   2.031   4.878   5.515
 3524SOL     OW11470   2.920   6.837   1.827
 3524SOL    HW111471   2.901   6.743   1.855
 3524SOL    HW211472   2.995   6.837   1.760
 3525SOL     OW11473   1.687   2.977   2.546
 3525SOL    HW111474   1.612   3.035   2.513
 3525SOL    HW211475   1.650   2.896   2.591
 3526SOL     OW11476   2.532   0.177   3.399
 3526SOL    HW111477   2.621   0.137   3.375
 3526SOL    HW211478   2.488   0.121   3.468
 3527SOL     OW11479   4.788   3.371   6.045
 3527SOL    HW111480   4.836   3.329   6.122
 3527SOL    HW211481   4.702   3.322   6.029
 3528SOL     OW11482   1.362   6.641   4.363
 3528SOL    HW111483   1.307   6.559   4.348
 3528SOL    HW211484   1.308   6.709   4.413
 3529SOL     OW11485   3.490   6.086   0.453
 3529SOL    HW111486   3.468   6.019   0.523
 3529SOL    HW211487   3.517   6.039   0.369
 3530SOL     OW11488   1.270   5.490   3.012
 3530SOL    HW111489   1.214   5.537   3.080
 3530SOL    HW211490   1.257   5.391   3.020
 3531SOL     OW11491   4.647   3.692   6.944
 3531SOL    HW111492   4.637   3.787   6.974
 3531SOL    HW211493   4.581   3.634   6.992
 3532SOL     OW11494   1.955   6.528   0.310
 3532SOL    HW111495   1.881   6.570   0.257
 3532SOL    HW211496   2.016   6.600   0.344
 3533SOL     OW11497   1.320   1.399   3.785
 3533SOL    HW111498   1.227   1.395   3.748
 3533SOL    HW211499   1.373   1.466   3.732
 3534SOL     OW11500   5.398   0.809   5.093
 3534SOL    HW111501   5.353   0.719   5.091
 3534SOL    HW211502   5.349   0.872   5.032
 3535SOL     OW11503   4.092   6.216   0.238
 3535SOL    HW111504   4.096   6.173   0.328
 3535SOL    HW211505   3.997   6.224   0.208
 3536SOL     OW11506   1.078   4.288   3.032
 3536SOL    HW111507   1.048   4.219   3.098
 3536SOL    HW211508   1.079   4.378   3.074
 3537SOL     OW11509   2.636   5.421   0.618
 3537SOL    HW111510   2.537   5.411   0.628
 3537SOL    HW211511   2.679   5.331   0.618
 3538SOL     OW11512   2.919   0.603   3.618
 3538SOL    HW111513   2.931   0.557   3.706
 3538SOL    HW211514   2.927   0.536   3.544
 3539SOL     OW11515   5.453   6.006   6.608
 3539SOL    HW111516   5.374   5.959   6.569
 3539SOL    HW211517   5.535   5.952   6.592
 3540SOL     OW11518   2.758   3.967   6.198
 3540SOL    HW111519   2.785   4.026   6.122
 3540SOL    HW211520   2.833   3.904   6.220
 3541SOL     OW11521   2.203   3.029   1.497
 3541SOL    HW111522   2.113   3.071   1.489
 3541SOL    HW211523   2.231   3.026   1.593
 3542SOL     OW11524   5.570   1.639   6.599
 3542SOL    HW111525   5.511   1.708   6.557
 3542SOL    HW211526   5.607   1.674   6.685
 3543SOL     OW11527   0.216   2.053   3.444
 3543SOL    HW111528   0.244   2.147   3.425
 3543SOL    HW211529   0.119   2.041   3.421
 3544SOL     OW11530   3.096   3.719   6.849
 3544SOL    HW111531   3.114   3.767   6.936
 3544SOL    HW211532   3.118   3.780   6.773
 3545SOL     OW11533   3.792   0.201   1.479
 3545SOL    HW111534   3.867   0.257   1.514
 3545SOL    HW211535   3.761   0.139   1.550
 3546SOL     OW11536   6.733   4.255   2.362
 3546SOL    HW111537   6.827   4.220   2.372
 3546SOL    HW211538   6.674   4.207   2.427
 3547SOL     OW11539   0.928   3.587   4.766
 3547SOL    HW111540   0.836   3.550   4.781
 3547SOL    HW211541   0.981   3.524   4.709
 3548SOL     OW11542   5.561   0.541   5.758
 3548SOL    HW111543   5.589   0.494   5.674
 3548SOL    HW211544   5.642   0.579   5.802
 3549SOL     OW11545   2.602   6.825   0.382
 3549SOL    HW111546   2.513   6.868   0.366
 3549SOL    HW211547   2.590   6.736   0.425
 3550SOL     OW11548   5.648   0.979   5.282
 3550SOL    HW111549   5.694   0.945   5.200
 3550SOL    HW211550   5.706   0.963   5.362
 3551SOL     OW11551   4.567   2.043   4.267
 3551SOL    HW111552   4.509   2.004   4.195
 3551SOL    HW211553   4.511   2.060   4.349
 3552SOL     OW11554   6.691   0.016   3.417
 3552SOL    HW111555   6.673   0.114   3.428
 3552SOL    HW211556   6.658   6.988   3.498
 3553SOL     OW11557   5.729   5.900   6.633
 3553SOL    HW111558   5.744   5.995   6.662
 3553SOL    HW211559   5.768   5.837   6.700
 3554SOL     OW11560   5.930   3.820   0.479
 3554SOL    HW111561   5.937   3.911   0.521
 3554SOL    HW211562   5.955   3.825   0.383
 3555SOL     OW11563   3.042   2.254   4.664
 3555SOL    HW111564   2.968   2.268   4.730
 3555SOL    HW211565   3.111   2.326   4.676
 3556SOL     OW11566   5.460   1.247   6.193
 3556SOL    HW111567   5.515   1.163   6.196
 3556SOL    HW211568   5.506   1.319   6.244
 3557SOL     OW11569   6.225   0.423   1.120
 3557SOL    HW111570   6.181   0.470   1.196
 3557SOL    HW211571   6.174   0.440   1.036
 3558SOL     OW11572   3.563   5.435   2.396
 3558SOL    HW111573   3.580   5.534   2.398
 3558SOL    HW211574   3.501   5.410   2.471
 3559SOL     OW11575   4.744   6.986   5.905
 3559SOL    HW111576   4.645   6.972   5.901
 3559SOL    HW211577   4.772   0.024   5.829
 3560SOL     OW11578   1.883   5.186   3.764
 3560SOL    HW111579   1.852   5.175   3.670
 3560SOL    HW211580   1.865   5.102   3.816
 3561SOL     OW11581   4.642   3.714   5.370
 3561SOL    HW111582   4.620   3.655   5.447
 3561SOL    HW211583   4.622   3.667   5.284
 3562SOL     OW11584   2.294   1.685   6.246
 3562SOL    HW111585   2.360   1.696   6.171
 3562SOL    HW211586   2.205   1.721   6.217
 3563SOL     OW11587   6.068   2.739   5.708
 3563SOL    HW111588   5.979   2.719   5.750
 3563SOL    HW211589   6.061   2.825   5.657
 3564SOL     OW11590   6.087   3.683   1.731
 3564SOL    HW111591   5.999   3.726   1.710
 3564SOL    HW211592   6.090   3.592   1.690
 3565SOL     OW11593   4.164   6.244   3.844
 3565SOL    HW111594   4.190   6.282   3.933
 3565SOL    HW211595   4.179   6.146   3.844
 3566SOL     OW11596   1.297   6.704   4.946
 3566SOL    HW111597   1.294   6.803   4.956
 3566SOL    HW211598   1.378   6.668   4.991
 3567SOL     OW11599   6.964   2.886   5.980
 3567SOL    HW111600   6.867   2.871   5.998
 3567SOL    HW211601   6.984   2.984   5.987
 3568SOL     OW11602   5.285   4.113   6.474
 3568SOL    HW111603   5.265   4.162   6.388
 3568SOL    HW211604   5.200   4.074   6.509
 3569SOL     OW11605   1.925   1.246   4.650
 3569SOL    HW111606   2.020   1.225   4.673
 3569SOL    HW211607   1.920   1.334   4.603
 3570SOL     OW11608   5.882   1.845   3.977
 3570SOL    HW111609   5.925   1.934   3.986
 3570SOL    HW211610   5.936   1.776   4.025
 3571SOL     OW11611   6.441   6.146   5.567
 3571SOL    HW111612   6.417   6.213   5.496
 3571SOL    HW211613   6.475   6.193   5.648
 3572SOL     OW11614   6.674   5.790   4.128
 3572SOL    HW111615   6.707   5.871   4.080
 3572SOL    HW211616   6.737   5.767   4.202
 3573SOL     OW11617   1.048   1.868   2.333
 3573SOL    HW111618   1.104   1.951   2.336
 3573SOL    HW211619   0.954   1.891   2.359
 3574SOL     OW11620   6.855   4.000   0.866
 3574SOL    HW111621   6.924   4.016   0.796
 3574SOL    HW211622   6.852   4.079   0.929
 3575SOL     OW11623   6.571   5.654   1.677
 3575SOL    HW111624   6.602   5.560   1.693
 3575SOL    HW211625   6.560   5.701   1.764
 3576SOL     OW11626   0.564   1.914   6.184
 3576SOL    HW111627   0.519   1.997   6.151
 3576SOL    HW211628   0.548   1.839   6.120
 3577SOL     OW11629   1.482   3.018   6.936
 3577SOL    HW111630   1.546   3.005   6.860
 3577SOL    HW211631   1.510   3.098   6.990
 3578SOL     OW11632   3.852   5.456   0.609
 3578SOL    HW111633   3.831   5.358   0.616
 3578SOL    HW211634   3.856   5.495   0.701
 3579SOL     OW11635   0.427   4.043   5.083
 3579SOL    HW111636   0.476   3.982   5.145
 3579SOL    HW211637   0.399   4.125   5.133
 3580SOL     OW11638   6.385   2.009   2.023
 3580SOL    HW111639   6.384   1.911   2.002
 3580SOL    HW211640   6.442   2.057   1.956
 3581SOL     OW11641   6.627   0.366   2.632
 3581SOL    HW111642   6.631   0.454   2.680
 3581SOL    HW211643   6.632   0.381   2.534
 3582SOL     OW11644   0.744   0.625   5.981
 3582SOL    HW111645   0.778   0.560   6.049
 3582SOL    HW211646   0.787   0.607   5.892
 3583SOL     OW11647   2.055   5.709   0.632
 3583SOL    HW111648   1.958   5.731   0.641
 3583SOL    HW211649   2.076   5.627   0.686
 3584SOL     OW11650   4.642   6.578   5.960
 3584SOL    HW111651   4.640   6.498   5.900
 3584SOL    HW211652   4.581   6.649   5.925
 3585SOL     OW11653   2.737   4.661   3.478
 3585SOL    HW111654   2.829   4.692   3.501
 3585SOL    HW211655   2.726   4.658   3.379
 3586SOL     OW11656   6.750   2.117   6.283
 3586SOL    HW111657   6.849   2.117   6.273
 3586SOL    HW211658   6.725   2.162   6.369
 3587SOL     OW11659   3.980   6.675   6.163
 3587SOL    HW111660   3.991   6.772   6.144
 3587SOL    HW211661   3.886   6.647   6.143
 3588SOL     OW11662   2.005   1.378   5.519
 3588SOL    HW111663   1.917   1.419   5.542
 3588SOL    HW211664   1.996   1.326   5.433
 3589SOL     OW11665   3.310   0.516   5.265
 3589SOL    HW111666   3.392   0.540   5.317
 3589SOL    HW211667   3.325   0.430   5.216
 3590SOL     OW11668   1.755   4.907   6.269
 3590SOL    HW111669   1.779   4.938   6.177
 3590SOL    HW211670   1.758   4.807   6.272
 3591SOL     OW11671   5.490   2.439   5.155
 3591SOL    HW111672   5.492   2.524   5.104
 3591SOL    HW211673   5.414   2.439   5.219
 3592SOL     OW11674   4.832   2.771   2.100
 3592SOL    HW111675   4.852   2.750   2.004
 3592SOL    HW211676   4.788   2.860   2.106
 3593SOL     OW11677   1.657   5.326   3.138
 3593SOL    HW111678   1.606   5.317   3.052
 3593SOL    HW211679   1.755   5.325   3.119
 3594SOL     OW11680   3.026   0.947   4.182
 3594SOL    HW111681   3.087   1.022   4.157
 3594SOL    HW211682   2.939   0.956   4.132
 3595SOL     OW11683   3.124   5.932   5.101
 3595SOL    HW111684   3.207   5.985   5.118
 3595SOL    HW211685   3.048   5.994   5.083
 3596SOL     OW11686   6.791   2.904   3.186
 3596SOL    HW111687   6.800   2.810   3.154
 3596SOL    HW211688   6.714   2.911   3.249
 3597SOL     OW11689   3.821   5.708   3.879
 3597SOL    HW111690   3.834   5.671   3.970
 3597SOL    HW211691   3.883   5.785   3.865
 3598SOL     OW11692   1.041   6.785   6.774
 3598SOL    HW111693   0.942   6.797   6.780
 3598SOL    HW211694   1.085   6.874   6.771
 3599SOL     OW11695   0.251   1.967   4.376
 3599SOL    HW111696   0.236   1.931   4.284
 3599SOL    HW211697   0.347   1.954   4.401
 3600SOL     OW11698   5.709   0.833   0.761
 3600SOL    HW111699   5.675   0.859   0.671
 3600SOL    HW211700   5.643   0.861   0.831
 3601SOL     OW11701   6.445   3.884   5.716
 3601SOL    HW111702   6.433   3.885   5.815
 3601SOL    HW211703   6.405   3.967   5.677
 3602SOL     OW11704   1.847   1.623   0.383
 3602SOL    HW111705   1.775   1.684   0.349
 3602SOL    HW211706   1.889   1.663   0.464
 3603SOL     OW11707   4.065   4.898   4.915
 3603SOL    HW111708   3.971   4.928   4.931
 3603SOL    HW211709   4.084   4.904   4.817
 3604SOL     OW11710   0.425   3.110   2.907
 3604SOL    HW111711   0.452   3.054   2.829
 3604SOL    HW211712   0.477   3.195   2.907
 3605SOL     OW11713   6.093   3.545   6.463
 3605SOL    HW111714   6.098   3.470   6.529
 3605SOL    HW211715   6.122   3.511   6.373
 3606SOL     OW11716   0.840   4.953   4.725
 3606SOL    HW111717   0.747   4.944   4.759
 3606SOL    HW211718   0.888   5.025   4.775
 3607SOL     OW11719   4.939   6.977   6.903
 3607SOL    HW111720   4.974   0.033   6.955
 3607SOL    HW211721   4.839   6.975   6.910
 3608SOL     OW11722   0.998   2.480   2.528
 3608SOL    HW111723   1.045   2.559   2.488
 3608SOL    HW211724   0.918   2.511   2.578
 3609SOL     OW11725   6.884   0.311   5.000
 3609SOL    HW111726   6.894   0.262   5.087
 3609SOL    HW211727   6.899   0.247   4.924
 3610SOL     OW11728   1.106   6.494   4.928
 3610SOL    HW111729   1.061   6.452   5.007
 3610SOL    HW211730   1.164   6.569   4.958
 3611SOL     OW11731   3.258   5.499   5.453
 3611SOL    HW111732   3.223   5.424   5.510
 3611SOL    HW211733   3.345   5.472   5.413
 3612SOL     OW11734   1.061   0.435   1.413
 3612SOL    HW111735   1.103   0.431   1.504
 3612SOL    HW211736   1.050   0.531   1.386
 3613SOL     OW11737   5.262   5.850   6.493
 3613SOL    HW111738   5.185   5.849   6.556
 3613SOL    HW211739   5.287   5.757   6.468
 3614SOL     OW11740   3.706   3.042   3.304
 3614SOL    HW111741   3.712   3.114   3.234
 3614SOL    HW211742   3.636   2.975   3.277
 3615SOL     OW11743   6.625   6.204   6.244
 3615SOL    HW111744   6.674   6.238   6.324
 3615SOL    HW211745   6.526   6.214   6.258
 3616SOL     OW11746   0.093   1.698   5.496
 3616SOL    HW111747   0.153   1.778   5.489
 3616SOL    HW211748   7.020   1.726   5.476
 3617SOL     OW11749   6.872   1.142   6.426
 3617SOL    HW111750   6.887   1.047   6.398
 3617SOL    HW211751   6.882   1.149   6.525
 3618SOL     OW11752   2.499   1.746   6.083
 3618SOL    HW111753   2.546   1.832   6.061
 3618SOL    HW211754   2.509   1.682   6.007
 3619SOL     OW11755   5.895   2.315   4.210
 3619SOL    HW111756   5.847   2.382   4.267
 3619SOL    HW211757   5.987   2.347   4.190
 3620SOL     OW11758   5.960   6.781   5.058
 3620SOL    HW111759   5.920   6.690   5.042
 3620SOL    HW211760   5.892   6.851   5.038
 3621SOL     OW11761   1.722   3.654   5.774
 3621SOL    HW111762   1.720   3.581   5.705
 3621SOL    HW211763   1.805   3.709   5.761
 3622SOL     OW11764   0.644   2.886   1.479
 3622SOL    HW111765   0.652   2.811   1.545
 3622SOL    HW211766   0.669   2.972   1.523
 3623SOL     OW11767   6.079   5.137   3.830
 3623SOL    HW111768   6.073   5.098   3.739
 3623SOL    HW211769   6.073   5.237   3.825
 3624SOL     OW11770   2.592   0.029   2.547
 3624SOL    HW111771   2.643   0.090   2.486
 3624SOL    HW211772   2.632   6.959   2.544
 3625SOL     OW11773   6.791   3.467   5.292
 3625SOL    HW111774   6.808   3.501   5.200
 3625SOL    HW211775   6.762   3.371   5.288
 3626SOL     OW11776   2.545   3.779   5.299
 3626SOL    HW111777   2.475   3.838   5.259
 3626SOL    HW211778   2.503   3.692   5.326
 3627SOL     OW11779   2.864   3.575   3.556
 3627SOL    HW111780   2.846   3.630   3.637
 3627SOL    HW211781   2.875   3.479   3.583
 3628SOL     OW11782   2.714   5.249   2.124
 3628SOL    HW111783   2.779   5.326   2.119
 3628SOL    HW211784   2.622   5.285   2.138
 3629SOL     OW11785   6.055   2.327   5.047
 3629SOL    HW111786   6.044   2.230   5.023
 3629SOL    HW211787   6.028   2.384   4.970
 3630SOL     OW11788   6.250   1.913   4.441
 3630SOL    HW111789   6.264   1.841   4.373
 3630SOL    HW211790   6.185   1.980   4.406
 3631SOL     OW11791   2.189   1.017   4.795
 3631SOL    HW111792   2.184   0.938   4.734
 3631SOL    HW211793   2.244   1.088   4.753
 3632SOL     OW11794   4.596   0.686   0.270
 3632SOL    HW111795   4.542   0.622   0.217
 3632SOL    HW211796   4.537   0.736   0.333
 3633SOL     OW11797   1.714   3.058   5.988
 3633SOL    HW111798   1.791   3.051   6.052
 3633SOL    HW211799   1.710   3.150   5.950
 3634SOL     OW11800   1.671   6.197   5.143
 3634SOL    HW111801   1.621   6.218   5.059
 3634SOL    HW211802   1.707   6.104   5.139
 3635SOL     OW11803   2.480   1.246   5.461
 3635SOL    HW111804   2.418   1.168   5.455
 3635SOL    HW211805   2.452   1.305   5.537
 3636SOL     OW11806   0.927   5.522   5.839
 3636SOL    HW111807   0.838   5.495   5.877
 3636SOL    HW211808   1.000   5.474   5.887
 3637SOL     OW11809   5.653   1.169   1.983
 3637SOL    HW111810   5.701   1.087   2.011
 3637SOL    HW211811   5.611   1.155   1.893
 3638SOL     OW11812   0.300   4.696   3.764
 3638SOL    HW111813   0.339   4.604   3.771
 3638SOL    HW211814   0.301   4.740   3.854
 3639SOL     OW11815   2.359   5.073   0.790
 3639SOL    HW111816   2.282   5.013   0.811
 3639SOL    HW211817   2.436   5.019   0.755
 3640SOL     OW11818   3.678   6.059   0.853
 3640SOL    HW111819   3.680   5.966   0.817
 3640SOL    HW211820   3.770   6.098   0.851
 3641SOL     OW11821   2.487   1.423   4.813
 3641SOL    HW111822   2.509   1.491   4.744
 3641SOL    HW211823   2.537   1.338   4.795
 3642SOL     OW11824   5.535   0.007   4.406
 3642SOL    HW111825   5.436   7.012   4.408
 3642SOL    HW211826   5.560   0.068   4.481
 3643SOL     OW11827   2.967   4.947   4.583
 3643SOL    HW111828   2.947   4.893   4.665
 3643SOL    HW211829   3.065   4.942   4.564
 3644SOL     OW11830   6.732   0.481   0.837
 3644SOL    HW111831   6.640   0.445   0.851
 3644SOL    HW211832   6.796   0.405   0.827
 3645SOL     OW11833   4.077   0.910   3.648
 3645SOL    HW111834   4.013   0.893   3.573
 3645SOL    HW211835   4.054   0.996   3.693
 3646SOL     OW11836   0.295   4.816   5.514
 3646SOL    HW111837   0.249   4.872   5.583
 3646SOL    HW211838   0.394   4.830   5.520
 3647SOL     OW11839   2.217   3.119   1.126
 3647SOL    HW111840   2.118   3.121   1.112
 3647SOL    HW211841   2.252   3.213   1.126
 3648SOL     OW11842   3.433   6.055   2.262
 3648SOL    HW111843   3.372   6.073   2.185
 3648SOL    HW211844   3.483   5.970   2.246
 3649SOL     OW11845   3.832   3.545   0.817
 3649SOL    HW111846   3.920   3.545   0.771
 3649SOL    HW211847   3.840   3.495   0.904
 3650SOL     OW11848   0.321   6.588   1.477
 3650SOL    HW111849   0.392   6.625   1.536
 3650SOL    HW211850   0.352   6.588   1.382
 3651SOL     OW11851   1.652   5.966   2.857
 3651SOL    HW111852   1.682   6.056   2.890
 3651SOL    HW211853   1.636   5.971   2.758
 3652SOL     OW11854   4.478   5.542   3.258
 3652SOL    HW111855   4.387   5.581   3.266
 3652SOL    HW211856   4.476   5.463   3.196
 3653SOL     OW11857   0.317   1.485   3.359
 3653SOL    HW111858   0.233   1.488   3.304
 3653SOL    HW211859   0.396   1.499   3.300
 3654SOL     OW11860   1.488   6.443   1.649
 3654SOL    HW111861   1.529   6.532   1.668
 3654SOL    HW211862   1.394   6.455   1.616
 3655SOL     OW11863   2.050   0.347   4.940
 3655SOL    HW111864   2.113   0.337   5.017
 3655SOL    HW211865   1.957   0.362   4.975
 3656SOL     OW11866   2.043   2.784   1.695
 3656SOL    HW111867   2.089   2.751   1.612
 3656SOL    HW211868   2.049   2.715   1.766
 3657SOL     OW11869   3.923   5.994   1.097
 3657SOL    HW111870   3.924   5.922   1.028
 3657SOL    HW211871   3.974   6.073   1.064
 3658SOL     OW11872   1.488   5.844   5.835
 3658SOL    HW111873   1.410   5.907   5.839
 3658SOL    HW211874   1.495   5.795   5.921
 3659SOL     OW11875   2.403   4.375   6.868
 3659SOL    HW111876   2.435   4.424   6.786
 3659SOL    HW211877   2.478   4.321   6.906
 3660SOL     OW11878   4.649   5.719   1.738
 3660SOL    HW111879   4.689   5.787   1.800
 3660SOL    HW211880   4.720   5.683   1.677
 3661SOL     OW11881   4.884   0.640   0.486
 3661SOL    HW111882   4.853   0.598   0.400
 3661SOL    HW211883   4.805   0.679   0.534
 3662SOL     OW11884   2.939   0.287   5.426
 3662SOL    HW111885   2.839   0.285   5.428
 3662SOL    HW211886   2.970   0.369   5.378
 3663SOL     OW11887   1.469   2.528   0.108
 3663SOL    HW111888   1.527   2.597   0.065
 3663SOL    HW211889   1.378   2.567   0.124
 3664SOL     OW11890   4.856   0.970   0.814
 3664SOL    HW111891   4.806   1.011   0.738
 3664SOL    HW211892   4.801   0.976   0.897
 3665SOL     OW11893   0.716   0.059   5.132
 3665SOL    HW111894   0.746   6.987   5.150
 3665SOL    HW211895   0.628   0.075   5.177
 3666SOL     OW11896   1.907   4.306   4.526
 3666SOL    HW111897   1.875   4.337   4.437
 3666SOL    HW211898   1.947   4.384   4.575
 3667SOL     OW11899   6.033   1.521   6.191
 3667SOL    HW111900   6.019   1.536   6.093
 3667SOL    HW211901   6.131   1.516   6.210
 3668SOL     OW11902   0.994   6.342   2.605
 3668SOL    HW111903   1.026   6.421   2.658
 3668SOL    HW211904   1.003   6.362   2.507
 3669SOL     OW11905   6.495   2.925   3.273
 3669SOL    HW111906   6.514   2.968   3.361
 3669SOL    HW211907   6.400   2.944   3.247
 3670SOL     OW11908   2.211   5.850   5.905
 3670SOL    HW111909   2.184   5.787   5.833
 3670SOL    HW211910   2.280   5.913   5.870
 3671SOL     OW11911   1.398   0.338   3.079
 3671SOL    HW111912   1.355   0.427   3.063
 3671SOL    HW211913   1.363   0.298   3.163
 3672SOL     OW11914   6.816   0.637   0.025
 3672SOL    HW111915   6.792   0.729   0.057
 3672SOL    HW211916   6.871   0.644   6.964
 3673SOL     OW11917   4.754   0.543   0.028
 3673SOL    HW111918   4.715   0.632   0.052
 3673SOL    HW211919   4.853   0.545   0.041
 3674SOL     OW11920   1.225   6.521   0.645
 3674SOL    HW111921   1.314   6.542   0.604
 3674SOL    HW211922   1.152   6.549   0.582
 3675SOL     OW11923   2.194   2.231   5.498
 3675SOL    HW111924   2.095   2.243   5.502
 3675SOL    HW211925   2.233   2.297   5.434
 3676SOL     OW11926   2.963   5.544   3.633
 3676SOL    HW111927   2.909   5.597   3.568
 3676SOL    HW211928   2.911   5.463   3.661
 3677SOL     OW11929   6.609   6.675   4.451
 3677SOL    HW111930   6.591   6.728   4.368
 3677SOL    HW211931   6.699   6.631   4.443
 3678SOL     OW11932   1.334   1.855   3.744
 3678SOL    HW111933   1.402   1.785   3.767
 3678SOL    HW211934   1.266   1.815   3.683
 3679SOL     OW11935   0.489   1.079   2.120
 3679SOL    HW111936   0.410   1.113   2.171
 3679SOL    HW211937   0.483   1.107   2.025
 3680SOL     OW11938   6.989   3.097   4.345
 3680SOL    HW111939   6.983   3.171   4.277
 3680SOL    HW211940   6.898   3.057   4.358
 3681SOL     OW11941   0.080   6.842   6.018
 3681SOL    HW111942   0.146   6.767   6.023
 3681SOL    HW211943   0.026   6.845   6.102
 3682SOL     OW11944   6.436   1.787   6.003
 3682SOL    HW111945   6.516   1.839   6.032
 3682SOL    HW211946   6.431   1.785   5.903
 3683SOL     OW11947   5.904   0.011   4.497
 3683SOL    HW111948   5.822   0.033   4.549
 3683SOL    HW211949   5.921   0.083   4.430
 3684SOL     OW11950   1.357   3.279   1.802
 3684SOL    HW111951   1.351   3.204   1.868
 3684SOL    HW211952   1.443   3.327   1.814
 3685SOL     OW11953   6.151   6.083   0.042
 3685SOL    HW111954   6.146   6.183   0.042
 3685SOL    HW211955   6.180   6.051   6.974
 3686SOL     OW11956   6.585   4.783   1.521
 3686SOL    HW111957   6.512   4.838   1.480
 3686SOL    HW211958   6.669   4.793   1.468
 3687SOL     OW11959   3.590   0.440   6.655
 3687SOL    HW111960   3.646   0.501   6.711
 3687SOL    HW211961   3.494   0.467   6.663
 3688SOL     OW11962   1.304   3.548   0.316
 3688SOL    HW111963   1.339   3.627   0.266
 3688SOL    HW211964   1.222   3.573   0.366
 3689SOL     OW11965   1.771   0.718   4.351
 3689SOL    HW111966   1.761   0.760   4.261
 3689SOL    HW211967   1.733   0.626   4.349
 3690SOL     OW11968   5.664   6.878   5.991
 3690SOL    HW111969   5.723   6.947   6.033
 3690SOL    HW211970   5.615   6.828   6.063
 3691SOL     OW11971   2.603   3.356   0.134
 3691SOL    HW111972   2.683   3.301   0.158
 3691SOL    HW211973   2.552   3.379   0.217
 3692SOL     OW11974   1.759   6.902   5.106
 3692SOL    HW111975   1.788   6.972   5.039
 3692SOL    HW211976   1.776   6.936   5.198
 3693SOL     OW11977   2.830   2.272   3.087
 3693SOL    HW111978   2.814   2.289   3.184
 3693SOL    HW211979   2.906   2.207   3.077
 3694SOL     OW11980   2.167   5.918   3.474
 3694SOL    HW111981   2.251   5.890   3.427
 3694SOL    HW211982   2.190   5.986   3.544
 3695SOL     OW11983   2.076   2.077   2.492
 3695SOL    HW111984   2.050   2.130   2.573
 3695SOL    HW211985   2.130   2.135   2.431
 3696SOL     OW11986   4.397   0.018   5.870
 3696SOL    HW111987   4.435   0.104   5.903
 3696SOL    HW211988   4.315   0.036   5.815
 3697SOL     OW11989   6.402   0.174   3.986
 3697SOL    HW111990   6.450   0.203   4.069
 3697SOL    HW211991   6.397   0.250   3.922
 3698SOL     OW11992   3.057   6.938   5.783
 3698SOL    HW111993   3.003   6.961   5.864
 3698SOL    HW211994   3.057   7.015   5.719
 3699SOL     OW11995   0.266   3.755   3.249
 3699SOL    HW111996   0.336   3.816   3.285
 3699SOL    HW211997   0.302   3.707   3.169
 3700SOL     OW11998   0.229   6.938   4.354
 3700SOL    HW111999   0.193   0.002   4.393
 3700SOL    HW212000   0.157   6.869   4.353
 3701SOL     OW12001   6.114   1.023   4.431
 3701SOL    HW112002   6.051   1.031   4.354
 3701SOL    HW212003   6.132   0.927   4.449
 3702SOL     OW12004   3.842   1.235   0.463
 3702SOL    HW112005   3.920   1.261   0.519
 3702SOL    HW212006   3.782   1.174   0.515
 3703SOL     OW12007   3.701   4.506   6.744
 3703SOL    HW112008   3.726   4.423   6.694
 3703SOL    HW212009   3.748   4.509   6.832
 3704SOL     OW12010   2.545   0.340   3.036
 3704SOL    HW112011   2.541   0.352   2.937
 3704SOL    HW212012   2.498   0.254   3.061
 3705SOL     OW12013   4.724   0.473   3.865
 3705SOL    HW112014   4.739   0.498   3.961
 3705SOL    HW212015   4.812   0.470   3.818
 3706SOL     OW12016   2.153   2.640   4.065
 3706SOL    HW112017   2.209   2.686   4.134
 3706SOL    HW212018   2.171   2.542   4.067
 3707SOL     OW12019   5.058   2.723   5.631
 3707SOL    HW112020   5.091   2.653   5.696
 3707SOL    HW212021   5.113   2.718   5.548
 3708SOL     OW12022   6.013   1.048   6.704
 3708SOL    HW112023   5.964   1.062   6.618
 3708SOL    HW212024   5.968   1.100   6.777
 3709SOL     OW12025   3.751   0.265   6.290
 3709SOL    HW112026   3.777   0.330   6.219
 3709SOL    HW212027   3.733   0.176   6.248
 3710SOL     OW12028   6.827   5.100   0.994
 3710SOL    HW112029   6.741   5.071   0.951
 3710SOL    HW212030   6.860   5.027   1.054
 3711SOL     OW12031   6.618   5.620   2.338
 3711SOL    HW112032   6.543   5.554   2.331
 3711SOL    HW212033   6.686   5.586   2.403
 3712SOL     OW12034   1.320   6.829   6.941
 3712SOL    HW112035   1.270   6.759   6.890
 3712SOL    HW212036   1.298   6.920   6.904
 3713SOL     OW12037   3.869   6.116   5.647
 3713SOL    HW112038   3.840   6.028   5.611
 3713SOL    HW212039   3.969   6.120   5.651
 3714SOL     OW12040   3.968   0.410   4.770
 3714SOL    HW112041   3.915   0.494   4.761
 3714SOL    HW212042   3.906   0.333   4.787
 3715SOL     OW12043   5.697   4.747   4.678
 3715SOL    HW112044   5.650   4.697   4.605
 3715SOL    HW212045   5.700   4.690   4.760
 3716SOL     OW12046   0.123   6.961   4.760
 3716SOL    HW112047   0.114   6.897   4.836
 3716SOL    HW212048   0.170   6.916   4.684
 3717SOL     OW12049   6.110   6.398   1.027
 3717SOL    HW112050   6.138   6.364   1.117
 3717SOL    HW212051   6.056   6.481   1.037
 3718SOL     OW12052   1.131   5.798   6.783
 3718SOL    HW112053   1.216   5.802   6.835
 3718SOL    HW212054   1.060   5.754   6.839
 3719SOL     OW12055   4.357   5.197   6.003
 3719SOL    HW112056   4.384   5.152   5.918
 3719SOL    HW212057   4.258   5.203   6.008
 3720SOL     OW12058   5.661   1.473   5.988
 3720SOL    HW112059   5.646   1.534   5.911
 3720SOL    HW212060   5.689   1.383   5.954
 3721SOL     OW12061   5.703   4.780   0.879
 3721SOL    HW112062   5.772   4.761   0.808
 3721SOL    HW212063   5.637   4.846   0.845
 3722SOL     OW12064   6.173   6.210   2.535
 3722SOL    HW112065   6.191   6.112   2.544
 3722SOL    HW212066   6.180   6.237   2.438
 3723SOL     OW12067   4.769   0.205   1.217
 3723SOL    HW112068   4.706   0.220   1.141
 3723SOL    HW212069   4.856   0.172   1.182
 3724SOL     OW12070   1.284   5.515   7.005
 3724SOL    HW112071   1.306   5.610   6.980
 3724SOL    HW212072   1.192   5.512   0.022
 3725SOL     OW12073   6.966   6.268   6.621
 3725SOL    HW112074   0.025   6.305   6.575
 3725SOL    HW212075   6.990   6.245   6.716
 3726SOL     OW12076   5.480   3.862   1.617
 3726SOL    HW112077   5.414   3.803   1.663
 3726SOL    HW212078   5.488   3.948   1.669
 3727SOL     OW12079   1.828   3.222   5.000
 3727SOL    HW112080   1.830   3.263   5.091
 3727SOL    HW212081   1.779   3.135   5.003
 3728SOL     OW12082   2.026   3.223   6.763
 3728SOL    HW112083   1.940   3.271   6.741
 3728SOL    HW212084   2.012   3.125   6.753
 3729SOL     OW12085   0.980   2.017   3.184
 3729SOL    HW112086   0.966   1.922   3.212
 3729SOL    HW212087   0.932   2.077   3.247
 3730SOL     OW12088   3.495   0.719   6.828
 3730SOL    HW112089   3.418   0.687   6.773
 3730SOL    HW212090   3.570   0.748   6.768
 3731SOL     OW12091   5.081   0.200   0.342
 3731SOL    HW112092   5.067   0.113   0.390
 3731SOL    HW212093   5.003   0.260   0.359
 3732SOL     OW12094   2.141   3.775   5.067
 3732SOL    HW112095   2.219   3.821   5.111
 3732SOL    HW212096   2.152   3.779   4.968
 3733SOL     OW12097   2.886   4.012   1.687
 3733SOL    HW112098   2.935   4.098   1.700
 3733SOL    HW212099   2.913   3.946   1.758
 3734SOL     OW12100   4.726   1.255   2.518
 3734SOL    HW112101   4.730   1.347   2.555
 3734SOL    HW212102   4.774   1.252   2.430
 3735SOL     OW12103   2.866   2.231   2.352
 3735SOL    HW112104   2.795   2.162   2.334
 3735SOL    HW212105   2.884   2.283   2.268
 3736SOL     OW12106   5.914   2.288   0.664
 3736SOL    HW112107   6.001   2.337   0.660
 3736SOL    HW212108   5.844   2.340   0.614
 3737SOL     OW12109   4.869   0.180   3.730
 3737SOL    HW112110   4.885   0.278   3.730
 3737SOL    HW212111   4.770   0.162   3.726
 3738SOL     OW12112   6.804   6.442   3.634
 3738SOL    HW112113   6.736   6.515   3.629
 3738SOL    HW212114   6.865   6.447   3.555
 3739SOL     OW12115   0.467   4.360   2.538
 3739SOL    HW112116   0.381   4.382   2.492
 3739SOL    HW212117   0.448   4.302   2.617
 3740SOL     OW12118   5.586   1.658   6.904
 3740SOL    HW112119   5.509   1.602   6.933
 3740SOL    HW212120   5.591   1.740   6.960
 3741SOL     OW12121   4.410   2.871   0.150
 3741SOL    HW112122   4.441   2.927   0.226
 3741SOL    HW212123   4.337   2.810   0.181
 3742SOL     OW12124   3.462   2.596   5.820
 3742SOL    HW112125   3.382   2.632   5.868
 3742SOL    HW212126   3.447   2.602   5.721
 3743SOL     OW12127   6.792   4.782   6.987
 3743SOL    HW112128   6.808   4.797   6.889
 3743SOL    HW212129   6.802   4.684   7.008
 3744SOL     OW12130   0.418   5.204   4.026
 3744SOL    HW112131   0.475   5.188   3.945
 3744SOL    HW212132   0.429   5.298   4.056
 3745SOL     OW12133   4.026   5.972   2.669
 3745SOL    HW112134   4.005   6.055   2.721
 3745SOL    HW212135   4.062   5.902   2.730
 3746SOL     OW12136   4.574   1.691   1.994
 3746SOL    HW112137   4.607   1.761   1.931
 3746SOL    HW212138   4.590   1.722   2.088
 3747SOL     OW12139   3.252   0.702   6.937
 3747SOL    HW112140   3.349   0.682   6.943
 3747SOL    HW212141   3.200   0.617   6.931
 3748SOL     OW12142   5.608   0.649   2.868
 3748SOL    HW112143   5.663   0.716   2.819
 3748SOL    HW212144   5.623   0.659   2.967
 3749SOL     OW12145   1.706   6.663   4.946
 3749SOL    HW112146   1.666   6.686   4.857
 3749SOL    HW212147   1.745   6.745   4.987
 3750SOL     OW12148   0.260   4.016   0.956
 3750SOL    HW112149   0.220   3.955   1.024
 3750SOL    HW212150   0.217   4.000   0.867
 3751SOL     OW12151   0.399   4.216   2.752
 3751SOL    HW112152   0.367   4.139   2.807
 3751SOL    HW212153   0.474   4.262   2.800
 3752SOL     OW12154   6.275   0.699   6.607
 3752SOL    HW112155   6.309   0.685   6.514
 3752SOL    HW212156   6.176   0.712   6.604
 3753SOL     OW12157   6.821   0.269   4.351
 3753SOL    HW112158   6.748   0.279   4.283
 3753SOL    HW212159   6.784   0.283   4.443
 3754SOL     OW12160   2.195   1.681   1.046
 3754SOL    HW112161   2.096   1.689   1.039
 3754SOL    HW212162   2.220   1.584   1.045
 3755SOL     OW12163   3.069   4.866   3.715
 3755SOL    HW112164   3.040   4.960   3.731
 3755SOL    HW212165   3.050   4.841   3.620
 3756SOL     OW12166   2.411   6.497   6.592
 3756SOL    HW112167   2.415   6.592   6.623
 3756SOL    HW212168   2.374   6.493   6.499
 3757SOL     OW12169   6.147   4.920   1.746
 3757SOL    HW112170   6.136   4.825   1.776
 3757SOL    HW212171   6.167   4.978   1.825
 3758SOL     OW12172   1.993   0.058   3.820
 3758SOL    HW112173   2.057   0.116   3.869
 3758SOL    HW212174   2.032   0.032   3.731
 3759SOL     OW12175   5.107   0.529   4.608
 3759SOL    HW112176   5.121   0.627   4.594
 3759SOL    HW212177   5.052   0.514   4.690
 3760SOL     OW12178   0.290   0.689   3.268
 3760SOL    HW112179   0.257   0.643   3.351
 3760SOL    HW212180   0.384   0.720   3.283
 3761SOL     OW12181   5.200   0.963   3.734
 3761SOL    HW112182   5.174   0.918   3.820
 3761SOL    HW212183   5.287   1.009   3.745
 3762SOL     OW12184   0.448   2.878   2.058
 3762SOL    HW112185   0.523   2.916   2.003
 3762SOL    HW212186   0.473   2.882   2.155
 3763SOL     OW12187   0.642   4.905   0.897
 3763SOL    HW112188   0.644   4.806   0.879
 3763SOL    HW212189   0.722   4.948   0.856
 3764SOL     OW12190   2.071   0.523   2.899
 3764SOL    HW112191   2.074   0.443   2.958
 3764SOL    HW212192   2.048   0.604   2.953
 3765SOL     OW12193   5.798   2.431   1.894
 3765SOL    HW112194   5.745   2.355   1.855
 3765SOL    HW212195   5.813   2.414   1.992
 3766SOL     OW12196   0.880   3.396   3.206
 3766SOL    HW112197   0.970   3.415   3.167
 3766SOL    HW212198   0.886   3.317   3.266
 3767SOL     OW12199   1.558   4.799   5.919
 3767SOL    HW112200   1.502   4.729   5.876
 3767SOL    HW212201   1.641   4.758   5.958
 3768SOL     OW12202   1.125   0.261   4.237
 3768SOL    HW112203   1.097   0.189   4.301
 3768SOL    HW212204   1.054   0.331   4.231
 3769SOL     OW12205   5.421   5.764   4.728
 3769SOL    HW112206   5.373   5.848   4.704
 3769SOL    HW212207   5.377   5.686   4.682
 3770SOL     OW12208   1.472   0.949   0.837
 3770SOL    HW112209   1.393   1.010   0.830
 3770SOL    HW212210   1.491   0.930   0.933
 3771SOL     OW12211   6.437   4.759   0.556
 3771SOL    HW112212   6.421   4.680   0.498
 3771SOL    HW212213   6.493   4.826   0.507
 3772SOL     OW12214   1.781   6.064   0.642
 3772SOL    HW112215   1.841   6.104   0.573
 3772SOL    HW212216   1.806   5.969   0.657
 3773SOL     OW12217   5.185   4.039   6.008
 3773SOL    HW112218   5.269   4.033   5.954
 3773SOL    HW212219   5.173   3.954   6.059
 3774SOL     OW12220   6.204   5.299   1.606
 3774SOL    HW112221   6.288   5.245   1.603
 3774SOL    HW212222   6.212   5.376   1.542
 3775SOL     OW12223   4.280   4.972   4.283
 3775SOL    HW112224   4.316   4.881   4.265
 3775SOL    HW212225   4.180   4.967   4.291
 3776SOL     OW12226   3.444   2.942   6.691
 3776SOL    HW112227   3.400   2.961   6.778
 3776SOL    HW212228   3.383   2.888   6.634
 3777SOL     OW12229   3.290   6.286   4.556
 3777SOL    HW112230   3.316   6.193   4.584
 3777SOL    HW212231   3.345   6.315   4.479
 3778SOL     OW12232   3.210   5.253   5.593
 3778SOL    HW112233   3.271   5.174   5.599
 3778SOL    HW212234   3.116   5.221   5.577
 3779SOL     OW12235   6.696   4.545   0.057
 3779SOL    HW112236   6.684   4.515   0.151
 3779SOL    HW212237   6.607   4.544   0.010
 3780SOL     OW12238   5.889   4.038   1.434
 3780SOL    HW112239   5.958   3.996   1.494
 3780SOL    HW212240   5.856   4.123   1.475
 3781SOL     OW12241   2.697   5.712   4.863
 3781SOL    HW112242   2.601   5.687   4.857
 3781SOL    HW212243   2.753   5.643   4.817
 3782SOL     OW12244   5.341   5.960   1.837
 3782SOL    HW112245   5.409   5.917   1.896
 3782SOL    HW212246   5.363   5.942   1.741
 3783SOL     OW12247   5.175   4.960   4.738
 3783SOL    HW112248   5.241   4.902   4.786
 3783SOL    HW212249   5.216   5.049   4.719
 3784SOL     OW12250   6.131   1.520   4.220
 3784SOL    HW112251   6.085   1.509   4.308
 3784SOL    HW212252   6.200   1.592   4.227
 3785SOL     OW12253   1.680   3.787   4.666
 3785SOL    HW112254   1.659   3.742   4.580
 3785SOL    HW212255   1.779   3.784   4.682
 3786SOL     OW12256   2.675   2.444   4.861
 3786SOL    HW112257   2.684   2.483   4.953
 3786SOL    HW212258   2.620   2.505   4.804
 3787SOL     OW12259   4.170   0.309   3.243
 3787SOL    HW112260   4.122   0.314   3.155
 3787SOL    HW212261   4.104   0.314   3.318
 3788SOL     OW12262   6.456   3.712   5.501
 3788SOL    HW112263   6.534   3.650   5.509
 3788SOL    HW212264   6.464   3.784   5.570
 3789SOL     OW12265   1.591   2.744   2.686
 3789SOL    HW112266   1.668   2.683   2.706
 3789SOL    HW212267   1.545   2.767   2.772
 3790SOL     OW12268   0.744   6.667   1.733
 3790SOL    HW112269   0.839   6.700   1.740
 3790SOL    HW212270   0.739   6.594   1.666
 3791SOL     OW12271   5.151   1.138   5.837
 3791SOL    HW112272   5.220   1.091   5.781
 3791SOL    HW212273   5.193   1.215   5.884
 3792SOL     OW12274   0.227   0.843   4.181
 3792SOL    HW112275   0.245   0.839   4.279
 3792SOL    HW212276   0.253   0.756   4.138
 3793SOL     OW12277   4.636   5.609   0.340
 3793SOL    HW112278   4.650   5.519   0.380
 3793SOL    HW212279   4.550   5.648   0.373
 3794SOL     OW12280   1.366   3.883   6.481
 3794SOL    HW112281   1.464   3.900   6.472
 3794SOL    HW212282   1.332   3.922   6.566
 3795SOL     OW12283   1.915   5.706   1.928
 3795SOL    HW112284   1.901   5.610   1.905
 3795SOL    HW212285   1.827   5.752   1.937
 3796SOL     OW12286   4.319   1.529   6.823
 3796SOL    HW112287   4.390   1.586   6.781
 3796SOL    HW212288   4.243   1.587   6.852
 3797SOL     OW12289   1.247   4.188   2.702
 3797SOL    HW112290   1.255   4.175   2.801
 3797SOL    HW212291   1.159   4.152   2.671
 3798SOL     OW12292   1.711   6.598   3.302
 3798SOL    HW112293   1.681   6.687   3.335
 3798SOL    HW212294   1.746   6.607   3.209
 3799SOL     OW12295   0.081   1.538   2.905
 3799SOL    HW112296   0.040   1.556   2.816
 3799SOL    HW212297   0.159   1.476   2.894
 3800SOL     OW12298   5.671   2.134   2.871
 3800SOL    HW112299   5.720   2.118   2.785
 3800SOL    HW212300   5.578   2.165   2.851
 3801SOL     OW12301   5.185   0.728   1.926
 3801SOL    HW112302   5.226   0.641   1.953
 3801SOL    HW212303   5.257   0.796   1.911
 3802SOL     OW12304   6.267   2.015   2.562
 3802SOL    HW112305   6.284   1.988   2.656
 3802SOL    HW212306   6.212   1.944   2.516
 3803SOL     OW12307   2.908   3.713   3.783
 3803SOL    HW112308   2.895   3.741   3.878
 3803SOL    HW212309   2.970   3.777   3.738
 3804SOL     OW12310   3.470   5.990   3.575
 3804SOL    HW112311   3.425   6.077   3.554
 3804SOL    HW212312   3.461   5.929   3.497
 3805SOL     OW12313   2.799   3.062   6.974
 3805SOL    HW112314   2.819   2.989   0.019
 3805SOL    HW212315   2.701   3.079   6.972
 3806SOL     OW12316   3.436   4.503   1.166
 3806SOL    HW112317   3.414   4.563   1.244
 3806SOL    HW212318   3.426   4.408   1.194
 3807SOL     OW12319   1.884   4.178   4.116
 3807SOL    HW112320   1.809   4.154   4.178
 3807SOL    HW212321   1.968   4.191   4.169
 3808SOL     OW12322   3.512   6.292   6.690
 3808SOL    HW112323   3.483   6.236   6.612
 3808SOL    HW212324   3.603   6.263   6.719
 3809SOL     OW12325   5.048   2.497   1.530
 3809SOL    HW112326   5.012   2.406   1.552
 3809SOL    HW212327   5.101   2.532   1.607
 3810SOL     OW12328   5.948   2.072   1.667
 3810SOL    HW112329   5.981   2.156   1.710
 3810SOL    HW212330   6.015   1.999   1.679
 3811SOL     OW12331   0.367   5.279   4.919
 3811SOL    HW112332   0.400   5.186   4.904
 3811SOL    HW212333   0.330   5.288   5.012
 3812SOL     OW12334   4.883   6.832   0.841
 3812SOL    HW112335   4.970   6.793   0.812
 3812SOL    HW212336   4.896   6.928   0.866
 3813SOL     OW12337   6.585   4.550   0.702
 3813SOL    HW112338   6.579   4.512   0.794
 3813SOL    HW212339   6.681   4.554   0.673
 3814SOL     OW12340   6.747   6.930   4.858
 3814SOL    HW112341   6.726   6.965   4.949
 3814SOL    HW212342   6.745   7.006   4.792
 3815SOL     OW12343   5.764   3.506   6.815
 3815SOL    HW112344   5.748   3.530   6.719
 3815SOL    HW212345   5.714   3.569   6.874
 3816SOL     OW12346   1.336   6.204   6.143
 3816SOL    HW112347   1.362   6.131   6.207
 3816SOL    HW212348   1.387   6.287   6.165
 3817SOL     OW12349   5.157   3.456   2.169
 3817SOL    HW112350   5.136   3.526   2.101
 3817SOL    HW212351   5.075   3.438   2.224
 3818SOL     OW12352   6.411   0.690   2.119
 3818SOL    HW112353   6.357   0.657   2.196
 3818SOL    HW212354   6.424   0.789   2.128
 3819SOL     OW12355   6.628   4.192   4.410
 3819SOL    HW112356   6.547   4.144   4.442
 3819SOL    HW212357   6.706   4.130   4.410
 3820SOL     OW12358   4.933   0.484   4.817
 3820SOL    HW112359   5.007   0.530   4.866
 3820SOL    HW212360   4.906   0.401   4.866
 3821SOL     OW12361   1.613   0.119   0.345
 3821SOL    HW112362   1.535   0.065   0.315
 3821SOL    HW212363   1.609   0.133   0.444
 3822SOL     OW12364   4.671   1.415   1.467
 3822SOL    HW112365   4.708   1.491   1.519
 3822SOL    HW212366   4.576   1.433   1.443
 3823SOL     OW12367   5.098   5.412   6.004
 3823SOL    HW112368   5.010   5.381   5.968
 3823SOL    HW212369   5.083   5.485   6.071
 3824SOL     OW12370   1.987   3.276   0.017
 3824SOL    HW112371   1.909   3.225   0.054
 3824SOL    HW212372   1.990   3.267   6.939
 3825SOL     OW12373   1.116   4.114   5.393
 3825SOL    HW112374   1.109   4.037   5.329
 3825SOL    HW212375   1.131   4.078   5.486
 3826SOL     OW12376   5.765   4.209   3.259
 3826SOL    HW112377   5.681   4.159   3.239
 3826SOL    HW212378   5.842   4.165   3.214
 3827SOL     OW12379   1.446   0.847   1.747
 3827SOL    HW112380   1.440   0.923   1.812
 3827SOL    HW212381   1.354   0.825   1.713
 3828SOL     OW12382   4.056   3.646   4.323
 3828SOL    HW112383   4.153   3.658   4.344
 3828SOL    HW212384   4.006   3.730   4.347
 3829SOL     OW12385   0.493   3.800   2.627
 3829SOL    HW112386   0.534   3.750   2.703
 3829SOL    HW212387   0.543   3.886   2.613
 3830SOL     OW12388   6.898   0.978   4.335
 3830SOL    HW112389   6.938   0.972   4.243
 3830SOL    HW212390   6.899   0.888   4.378
 3831SOL     OW12391   4.161   1.707   3.640
 3831SOL    HW112392   4.228   1.780   3.651
 3831SOL    HW212393   4.069   1.745   3.648
 3832SOL     OW12394   0.167   1.124   3.145
 3832SOL    HW112395   0.195   1.156   3.054
 3832SOL    HW212396   0.097   1.054   3.135
 3833SOL     OW12397   0.507   1.051   5.632
 3833SOL    HW112398   0.484   1.145   5.607
 3833SOL    HW212399   0.590   1.023   5.586
 3834SOL     OW12400   5.102   4.150   0.550
 3834SOL    HW112401   5.118   4.096   0.633
 3834SOL    HW212402   5.067   4.091   0.478
 3835SOL     OW12403   4.190   5.536   4.683
 3835SOL    HW112404   4.107   5.590   4.702
 3835SOL    HW212405   4.175   5.441   4.710
 3836SOL     OW12406   0.164   5.769   5.711
 3836SOL    HW112407   0.065   5.763   5.720
 3836SOL    HW212408   0.196   5.858   5.744
 3837SOL     OW12409   4.473   4.907   5.167
 3837SOL    HW112410   4.497   4.922   5.071
 3837SOL    HW212411   4.502   4.987   5.221
 3838SOL     OW12412   1.158   1.694   3.558
 3838SOL    HW112413   1.176   1.596   3.558
 3838SOL    HW212414   1.064   1.711   3.590
 3839SOL     OW12415   3.679   0.874   3.243
 3839SOL    HW112416   3.654   0.786   3.203
 3839SOL    HW212417   3.689   0.942   3.170
 3840SOL     OW12418   2.569   0.782   6.759
 3840SOL    HW112419   2.508   0.854   6.793
 3840SOL    HW212420   2.515   0.711   6.715
 3841SOL     OW12421   6.856   4.390   3.367
 3841SOL    HW112422   6.789   4.330   3.324
 3841SOL    HW212423   6.948   4.354   3.352
 3842SOL     OW12424   2.315   2.966   5.354
 3842SOL    HW112425   2.382   3.019   5.303
 3842SOL    HW212426   2.262   2.910   5.290
 3843SOL     OW12427   5.344   2.645   0.509
 3843SOL    HW112428   5.369   2.551   0.533
 3843SOL    HW212429   5.406   2.679   0.438
 3844SOL     OW12430   1.409   5.748   0.432
 3844SOL    HW112431   1.436   5.658   0.464
 3844SOL    HW212432   1.468   5.817   0.474
 3845SOL     OW12433   2.504   6.304   0.925
 3845SOL    HW112434   2.502   6.246   0.843
 3845SOL    HW212435   2.540   6.394   0.901
 3846SOL     OW12436   0.998   2.531   3.612
 3846SOL    HW112437   0.984   2.601   3.542
 3846SOL    HW212438   0.936   2.546   3.688
 3847SOL     OW12439   6.579   0.717   5.903
 3847SOL    HW112440   6.546   0.736   5.810
 3847SOL    HW212441   6.664   0.665   5.898
 3848SOL     OW12442   5.368   3.853   2.397
 3848SOL    HW112443   5.335   3.947   2.391
 3848SOL    HW212444   5.442   3.839   2.332
 3849SOL     OW12445   6.987   5.933   6.857
 3849SOL    HW112446   6.993   5.940   6.757
 3849SOL    HW212447   6.916   5.868   6.882
 3850SOL     OW12448   2.621   2.559   1.150
 3850SOL    HW112449   2.589   2.518   1.235
 3850SOL    HW212450   2.544   2.603   1.103
 3851SOL     OW12451   0.633   5.595   2.869
 3851SOL    HW112452   0.721   5.552   2.888
 3851SOL    HW212453   0.593   5.556   2.786
 3852SOL     OW12454   3.876   6.130   5.244
 3852SOL    HW112455   3.839   6.202   5.303
 3852SOL    HW212456   3.923   6.172   5.166
 3853SOL     OW12457   2.553   0.832   3.893
 3853SOL    HW112458   2.503   0.904   3.940
 3853SOL    HW212459   2.647   0.862   3.875
 3854SOL     OW12460   1.919   2.896   2.358
 3854SOL    HW112461   1.981   2.820   2.380
 3854SOL    HW212462   1.849   2.903   2.428
 3855SOL     OW12463   4.360   6.785   0.688
 3855SOL    HW112464   4.415   6.809   0.609
 3855SOL    HW212465   4.273   6.745   0.658
 3856SOL     OW12466   0.511   1.765   6.404
 3856SOL    HW112467   0.531   1.830   6.331
 3856SOL    HW212468   0.551   1.676   6.382
 3857SOL     OW12469   2.240   1.110   5.749
 3857SOL    HW112470   2.254   1.195   5.698
 3857SOL    HW212471   2.166   1.122   5.815
 3858SOL     OW12472   4.097   1.446   4.924
 3858SOL    HW112473   4.125   1.390   5.002
 3858SOL    HW212474   4.175   1.459   4.863
 3859SOL     OW12475   5.519   0.455   1.191
 3859SOL    HW112476   5.454   0.381   1.178
 3859SOL    HW212477   5.536   0.500   1.103
 3860SOL     OW12478   1.598   0.509   4.342
 3860SOL    HW112479   1.531   0.543   4.407
 3860SOL    HW212480   1.551   0.460   4.268
 3861SOL     OW12481   4.392   5.744   1.540
 3861SOL    HW112482   4.373   5.772   1.634
 3861SOL    HW212483   4.385   5.645   1.532
 3862SOL     OW12484   1.146   6.570   3.985
 3862SOL    HW112485   1.077   6.563   3.912
 3862SOL    HW212486   1.213   6.496   3.974
 3863SOL     OW12487   4.654   0.621   0.802
 3863SOL    HW112488   4.731   0.567   0.834
 3863SOL    HW212489   4.680   0.671   0.719
 3864SOL     OW12490   2.442   0.446   4.521
 3864SOL    HW112491   2.409   0.426   4.613
 3864SOL    HW212492   2.523   0.505   4.526
 3865SOL     OW12493   4.089   0.293   6.954
 3865SOL    HW112494   4.153   0.257   0.000
 3865SOL    HW212495   4.085   0.231   6.875
 3866SOL     OW12496   2.610   2.640   6.521
 3866SOL    HW112497   2.695   2.685   6.492
 3866SOL    HW212498   2.575   2.685   6.603
 3867SOL     OW12499   0.575   4.076   2.492
 3867SOL    HW112500   0.541   4.016   2.419
 3867SOL    HW212501   0.527   4.164   2.487
 3868SOL     OW12502   3.766   0.846   6.920
 3868SOL    HW112503   3.771   0.761   6.867
 3868SOL    HW212504   3.750   0.923   6.858
 3869SOL     OW12505   6.127   3.215   3.681
 3869SOL    HW112506   6.134   3.298   3.627
 3869SOL    HW212507   6.175   3.228   3.768
 3870SOL     OW12508   6.506   0.252   3.347
 3870SOL    HW112509   6.583   0.292   3.299
 3870SOL    HW212510   6.447   0.325   3.382
 3871SOL     OW12511   3.001   5.907   4.008
 3871SOL    HW112512   2.932   5.871   3.945
 3871SOL    HW212513   3.082   5.849   4.004
 3872SOL     OW12514   3.444   3.178   4.265
 3872SOL    HW112515   3.514   3.243   4.234
 3872SOL    HW212516   3.434   3.105   4.198
 3873SOL     OW12517   4.791   2.557   0.433
 3873SOL    HW112518   4.826   2.573   0.525
 3873SOL    HW212519   4.734   2.474   0.433
 3874SOL     OW12520   3.978   0.142   1.042
 3874SOL    HW112521   4.025   0.134   1.130
 3874SOL    HW212522   3.885   0.107   1.050
 3875SOL     OW12523   1.602   2.334   4.987
 3875SOL    HW112524   1.631   2.248   5.028
 3875SOL    HW212525   1.668   2.361   4.917
 3876SOL     OW12526   4.441   6.732   1.179
 3876SOL    HW112527   4.417   6.644   1.137
 3876SOL    HW212528   4.516   6.718   1.244
 3877SOL     OW12529   6.970   1.882   0.480
 3877SOL    HW112530   0.016   1.912   0.413
 3877SOL    HW212531   6.965   1.948   0.554
 3878SOL     OW12532   4.806   0.089   4.640
 3878SOL    HW112533   4.826   0.072   4.544
 3878SOL    HW212534   4.888   0.126   4.685
 3879SOL     OW12535   4.929   4.832   6.781
 3879SOL    HW112536   4.888   4.858   6.868
 3879SOL    HW212537   5.024   4.806   6.795
 3880SOL     OW12538   5.366   4.446   4.730
 3880SOL    HW112539   5.432   4.386   4.775
 3880SOL    HW212540   5.275   4.427   4.767
 3881SOL     OW12541   1.168   4.173   0.389
 3881SOL    HW112542   1.212   4.083   0.389
 3881SOL    HW212543   1.188   4.219   0.302
 3882SOL     OW12544   1.172   1.554   0.455
 3882SOL    HW112545   1.141   1.639   0.500
 3882SOL    HW212546   1.271   1.547   0.461
 3883SOL     OW12547   4.436   0.245   3.292
 3883SOL    HW112548   4.338   0.262   3.277
 3883SOL    HW212549   4.458   0.259   3.388
 3884SOL     OW12550   0.872   6.472   3.614
 3884SOL    HW112551   0.808   6.536   3.573
 3884SOL    HW212552   0.828   6.382   3.622
 3885SOL     OW12553   5.765   6.995   3.268
 3885SOL    HW112554   5.811   6.911   3.237
 3885SOL    HW212555   5.702   6.973   3.343
 3886SOL     OW12556   4.482   6.766   5.841
 3886SOL    HW112557   4.476   6.865   5.852
 3886SOL    HW212558   4.417   6.721   5.902
 3887SOL     OW12559   0.506   6.174   1.128
 3887SOL    HW112560   0.530   6.197   1.222
 3887SOL    HW212561   0.453   6.249   1.088
 3888SOL     OW12562   5.921   6.245   3.999
 3888SOL    HW112563   5.913   6.236   3.900
 3888SOL    HW212564   6.000   6.303   4.021
 3889SOL     OW12565   6.308   2.623   0.208
 3889SOL    HW112566   6.319   2.631   0.108
 3889SOL    HW212567   6.239   2.688   0.239
 3890SOL     OW12568   5.473   4.115   4.606
 3890SOL    HW112569   5.523   4.146   4.526
 3890SOL    HW212570   5.417   4.036   4.582
 3891SOL     OW12571   5.600   4.335   3.883
 3891SOL    HW112572   5.687   4.301   3.849
 3891SOL    HW212573   5.585   4.429   3.851
 3892SOL     OW12574   6.839   2.486   0.779
 3892SOL    HW112575   6.768   2.533   0.726
 3892SOL    HW212576   6.795   2.426   0.846
 3893SOL     OW12577   4.840   3.402   1.295
 3893SOL    HW112578   4.912   3.426   1.230
 3893SOL    HW212579   4.751   3.412   1.251
 3894SOL     OW12580   4.981   0.495   6.520
 3894SOL    HW112581   5.035   0.548   6.585
 3894SOL    HW212582   5.040   0.429   6.473
 3895SOL     OW12583   1.338   0.096   5.329
 3895SOL    HW112584   1.431   0.107   5.362
 3895SOL    HW212585   1.291   0.185   5.332
 3896SOL     OW12586   0.748   1.181   6.872
 3896SOL    HW112587   0.683   1.249   6.839
 3896SOL    HW212588   0.767   1.198   6.969
 3897SOL     OW12589   4.177   5.983   1.676
 3897SOL    HW112590   4.193   5.897   1.724
 3897SOL    HW212591   4.245   6.051   1.706
 3898SOL     OW12592   4.033   2.349   6.899
 3898SOL    HW112593   4.002   2.377   6.808
 3898SOL    HW212594   3.979   2.270   6.930
 3899SOL     OW12595   4.619   0.148   6.183
 3899SOL    HW112596   4.715   0.123   6.173
 3899SOL    HW212597   4.582   0.175   6.094
 3900SOL     OW12598   5.375   3.881   3.812
 3900SOL    HW112599   5.326   3.961   3.778
 3900SOL    HW212600   5.367   3.805   3.747
 3901SOL     OW12601   3.380   0.192   6.145
 3901SOL    HW112602   3.439   0.257   6.097
 3901SOL    HW212603   3.314   0.154   6.080
 3902SOL     OW12604   5.525   3.212   2.548
 3902SOL    HW112605   5.561   3.197   2.456
 3902SOL    HW212606   5.497   3.307   2.558
 3903SOL     OW12607   3.949   6.521   0.480
 3903SOL    HW112608   3.857   6.559   0.469
 3903SOL    HW212609   4.011   6.592   0.515
 3904SOL     OW12610   1.000   0.948   6.576
 3904SOL    HW112611   0.937   1.019   6.610
 3904SOL    HW212612   0.995   0.868   6.636
 3905SOL     OW12613   6.768   6.508   6.796
 3905SOL    HW112614   6.753   6.531   6.892
 3905SOL    HW212615   6.852   6.454   6.788
 3906SOL     OW12616   5.713   6.232   6.022
 3906SOL    HW112617   5.787   6.253   6.086
 3906SOL    HW212618   5.699   6.133   6.018
 3907SOL     OW12619   5.581   1.327   3.774
 3907SOL    HW112620   5.666   1.292   3.734
 3907SOL    HW212621   5.507   1.262   3.759
 3908SOL     OW12622   0.974   2.340   6.858
 3908SOL    HW112623   0.993   2.266   6.793
 3908SOL    HW212624   1.059   2.385   6.884
 3909SOL     OW12625   5.055   5.629   4.521
 3909SOL    HW112626   5.040   5.712   4.575
 3909SOL    HW212627   5.138   5.583   4.554
 3910SOL     OW12628   3.502   4.056   2.432
 3910SOL    HW112629   3.574   4.061   2.501
 3910SOL    HW212630   3.500   3.964   2.392
 3911SOL     OW12631   6.371   1.535   4.861
 3911SOL    HW112632   6.321   1.499   4.783
 3911SOL    HW212633   6.468   1.510   4.853
 3912SOL     OW12634   5.229   2.116   5.061
 3912SOL    HW112635   5.184   2.140   4.975
 3912SOL    HW212636   5.326   2.137   5.055
 3913SOL     OW12637   1.705   0.177   6.428
 3913SOL    HW112638   1.793   0.143   6.461
 3913SOL    HW212639   1.676   0.254   6.485
 3914SOL     OW12640   3.006   0.112   0.149
 3914SOL    HW112641   3.044   0.043   0.211
 3914SOL    HW212642   2.908   0.119   0.163
 3915SOL     OW12643   5.491   5.639   0.972
 3915SOL    HW112644   5.453   5.720   0.928
 3915SOL    HW212645   5.587   5.629   0.947
 3916SOL     OW12646   0.543   0.072   2.491
 3916SOL    HW112647   0.627   0.043   2.538
 3916SOL    HW212648   0.521   0.165   2.517
 3917SOL     OW12649   1.430   6.417   6.915
 3917SOL    HW112650   1.506   6.443   6.856
 3917SOL    HW212651   1.347   6.464   6.885
 3918SOL     OW12652   5.369   4.956   1.569
 3918SOL    HW112653   5.395   4.924   1.660
 3918SOL    HW212654   5.386   5.055   1.563
 3919SOL     OW12655   3.832   0.073   0.611
 3919SOL    HW112656   3.874   0.088   0.522
 3919SOL    HW212657   3.873   7.014   0.655
 3920SOL     OW12658   2.561   3.577   0.360
 3920SOL    HW112659   2.497   3.501   0.355
 3920SOL    HW212660   2.512   3.661   0.386
 3921SOL     OW12661   0.592   3.983   1.382
 3921SOL    HW112662   0.593   4.006   1.285
 3921SOL    HW212663   0.509   3.932   1.403
 3922SOL     OW12664   6.813   3.762   2.363
 3922SOL    HW112665   6.893   3.713   2.398
 3922SOL    HW212666   6.746   3.773   2.437
 3923SOL     OW12667   0.375   0.468   0.796
 3923SOL    HW112668   0.466   0.498   0.766
 3923SOL    HW212669   0.360   0.374   0.765
 3924SOL     OW12670   5.985   4.455   4.408
 3924SOL    HW112671   6.005   4.357   4.414
 3924SOL    HW212672   5.977   4.493   4.500
 3925SOL     OW12673   1.312   4.504   1.528
 3925SOL    HW112674   1.352   4.453   1.604
 3925SOL    HW212675   1.360   4.591   1.516
 3926SOL     OW12676   4.342   5.045   2.353
 3926SOL    HW112677   4.245   5.058   2.374
 3926SOL    HW212678   4.388   5.134   2.350
 3927SOL     OW12679   6.680   2.743   5.428
 3927SOL    HW112680   6.655   2.668   5.490
 3927SOL    HW212681   6.613   2.749   5.354
 3928SOL     OW12682   4.635   6.076   6.582
 3928SOL    HW112683   4.649   6.025   6.667
 3928SOL    HW212684   4.622   6.012   6.506
 3929SOL     OW12685   0.941   0.539   5.183
 3929SOL    HW112686   1.028   0.572   5.148
 3929SOL    HW212687   0.868   0.603   5.157
 3930SOL     OW12688   2.833   2.328   4.474
 3930SOL    HW112689   2.922   2.288   4.494
 3930SOL    HW212690   2.824   2.340   4.375
 3931SOL     OW12691   0.754   1.612   1.653
 3931SOL    HW112692   0.836   1.640   1.603
 3931SOL    HW212693   0.768   1.627   1.750
 3932SOL     OW12694   0.707   3.540   3.673
 3932SOL    HW112695   0.751   3.621   3.711
 3932SOL    HW212696   0.771   3.490   3.615
 3933SOL     OW12697   2.377   0.015   6.049
 3933SOL    HW112698   2.279   0.037   6.053
 3933SOL    HW212699   2.422   0.075   5.983
 3934SOL     OW12700   6.061   6.974   6.170
 3934SOL    HW112701   6.043   6.937   6.078
 3934SOL    HW212702   5.995   6.936   6.234
 3935SOL     OW12703   3.918   6.865   0.331
 3935SOL    HW112704   3.829   6.844   0.372
 3935SOL    HW212705   3.923   6.963   0.311
 3936SOL     OW12706   6.763   5.340   4.611
 3936SOL    HW112707   6.670   5.358   4.581
 3936SOL    HW212708   6.811   5.286   4.543
 3937SOL     OW12709   0.515   2.125   2.708
 3937SOL    HW112710   0.570   2.121   2.792
 3937SOL    HW212711   0.562   2.182   2.640
 3938SOL     OW12712   0.981   1.285   3.466
 3938SOL    HW112713   0.961   1.193   3.433
 3938SOL    HW212714   0.902   1.344   3.451
 3939SOL     OW12715   2.854   2.340   2.625
 3939SOL    HW112716   2.875   2.306   2.533
 3939SOL    HW212717   2.922   2.306   2.689
 3940SOL     OW12718   4.186   3.740   1.263
 3940SOL    HW112719   4.245   3.820   1.253
 3940SOL    HW212720   4.145   3.716   1.175
 3941SOL     OW12721   5.028   5.084   6.073
 3941SOL    HW112722   5.021   5.049   6.167
 3941SOL    HW212723   4.947   5.139   6.052
 3942SOL     OW12724   6.951   6.036   0.092
 3942SOL    HW112725   6.908   6.126   0.088
 3942SOL    HW212726   6.972   6.005   7.021
 3943SOL     OW12727   0.873   3.261   4.623
 3943SOL    HW112728   0.971   3.243   4.629
 3943SOL    HW212729   0.848   3.275   4.528
 3944SOL     OW12730   4.723   2.656   5.016
 3944SOL    HW112731   4.636   2.611   5.001
 3944SOL    HW212732   4.797   2.600   4.978
 3945SOL     OW12733   0.275   1.758   0.743
 3945SOL    HW112734   0.255   1.735   0.648
 3945SOL    HW212735   0.194   1.799   0.785
 3946SOL     OW12736   5.149   4.091   3.946
 3946SOL    HW112737   5.072   4.029   3.962
 3946SOL    HW212738   5.221   4.071   4.012
 3947SOL     OW12739   4.675   6.331   6.682
 3947SOL    HW112740   4.763   6.334   6.730
 3947SOL    HW212741   4.657   6.238   6.651
 3948SOL     OW12742   6.865   4.683   2.007
 3948SOL    HW112743   6.818   4.693   2.094
 3948SOL    HW212744   6.805   4.638   1.941
 3949SOL     OW12745   5.203   5.407   3.036
 3949SOL    HW112746   5.287   5.367   3.000
 3949SOL    HW212747   5.180   5.488   2.983
 3950SOL     OW12748   1.173   5.229   0.768
 3950SOL    HW112749   1.180   5.284   0.685
 3950SOL    HW212750   1.198   5.134   0.749
 3951SOL     OW12751   5.152   0.481   1.746
 3951SOL    HW112752   5.125   0.543   1.820
 3951SOL    HW212753   5.097   0.499   1.665
 3952SOL     OW12754   0.094   2.439   1.169
 3952SOL    HW112755   0.174   2.439   1.109
 3952SOL    HW212756   0.074   2.532   1.198
 3953SOL     OW12757   3.798   4.052   0.958
 3953SOL    HW112758   3.868   3.981   0.968
 3953SOL    HW212759   3.716   4.027   1.009
 3954SOL     OW12760   3.829   5.585   5.592
 3954SOL    HW112761   3.811   5.621   5.684
 3954SOL    HW212762   3.926   5.594   5.572
 3955SOL     OW12763   2.622   1.184   5.918
 3955SOL    HW112764   2.563   1.111   5.884
 3955SOL    HW212765   2.685   1.213   5.845
 3956SOL     OW12766   1.296   1.045   2.580
 3956SOL    HW112767   1.322   0.948   2.575
 3956SOL    HW212768   1.283   1.081   2.488
 3957SOL     OW12769   3.963   0.232   4.283
 3957SOL    HW112770   4.025   0.159   4.312
 3957SOL    HW212771   4.011   0.320   4.283
 3958SOL     OW12772   6.293   1.681   3.891
 3958SOL    HW112773   6.346   1.765   3.898
 3958SOL    HW212774   6.239   1.683   3.807
 3959SOL     OW12775   5.687   5.171   0.608
 3959SOL    HW112776   5.718   5.254   0.562
 3959SOL    HW212777   5.608   5.134   0.561
 3960SOL     OW12778   5.433   1.681   5.462
 3960SOL    HW112779   5.384   1.729   5.389
 3960SOL    HW212780   5.528   1.714   5.465
 3961SOL     OW12781   4.894   0.768   3.328
 3961SOL    HW112782   4.844   0.847   3.361
 3961SOL    HW212783   4.973   0.751   3.389
 3962SOL     OW12784   1.190   4.771   6.273
 3962SOL    HW112785   1.176   4.678   6.237
 3962SOL    HW212786   1.280   4.805   6.244
 3963SOL     OW12787   4.791   6.107   2.201
 3963SOL    HW112788   4.843   6.132   2.282
 3963SOL    HW212789   4.759   6.191   2.155
 3964SOL     OW12790   4.735   4.495   3.328
 3964SOL    HW112791   4.775   4.414   3.285
 3964SOL    HW212792   4.790   4.575   3.304
 3965SOL     OW12793   4.896   3.333   4.064
 3965SOL    HW112794   4.835   3.257   4.088
 3965SOL    HW212795   4.951   3.308   3.984
 3966SOL     OW12796   4.019   5.980   6.898
 3966SOL    HW112797   4.009   6.070   6.857
 3966SOL    HW212798   4.082   5.925   6.842
 3967SOL     OW12799   2.171   4.205   1.565
 3967SOL    HW112800   2.256   4.235   1.521
 3967SOL    HW212801   2.152   4.110   1.539
 3968SOL     OW12802   5.017   0.464   0.663
 3968SOL    HW112803   5.106   0.505   0.679
 3968SOL    HW212804   4.972   0.509   0.585
 3969SOL     OW12805   0.992   5.074   1.978
 3969SOL    HW112806   0.908   5.038   2.017
 3969SOL    HW212807   1.065   5.069   2.046
 3970SOL     OW12808   5.241   6.101   2.580
 3970SOL    HW112809   5.169   6.060   2.524
 3970SOL    HW212810   5.241   6.058   2.670
 3971SOL     OW12811   2.716   5.861   4.354
 3971SOL    HW112812   2.733   5.896   4.262
 3971SOL    HW212813   2.714   5.761   4.351
 3972SOL     OW12814   1.398   4.109   6.911
 3972SOL    HW112815   1.493   4.100   6.941
 3972SOL    HW212816   1.365   4.201   6.932
 3973SOL     OW12817   0.967   5.603   1.001
 3973SOL    HW112818   0.941   5.660   0.922
 3973SOL    HW212819   0.977   5.508   0.971
 3974SOL     OW12820   2.042   0.789   6.048
 3974SOL    HW112821   2.010   0.794   6.142
 3974SOL    HW212822   2.066   0.694   6.026
 3975SOL     OW12823   5.231   1.801   6.185
 3975SOL    HW112824   5.270   1.729   6.242
 3975SOL    HW212825   5.152   1.841   6.231
 3976SOL     OW12826   2.019   6.673   2.620
 3976SOL    HW112827   2.073   6.756   2.609
 3976SOL    HW212828   1.923   6.693   2.603
 3977SOL     OW12829   1.111   3.618   6.619
 3977SOL    HW112830   1.129   3.584   6.711
 3977SOL    HW212831   1.185   3.590   6.558
 3978SOL     OW12832   6.555   4.995   3.385
 3978SOL    HW112833   6.468   4.959   3.353
 3978SOL    HW212834   6.615   5.013   3.307
 3979SOL     OW12835   3.612   0.916   5.881
 3979SOL    HW112836   3.653   1.007   5.876
 3979SOL    HW212837   3.521   0.922   5.921
 3980SOL     OW12838   5.914   6.413   6.497
 3980SOL    HW112839   5.861   6.487   6.455
 3980SOL    HW212840   5.857   6.369   6.567
 3981SOL     OW12841   4.483   6.054   0.822
 3981SOL    HW112842   4.422   6.124   0.784
 3981SOL    HW212843   4.549   6.026   0.752
 3982SOL     OW12844   2.412   0.209   2.622
 3982SOL    HW112845   2.436   0.265   2.702
 3982SOL    HW212846   2.482   0.140   2.607
 3983SOL     OW12847   5.188   4.984   4.012
 3983SOL    HW112848   5.261   4.927   4.049
 3983SOL    HW212849   5.155   5.046   4.083
 3984SOL     OW12850   6.198   1.247   2.658
 3984SOL    HW112851   6.235   1.311   2.591
 3984SOL    HW212852   6.129   1.292   2.714
 3985SOL     OW12853   3.514   5.386   6.810
 3985SOL    HW112854   3.478   5.349   6.724
 3985SOL    HW212855   3.539   5.310   6.870
 3986SOL     OW12856   4.667   1.744   2.953
 3986SOL    HW112857   4.599   1.704   3.014
 3986SOL    HW212858   4.638   1.836   2.927
 3987SOL     OW12859   3.466   4.948   4.377
 3987SOL    HW112860   3.464   5.008   4.457
 3987SOL    HW212861   3.554   4.901   4.373
 3988SOL     OW12862   3.536   5.586   7.006
 3988SOL    HW112863   3.609   5.643   6.968
 3988SOL    HW212864   3.483   5.547   6.931
 3989SOL     OW12865   6.582   2.260   6.896
 3989SOL    HW112866   6.622   2.190   6.836
 3989SOL    HW212867   6.552   2.217   6.982
 3990SOL     OW12868   5.075   2.373   1.963
 3990SOL    HW112869   5.071   2.458   2.015
 3990SOL    HW212870   5.156   2.321   1.991
 3991SOL     OW12871   0.315   1.528   2.252
 3991SOL    HW112872   0.235   1.581   2.223
 3991SOL    HW212873   0.373   1.584   2.311
 3992SOL     OW12874   2.997   2.231   0.829
 3992SOL    HW112875   3.050   2.151   0.799
 3992SOL    HW212876   2.985   2.228   0.928
 3993SOL     OW12877   1.704   2.543   1.945
 3993SOL    HW112878   1.802   2.540   1.922
 3993SOL    HW212879   1.668   2.634   1.924
 3994SOL     OW12880   2.936   0.283   5.708
 3994SOL    HW112881   2.955   0.263   5.612
 3994SOL    HW212882   2.989   0.363   5.736
 3995SOL     OW12883   1.671   2.991   5.689
 3995SOL    HW112884   1.757   2.949   5.663
 3995SOL    HW212885   1.678   3.027   5.783
 3996SOL     OW12886   0.852   6.542   5.594
 3996SOL    HW112887   0.809   6.626   5.628
 3996SOL    HW212888   0.854   6.543   5.494
 3997SOL     OW12889   5.787   1.335   4.505
 3997SOL    HW112890   5.697   1.351   4.547
 3997SOL    HW212891   5.776   1.280   4.422
 3998SOL     OW12892   3.171   1.528   4.274
 3998SOL    HW112893   3.240   1.485   4.217
 3998SOL    HW212894   3.172   1.627   4.260
 3999SOL     OW12895   6.063   2.706   4.383
 3999SOL    HW112896   6.070   2.763   4.465
 3999SOL    HW212897   6.055   2.764   4.303
 4000SOL     OW12898   3.429   6.669   3.805
 4000SOL    HW112899   3.332   6.694   3.809
 4000SOL    HW212900   3.465   6.688   3.713
 4001SOL     OW12901   2.513   1.934   3.999
 4001SOL    HW112902   2.435   1.989   4.028
 4001SOL    HW212903   2.596   1.990   4.002
 4002SOL     OW12904   2.568   3.655   1.684
 4002SOL    HW112905   2.526   3.589   1.747
 4002SOL    HW212906   2.558   3.747   1.722
 4003SOL     OW12907   3.089   0.092   4.384
 4003SOL    HW112908   3.052   0.067   4.295
 4003SOL    HW212909   3.045   0.039   4.456
 4004SOL     OW12910   6.568   2.429   4.695
 4004SOL    HW112911   6.631   2.365   4.650
 4004SOL    HW212912   6.620   2.502   4.739
 4005SOL     OW12913   4.891   6.122   6.168
 4005SOL    HW112914   4.978   6.157   6.132
 4005SOL    HW212915   4.899   6.023   6.183
 4006SOL     OW12916   3.869   5.069   2.272
 4006SOL    HW112917   3.811   4.987   2.273
 4006SOL    HW212918   3.811   5.150   2.263
 4007SOL     OW12919   0.405   2.889   6.802
 4007SOL    HW112920   0.379   2.882   6.899
 4007SOL    HW212921   0.361   2.969   6.762
 4008SOL     OW12922   2.685   2.238   4.682
 4008SOL    HW112923   2.727   2.254   4.592
 4008SOL    HW212924   2.695   2.320   4.738
 4009SOL     OW12925   4.077   3.486   2.281
 4009SOL    HW112926   4.091   3.493   2.182
 4009SOL    HW212927   4.110   3.397   2.313
 4010SOL     OW12928   2.603   2.836   1.315
 4010SOL    HW112929   2.513   2.817   1.355
 4010SOL    HW212930   2.660   2.884   1.382
 4011SOL     OW12931   0.828   2.238   1.418
 4011SOL    HW112932   0.887   2.309   1.377
 4011SOL    HW212933   0.737   2.244   1.377
 4012SOL     OW12934   6.535   4.461   2.314
 4012SOL    HW112935   6.606   4.428   2.376
 4012SOL    HW212936   6.463   4.393   2.305
 4013SOL     OW12937   4.294   2.089   4.388
 4013SOL    HW112938   4.247   2.001   4.391
 4013SOL    HW212939   4.228   2.163   4.404
 4014SOL     OW12940   5.709   6.609   2.653
 4014SOL    HW112941   5.683   6.512   2.650
 4014SOL    HW212942   5.807   6.616   2.670
 4015SOL     OW12943   4.733   4.324   5.950
 4015SOL    HW112944   4.750   4.422   5.957
 4015SOL    HW212945   4.821   4.276   5.939
 4016SOL     OW12946   3.095   5.947   5.689
 4016SOL    HW112947   3.169   5.890   5.726
 4016SOL    HW212948   3.076   5.920   5.595
 4017SOL     OW12949   6.802   5.743   6.915
 4017SOL    HW112950   6.786   5.683   6.836
 4017SOL    HW212951   6.842   5.689   6.989
 4018SOL     OW12952   3.911   5.877   1.615
 4018SOL    HW112953   3.997   5.919   1.646
 4018SOL    HW212954   3.918   5.854   1.518
 4019SOL     OW12955   5.820   4.374   2.744
 4019SOL    HW112956   5.721   4.389   2.741
 4019SOL    HW212957   5.864   4.452   2.790
 4020SOL     OW12958   5.147   2.365   5.263
 4020SOL    HW112959   5.054   2.339   5.289
 4020SOL    HW212960   5.193   2.288   5.220
 4021SOL     OW12961   3.023   4.815   5.837
 4021SOL    HW112962   2.952   4.880   5.809
 4021SOL    HW212963   2.980   4.730   5.867
 4022SOL     OW12964   5.406   0.934   0.394
 4022SOL    HW112965   5.337   1.004   0.410
 4022SOL    HW212966   5.369   0.862   0.337
 4023SOL     OW12967   6.158   1.920   5.304
 4023SOL    HW112968   6.163   1.854   5.379
 4023SOL    HW212969   6.075   1.904   5.250
 4024SOL     OW12970   3.946   4.950   4.039
 4024SOL    HW112971   4.030   4.936   3.986
 4024SOL    HW212972   3.888   5.016   3.992
 4025SOL     OW12973   0.727   4.365   3.675
 4025SOL    HW112974   0.653   4.321   3.725
 4025SOL    HW212975   0.812   4.316   3.691
 4026SOL     OW12976   5.334   6.326   3.906
 4026SOL    HW112977   5.282   6.242   3.921
 4026SOL    HW212978   5.383   6.350   3.990
 4027SOL     OW12979   4.149   4.921   1.563
 4027SOL    HW112980   4.178   5.011   1.595
 4027SOL    HW212981   4.227   4.859   1.561
 4028SOL     OW12982   2.428   1.730   4.169
 4028SOL    HW112983   2.504   1.665   4.172
 4028SOL    HW212984   2.452   1.807   4.110
 4029SOL     OW12985   1.759   4.659   5.222
 4029SOL    HW112986   1.696   4.597   5.175
 4029SOL    HW212987   1.846   4.612   5.238
 4030SOL     OW12988   0.729   2.096   5.228
 4030SOL    HW112989   0.692   2.157   5.298
 4030SOL    HW212990   0.755   2.149   5.147
 4031SOL     OW12991   3.896   5.647   4.111
 4031SOL    HW112992   3.995   5.655   4.107
 4031SOL    HW212993   3.870   5.555   4.141
 4032SOL     OW12994   5.569   0.232   4.610
 4032SOL    HW112995   5.614   0.320   4.596
 4032SOL    HW212996   5.473   0.247   4.633
 4033SOL     OW12997   3.071   3.837   5.473
 4033SOL    HW112998   2.980   3.827   5.432
 4033SOL    HW212999   3.113   3.747   5.483
 4034SOL     OW13000   0.184   2.246   3.815
 4034SOL    HW113001   0.178   2.338   3.853
 4034SOL    HW213002   0.106   2.229   3.755
 4035SOL     OW13003   0.105   4.716   0.084
 4035SOL    HW113004   0.182   4.716   0.148
 4035SOL    HW213005   0.114   4.792   0.020
 4036SOL     OW13006   6.375   0.008   2.649
 4036SOL    HW113007   6.363   6.931   2.642
 4036SOL    HW213008   6.433   0.040   2.573
 4037SOL     OW13009   0.420   3.947   6.873
 4037SOL    HW113010   0.445   3.852   6.857
 4037SOL    HW213011   0.383   3.958   6.966
 4038SOL     OW13012   5.948   4.454   3.612
 4038SOL    HW113013   6.025   4.517   3.603
 4038SOL    HW213014   5.966   4.372   3.557
 4039SOL     OW13015   5.248   6.422   0.186
 4039SOL    HW113016   5.276   6.516   0.168
 4039SOL    HW213017   5.302   6.385   0.261
 4040SOL     OW13018   3.717   6.542   1.362
 4040SOL    HW113019   3.666   6.547   1.276
 4040SOL    HW213020   3.669   6.594   1.432
 4041SOL     OW13021   1.491   6.448   3.629
 4041SOL    HW113022   1.562   6.517   3.646
 4041SOL    HW213023   1.429   6.482   3.559
 4042SOL     OW13024   6.081   5.165   2.207
 4042SOL    HW113025   6.067   5.253   2.163
 4042SOL    HW213026   6.005   5.146   2.269
 4043SOL     OW13027   5.805   2.083   1.394
 4043SOL    HW113028   5.800   2.135   1.309
 4043SOL    HW213029   5.839   2.141   1.467
 4044SOL     OW13030   6.022   6.387   3.511
 4044SOL    HW113031   5.954   6.445   3.467
 4044SOL    HW213032   6.087   6.444   3.562
 4045SOL     OW13033   2.598   5.680   5.849
 4045SOL    HW113034   2.586   5.762   5.793
 4045SOL    HW213035   2.509   5.651   5.884
 4046SOL     OW13036   0.924   3.318   1.279
 4046SOL    HW113037   0.876   3.336   1.193
 4046SOL    HW213038   0.878   3.367   1.354
 4047SOL     OW13039   2.597   3.562   1.436
 4047SOL    HW113040   2.588   3.605   1.526
 4047SOL    HW213041   2.544   3.477   1.434
 4048SOL     OW13042   5.405   1.201   0.939
 4048SOL    HW113043   5.470   1.237   1.005
 4048SOL    HW213044   5.321   1.254   0.942
 4049SOL     OW13045   5.481   0.401   5.449
 4049SOL    HW113046   5.578   0.377   5.450
 4049SOL    HW213047   5.426   0.318   5.440
 4050SOL     OW13048   2.831   0.069   1.054
 4050SOL    HW113049   2.925   0.104   1.064
 4050SOL    HW213050   2.802   0.081   0.960
 4051SOL     OW13051   3.175   3.763   1.189
 4051SOL    HW113052   3.116   3.691   1.152
 4051SOL    HW213053   3.152   3.778   1.285
 4052SOL     OW13054   1.148   6.741   1.320
 4052SOL    HW113055   1.067   6.685   1.304
 4052SOL    HW213056   1.194   6.759   1.233
 4053SOL     OW13057   3.687   5.089   3.293
 4053SOL    HW113058   3.701   5.142   3.376
 4053SOL    HW213059   3.741   5.005   3.297
 4054SOL     OW13060   4.567   1.893   0.365
 4054SOL    HW113061   4.536   1.982   0.331
 4054SOL    HW213062   4.658   1.874   0.331
 4055SOL     OW13063   3.520   1.765   6.865
 4055SOL    HW113064   3.572   1.693   6.912
 4055SOL    HW213065   3.523   1.849   6.920
 4056SOL     OW13066   4.061   3.576   0.688
 4056SOL    HW113067   4.088   3.668   0.660
 4056SOL    HW213068   4.133   3.535   0.744
 4057SOL     OW13069   4.994   2.929   6.526
 4057SOL    HW113070   5.004   2.867   6.449
 4057SOL    HW213071   4.901   2.966   6.528
 4058SOL     OW13072   1.282   0.989   5.296
 4058SOL    HW113073   1.247   1.068   5.346
 4058SOL    HW213074   1.205   0.934   5.263
 4059SOL     OW13075   0.210   2.359   4.324
 4059SOL    HW113076   0.293   2.338   4.374
 4059SOL    HW213077   0.226   2.437   4.263
 4060SOL     OW13078   4.557   4.915   3.975
 4060SOL    HW113079   4.586   4.914   4.070
 4060SOL    HW213080   4.495   4.839   3.957
 4061SOL     OW13081   3.047   2.965   1.357
 4061SOL    HW113082   3.111   2.970   1.434
 4061SOL    HW213083   3.056   2.877   1.310
 4062SOL     OW13084   2.261   0.037   3.076
 4062SOL    HW113085   2.180   0.006   3.026
 4062SOL    HW213086   2.342   7.015   3.037
 4063SOL     OW13087   2.709   5.190   6.360
 4063SOL    HW113088   2.661   5.173   6.445
 4063SOL    HW213089   2.749   5.104   6.327
 4064SOL     OW13090   6.891   7.013   3.888
 4064SOL    HW113091   6.947   0.017   3.967
 4064SOL    HW213092   6.898   0.062   3.818
 4065SOL     OW13093   6.115   5.426   6.772
 4065SOL    HW113094   6.151   5.513   6.804
 4065SOL    HW213095   6.017   5.436   6.752
 4066SOL     OW13096   6.076   4.336   1.804
 4066SOL    HW113097   5.981   4.346   1.834
 4066SOL    HW213098   6.118   4.259   1.850
 4067SOL     OW13099   5.484   0.811   2.075
 4067SOL    HW113100   5.425   0.867   2.017
 4067SOL    HW213101   5.464   0.831   2.171
 4068SOL     OW13102   6.396   0.801   3.787
 4068SOL    HW113103   6.487   0.791   3.746
 4068SOL    HW213104   6.326   0.791   3.716
 4069SOL     OW13105   6.519   5.474   0.792
 4069SOL    HW113106   6.503   5.545   0.722
 4069SOL    HW213107   6.448   5.405   0.785
 4070SOL     OW13108   1.150   3.151   2.850
 4070SOL    HW113109   1.209   3.157   2.931
 4070SOL    HW213110   1.149   3.240   2.803
 4071SOL     OW13111   1.909   6.511   4.176
 4071SOL    HW113112   1.860   6.579   4.230
 4071SOL    HW213113   1.871   6.509   4.083
 4072SOL     OW13114   0.780   0.583   4.469
 4072SOL    HW113115   0.842   0.531   4.410
 4072SOL    HW213116   0.815   0.676   4.479
 4073SOL     OW13117   1.901   5.405   6.798
 4073SOL    HW113118   1.999   5.400   6.776
 4073SOL    HW213119   1.865   5.494   6.769
 4074SOL     OW13120   1.940   2.746   0.298
 4074SOL    HW113121   1.964   2.786   0.210
 4074SOL    HW213122   1.841   2.757   0.313
 4075SOL     OW13123   5.059   1.099   3.566
 4075SOL    HW113124   5.107   1.033   3.622
 4075SOL    HW213125   4.969   1.119   3.606
 4076SOL     OW13126   1.825   2.649   4.071
 4076SOL    HW113127   1.909   2.703   4.077
 4076SOL    HW213128   1.843   2.557   4.104
 4077SOL     OW13129   2.595   1.660   0.876
 4077SOL    HW113130   2.511   1.676   0.825
 4077SOL    HW213131   2.652   1.742   0.873
 4078SOL     OW13132   5.622   3.805   2.269
 4078SOL    HW113133   5.715   3.821   2.236
 4078SOL    HW213134   5.561   3.795   2.190
 4079SOL     OW13135   0.701   1.267   3.680
 4079SOL    HW113136   0.668   1.307   3.594
 4079SOL    HW213137   0.767   1.329   3.722
 4080SOL     OW13138   3.790   2.775   1.870
 4080SOL    HW113139   3.736   2.816   1.944
 4080SOL    HW213140   3.733   2.710   1.820
 4081SOL     OW13141   2.773   2.552   6.214
 4081SOL    HW113142   2.830   2.536   6.133
 4081SOL    HW213143   2.703   2.620   6.192
 4082SOL     OW13144   1.219   2.519   5.115
 4082SOL    HW113145   1.182   2.524   5.022
 4082SOL    HW213146   1.232   2.612   5.150
 4083SOL     OW13147   5.684   4.737   3.381
 4083SOL    HW113148   5.619   4.723   3.456
 4083SOL    HW213149   5.778   4.724   3.415
 4084SOL     OW13150   4.749   0.446   3.448
 4084SOL    HW113151   4.761   0.545   3.445
 4084SOL    HW213152   4.655   0.424   3.474
 4085SOL     OW13153   4.087   5.135   2.418
 4085SOL    HW113154   3.997   5.140   2.374
 4085SOL    HW213155   4.089   5.198   2.496
 4086SOL     OW13156   5.967   4.950   6.314
 4086SOL    HW113157   6.043   5.009   6.288
 4086SOL    HW213158   6.002   4.860   6.341
 4087SOL     OW13159   1.914   0.405   1.973
 4087SOL    HW113160   1.921   0.501   1.998
 4087SOL    HW213161   1.883   0.352   2.052
 4088SOL     OW13162   0.454   2.041   4.941
 4088SOL    HW113163   0.373   2.011   4.892
 4088SOL    HW213164   0.481   1.972   5.008
 4089SOL     OW13165   1.478   0.684   3.369
 4089SOL    HW113166   1.522   0.688   3.279
 4089SOL    HW213167   1.381   0.709   3.360
 4090SOL     OW13168   2.381   1.448   6.187
 4090SOL    HW113169   2.307   1.393   6.226
 4090SOL    HW213170   2.358   1.545   6.197
 4091SOL     OW13171   3.135   5.917   1.103
 4091SOL    HW113172   3.062   5.849   1.100
 4091SOL    HW213173   3.105   5.996   1.156
 4092SOL     OW13174   5.659   2.881   4.016
 4092SOL    HW113175   5.660   2.783   4.034
 4092SOL    HW213176   5.593   2.926   4.077
 4093SOL     OW13177   4.982   4.553   3.927
 4093SOL    HW113178   4.997   4.579   3.831
 4093SOL    HW213179   4.973   4.636   3.982
 4094SOL     OW13180   0.070   5.361   6.954
 4094SOL    HW113181   0.125   5.348   0.015
 4094SOL    HW213182   7.005   5.406   6.978
 4095SOL     OW13183   0.464   5.243   0.089
 4095SOL    HW113184   0.522   5.247   0.007
 4095SOL    HW213185   0.515   5.200   0.163
 4096SOL     OW13186   0.311   1.052   6.806
 4096SOL    HW113187   0.227   1.093   6.841
 4096SOL    HW213188   0.289   0.995   6.726
 4097SOL     OW13189   6.269   4.896   4.830
 4097SOL    HW113190   6.322   4.877   4.747
 4097SOL    HW213191   6.244   4.810   4.875
 4098SOL     OW13192   2.178   4.289   3.349
 4098SOL    HW113193   2.116   4.365   3.367
 4098SOL    HW213194   2.225   4.263   3.433
 4099SOL     OW13195   4.322   4.428   6.584
 4099SOL    HW113196   4.239   4.393   6.628
 4099SOL    HW213197   4.323   4.527   6.590
 4100SOL     OW13198   1.068   0.062   3.804
 4100SOL    HW113199   1.022   6.999   3.776
 4100SOL    HW213200   1.164   0.042   3.824
 4101SOL     OW13201   6.002   5.945   0.204
 4101SOL    HW113202   6.055   5.887   0.266
 4101SOL    HW213203   6.063   5.985   0.136
 4102SOL     OW13204   1.519   0.234   0.098
 4102SOL    HW113205   1.584   0.226   0.173
 4102SOL    HW213206   1.427   0.208   0.130
 4103SOL     OW13207   1.935   6.288   3.661
 4103SOL    HW113208   1.947   6.277   3.760
 4103SOL    HW213209   1.988   6.218   3.613
 4104SOL     OW13210   2.313   5.470   4.275
 4104SOL    HW113211   2.217   5.447   4.292
 4104SOL    HW213212   2.320   5.566   4.251
 4105SOL     OW13213   4.710   0.957   1.064
 4105SOL    HW113214   4.636   0.895   1.037
 4105SOL    HW213215   4.781   0.906   1.113
 4106SOL     OW13216   1.501   1.006   3.392
 4106SOL    HW113217   1.439   1.059   3.450
 4106SOL    HW213218   1.449   0.970   3.314
 4107SOL     OW13219   1.131   6.639   0.169
 4107SOL    HW113220   1.173   6.712   0.115
 4107SOL    HW213221   1.172   6.551   0.145
 4108SOL     OW13222   6.770   5.921   5.601
 4108SOL    HW113223   6.736   5.880   5.517
 4108SOL    HW213224   6.786   6.019   5.586
 4109SOL     OW13225   5.923   6.073   3.472
 4109SOL    HW113226   5.914   6.097   3.569
 4109SOL    HW213227   6.005   6.016   3.460
 4110SOL     OW13228   4.853   2.734   0.701
 4110SOL    HW113229   4.818   2.820   0.739
 4110SOL    HW213230   4.950   2.744   0.680
 4111SOL     OW13231   6.438   4.028   4.024
 4111SOL    HW113232   6.489   4.097   4.076
 4111SOL    HW213233   6.383   4.073   3.954
 4112SOL     OW13234   4.839   6.354   4.921
 4112SOL    HW113235   4.896   6.434   4.901
 4112SOL    HW213236   4.830   6.344   5.020
 4113SOL     OW13237   4.102   5.324   4.865
 4113SOL    HW113238   4.010   5.295   4.838
 4113SOL    HW213239   4.156   5.243   4.891
 4114SOL     OW13240   0.342   1.496   1.420
 4114SOL    HW113241   0.401   1.505   1.500
 4114SOL    HW213242   0.296   1.407   1.423
 4115SOL     OW13243   4.168   6.004   4.189
 4115SOL    HW113244   4.237   6.038   4.254
 4115SOL    HW213245   4.080   6.049   4.207
 4116SOL     OW13246   4.845   4.058   2.460
 4116SOL    HW113247   4.876   4.128   2.395
 4116SOL    HW213248   4.867   3.967   2.424
 4117SOL     OW13249   1.550   1.694   3.806
 4117SOL    HW113250   1.604   1.677   3.888
 4117SOL    HW213251   1.548   1.612   3.749
 4118SOL     OW13252   0.582   5.990   6.953
 4118SOL    HW113253   0.557   5.947   6.867
 4118SOL    HW213254   0.612   6.084   6.936
 4119SOL     OW13255   0.532   0.246   4.288
 4119SOL    HW113256   0.475   0.216   4.365
 4119SOL    HW213257   0.548   0.344   4.294
 4120SOL     OW13258   2.096   0.338   6.056
 4120SOL    HW113259   2.151   0.421   6.048
 4120SOL    HW213260   2.052   0.336   6.145
 4121SOL     OW13261   6.055   0.074   2.213
 4121SOL    HW113262   6.105   0.026   2.286
 4121SOL    HW213263   6.045   0.014   2.134
 4122SOL     OW13264   0.069   4.068   2.857
 4122SOL    HW113265   0.090   4.162   2.883
 4122SOL    HW213266   7.014   4.068   2.792
 4123SOL     OW13267   4.577   4.675   1.719
 4123SOL    HW113268   4.585   4.582   1.684
 4123SOL    HW213269   4.615   4.679   1.811
 4124SOL     OW13270   5.524   5.557   0.144
 4124SOL    HW113271   5.499   5.460   0.148
 4124SOL    HW213272   5.472   5.608   0.213
 4125SOL     OW13273   6.069   1.602   1.381
 4125SOL    HW113274   6.083   1.514   1.425
 4125SOL    HW213275   6.088   1.594   1.283
 4126SOL     OW13276   1.850   2.848   2.077
 4126SOL    HW113277   1.863   2.876   2.172
 4126SOL    HW213278   1.937   2.813   2.040
 4127SOL     OW13279   4.365   1.906   4.725
 4127SOL    HW113280   4.453   1.952   4.734
 4127SOL    HW213281   4.368   1.841   4.649
 4128SOL     OW13282   1.139   3.446   6.861
 4128SOL    HW113283   1.121   3.347   6.861
 4128SOL    HW213284   1.052   3.495   6.858
 4129SOL     OW13285   2.432   2.763   0.616
 4129SOL    HW113286   2.520   2.805   0.595
 4129SOL    HW213287   2.359   2.831   0.607
 4130SOL     OW13288   6.366   3.403   0.603
 4130SOL    HW113289   6.316   3.438   0.682
 4130SOL    HW213290   6.305   3.346   0.548
 4131SOL     OW13291   4.529   6.888   3.477
 4131SOL    HW113292   4.615   6.923   3.440
 4131SOL    HW213293   4.548   6.821   3.549
 4132SOL     OW13294   0.586   5.372   4.358
 4132SOL    HW113295   0.659   5.347   4.295
 4132SOL    HW213296   0.506   5.403   4.307
 4133SOL     OW13297   5.357   0.818   2.591
 4133SOL    HW113298   5.445   0.863   2.606
 4133SOL    HW213299   5.312   0.802   2.679
 4134SOL     OW13300   1.399   3.657   1.565
 4134SOL    HW113301   1.300   3.643   1.565
 4134SOL    HW213302   1.438   3.617   1.483
 4135SOL     OW13303   6.576   1.045   1.606
 4135SOL    HW113304   6.531   1.133   1.595
 4135SOL    HW213305   6.674   1.059   1.621
 4136SOL     OW13306   1.427   4.778   1.364
 4136SOL    HW113307   1.451   4.875   1.360
 4136SOL    HW213308   1.500   4.727   1.411
 4137SOL     OW13309   1.430   2.622   0.611
 4137SOL    HW113310   1.376   2.646   0.531
 4137SOL    HW213311   1.370   2.595   0.686
 4138SOL     OW13312   5.342   0.543   0.673
 4138SOL    HW113313   5.324   0.550   0.771
 4138SOL    HW213314   5.366   0.633   0.637
 4139SOL     OW13315   2.122   3.488   2.786
 4139SOL    HW113316   2.073   3.573   2.771
 4139SOL    HW213317   2.138   3.442   2.698
 4140SOL     OW13318   2.220   0.814   6.493
 4140SOL    HW113319   2.161   0.744   6.453
 4140SOL    HW213320   2.164   0.880   6.542
 4141SOL     OW13321   5.111   0.430   6.003
 4141SOL    HW113322   5.046   0.477   6.063
 4141SOL    HW213323   5.092   0.453   5.908
 4142SOL     OW13324   0.903   4.755   2.278
 4142SOL    HW113325   0.858   4.669   2.301
 4142SOL    HW213326   0.908   4.766   2.179
 4143SOL     OW13327   5.526   3.132   6.963
 4143SOL    HW113328   5.487   3.093   0.025
 4143SOL    HW213329   5.580   3.062   6.916
 4144SOL     OW13330   6.265   0.747   0.298
 4144SOL    HW113331   6.277   0.790   0.387
 4144SOL    HW213332   6.338   0.679   0.284
 4145SOL     OW13333   0.150   6.831   1.716
 4145SOL    HW113334   0.143   6.732   1.729
 4145SOL    HW213335   0.219   6.867   1.778
 4146SOL     OW13336   4.695   6.003   2.801
 4146SOL    HW113337   4.636   6.080   2.773
 4146SOL    HW213338   4.789   6.022   2.773
 4147SOL     OW13339   4.744   4.559   6.159
 4147SOL    HW113340   4.739   4.637   6.221
 4147SOL    HW213341   4.778   4.589   6.070
 4148SOL     OW13342   2.511   1.427   5.968
 4148SOL    HW113343   2.458   1.432   6.052
 4148SOL    HW213344   2.561   1.341   5.965
 4149SOL     OW13345   2.338   3.562   6.467
 4149SOL    HW113346   2.295   3.476   6.438
 4149SOL    HW213347   2.276   3.612   6.527
 4150SOL     OW13348   5.513   1.981   6.388
 4150SOL    HW113349   5.591   1.983   6.450
 4150SOL    HW213350   5.441   1.925   6.428
 4151SOL     OW13351   3.207   6.145   4.143
 4151SOL    HW113352   3.219   6.087   4.063
 4151SOL    HW213353   3.156   6.227   4.117
 4152SOL     OW13354   2.726   4.666   1.042
 4152SOL    HW113355   2.754   4.571   1.033
 4152SOL    HW213356   2.756   4.702   1.131
 4153SOL     OW13357   6.993   5.739   1.363
 4153SOL    HW113358   6.957   5.781   1.447
 4153SOL    HW213359   6.928   5.669   1.331
 4154SOL     OW13360   1.119   6.536   3.696
 4154SOL    HW113361   1.154   6.461   3.752
 4154SOL    HW213362   1.033   6.508   3.653
 4155SOL     OW13363   0.601   0.716   1.337
 4155SOL    HW113364   0.534   0.755   1.400
 4155SOL    HW213365   0.693   0.748   1.361
 4156SOL     OW13366   0.234   5.124   5.762
 4156SOL    HW113367   0.169   5.184   5.716
 4156SOL    HW213368   0.303   5.094   5.696
 4157SOL     OW13369   6.709   6.322   1.391
 4157SOL    HW113370   6.646   6.389   1.352
 4157SOL    HW213371   6.757   6.363   1.468
 4158SOL     OW13372   0.827   2.589   1.455
 4158SOL    HW113373   0.765   2.553   1.526
 4158SOL    HW213374   0.917   2.607   1.495
 4159SOL     OW13375   3.383   0.908   4.141
 4159SOL    HW113376   3.350   0.891   4.049
 4159SOL    HW213377   3.343   0.992   4.177
 4160SOL     OW13378   6.632   6.622   6.549
 4160SOL    HW113379   6.559   6.556   6.531
 4160SOL    HW213380   6.694   6.585   6.619
 4161SOL     OW13381   4.104   3.105   1.813
 4161SOL    HW113382   4.095   3.139   1.719
 4161SOL    HW213383   4.192   3.134   1.850
 4162SOL     OW13384   4.654   5.967   1.839
 4162SOL    HW113385   4.584   5.978   1.910
 4162SOL    HW213386   4.668   6.055   1.793
 4163SOL     OW13387   3.578   6.604   1.596
 4163SOL    HW113388   3.656   6.635   1.650
 4163SOL    HW213389   3.495   6.607   1.652
 4164SOL     OW13390   6.454   0.134   5.557
 4164SOL    HW113391   6.416   0.215   5.513
 4164SOL    HW213392   6.382   0.086   5.607
 4165SOL     OW13393   4.386   1.261   4.965
 4165SOL    HW113394   4.351   1.228   5.053
 4165SOL    HW213395   4.365   1.194   4.894
 4166SOL     OW13396   6.008   1.374   1.529
 4166SOL    HW113397   5.934   1.422   1.575
 4166SOL    HW213398   6.012   1.280   1.563
 4167SOL     OW13399   3.997   5.396   4.345
 4167SOL    HW113400   4.092   5.425   4.338
 4167SOL    HW213401   3.959   5.428   4.433
 4168SOL     OW13402   4.865   3.886   6.689
 4168SOL    HW113403   4.791   3.819   6.681
 4168SOL    HW213404   4.952   3.841   6.669
 4169SOL     OW13405   5.190   3.517   5.310
 4169SOL    HW113406   5.175   3.604   5.356
 4169SOL    HW213407   5.262   3.466   5.357
 4170SOL     OW13408   0.557   3.129   3.846
 4170SOL    HW113409   0.540   3.225   3.822
 4170SOL    HW213410   0.654   3.108   3.832
 4171SOL     OW13411   0.639   2.637   0.609
 4171SOL    HW113412   0.621   2.718   0.665
 4171SOL    HW213413   0.629   2.554   0.666
 4172SOL     OW13414   2.871   4.403   1.021
 4172SOL    HW113415   2.874   4.340   1.099
 4172SOL    HW213416   2.915   4.361   0.942
 4173SOL     OW13417   4.638   2.652   5.804
 4173SOL    HW113418   4.615   2.557   5.828
 4173SOL    HW213419   4.693   2.652   5.720
 4174SOL     OW13420   3.478   0.442   4.771
 4174SOL    HW113421   3.499   0.502   4.694
 4174SOL    HW213422   3.481   0.495   4.856
 4175SOL     OW13423   0.849   4.430   6.697
 4175SOL    HW113424   0.767   4.438   6.753
 4175SOL    HW213425   0.923   4.485   6.737
 4176SOL     OW13426   4.716   0.396   6.453
 4176SOL    HW113427   4.807   0.437   6.465
 4176SOL    HW213428   4.661   0.414   6.534
 4177SOL     OW13429   4.169   4.684   2.754
 4177SOL    HW113430   4.075   4.672   2.724
 4177SOL    HW213431   4.224   4.720   2.679
 4178SOL     OW13432   3.958   5.541   1.423
 4178SOL    HW113433   3.884   5.537   1.491
 4178SOL    HW213434   3.961   5.632   1.382
 4179SOL     OW13435   5.267   3.003   5.221
 4179SOL    HW113436   5.177   2.977   5.186
 4179SOL    HW213437   5.333   3.005   5.146
 4180SOL     OW13438   4.688   4.117   0.049
 4180SOL    HW113439   4.765   4.054   0.062
 4180SOL    HW213440   4.687   4.185   0.122
 4181SOL     OW13441   4.680   0.207   4.946
 4181SOL    HW113442   4.637   0.139   4.886
 4181SOL    HW213443   4.779   0.198   4.941
 4182SOL     OW13444   0.170   6.362   4.083
 4182SOL    HW113445   0.108   6.290   4.112
 4182SOL    HW213446   0.120   6.447   4.070
 4183SOL     OW13447   3.621   2.196   1.341
 4183SOL    HW113448   3.683   2.269   1.370
 4183SOL    HW213449   3.644   2.111   1.387
 4184SOL     OW13450   3.363   5.369   3.919
 4184SOL    HW113451   3.455   5.389   3.954
 4184SOL    HW213452   3.303   5.448   3.935
 4185SOL     OW13453   6.263   3.251   3.127
 4185SOL    HW113454   6.263   3.308   3.209
 4185SOL    HW213455   6.350   3.262   3.079
 4186SOL     OW13456   1.334   6.147   0.506
 4186SOL    HW113457   1.383   6.091   0.573
 4186SOL    HW213458   1.304   6.232   0.549
 4187SOL     OW13459   1.582   3.501   6.446
 4187SOL    HW113460   1.490   3.531   6.422
 4187SOL    HW213461   1.586   3.481   6.544
 4188SOL     OW13462   4.758   6.836   0.595
 4188SOL    HW113463   4.680   6.898   0.601
 4188SOL    HW213464   4.787   6.810   0.687
 4189SOL     OW13465   5.076   5.058   3.780
 4189SOL    HW113466   5.096   5.037   3.876
 4189SOL    HW213467   5.029   5.146   3.774
 4190SOL     OW13468   6.935   6.204   0.753
 4190SOL    HW113469   6.895   6.282   0.802
 4190SOL    HW213470   0.008   6.191   0.784
 4191SOL     OW13471   4.488   4.429   6.160
 4191SOL    HW113472   4.501   4.330   6.157
 4191SOL    HW213473   4.576   4.474   6.169
 4192SOL     OW13474   0.982   3.404   1.736
 4192SOL    HW113475   0.953   3.324   1.684
 4192SOL    HW213476   0.914   3.477   1.726
 4193SOL     OW13477   0.088   0.169   0.871
 4193SOL    HW113478   0.016   0.235   0.894
 4193SOL    HW213479   0.057   0.113   0.794
 4194SOL     OW13480   4.286   1.717   5.363
 4194SOL    HW113481   4.220   1.707   5.289
 4194SOL    HW213482   4.364   1.771   5.332
 4195SOL     OW13483   3.592   5.901   1.415
 4195SOL    HW113484   3.528   5.963   1.370
 4195SOL    HW213485   3.557   5.876   1.505
 4196SOL     OW13486   6.506   2.392   2.288
 4196SOL    HW113487   6.567   2.469   2.268
 4196SOL    HW213488   6.552   2.307   2.264
 4197SOL     OW13489   3.627   0.035   6.529
 4197SOL    HW113490   3.706   0.004   6.476
 4197SOL    HW213491   3.572   0.097   6.473
 4198SOL     OW13492   6.088   1.835   2.470
 4198SOL    HW113493   6.068   1.811   2.565
 4198SOL    HW213494   6.130   1.756   2.424
 4199SOL     OW13495   0.710   4.034   5.929
 4199SOL    HW113496   0.696   3.952   5.874
 4199SOL    HW213497   0.621   4.074   5.952
 4200SOL     OW13498   4.562   1.075   3.676
 4200SOL    HW113499   4.514   1.044   3.758
 4200SOL    HW213500   4.544   1.011   3.601
 4201SOL     OW13501   5.347   6.999   3.623
 4201SOL    HW113502   5.393   6.973   3.707
 4201SOL    HW213503   5.304   6.919   3.582
 4202SOL     OW13504   4.716   4.341   1.374
 4202SOL    HW113505   4.724   4.423   1.431
 4202SOL    HW213506   4.660   4.273   1.421
 4203SOL     OW13507   6.726   5.782   6.460
 4203SOL    HW113508   6.713   5.802   6.362
 4203SOL    HW213509   6.689   5.692   6.480
 4204SOL     OW13510   2.788   3.403   6.129
 4204SOL    HW113511   2.825   3.424   6.038
 4204SOL    HW213512   2.705   3.456   6.145
 4205SOL     OW13513   3.688   6.485   5.178
 4205SOL    HW113514   3.786   6.496   5.164
 4205SOL    HW213515   3.643   6.471   5.090
 4206SOL     OW13516   1.199   2.424   4.699
 4206SOL    HW113517   1.266   2.360   4.738
 4206SOL    HW213518   1.231   2.518   4.713
 4207SOL     OW13519   0.971   2.519   2.084
 4207SOL    HW113520   0.879   2.533   2.120
 4207SOL    HW213521   1.025   2.465   2.150
 4208SOL     OW13522   2.172   3.552   4.676
 4208SOL    HW113523   2.176   3.496   4.759
 4208SOL    HW213524   2.208   3.643   4.695
 4209SOL     OW13525   0.017   6.282   2.740
 4209SOL    HW113526   0.019   6.380   2.720
 4209SOL    HW213527   6.946   6.254   2.764
 4210SOL     OW13528   3.836   2.965   4.930
 4210SOL    HW113529   3.842   3.062   4.905
 4210SOL    HW213530   3.822   2.910   4.847
 4211SOL     OW13531   4.084   2.642   5.528
 4211SOL    HW113532   4.113   2.546   5.532
 4211SOL    HW213533   4.020   2.654   5.452
 4212SOL     OW13534   0.184   2.656   3.058
 4212SOL    HW113535   0.118   2.670   3.132
 4212SOL    HW213536   0.147   2.589   2.993
 4213SOL     OW13537   3.295   1.141   3.559
 4213SOL    HW113538   3.258   1.052   3.533
 4213SOL    HW213539   3.379   1.158   3.508
 4214SOL     OW13540   0.779   5.620   4.260
 4214SOL    HW113541   0.813   5.568   4.338
 4214SOL    HW213542   0.781   5.562   4.178
 4215SOL     OW13543   4.368   6.512   5.267
 4215SOL    HW113544   4.407   6.482   5.179
 4215SOL    HW213545   4.317   6.436   5.307
 4216SOL     OW13546   2.736   5.794   2.144
 4216SOL    HW113547   2.726   5.714   2.203
 4216SOL    HW213548   2.776   5.765   2.057
 4217SOL     OW13549   0.641   0.607   2.325
 4217SOL    HW113550   0.688   0.646   2.245
 4217SOL    HW213551   0.673   0.653   2.408
 4218SOL     OW13552   2.514   1.171   1.761
 4218SOL    HW113553   2.541   1.075   1.748
 4218SOL    HW213554   2.506   1.215   1.672
 4219SOL     OW13555   4.535   6.404   3.741
 4219SOL    HW113556   4.585   6.389   3.826
 4219SOL    HW213557   4.575   6.346   3.669
 4220SOL     OW13558   4.654   2.137   1.702
 4220SOL    HW113559   4.714   2.205   1.744
 4220SOL    HW213560   4.559   2.160   1.723
 4221SOL     OW13561   0.409   5.696   6.953
 4221SOL    HW113562   0.366   5.787   6.955
 4221SOL    HW213563   0.364   5.640   6.884
 4222SOL     OW13564   4.993   2.647   3.833
 4222SOL    HW113565   5.039   2.695   3.759
 4222SOL    HW213566   4.910   2.697   3.858
 4223SOL     OW13567   4.109   3.771   2.059
 4223SOL    HW113568   4.124   3.811   1.969
 4223SOL    HW213569   4.167   3.690   2.070
 4224SOL     OW13570   4.962   3.533   4.752
 4224SOL    HW113571   5.007   3.447   4.777
 4224SOL    HW213572   4.906   3.565   4.828
 4225SOL     OW13573   0.212   2.372   5.562
 4225SOL    HW113574   0.201   2.342   5.657
 4225SOL    HW213575   0.184   2.467   5.554
 4226SOL     OW13576   1.498   5.628   4.779
 4226SOL    HW113577   1.539   5.577   4.703
 4226SOL    HW213578   1.401   5.604   4.787
 4227SOL     OW13579   5.466   5.741   2.473
 4227SOL    HW113580   5.436   5.693   2.556
 4227SOL    HW213581   5.566   5.749   2.473
 4228SOL     OW13582   1.131   5.205   4.017
 4228SOL    HW113583   1.174   5.121   3.985
 4228SOL    HW213584   1.132   5.208   4.117
 4229SOL     OW13585   6.048   4.507   5.714
 4229SOL    HW113586   6.103   4.490   5.632
 4229SOL    HW213587   6.093   4.466   5.794
 4230SOL     OW13588   0.445   0.798   2.115
 4230SOL    HW113589   0.471   0.893   2.136
 4230SOL    HW213590   0.361   0.776   2.164
 4231SOL     OW13591   5.573   1.501   5.704
 4231SOL    HW113592   5.484   1.482   5.664
 4231SOL    HW213593   5.620   1.571   5.648
 4232SOL     OW13594   1.556   5.421   3.562
 4232SOL    HW113595   1.464   5.440   3.597
 4232SOL    HW213596   1.607   5.507   3.554
 4233SOL     OW13597   5.345   5.829   3.633
 4233SOL    HW113598   5.413   5.762   3.604
 4233SOL    HW213599   5.370   5.919   3.598
 4234SOL     OW13600   2.713   5.426   5.829
 4234SOL    HW113601   2.674   5.518   5.825
 4234SOL    HW213602   2.811   5.433   5.848
 4235SOL     OW13603   0.390   5.635   5.656
 4235SOL    HW113604   0.449   5.711   5.630
 4235SOL    HW213605   0.300   5.669   5.683
 4236SOL     OW13606   0.524   5.246   2.681
 4236SOL    HW113607   0.621   5.222   2.667
 4236SOL    HW213608   0.470   5.162   2.687
 4237SOL     OW13609   6.929   4.338   3.641
 4237SOL    HW113610   6.887   4.255   3.680
 4237SOL    HW213611   6.888   4.356   3.552
 4238SOL     OW13612   2.447   6.943   3.492
 4238SOL    HW113613   2.357   6.940   3.535
 4238SOL    HW213614   2.441   6.906   3.400
 4239SOL     OW13615   3.934   1.090   3.790
 4239SOL    HW113616   3.838   1.116   3.790
 4239SOL    HW213617   3.986   1.152   3.731
 4240SOL     OW13618   0.367   6.326   0.907
 4240SOL    HW113619   0.286   6.279   0.873
 4240SOL    HW213620   0.414   6.371   0.832
 4241SOL     OW13621   6.429   2.753   0.399
 4241SOL    HW113622   6.513   2.717   0.439
 4241SOL    HW213623   6.393   2.688   0.333
 4242SOL     OW13624   2.065   2.101   3.710
 4242SOL    HW113625   2.055   2.158   3.627
 4242SOL    HW213626   2.081   2.006   3.683
 4243SOL     OW13627   5.388   0.711   3.373
 4243SOL    HW113628   5.343   0.623   3.360
 4243SOL    HW213629   5.362   0.774   3.299
 4244SOL     OW13630   3.307   3.591   2.291
 4244SOL    HW113631   3.234   3.644   2.248
 4244SOL    HW213632   3.361   3.546   2.220
 4245SOL     OW13633   6.156   2.665   6.099
 4245SOL    HW113634   6.116   2.574   6.106
 4245SOL    HW213635   6.105   2.729   6.156
 4246SOL     OW13636   0.656   3.732   2.080
 4246SOL    HW113637   0.582   3.687   2.030
 4246SOL    HW213638   0.660   3.695   2.173
 4247SOL     OW13639   0.290   5.968   5.335
 4247SOL    HW113640   0.356   5.940   5.264
 4247SOL    HW213641   0.211   6.009   5.291
 4248SOL     OW13642   1.293   2.776   5.184
 4248SOL    HW113643   1.295   2.763   5.284
 4248SOL    HW213644   1.340   2.862   5.161
 4249SOL     OW13645   5.684   3.432   5.747
 4249SOL    HW113646   5.586   3.414   5.757
 4249SOL    HW213647   5.728   3.429   5.837
 4250SOL     OW13648   6.806   4.879   3.439
 4250SOL    HW113649   6.716   4.920   3.421
 4250SOL    HW213650   6.810   4.788   3.397
 4251SOL     OW13651   5.748   4.449   0.621
 4251SOL    HW113652   5.718   4.446   0.716
 4251SOL    HW213653   5.769   4.543   0.595
 4252SOL     OW13654   0.784   4.661   5.758
 4252SOL    HW113655   0.764   4.609   5.842
 4252SOL    HW213656   0.881   4.684   5.756
 4253SOL     OW13657   4.313   0.407   2.522
 4253SOL    HW113658   4.401   0.420   2.567
 4253SOL    HW213659   4.320   0.333   2.455
 4254SOL     OW13660   2.441   4.056   1.470
 4254SOL    HW113661   2.452   3.957   1.459
 4254SOL    HW213662   2.505   4.089   1.539
 4255SOL     OW13663   6.797   2.926   4.619
 4255SOL    HW113664   6.774   2.945   4.524
 4255SOL    HW213665   6.818   2.829   4.630
 4256SOL     OW13666   1.915   6.979   1.627
 4256SOL    HW113667   1.931   7.019   1.717
 4256SOL    HW213668   2.002   6.967   1.580
 4257SOL     OW13669   3.584   1.839   4.754
 4257SOL    HW113670   3.488   1.822   4.728
 4257SOL    HW213671   3.601   1.801   4.845
 4258SOL     OW13672   5.525   6.705   2.461
 4258SOL    HW113673   5.575   6.696   2.547
 4258SOL    HW213674   5.511   6.802   2.441
 4259SOL     OW13675   2.410   2.449   0.114
 4259SOL    HW113676   2.477   2.411   0.051
 4259SOL    HW213677   2.451   2.457   0.205
 4260SOL     OW13678   4.967   5.577   3.435
 4260SOL    HW113679   5.035   5.602   3.367
 4260SOL    HW213680   4.928   5.660   3.475
 4261SOL     OW13681   2.038   6.406   2.090
 4261SOL    HW113682   1.950   6.414   2.138
 4261SOL    HW213683   2.021   6.381   1.995
 4262SOL     OW13684   0.960   5.162   6.580
 4262SOL    HW113685   0.976   5.142   6.483
 4262SOL    HW213686   0.962   5.077   6.632
 4263SOL     OW13687   2.702   4.576   5.704
 4263SOL    HW113688   2.683   4.671   5.681
 4263SOL    HW213689   2.799   4.565   5.727
 4264SOL     OW13690   0.131   0.975   0.647
 4264SOL    HW113691   0.132   1.064   0.692
 4264SOL    HW213692   0.094   0.984   0.555
 4265SOL     OW13693   6.620   1.561   0.450
 4265SOL    HW113694   6.543   1.567   0.514
 4265SOL    HW213695   6.704   1.541   0.501
 4266SOL     OW13696   2.600   5.458   0.222
 4266SOL    HW113697   2.677   5.404   0.257
 4266SOL    HW213698   2.631   5.515   0.146
 4267SOL     OW13699   1.706   3.644   5.402
 4267SOL    HW113700   1.781   3.582   5.422
 4267SOL    HW213701   1.657   3.613   5.320
 4268SOL     OW13702   2.381   1.173   0.504
 4268SOL    HW113703   2.315   1.141   0.436
 4268SOL    HW213704   2.372   1.272   0.515
 4269SOL     OW13705   3.417   3.362   0.072
 4269SOL    HW113706   3.516   3.348   0.074
 4269SOL    HW213707   3.371   3.274   0.085
 4270SOL     OW13708   2.959   3.245   4.951
 4270SOL    HW113709   2.970   3.227   5.049
 4270SOL    HW213710   3.012   3.178   4.899
 4271SOL     OW13711   1.059   0.004   5.884
 4271SOL    HW113712   0.983   6.962   5.897
 4271SOL    HW213713   1.135   6.999   5.944
 4272SOL     OW13714   6.483   4.802   5.017
 4272SOL    HW113715   6.449   4.740   5.088
 4272SOL    HW213716   6.439   4.892   5.027
 4273SOL     OW13717   5.241   6.999   5.328
 4273SOL    HW113718   5.316   6.951   5.282
 4273SOL    HW213719   5.216   6.948   5.411
 4274SOL     OW13720   1.539   6.820   3.500
 4274SOL    HW113721   1.609   6.887   3.525
 4274SOL    HW213722   1.454   6.841   3.548
 4275SOL     OW13723   0.787   0.204   5.956
 4275SOL    HW113724   0.814   0.257   5.876
 4275SOL    HW213725   0.809   0.108   5.942
 4276SOL     OW13726   2.113   4.505   2.893
 4276SOL    HW113727   2.050   4.428   2.902
 4276SOL    HW213728   2.134   4.521   2.797
 4277SOL     OW13729   0.181   5.215   3.863
 4277SOL    HW113730   0.255   5.231   3.929
 4277SOL    HW213731   0.188   5.122   3.827
 4278SOL     OW13732   6.890   6.328   4.398
 4278SOL    HW113733   6.946   6.378   4.464
 4278SOL    HW213734   6.837   6.258   4.446
 4279SOL     OW13735   3.368   6.458   5.103
 4279SOL    HW113736   3.454   6.452   5.153
 4279SOL    HW213737   3.294   6.478   5.168
 4280SOL     OW13738   6.050   1.777   4.593
 4280SOL    HW113739   6.086   1.770   4.686
 4280SOL    HW213740   6.107   1.840   4.540
 4281SOL     OW13741   2.447   4.328   5.220
 4281SOL    HW113742   2.376   4.359   5.157
 4281SOL    HW213743   2.410   4.256   5.279
 4282SOL     OW13744   2.079   2.351   1.154
 4282SOL    HW113745   2.083   2.441   1.196
 4282SOL    HW213746   2.152   2.293   1.191
 4283SOL     OW13747   1.819   0.371   4.441
 4283SOL    HW113748   1.746   0.416   4.389
 4283SOL    HW213749   1.840   0.425   4.522
 4284SOL     OW13750   5.631   1.544   2.330
 4284SOL    HW113751   5.660   1.474   2.265
 4284SOL    HW213752   5.639   1.634   2.287
 4285SOL     OW13753   0.928   0.289   5.298
 4285SOL    HW113754   0.918   0.381   5.261
 4285SOL    HW213755   0.934   0.223   5.223
 4286SOL     OW13756   4.649   6.052   0.079
 4286SOL    HW113757   4.730   6.048   0.136
 4286SOL    HW213758   4.582   5.985   0.111
 4287SOL     OW13759   5.757   0.062   4.718
 4287SOL    HW113760   5.688   0.117   4.672
 4287SOL    HW213761   5.825   0.122   4.761
 4288SOL     OW13762   1.393   6.887   2.821
 4288SOL    HW113763   1.493   6.882   2.830
 4288SOL    HW213764   1.360   6.971   2.866
 4289SOL     OW13765   5.635   2.767   1.590
 4289SOL    HW113766   5.709   2.771   1.523
 4289SOL    HW213767   5.548   2.781   1.543
 4290SOL     OW13768   2.206   0.965   2.359
 4290SOL    HW113769   2.187   0.873   2.325
 4290SOL    HW213770   2.130   0.997   2.415
 4291SOL     OW13771   5.945   3.020   0.474
 4291SOL    HW113772   5.893   3.021   0.560
 4291SOL    HW213773   6.040   3.043   0.493
 4292SOL     OW13774   5.900   4.170   6.130
 4292SOL    HW113775   5.900   4.270   6.137
 4292SOL    HW213776   5.834   4.142   6.060
 4293SOL     OW13777   6.810   3.186   6.601
 4293SOL    HW113778   6.831   3.231   6.514
 4293SOL    HW213779   6.759   3.102   6.583
 4294SOL     OW13780   4.285   2.226   6.264
 4294SOL    HW113781   4.335   2.150   6.222
 4294SOL    HW213782   4.239   2.279   6.192
 4295SOL     OW13783   3.302   6.906   4.295
 4295SOL    HW113784   3.397   6.916   4.266
 4295SOL    HW213785   3.278   6.980   4.358
 4296SOL     OW13786   2.478   1.808   1.175
 4296SOL    HW113787   2.456   1.713   1.154
 4296SOL    HW213788   2.410   1.868   1.133
 4297SOL     OW13789   5.490   0.781   5.627
 4297SOL    HW113790   5.465   0.706   5.687
 4297SOL    HW213791   5.489   0.750   5.532
 4298SOL     OW13792   2.586   5.768   1.489
 4298SOL    HW113793   2.497   5.787   1.530
 4298SOL    HW213794   2.599   5.826   1.408
 4299SOL     OW13795   1.150   3.528   6.161
 4299SOL    HW113796   1.155   3.438   6.118
 4299SOL    HW213797   1.058   3.544   6.196
 4300SOL     OW13798   3.950   1.113   6.794
 4300SOL    HW113799   4.045   1.120   6.763
 4300SOL    HW213800   3.901   1.046   6.738
 4301SOL     OW13801   2.592   2.138   0.572
 4301SOL    HW113802   2.519   2.123   0.639
 4301SOL    HW213803   2.678   2.103   0.608
 4302SOL     OW13804   1.251   6.578   6.792
 4302SOL    HW113805   1.218   6.494   6.751
 4302SOL    HW213806   1.185   6.651   6.777
 4303SOL     OW13807   6.579   3.712   2.537
 4303SOL    HW113808   6.592   3.614   2.528
 4303SOL    HW213809   6.486   3.736   2.508
 4304SOL     OW13810   3.474   3.475   3.849
 4304SOL    HW113811   3.472   3.470   3.949
 4304SOL    HW213812   3.431   3.560   3.819
 4305SOL     OW13813   6.214   0.811   3.579
 4305SOL    HW113814   6.115   0.811   3.566
 4305SOL    HW213815   6.257   0.875   3.515
 4306SOL     OW13816   6.568   4.504   6.045
 4306SOL    HW113817   6.614   4.444   5.979
 4306SOL    HW213818   6.476   4.469   6.064
 4307SOL     OW13819   4.869   3.665   6.048
 4307SOL    HW113820   4.864   3.565   6.039
 4307SOL    HW213821   4.801   3.707   5.988
 4308SOL     OW13822   5.384   5.769   4.320
 4308SOL    HW113823   5.339   5.696   4.373
 4308SOL    HW213824   5.455   5.729   4.262
 4309SOL     OW13825   1.732   1.407   0.497
 4309SOL    HW113826   1.673   1.333   0.464
 4309SOL    HW213827   1.741   1.476   0.425
 4310SOL     OW13828   1.826   2.077   3.029
 4310SOL    HW113829   1.821   2.177   3.023
 4310SOL    HW213830   1.919   2.051   3.054
 4311SOL     OW13831   1.448   6.090   3.559
 4311SOL    HW113832   1.517   6.141   3.611
 4311SOL    HW213833   1.430   6.002   3.604
 4312SOL     OW13834   1.891   5.984   2.362
 4312SOL    HW113835   1.903   6.083   2.364
 4312SOL    HW213836   1.831   5.959   2.286
 4313SOL     OW13837   4.523   1.418   1.782
 4313SOL    HW113838   4.599   1.419   1.847
 4313SOL    HW213839   4.523   1.503   1.730
 4314SOL     OW13840   5.001   3.439   2.841
 4314SOL    HW113841   4.979   3.369   2.909
 4314SOL    HW213842   5.047   3.515   2.886
 4315SOL     OW13843   2.620   0.723   2.119
 4315SOL    HW113844   2.702   0.740   2.064
 4315SOL    HW213845   2.539   0.756   2.070
 4316SOL     OW13846   5.447   0.446   1.722
 4316SOL    HW113847   5.504   0.501   1.783
 4316SOL    HW213848   5.351   0.457   1.747
 4317SOL     OW13849   3.239   1.229   4.348
 4317SOL    HW113850   3.211   1.192   4.259
 4317SOL    HW213851   3.158   1.249   4.403
 4318SOL     OW13852   0.774   3.629   3.316
 4318SOL    HW113853   0.675   3.618   3.327
 4318SOL    HW213854   0.808   3.562   3.250
 4319SOL     OW13855   3.216   3.419   6.601
 4319SOL    HW113856   3.129   3.441   6.557
 4319SOL    HW213857   3.198   3.373   6.688
 4320SOL     OW13858   0.103   6.715   2.794
 4320SOL    HW113859   0.068   6.738   2.704
 4320SOL    HW213860   0.056   6.769   2.864
 4321SOL     OW13861   6.523   0.211   5.250
 4321SOL    HW113862   6.561   0.145   5.314
 4321SOL    HW213863   6.520   0.301   5.293
 4322SOL     OW13864   6.280   1.105   6.781
 4322SOL    HW113865   6.312   1.189   6.739
 4322SOL    HW213866   6.190   1.081   6.744
 4323SOL     OW13867   5.861   2.625   2.947
 4323SOL    HW113868   5.940   2.584   2.992
 4323SOL    HW213869   5.858   2.723   2.967
 4324SOL     OW13870   6.089   3.933   6.405
 4324SOL    HW113871   6.153   3.866   6.444
 4324SOL    HW213872   6.093   4.018   6.459
 4325SOL     OW13873   2.078   1.669   6.706
 4325SOL    HW113874   2.109   1.636   6.617
 4325SOL    HW213875   2.132   1.749   6.734
 4326SOL     OW13876   6.275   2.979   5.587
 4326SOL    HW113877   6.208   3.051   5.606
 4326SOL    HW213878   6.337   3.008   5.515
 4327SOL     OW13879   5.920   6.231   1.939
 4327SOL    HW113880   5.972   6.315   1.961
 4327SOL    HW213881   5.823   6.246   1.958
 4328SOL     OW13882   4.973   5.077   6.645
 4328SOL    HW113883   5.034   5.122   6.710
 4328SOL    HW213884   4.925   5.002   6.690
 4329SOL     OW13885   3.743   2.276   5.721
 4329SOL    HW113886   3.748   2.338   5.799
 4329SOL    HW213887   3.684   2.316   5.650
 4330SOL     OW13888   1.122   0.650   5.961
 4330SOL    HW113889   1.187   0.577   5.939
 4330SOL    HW213890   1.169   0.738   5.955
 4331SOL     OW13891   5.988   2.540   6.803
 4331SOL    HW113892   5.954   2.485   6.726
 4331SOL    HW213893   6.071   2.498   6.840
 4332SOL     OW13894   4.885   3.088   2.270
 4332SOL    HW113895   4.964   3.030   2.251
 4332SOL    HW213896   4.810   3.064   2.208
 4333SOL     OW13897   5.721   1.373   5.066
 4333SOL    HW113898   5.671   1.373   5.153
 4333SOL    HW213899   5.737   1.279   5.037
 4334SOL     OW13900   3.938   2.153   1.979
 4334SOL    HW113901   3.841   2.177   1.990
 4334SOL    HW213902   3.971   2.189   1.892
 4335SOL     OW13903   3.186   3.947   4.520
 4335SOL    HW113904   3.164   4.031   4.570
 4335SOL    HW213905   3.167   3.867   4.577
 4336SOL     OW13906   1.317   6.627   4.681
 4336SOL    HW113907   1.335   6.709   4.626
 4336SOL    HW213908   1.315   6.651   4.778
 4337SOL     OW13909   0.052   4.934   0.621
 4337SOL    HW113910   6.976   4.916   0.606
 4337SOL    HW213911   0.064   5.027   0.656
 4338SOL     OW13912   6.234   5.979   4.044
 4338SOL    HW113913   6.283   6.021   4.120
 4338SOL    HW213914   6.236   5.880   4.053
 4339SOL     OW13915   6.391   2.048   5.572
 4339SOL    HW113916   6.483   2.009   5.579
 4339SOL    HW213917   6.382   2.098   5.487
 4340SOL     OW13918   5.650   3.881   1.356
 4340SOL    HW113919   5.748   3.899   1.354
 4340SOL    HW213920   5.617   3.884   1.450
 4341SOL     OW13921   1.703   4.036   1.737
 4341SOL    HW113922   1.772   4.019   1.666
 4341SOL    HW213923   1.745   4.022   1.827
 4342SOL     OW13924   0.595   2.656   2.687
 4342SOL    HW113925   0.634   2.663   2.779
 4342SOL    HW213926   0.497   2.638   2.694
 4343SOL     OW13927   3.210   0.895   0.553
 4343SOL    HW113928   3.180   0.927   0.463
 4343SOL    HW213929   3.141   0.833   0.592
 4344SOL     OW13930   2.069   4.796   3.287
 4344SOL    HW113931   1.982   4.820   3.330
 4344SOL    HW213932   2.064   4.702   3.253
 4345SOL     OW13933   1.712   2.593   5.330
 4345SOL    HW113934   1.716   2.544   5.418
 4345SOL    HW213935   1.643   2.551   5.272
 4346SOL     OW13936   1.834   3.414   2.044
 4346SOL    HW113937   1.894   3.418   2.123
 4346SOL    HW213938   1.800   3.320   2.033
 4347SOL     OW13939   5.927   6.972   2.837
 4347SOL    HW113940   5.931   0.024   2.905
 4347SOL    HW213941   6.005   6.910   2.851
 4348SOL     OW13942   1.430   3.373   0.485
 4348SOL    HW113943   1.396   3.445   0.425
 4348SOL    HW213944   1.461   3.414   0.571
 4349SOL     OW13945   0.274   1.306   3.793
 4349SOL    HW113946   0.291   1.207   3.789
 4349SOL    HW213947   0.319   1.350   3.715
 4350SOL     OW13948   5.366   2.410   4.023
 4350SOL    HW113949   5.318   2.351   4.088
 4350SOL    HW213950   5.324   2.400   3.932
 4351SOL     OW13951   3.002   5.769   2.457
 4351SOL    HW113952   3.043   5.742   2.370
 4351SOL    HW213953   3.036   5.710   2.530
 4352SOL     OW13954   0.215   1.798   2.084
 4352SOL    HW113955   0.208   1.879   2.026
 4352SOL    HW213956   0.131   1.788   2.138
 4353SOL     OW13957   2.866   5.927   6.537
 4353SOL    HW113958   2.927   5.849   6.554
 4353SOL    HW213959   2.802   5.937   6.613
 4354SOL     OW13960   2.545   6.859   0.079
 4354SOL    HW113961   2.497   6.793   0.020
 4354SOL    HW213962   2.642   6.862   0.054
 4355SOL     OW13963   4.020   0.810   0.403
 4355SOL    HW113964   4.057   0.765   0.484
 4355SOL    HW213965   3.927   0.776   0.386
 4356SOL     OW13966   4.279   4.182   0.570
 4356SOL    HW113967   4.306   4.245   0.643
 4356SOL    HW213968   4.181   4.164   0.576
 4357SOL     OW13969   6.198   0.038   0.299
 4357SOL    HW113970   6.161   0.117   0.249
 4357SOL    HW213971   6.277   0.002   0.250
 4358SOL     OW13972   0.493   6.728   1.644
 4358SOL    HW113973   0.488   6.807   1.583
 4358SOL    HW213974   0.575   6.735   1.701
 4359SOL     OW13975   0.730   2.023   3.926
 4359SOL    HW113976   0.813   2.009   3.980
 4359SOL    HW213977   0.713   2.122   3.917
 4360SOL     OW13978   1.217   3.069   1.148
 4360SOL    HW113979   1.248   3.160   1.120
 4360SOL    HW213980   1.176   3.074   1.239
 4361SOL     OW13981   5.049   2.570   2.122
 4361SOL    HW113982   4.997   2.640   2.074
 4361SOL    HW213983   5.131   2.610   2.161
 4362SOL     OW13984   6.223   4.456   5.390
 4362SOL    HW113985   6.126   4.480   5.382
 4362SOL    HW213986   6.245   4.384   5.324
 4363SOL     OW13987   5.278   2.947   5.485
 4363SOL    HW113988   5.270   2.992   5.396
 4363SOL    HW213989   5.191   2.954   5.534
 4364SOL     OW13990   3.041   3.981   4.268
 4364SOL    HW113991   3.105   3.961   4.343
 4364SOL    HW213992   3.085   4.044   4.203
 4365SOL     OW13993   4.044   2.194   2.599
 4365SOL    HW113994   3.997   2.176   2.512
 4365SOL    HW213995   4.130   2.240   2.581
 4366SOL     OW13996   5.488   6.039   1.147
 4366SOL    HW113997   5.408   6.098   1.158
 4366SOL    HW213998   5.477   5.957   1.203
 4367SOL     OW13999   1.604   6.061   6.106
 4367SOL    HW114000   1.613   6.149   6.060
 4367SOL    HW214001   1.616   5.987   6.039
 4368SOL     OW14002   5.760   4.084   1.739
 4368SOL    HW114003   5.786   4.165   1.686
 4368SOL    HW214004   5.660   4.080   1.747
 4369SOL     OW14005   4.113   5.328   2.209
 4369SOL    HW114006   4.085   5.271   2.287
 4369SOL    HW214007   4.033   5.369   2.166
 4370SOL     OW14008   5.901   4.536   3.997
 4370SOL    HW114009   5.831   4.475   3.959
 4370SOL    HW214010   5.868   4.576   4.083
 4371SOL     OW14011   5.462   0.893   2.331
 4371SOL    HW114012   5.483   0.866   2.425
 4371SOL    HW214013   5.390   0.963   2.332
 4372SOL     OW14014   4.506   1.464   3.465
 4372SOL    HW114015   4.561   1.531   3.515
 4372SOL    HW214016   4.412   1.498   3.456
 4373SOL     OW14017   6.305   1.979   6.701
 4373SOL    HW114018   6.307   1.883   6.674
 4373SOL    HW214019   6.237   2.028   6.647
 4374SOL     OW14020   1.838   2.183   2.133
 4374SOL    HW114021   1.893   2.134   2.201
 4374SOL    HW214022   1.823   2.124   2.054
 4375SOL     OW14023   2.603   6.387   4.699
 4375SOL    HW114024   2.610   6.314   4.767
 4375SOL    HW214025   2.660   6.464   4.727
 4376SOL     OW14026   6.375   0.344   2.937
 4376SOL    HW114027   6.415   0.259   2.972
 4376SOL    HW214028   6.317   0.384   3.007
 4377SOL     OW14029   5.949   4.048   6.978
 4377SOL    HW114030   5.976   4.008   6.890
 4377SOL    HW214031   5.951   4.148   6.971
 4378SOL     OW14032   1.891   0.119   4.088
 4378SOL    HW114033   1.940   0.060   4.151
 4378SOL    HW214034   1.889   0.077   3.997
 4379SOL     OW14035   2.731   1.787   4.803
 4379SOL    HW114036   2.829   1.772   4.811
 4379SOL    HW214037   2.708   1.878   4.838
 4380SOL     OW14038   0.378   1.424   1.990
 4380SOL    HW114039   0.400   1.508   1.941
 4380SOL    HW214040   0.342   1.446   2.080
 4381SOL     OW14041   2.349   6.089   5.801
 4381SOL    HW114042   2.315   6.082   5.707
 4381SOL    HW214043   2.351   6.185   5.828
 4382SOL     OW14044   6.901   3.226   5.546
 4382SOL    HW114045   6.868   3.179   5.465
 4382SOL    HW214046   6.970   3.170   5.592
 4383SOL     OW14047   5.378   2.857   6.618
 4383SOL    HW114048   5.356   2.924   6.688
 4383SOL    HW214049   5.437   2.785   6.657
 4384SOL     OW14050   6.703   6.561   3.302
 4384SOL    HW114051   6.801   6.561   3.278
 4384SOL    HW214052   6.692   6.587   3.398
 4385SOL     OW14053   5.489   1.681   4.455
 4385SOL    HW114054   5.579   1.724   4.465
 4385SOL    HW214055   5.489   1.623   4.374
 4386SOL     OW14056   0.806   3.182   5.211
 4386SOL    HW114057   0.830   3.108   5.273
 4386SOL    HW214058   0.890   3.226   5.178
 4387SOL     OW14059   6.747   2.262   0.457
 4387SOL    HW114060   6.691   2.201   0.514
 4387SOL    HW214061   6.689   2.332   0.415
 4388SOL     OW14062   4.786   1.681   6.658
 4388SOL    HW114063   4.775   1.779   6.673
 4388SOL    HW214064   4.813   1.665   6.563
 4389SOL     OW14065   6.907   3.670   1.327
 4389SOL    HW114066   7.003   3.647   1.315
 4389SOL    HW214067   6.890   3.695   1.422
 4390SOL     OW14068   5.797   1.097   1.376
 4390SOL    HW114069   5.830   1.168   1.314
 4390SOL    HW214070   5.698   1.106   1.386
 4391SOL     OW14071   2.160   5.689   6.128
 4391SOL    HW114072   2.190   5.759   6.063
 4391SOL    HW214073   2.067   5.709   6.158
 4392SOL     OW14074   1.430   2.650   4.588
 4392SOL    HW114075   1.476   2.564   4.565
 4392SOL    HW214076   1.498   2.721   4.605
 4393SOL     OW14077   4.740   6.775   1.794
 4393SOL    HW114078   4.702   6.798   1.884
 4393SOL    HW214079   4.835   6.744   1.805
 4394SOL     OW14080   1.692   0.328   1.465
 4394SOL    HW114081   1.701   0.296   1.560
 4394SOL    HW214082   1.721   0.255   1.403
 4395SOL     OW14083   2.889   5.768   1.101
 4395SOL    HW114084   2.876   5.685   1.045
 4395SOL    HW214085   2.898   5.742   1.197
 4396SOL     OW14086   2.181   0.707   3.559
 4396SOL    HW114087   2.084   0.684   3.553
 4396SOL    HW214088   2.220   0.669   3.643
 4397SOL     OW14089   3.249   1.835   3.852
 4397SOL    HW114090   3.192   1.906   3.811
 4397SOL    HW214091   3.283   1.867   3.941
 4398SOL     OW14092   1.995   2.795   5.859
 4398SOL    HW114093   2.069   2.851   5.896
 4398SOL    HW214094   1.935   2.853   5.803
 4399SOL     OW14095   2.857   6.712   2.189
 4399SOL    HW114096   2.795   6.635   2.196
 4399SOL    HW214097   2.825   6.775   2.118
 4400SOL     OW14098   2.067   5.951   4.961
 4400SOL    HW114099   2.097   6.033   5.010
 4400SOL    HW214100   2.104   5.870   5.006
 4401SOL     OW14101   3.565   6.846   6.001
 4401SOL    HW114102   3.523   6.760   6.031
 4401SOL    HW214103   3.526   6.872   5.913
 4402SOL     OW14104   1.130   0.466   3.359
 4402SOL    HW114105   1.127   0.380   3.309
 4402SOL    HW214106   1.081   0.457   3.446
 4403SOL     OW14107   1.306   4.648   1.153
 4403SOL    HW114108   1.209   4.648   1.178
 4403SOL    HW214109   1.358   4.696   1.224
 4404SOL     OW14110   0.498   6.039   6.345
 4404SOL    HW114111   0.597   6.044   6.359
 4404SOL    HW214112   0.475   5.949   6.307
 4405SOL     OW14113   1.875   4.901   3.545
 4405SOL    HW114114   1.805   4.888   3.615
 4405SOL    HW214115   1.832   4.906   3.455
 4406SOL     OW14116   5.861   3.505   2.316
 4406SOL    HW114117   5.825   3.508   2.409
 4406SOL    HW214118   5.797   3.455   2.257
 4407SOL     OW14119   6.635   6.181   2.167
 4407SOL    HW114120   6.700   6.219   2.233
 4407SOL    HW214121   6.584   6.256   2.124
 4408SOL     OW14122   4.180   0.302   0.946
 4408SOL    HW114123   4.105   0.254   0.991
 4408SOL    HW214124   4.156   0.319   0.850
 4409SOL     OW14125   3.952   0.893   2.256
 4409SOL    HW114126   4.013   0.958   2.209
 4409SOL    HW214127   3.950   0.914   2.353
 4410SOL     OW14128   0.836   6.157   1.219
 4410SOL    HW114129   0.844   6.206   1.133
 4410SOL    HW214130   0.771   6.203   1.279
 4411SOL     OW14131   3.100   4.497   5.599
 4411SOL    HW114132   3.044   4.493   5.516
 4411SOL    HW214133   3.168   4.571   5.589
 4412SOL     OW14134   4.636   6.283   2.401
 4412SOL    HW114135   4.551   6.334   2.385
 4412SOL    HW214136   4.678   6.260   2.313
 4413SOL     OW14137   4.074   6.748   3.884
 4413SOL    HW114138   4.017   6.673   3.851
 4413SOL    HW214139   4.171   6.721   3.880
 4414SOL     OW14140   4.913   4.172   1.642
 4414SOL    HW114141   4.988   4.223   1.599
 4414SOL    HW214142   4.850   4.140   1.572
 4415SOL     OW14143   3.250   3.524   1.447
 4415SOL    HW114144   3.285   3.511   1.539
 4415SOL    HW214145   3.199   3.610   1.442
 4416SOL     OW14146   4.299   2.377   3.157
 4416SOL    HW114147   4.235   2.359   3.231
 4416SOL    HW214148   4.379   2.318   3.167
 4417SOL     OW14149   0.575   3.752   3.526
 4417SOL    HW114150   0.538   3.795   3.444
 4417SOL    HW214151   0.584   3.653   3.510
 4418SOL     OW14152   6.169   6.979   0.563
 4418SOL    HW114153   6.238   7.008   0.630
 4418SOL    HW214154   6.206   6.991   0.470
 4419SOL     OW14155   6.871   5.985   6.594
 4419SOL    HW114156   6.823   5.924   6.531
 4419SOL    HW214157   6.946   6.031   6.545
 4420SOL     OW14158   3.597   2.292   0.861
 4420SOL    HW114159   3.628   2.319   0.770
 4420SOL    HW214160   3.582   2.374   0.916
 4421SOL     OW14161   1.201   2.837   4.566
 4421SOL    HW114162   1.259   2.756   4.571
 4421SOL    HW214163   1.193   2.879   4.656
 4422SOL     OW14164   6.979   4.504   6.998
 4422SOL    HW114165   0.009   4.588   7.020
 4422SOL    HW214166   6.884   4.515   0.004
 4423SOL     OW14167   5.312   4.056   5.175
 4423SOL    HW114168   5.381   4.048   5.103
 4423SOL    HW214169   5.243   3.985   5.163
 4424SOL     OW14170   4.770   5.867   3.848
 4424SOL    HW114171   4.680   5.869   3.891
 4424SOL    HW214172   4.827   5.797   3.893
 4425SOL     OW14173   1.177   5.898   1.326
 4425SOL    HW114174   1.101   5.916   1.263
 4425SOL    HW214175   1.234   5.980   1.333
 4426SOL     OW14176   0.910   7.016   4.070
 4426SOL    HW114177   0.955   0.050   4.000
 4426SOL    HW214178   0.817   0.028   4.084
 4427SOL     OW14179   3.356   6.165   2.956
 4427SOL    HW114180   3.433   6.215   2.917
 4427SOL    HW214181   3.379   6.138   3.050
 4428SOL     OW14182   5.778   0.391   3.830
 4428SOL    HW114183   5.697   0.447   3.817
 4428SOL    HW214184   5.843   0.439   3.889
 4429SOL     OW14185   2.426   6.104   3.427
 4429SOL    HW114186   2.510   6.104   3.480
 4429SOL    HW214187   2.411   6.012   3.388
 4430SOL     OW14188   5.204   4.260   5.029
 4430SOL    HW114189   5.236   4.178   5.076
 4430SOL    HW214190   5.223   4.341   5.086
 4431SOL     OW14191   3.150   0.563   4.341
 4431SOL    HW114192   3.250   0.560   4.335
 4431SOL    HW214193   3.121   0.644   4.391
 4432SOL     OW14194   1.294   4.019   6.251
 4432SOL    HW114195   1.207   3.976   6.225
 4432SOL    HW214196   1.332   3.973   6.331
 4433SOL     OW14197   1.046   0.891   5.233
 4433SOL    HW114198   1.024   0.967   5.294
 4433SOL    HW214199   0.983   0.816   5.250
 4434SOL     OW14200   6.886   0.883   1.785
 4434SOL    HW114201   6.928   0.866   1.874
 4434SOL    HW214202   6.822   0.960   1.792
 4435SOL     OW14203   2.464   3.870   0.659
 4435SOL    HW114204   2.403   3.905   0.731
 4435SOL    HW214205   2.409   3.829   0.586
 4436SOL     OW14206   4.422   1.580   1.583
 4436SOL    HW114207   4.338   1.547   1.626
 4436SOL    HW214208   4.405   1.595   1.485
 4437SOL     OW14209   0.162   4.036   1.556
 4437SOL    HW114210   0.185   3.941   1.579
 4437SOL    HW214211   0.241   4.094   1.573
 4438SOL     OW14212   3.811   0.369   5.801
 4438SOL    HW114213   3.897   0.396   5.757
 4438SOL    HW214214   3.810   0.402   5.895
 4439SOL     OW14215   1.997   6.823   2.201
 4439SOL    HW114216   1.919   6.793   2.146
 4439SOL    HW214217   2.073   6.846   2.140
 4440SOL     OW14218   1.604   5.063   0.021
 4440SOL    HW114219   1.566   5.095   0.108
 4440SOL    HW214220   1.631   5.141   6.986
 4441SOL     OW14221   0.204   1.105   0.257
 4441SOL    HW114222   0.133   1.044   0.223
 4441SOL    HW214223   0.283   1.051   0.288
 4442SOL     OW14224   2.257   4.513   6.537
 4442SOL    HW114225   2.172   4.488   6.584
 4442SOL    HW214226   2.235   4.566   6.455
 4443SOL     OW14227   0.137   5.134   6.015
 4443SOL    HW114228   0.065   5.203   6.018
 4443SOL    HW214229   0.160   5.114   5.920
 4444SOL     OW14230   5.346   4.099   0.277
 4444SOL    HW114231   5.419   4.084   0.210
 4444SOL    HW214232   5.257   4.100   0.231
 4445SOL     OW14233   0.097   5.910   0.566
 4445SOL    HW114234   0.075   5.882   0.473
 4445SOL    HW214235   0.047   5.852   0.631
 4446SOL     OW14236   5.171   0.984   1.092
 4446SOL    HW114237   5.164   1.067   1.037
 4446SOL    HW214238   5.081   0.942   1.103
 4447SOL     OW14239   5.230   5.460   5.651
 4447SOL    HW114240   5.184   5.549   5.654
 4447SOL    HW214241   5.297   5.454   5.725
 4448SOL     OW14242   3.595   6.670   1.915
 4448SOL    HW114243   3.553   6.723   1.841
 4448SOL    HW214244   3.675   6.717   1.950
 4449SOL     OW14245   3.360   1.227   5.753
 4449SOL    HW114246   3.294   1.289   5.796
 4449SOL    HW214247   3.357   1.138   5.800
 4450SOL     OW14248   3.433   0.171   0.174
 4450SOL    HW114249   3.512   0.189   0.233
 4450SOL    HW214250   3.440   0.079   0.135
 4451SOL     OW14251   4.862   4.227   3.238
 4451SOL    HW114252   4.844   4.287   3.160
 4451SOL    HW214253   4.888   4.136   3.206
 4452SOL     OW14254   4.962   5.837   4.681
 4452SOL    HW114255   4.955   5.926   4.637
 4452SOL    HW214256   4.928   5.843   4.775
 4453SOL     OW14257   0.148   3.574   1.210
 4453SOL    HW114258   0.245   3.555   1.199
 4453SOL    HW214259   0.095   3.494   1.181
 4454SOL     OW14260   0.997   2.368   0.161
 4454SOL    HW114261   0.919   2.426   0.184
 4454SOL    HW214262   0.996   2.349   0.063
 4455SOL     OW14263   0.459   6.353   4.959
 4455SOL    HW114264   0.439   6.329   4.864
 4455SOL    HW214265   0.373   6.366   5.009
 4456SOL     OW14266   2.132   6.847   4.581
 4456SOL    HW114267   2.092   6.806   4.499
 4456SOL    HW214268   2.137   6.946   4.570
 4457SOL     OW14269   0.464   2.290   4.789
 4457SOL    HW114270   0.536   2.358   4.804
 4457SOL    HW214271   0.463   2.225   4.865
 4458SOL     OW14272   1.711   3.402   0.369
 4458SOL    HW114273   1.641   3.442   0.428
 4458SOL    HW214274   1.716   3.304   0.384
 4459SOL     OW14275   1.036   2.362   3.396
 4459SOL    HW114276   1.127   2.321   3.405
 4459SOL    HW214277   1.024   2.432   3.467
 4460SOL     OW14278   6.891   3.572   4.140
 4460SOL    HW114279   6.951   3.497   4.166
 4460SOL    HW214280   6.799   3.536   4.122
 4461SOL     OW14281   2.353   0.853   1.566
 4461SOL    HW114282   2.397   0.822   1.651
 4461SOL    HW214283   2.265   0.806   1.555
 4462SOL     OW14284   6.324   4.640   2.958
 4462SOL    HW114285   6.307   4.542   2.960
 4462SOL    HW214286   6.253   4.688   3.009
 4463SOL     OW14287   5.822   1.993   0.457
 4463SOL    HW114288   5.907   1.984   0.405
 4463SOL    HW214289   5.802   2.090   0.470
 4464SOL     OW14290   0.606   5.718   0.354
 4464SOL    HW114291   0.636   5.810   0.327
 4464SOL    HW214292   0.585   5.665   0.272
 4465SOL     OW14293   2.388   5.863   1.236
 4465SOL    HW114294   2.383   5.936   1.168
 4465SOL    HW214295   2.296   5.845   1.271
 4466SOL     OW14296   2.017   1.856   3.607
 4466SOL    HW114297   1.929   1.858   3.655
 4466SOL    HW214298   2.002   1.873   3.510
 4467SOL     OW14299   3.800   5.966   2.987
 4467SOL    HW114300   3.730   5.895   2.977
 4467SOL    HW214301   3.762   6.045   3.034
 4468SOL     OW14302   1.435   2.946   1.426
 4468SOL    HW114303   1.421   2.949   1.327
 4468SOL    HW214304   1.437   3.040   1.462
 4469SOL     OW14305   3.194   6.347   0.937
 4469SOL    HW114306   3.100   6.314   0.930
 4469SOL    HW214307   3.244   6.323   0.853
 4470SOL     OW14308   1.363   0.769   2.550
 4470SOL    HW114309   1.387   0.712   2.471
 4470SOL    HW214310   1.263   0.770   2.561
 4471SOL     OW14311   1.305   1.552   6.144
 4471SOL    HW114312   1.215   1.582   6.174
 4471SOL    HW214313   1.340   1.482   6.206
 4472SOL     OW14314   1.692   2.585   0.980
 4472SOL    HW114315   1.603   2.544   0.960
 4472SOL    HW214316   1.726   2.632   0.899
 4473SOL     OW14317   0.075   3.431   4.587
 4473SOL    HW114318   0.146   3.370   4.553
 4473SOL    HW214319   7.012   3.414   4.536
 4474SOL     OW14320   2.822   6.463   1.114
 4474SOL    HW114321   2.792   6.495   1.204
 4474SOL    HW214322   2.780   6.374   1.095
 4475SOL     OW14323   1.002   3.775   1.263
 4475SOL    HW114324   0.951   3.717   1.200
 4475SOL    HW214325   0.940   3.843   1.303
 4476SOL     OW14326   4.676   1.347   3.888
 4476SOL    HW114327   4.606   1.298   3.941
 4476SOL    HW214328   4.650   1.443   3.881
 4477SOL     OW14329   1.947   0.732   5.560
 4477SOL    HW114330   2.026   0.701   5.614
 4477SOL    HW214331   1.915   0.658   5.502
 4478SOL     OW14332   1.777   0.425   0.283
 4478SOL    HW114333   1.799   0.384   0.194
 4478SOL    HW214334   1.683   0.460   0.280
 4479SOL     OW14335   1.910   3.002   0.473
 4479SOL    HW114336   1.912   2.902   0.482
 4479SOL    HW214337   1.916   3.027   0.376
 4480SOL     OW14338   0.992   5.758   4.350
 4480SOL    HW114339   0.950   5.789   4.265
 4480SOL    HW214340   1.049   5.678   4.333
 4481SOL     OW14341   2.506   3.860   6.126
 4481SOL    HW114342   2.585   3.914   6.155
 4481SOL    HW214343   2.525   3.820   6.036
 4482SOL     OW14344   3.009   5.648   6.640
 4482SOL    HW114345   3.028   5.559   6.682
 4482SOL    HW214346   3.024   5.721   6.707
 4483SOL     OW14347   0.668   3.157   1.645
 4483SOL    HW114348   0.651   3.252   1.622
 4483SOL    HW214349   0.760   3.148   1.685
 4484SOL     OW14350   2.548   2.830   6.926
 4484SOL    HW114351   2.598   2.744   6.926
 4484SOL    HW214352   2.467   2.821   6.984
 4485SOL     OW14353   5.406   2.677   5.040
 4485SOL    HW114354   5.398   2.678   4.940
 4485SOL    HW214355   5.320   2.645   5.079
 4486SOL     OW14356   4.676   5.123   5.579
 4486SOL    HW114357   4.728   5.040   5.558
 4486SOL    HW214358   4.739   5.201   5.586
 4487SOL     OW14359   1.269   2.950   0.096
 4487SOL    HW114360   1.201   3.016   0.127
 4487SOL    HW214361   1.323   2.989   0.021
 4488SOL     OW14362   6.875   4.083   4.334
 4488SOL    HW114363   6.915   4.112   4.247
 4488SOL    HW214364   6.949   4.064   4.399
 4489SOL     OW14365   4.501   5.393   5.827
 4489SOL    HW114366   4.502   5.299   5.795
 4489SOL    HW214367   4.407   5.425   5.834
 4490SOL     OW14368   4.799   1.509   0.901
 4490SOL    HW114369   4.854   1.580   0.946
 4490SOL    HW214370   4.788   1.532   0.805
 4491SOL     OW14371   1.040   2.766   3.119
 4491SOL    HW114372   0.953   2.788   3.163
 4491SOL    HW214373   1.086   2.694   3.171
 4492SOL     OW14374   5.678   0.846   1.609
 4492SOL    HW114375   5.776   0.839   1.624
 4492SOL    HW214376   5.646   0.766   1.559
 4493SOL     OW14377   4.727   1.723   4.437
 4493SOL    HW114378   4.732   1.788   4.513
 4493SOL    HW214379   4.781   1.757   4.360
 4494SOL     OW14380   1.075   0.254   1.175
 4494SOL    HW114381   1.028   0.308   1.245
 4494SOL    HW214382   1.052   0.291   1.085
 4495SOL     OW14383   4.600   5.431   1.760
 4495SOL    HW114384   4.550   5.518   1.768
 4495SOL    HW214385   4.660   5.434   1.680
 4496SOL     OW14386   3.668   6.091   6.511
 4496SOL    HW114387   3.736   6.122   6.444
 4496SOL    HW214388   3.642   5.996   6.491
 4497SOL     OW14389   3.930   1.620   6.322
 4497SOL    HW114390   3.914   1.527   6.354
 4497SOL    HW214391   3.915   1.625   6.223
 4498SOL     OW14392   1.330   5.704   5.494
 4498SOL    HW114393   1.347   5.655   5.579
 4498SOL    HW214394   1.291   5.642   5.426
 4499SOL     OW14395   6.014   2.090   2.170
 4499SOL    HW114396   5.938   2.053   2.116
 4499SOL    HW214397   6.075   2.142   2.110
 4500SOL     OW14398   3.598   5.960   6.758
 4500SOL    HW114399   3.650   6.027   6.811
 4500SOL    HW214400   3.605   5.980   6.661
 4501SOL     OW14401   5.097   1.236   2.975
 4501SOL    HW114402   5.011   1.285   2.966
 4501SOL    HW214403   5.083   1.153   3.029
 4502SOL     OW14404   0.612   3.843   6.652
 4502SOL    HW114405   0.519   3.876   6.663
 4502SOL    HW214406   0.612   3.757   6.601
 4503SOL     OW14407   2.501   0.413   2.781
 4503SOL    HW114408   2.429   0.482   2.793
 4503SOL    HW214409   2.555   0.435   2.699
 4504SOL     OW14410   0.579   2.187   3.149
 4504SOL    HW114411   0.538   2.111   3.199
 4504SOL    HW214412   0.532   2.272   3.171
 4505SOL     OW14413   6.299   4.383   3.803
 4505SOL    HW114414   6.394   4.415   3.806
 4505SOL    HW214415   6.237   4.462   3.813
 4506SOL     OW14416   4.706   2.857   4.819
 4506SOL    HW114417   4.739   2.814   4.904
 4506SOL    HW214418   4.688   2.786   4.751
 4507SOL     OW14419   6.226   2.694   3.226
 4507SOL    HW114420   6.256   2.643   3.307
 4507SOL    HW214421   6.184   2.780   3.254
 4508SOL     OW14422   0.202   5.278   0.905
 4508SOL    HW114423   0.266   5.283   0.982
 4508SOL    HW214424   0.248   5.309   0.822
 4509SOL     OW14425   4.948   2.803   2.408
 4509SOL    HW114426   4.979   2.897   2.394
 4509SOL    HW214427   4.929   2.760   2.319
 4510SOL     OW14428   4.026   1.681   4.553
 4510SOL    HW114429   4.095   1.686   4.482
 4510SOL    HW214430   4.013   1.771   4.594
 4511SOL     OW14431   0.894   4.451   0.587
 4511SOL    HW114432   0.950   4.518   0.635
 4511SOL    HW214433   0.806   4.440   0.635
 4512SOL     OW14434   3.066   2.863   5.759
 4512SOL    HW114435   3.129   2.856   5.682
 4512SOL    HW214436   3.111   2.829   5.842
 4513SOL     OW14437   1.075   6.314   0.463
 4513SOL    HW114438   1.013   6.361   0.526
 4513SOL    HW214439   1.130   6.247   0.514
 4514SOL     OW14440   3.202   4.271   6.938
 4514SOL    HW114441   3.268   4.332   6.894
 4514SOL    HW214442   3.242   4.236   0.001
 4515SOL     OW14443   4.554   0.626   6.125
 4515SOL    HW114444   4.617   0.671   6.062
 4515SOL    HW214445   4.559   0.672   6.214
 4516SOL     OW14446   3.400   2.138   4.711
 4516SOL    HW114447   3.495   2.155   4.736
 4516SOL    HW214448   3.346   2.118   4.793
 4517SOL     OW14449   3.578   0.788   5.349
 4517SOL    HW114450   3.560   0.801   5.447
 4517SOL    HW214451   3.492   0.793   5.298
 4518SOL     OW14452   1.592   0.273   0.851
 4518SOL    HW114453   1.632   0.238   0.766
 4518SOL    HW214454   1.658   0.261   0.926
 4519SOL     OW14455   5.137   6.609   6.706
 4519SOL    HW114456   5.215   6.666   6.733
 4519SOL    HW214457   5.134   6.527   6.763
 4520SOL     OW14458   4.706   6.136   4.819
 4520SOL    HW114459   4.767   6.215   4.825
 4520SOL    HW214460   4.739   6.074   4.748
 4521SOL     OW14461   4.117   2.248   4.463
 4521SOL    HW114462   4.026   2.212   4.442
 4521SOL    HW214463   4.144   2.218   4.555
 4522SOL     OW14464   5.078   4.388   3.077
 4522SOL    HW114465   5.102   4.348   3.165
 4522SOL    HW214466   4.986   4.359   3.051
 4523SOL     OW14467   0.254   3.529   5.875
 4523SOL    HW114468   0.328   3.467   5.898
 4523SOL    HW214469   0.290   3.604   5.819
 4524SOL     OW14470   0.815   3.095   2.781
 4524SOL    HW114471   0.790   3.035   2.857
 4524SOL    HW214472   0.895   3.150   2.807
 4525SOL     OW14473   2.973   1.784   4.978
 4525SOL    HW114474   3.003   1.850   5.047
 4525SOL    HW214475   2.892   1.735   5.012
 4526SOL     OW14476   0.372   6.790   5.736
 4526SOL    HW114477   0.324   6.753   5.815
 4526SOL    HW214478   0.388   6.888   5.748
 4527SOL     OW14479   6.600   0.639   2.609
 4527SOL    HW114480   6.638   0.709   2.668
 4527SOL    HW214481   6.622   0.659   2.514
 4528SOL     OW14482   4.343   1.025   5.164
 4528SOL    HW114483   4.278   0.949   5.167
 4528SOL    HW214484   4.382   1.039   5.255
 4529SOL     OW14485   2.232   1.264   4.665
 4529SOL    HW114486   2.245   1.350   4.715
 4529SOL    HW214487   2.193   1.284   4.575
 4530SOL     OW14488   3.323   5.479   5.745
 4530SOL    HW114489   3.402   5.449   5.693
 4530SOL    HW214490   3.247   5.417   5.730
 4531SOL     OW14491   1.143   5.386   5.950
 4531SOL    HW114492   1.196   5.408   6.031
 4531SOL    HW214493   1.135   5.287   5.941
 4532SOL     OW14494   5.859   0.839   2.509
 4532SOL    HW114495   5.836   0.774   2.437
 4532SOL    HW214496   5.905   0.791   2.584
 4533SOL     OW14497   2.940   0.561   2.330
 4533SOL    HW114498   2.988   0.507   2.261
 4533SOL    HW214499   2.846   0.529   2.339
 4534SOL     OW14500   4.365   1.742   3.888
 4534SOL    HW114501   4.372   1.818   3.952
 4534SOL    HW214502   4.274   1.701   3.896
 4535SOL     OW14503   2.884   1.421   1.061
 4535SOL    HW114504   2.891   1.328   1.095
 4535SOL    HW214505   2.874   1.419   0.961
 4536SOL     OW14506   2.740   0.918   5.665
 4536SOL    HW114507   2.651   0.897   5.705
 4536SOL    HW214508   2.727   0.981   5.588
 4537SOL     OW14509   3.815   3.018   3.557
 4537SOL    HW114510   3.915   3.026   3.549
 4537SOL    HW214511   3.775   3.015   3.466
 4538SOL     OW14512   0.109   1.931   0.891
 4538SOL    HW114513   0.132   1.997   0.963
 4538SOL    HW214514   0.081   1.981   0.809
 4539SOL     OW14515   1.625   6.254   5.390
 4539SOL    HW114516   1.534   6.290   5.410
 4539SOL    HW214517   1.630   6.227   5.294
 4540SOL     OW14518   0.600   0.842   0.037
 4540SOL    HW114519   0.587   0.895   0.121
 4540SOL    HW214520   0.664   0.889   6.998
 4541SOL     OW14521   4.498   2.796   6.003
 4541SOL    HW114522   4.527   2.793   6.098
 4541SOL    HW214523   4.562   2.743   5.947
 4542SOL     OW14524   6.298   2.225   1.171
 4542SOL    HW114525   6.233   2.149   1.178
 4542SOL    HW214526   6.323   2.256   1.263
 4543SOL     OW14527   3.323   1.867   0.125
 4543SOL    HW114528   3.247   1.841   0.186
 4543SOL    HW214529   3.303   1.835   0.033
 4544SOL     OW14530   5.492   6.298   0.312
 4544SOL    HW114531   5.521   6.298   0.217
 4544SOL    HW214532   5.493   6.205   0.348
 4545SOL     OW14533   2.054   2.897   4.842
 4545SOL    HW114534   2.075   2.974   4.902
 4545SOL    HW214535   2.117   2.822   4.860
 4546SOL     OW14536   3.219   1.376   6.352
 4546SOL    HW114537   3.149   1.338   6.291
 4546SOL    HW214538   3.176   1.426   6.426
 4547SOL     OW14539   6.828   0.357   7.009
 4547SOL    HW114540   6.851   0.442   0.035
 4547SOL    HW214541   6.815   0.375   6.911
 4548SOL     OW14542   2.355   2.659   2.192
 4548SOL    HW114543   2.333   2.563   2.214
 4548SOL    HW214544   2.438   2.662   2.137
 4549SOL     OW14545   6.245   4.112   3.870
 4549SOL    HW114546   6.262   4.211   3.868
 4549SOL    HW214547   6.146   4.095   3.865
 4550SOL     OW14548   1.591   4.446   2.996
 4550SOL    HW114549   1.632   4.399   2.918
 4550SOL    HW214550   1.530   4.384   3.045
 4551SOL     OW14551   1.074   3.148   4.261
 4551SOL    HW114552   1.171   3.144   4.284
 4551SOL    HW214553   1.028   3.066   4.296
 4552SOL     OW14554   5.638   1.254   1.093
 4552SOL    HW114555   5.696   1.326   1.132
 4552SOL    HW214556   5.682   1.165   1.106
 4553SOL     OW14557   6.673   5.371   6.361
 4553SOL    HW114558   6.624   5.401   6.443
 4553SOL    HW214559   6.651   5.276   6.342
 4554SOL     OW14560   6.552   6.102   2.776
 4554SOL    HW114561   6.519   6.060   2.691
 4554SOL    HW214562   6.510   6.055   2.854
 4555SOL     OW14563   1.659   1.070   6.711
 4555SOL    HW114564   1.603   1.073   6.794
 4555SOL    HW214565   1.621   1.135   6.644
 4556SOL     OW14566   5.758   4.491   5.746
 4556SOL    HW114567   5.698   4.533   5.677
 4556SOL    HW214568   5.851   4.524   5.732
 4557SOL     OW14569   6.711   4.870   2.714
 4557SOL    HW114570   6.703   4.960   2.670
 4557SOL    HW214571   6.620   4.830   2.723
 4558SOL     OW14572   0.702   3.034   5.536
 4558SOL    HW114573   0.624   3.034   5.474
 4558SOL    HW214574   0.786   3.016   5.484
 4559SOL     OW14575   7.015   2.445   2.316
 4559SOL    HW114576   0.045   2.396   2.246
 4559SOL    HW214577   6.992   2.536   2.283
 4560SOL     OW14578   6.003   4.582   2.851
 4560SOL    HW114579   5.981   4.524   2.929
 4560SOL    HW214580   6.032   4.672   2.884
 4561SOL     OW14581   3.832   2.081   4.103
 4561SOL    HW114582   3.918   2.121   4.131
 4561SOL    HW214583   3.813   2.105   4.008
 4562SOL     OW14584   2.915   1.135   1.129
 4562SOL    HW114585   2.858   1.113   1.208
 4562SOL    HW214586   2.965   1.053   1.101
 4563SOL     OW14587   1.025   3.877   1.737
 4563SOL    HW114588   0.961   3.896   1.662
 4563SOL    HW214589   0.974   3.854   1.819
 4564SOL     OW14590   1.013   3.654   2.347
 4564SOL    HW114591   0.922   3.617   2.331
 4564SOL    HW214592   1.006   3.752   2.366
 4565SOL     OW14593   2.219   6.030   6.207
 4565SOL    HW114594   2.282   5.979   6.149
 4565SOL    HW214595   2.131   5.982   6.211
 4566SOL     OW14596   5.901   4.543   2.199
 4566SOL    HW114597   5.991   4.582   2.216
 4566SOL    HW214598   5.836   4.617   2.179
 4567SOL     OW14599   0.335   0.744   6.678
 4567SOL    HW114600   0.390   0.794   6.611
 4567SOL    HW214601   0.280   0.676   6.631
 4568SOL     OW14602   1.257   5.589   3.564
 4568SOL    HW114603   1.252   5.618   3.659
 4568SOL    HW214604   1.305   5.658   3.510
 4569SOL     OW14605   2.247   0.975   3.576
 4569SOL    HW114606   2.230   0.877   3.578
 4569SOL    HW214607   2.345   0.992   3.570
 4570SOL     OW14608   5.478   5.804   1.986
 4570SOL    HW114609   5.540   5.739   1.941
 4570SOL    HW214610   5.469   5.781   2.083
 4571SOL     OW14611   2.958   3.358   6.447
 4571SOL    HW114612   2.951   3.271   6.496
 4571SOL    HW214613   2.945   3.343   6.349
 4572SOL     OW14614   2.892   3.037   1.783
 4572SOL    HW114615   2.885   3.134   1.806
 4572SOL    HW214616   2.865   3.023   1.688
 4573SOL     OW14617   2.091   5.667   1.697
 4573SOL    HW114618   2.064   5.736   1.630
 4573SOL    HW214619   2.017   5.655   1.764
 4574SOL     OW14620   5.354   1.438   1.134
 4574SOL    HW114621   5.352   1.521   1.079
 4574SOL    HW214622   5.433   1.439   1.194
 4575SOL     OW14623   0.047   6.483   4.508
 4575SOL    HW114624   0.090   6.571   4.490
 4575SOL    HW214625   0.091   6.440   4.587
 4576SOL     OW14626   2.764   4.969   4.856
 4576SOL    HW114627   2.839   4.904   4.843
 4576SOL    HW214628   2.700   4.960   4.780
 4577SOL     OW14629   1.981   1.895   2.264
 4577SOL    HW114630   1.973   1.924   2.360
 4577SOL    HW214631   2.061   1.837   2.253
 4578SOL     OW14632   1.378   1.250   2.321
 4578SOL    HW114633   1.345   1.174   2.266
 4578SOL    HW214634   1.332   1.334   2.293
 4579SOL     OW14635   4.136   1.433   2.095
 4579SOL    HW114636   4.198   1.431   2.017
 4579SOL    HW214637   4.135   1.525   2.135
 4580SOL     OW14638   0.044   2.549   0.229
 4580SOL    HW114639   7.010   2.595   0.298
 4580SOL    HW214640   0.083   2.618   0.167
 4581SOL     OW14641   3.346   0.550   1.281
 4581SOL    HW114642   3.409   0.613   1.326
 4581SOL    HW214643   3.398   0.480   1.232
 4582SOL     OW14644   6.087   1.190   3.730
 4582SOL    HW114645   6.184   1.210   3.716
 4582SOL    HW214646   6.074   1.144   3.818
 4583SOL     OW14647   1.484   0.098   6.644
 4583SOL    HW114648   1.542   0.177   6.629
 4583SOL    HW214649   1.505   0.027   6.577
 4584SOL     OW14650   1.669   0.855   5.259
 4584SOL    HW114651   1.677   0.871   5.358
 4584SOL    HW214652   1.665   0.943   5.212
 4585SOL     OW14653   1.743   3.683   3.285
 4585SOL    HW114654   1.702   3.740   3.214
 4585SOL    HW214655   1.686   3.602   3.299
 4586SOL     OW14656   5.455   4.486   6.640
 4586SOL    HW114657   5.503   4.545   6.575
 4586SOL    HW214658   5.485   4.509   6.733
 4587SOL     OW14659   2.965   3.693   4.365
 4587SOL    HW114660   2.969   3.665   4.461
 4587SOL    HW214661   2.941   3.790   4.361
 4588SOL     OW14662   3.201   3.973   5.741
 4588SOL    HW114663   3.220   4.021   5.655
 4588SOL    HW214664   3.221   3.876   5.731
 4589SOL     OW14665   5.493   0.443   2.516
 4589SOL    HW114666   5.462   0.436   2.611
 4589SOL    HW214667   5.590   0.422   2.510
 4590SOL     OW14668   3.439   5.844   1.138
 4590SOL    HW114669   3.502   5.921   1.128
 4590SOL    HW214670   3.345   5.878   1.138
 4591SOL     OW14671   1.977   0.447   5.568
 4591SOL    HW114672   2.068   0.486   5.580
 4591SOL    HW214673   1.985   0.353   5.534
 4592SOL     OW14674   2.168   1.707   3.965
 4592SOL    HW114675   2.170   1.608   3.979
 4592SOL    HW214676   2.073   1.736   3.950
 4593SOL     OW14677   1.892   6.157   4.300
 4593SOL    HW114678   1.820   6.160   4.370
 4593SOL    HW214679   1.957   6.232   4.316
 4594SOL     OW14680   1.772   0.463   2.959
 4594SOL    HW114681   1.801   0.551   2.922
 4594SOL    HW214682   1.783   0.392   2.889
 4595SOL     OW14683   5.019   2.113   6.489
 4595SOL    HW114684   5.085   2.182   6.458
 4595SOL    HW214685   4.967   2.148   6.567
 4596SOL     OW14686   0.532   1.023   2.547
 4596SOL    HW114687   0.436   1.027   2.575
 4596SOL    HW214688   0.544   1.079   2.464
 4597SOL     OW14689   2.845   6.396   6.741
 4597SOL    HW114690   2.749   6.397   6.713
 4597SOL    HW214691   2.892   6.474   6.701
 4598SOL     OW14692   1.954   5.197   0.339
 4598SOL    HW114693   1.858   5.171   0.346
 4598SOL    HW214694   1.994   5.157   0.257
 4599SOL     OW14695   2.351   5.343   2.868
 4599SOL    HW114696   2.359   5.398   2.785
 4599SOL    HW214697   2.281   5.382   2.927
 4600SOL     OW14698   0.258   6.656   5.954
 4600SOL    HW114699   0.217   6.585   5.896
 4600SOL    HW214700   0.296   6.614   6.036
 4601SOL     OW14701   1.804   1.171   4.895
 4601SOL    HW114702   1.855   1.183   4.810
 4601SOL    HW214703   1.784   1.260   4.936
 4602SOL     OW14704   2.907   2.167   6.664
 4602SOL    HW114705   2.923   2.266   6.660
 4602SOL    HW214706   2.984   2.119   6.621
 4603SOL     OW14707   5.089   6.708   0.714
 4603SOL    HW114708   5.171   6.750   0.675
 4603SOL    HW214709   5.049   6.645   0.647
 4604SOL     OW14710   5.515   6.961   5.555
 4604SOL    HW114711   5.541   0.019   5.610
 4604SOL    HW214712   5.419   6.939   5.571
 4605SOL     OW14713   3.205   0.543   1.887
 4605SOL    HW114714   3.198   0.470   1.954
 4605SOL    HW214715   3.179   0.508   1.797
 4606SOL     OW14716   6.849   6.593   4.348
 4606SOL    HW114717   6.887   6.503   4.373
 4606SOL    HW214718   6.791   6.583   4.267
 4607SOL     OW14719   1.853   2.671   1.430
 4607SOL    HW114720   1.810   2.668   1.521
 4607SOL    HW214721   1.855   2.766   1.397
 4608SOL     OW14722   6.880   3.443   4.436
 4608SOL    HW114723   6.849   3.527   4.481
 4608SOL    HW214724   6.801   3.397   4.395
 4609SOL     OW14725   4.550   6.453   6.903
 4609SOL    HW114726   4.589   6.408   6.823
 4609SOL    HW214727   4.564   6.395   6.984
 4610SOL     OW14728   4.928   3.194   0.342
 4610SOL    HW114729   5.010   3.209   0.397
 4610SOL    HW214730   4.955   3.172   0.248
 4611SOL     OW14731   1.116   0.777   6.416
 4611SOL    HW114732   1.063   0.754   6.334
 4611SOL    HW214733   1.065   0.844   6.471
 4612SOL     OW14734   2.281   0.193   1.426
 4612SOL    HW114735   2.234   0.255   1.489
 4612SOL    HW214736   2.379   0.198   1.441
 4613SOL     OW14737   1.602   4.636   1.564
 4613SOL    HW114738   1.629   4.569   1.634
 4613SOL    HW214739   1.681   4.659   1.508
 4614SOL     OW14740   6.417   4.099   4.555
 4614SOL    HW114741   6.432   4.125   4.650
 4614SOL    HW214742   6.357   4.019   4.552
 4615SOL     OW14743   0.789   2.046   0.501
 4615SOL    HW114744   0.838   1.981   0.443
 4615SOL    HW214745   0.826   2.138   0.488
 4616SOL     OW14746   6.356   2.749   5.760
 4616SOL    HW114747   6.374   2.835   5.711
 4616SOL    HW214748   6.258   2.728   5.755
 4617SOL     OW14749   0.197   2.929   2.966
 4617SOL    HW114750   0.224   2.978   3.049
 4617SOL    HW214751   0.218   2.832   2.977
 4618SOL     OW14752   1.989   4.530   5.289
 4618SOL    HW114753   2.062   4.561   5.350
 4618SOL    HW214754   1.954   4.442   5.320
 4619SOL     OW14755   4.025   6.438   5.463
 4619SOL    HW114756   4.058   6.511   5.523
 4619SOL    HW214757   4.028   6.469   5.368
 4620SOL     OW14758   0.272   4.932   2.315
 4620SOL    HW114759   0.198   4.884   2.267
 4620SOL    HW214760   0.265   5.030   2.296
 4621SOL     OW14761   4.281   0.568   3.074
 4621SOL    HW114762   4.362   0.626   3.087
 4621SOL    HW214763   4.280   0.497   3.144
 4622SOL     OW14764   5.015   6.050   1.482
 4622SOL    HW114765   4.976   6.112   1.551
 4622SOL    HW214766   5.114   6.063   1.478
 4623SOL     OW14767   2.881   5.061   1.236
 4623SOL    HW114768   2.926   5.043   1.323
 4623SOL    HW214769   2.857   5.159   1.230
 4624SOL     OW14770   4.581   0.926   2.261
 4624SOL    HW114771   4.613   0.959   2.349
 4624SOL    HW214772   4.527   0.997   2.216
 4625SOL     OW14773   1.550   5.596   1.106
 4625SOL    HW114774   1.494   5.550   1.175
 4625SOL    HW214775   1.491   5.638   1.038
 4626SOL     OW14776   4.166   3.916   1.837
 4626SOL    HW114777   4.234   3.986   1.816
 4626SOL    HW214778   4.146   3.863   1.755
 4627SOL     OW14779   5.867   6.515   5.028
 4627SOL    HW114780   5.833   6.449   4.961
 4627SOL    HW214781   5.911   6.466   5.103
 4628SOL     OW14782   5.797   4.892   4.195
 4628SOL    HW114783   5.857   4.972   4.189
 4628SOL    HW214784   5.820   4.839   4.277
 4629SOL     OW14785   2.067   6.176   6.506
 4629SOL    HW114786   2.147   6.118   6.493
 4629SOL    HW214787   1.984   6.121   6.501
 4630SOL     OW14788   1.574   3.362   2.243
 4630SOL    HW114789   1.496   3.416   2.213
 4630SOL    HW214790   1.623   3.326   2.164
 4631SOL     OW14791   0.230   0.620   3.546
 4631SOL    HW114792   0.167   0.658   3.614
 4631SOL    HW214793   0.323   0.649   3.566
 4632SOL     OW14794   3.077   4.889   2.618
 4632SOL    HW114795   3.052   4.921   2.710
 4632SOL    HW214796   3.166   4.926   2.594
 4633SOL     OW14797   5.209   1.039   4.167
 4633SOL    HW114798   5.216   1.128   4.213
 4633SOL    HW214799   5.287   1.027   4.105
 4634SOL     OW14800   3.025   3.634   4.620
 4634SOL    HW114801   2.992   3.703   4.685
 4634SOL    HW214802   3.046   3.550   4.670
 4635SOL     OW14803   4.794   6.082   1.214
 4635SOL    HW114804   4.803   6.180   1.197
 4635SOL    HW214805   4.710   6.049   1.171
 4636SOL     OW14806   2.153   5.431   0.731
 4636SOL    HW114807   2.081   5.402   0.669
 4636SOL    HW214808   2.239   5.387   0.707
 4637SOL     OW14809   2.456   1.202   2.651
 4637SOL    HW114810   2.423   1.121   2.601
 4637SOL    HW214811   2.418   1.284   2.610
 4638SOL     OW14812   3.230   4.809   0.226
 4638SOL    HW114813   3.273   4.886   0.273
 4638SOL    HW214814   3.295   4.768   0.162
 4639SOL     OW14815   2.701   2.181   1.363
 4639SOL    HW114816   2.793   2.163   1.397
 4639SOL    HW214817   2.702   2.261   1.303
 4640SOL     OW14818   6.785   2.575   6.456
 4640SOL    HW114819   6.700   2.592   6.505
 4640SOL    HW214820   6.780   2.613   6.364
 4641SOL     OW14821   1.145   5.568   4.222
 4641SOL    HW114822   1.242   5.588   4.214
 4641SOL    HW214823   1.132   5.469   4.232
 4642SOL     OW14824   0.013   1.392   3.772
 4642SOL    HW114825   6.985   1.432   3.848
 4642SOL    HW214826   0.086   1.333   3.807
 4643SOL     OW14827   0.493   1.814   0.027
 4643SOL    HW114828   0.464   1.814   0.123
 4643SOL    HW214829   0.462   1.730   7.005
 4644SOL     OW14830   1.422   1.070   0.319
 4644SOL    HW114831   1.506   1.105   0.277
 4644SOL    HW214832   1.351   1.141   0.314
 4645SOL     OW14833   0.903   1.745   3.641
 4645SOL    HW114834   0.937   1.820   3.697
 4645SOL    HW214835   0.817   1.771   3.597
 4646SOL     OW14836   1.909   4.671   3.931
 4646SOL    HW114837   1.971   4.697   3.857
 4646SOL    HW214838   1.913   4.572   3.944
 4647SOL     OW14839   1.295   6.589   2.463
 4647SOL    HW114840   1.279   6.491   2.476
 4647SOL    HW214841   1.290   6.635   2.552
 4648SOL     OW14842   2.773   1.733   4.529
 4648SOL    HW114843   2.731   1.787   4.602
 4648SOL    HW214844   2.724   1.647   4.518
 4649SOL     OW14845   5.606   0.457   0.346
 4649SOL    HW114846   5.574   0.541   0.303
 4649SOL    HW214847   5.552   0.380   0.312
 4650SOL     OW14848   5.407   6.317   1.228
 4650SOL    HW114849   5.439   6.346   1.138
 4650SOL    HW214850   5.479   6.330   1.296
 4651SOL     OW14851   6.179   3.494   6.207
 4651SOL    HW114852   6.224   3.556   6.143
 4651SOL    HW214853   6.119   3.432   6.156
 4652SOL     OW14854   0.370   6.422   4.268
 4652SOL    HW114855   0.348   6.506   4.317
 4652SOL    HW214856   0.299   6.403   4.201
 4653SOL     OW14857   5.541   5.493   0.639
 4653SOL    HW114858   5.469   5.443   0.686
 4653SOL    HW214859   5.522   5.591   0.644
 4654SOL     OW14860   0.077   6.712   5.243
 4654SOL    HW114861   7.008   6.670   5.250
 4654SOL    HW214862   0.144   6.657   5.293
 4655SOL     OW14863   4.457   2.175   1.188
 4655SOL    HW114864   4.395   2.182   1.266
 4655SOL    HW214865   4.419   2.226   1.110
 4656SOL     OW14866   0.661   1.411   1.986
 4656SOL    HW114867   0.714   1.492   1.960
 4656SOL    HW214868   0.563   1.434   1.986
 4657SOL     OW14869   5.016   6.898   2.083
 4657SOL    HW114870   4.996   6.801   2.071
 4657SOL    HW214871   5.114   6.910   2.100
 4658SOL     OW14872   1.655   2.534   5.878
 4658SOL    HW114873   1.639   2.438   5.900
 4658SOL    HW214874   1.583   2.566   5.816
 4659SOL     OW14875   2.960   4.713   0.515
 4659SOL    HW114876   2.992   4.652   0.587
 4659SOL    HW214877   2.862   4.729   0.525
 4660SOL     OW14878   1.518   6.311   4.426
 4660SOL    HW114879   1.449   6.268   4.367
 4660SOL    HW214880   1.576   6.240   4.466
 4661SOL     OW14881   0.737   2.651   5.514
 4661SOL    HW114882   0.745   2.748   5.539
 4661SOL    HW214883   0.645   2.619   5.537
 4662SOL     OW14884   3.023   6.509   5.039
 4662SOL    HW114885   3.055   6.594   4.996
 4662SOL    HW214886   2.998   6.443   4.968
 4663SOL     OW14887   1.478   6.475   0.236
 4663SOL    HW114888   1.440   6.384   0.224
 4663SOL    HW214889   1.569   6.480   0.196
 4664SOL     OW14890   6.844   6.397   0.155
 4664SOL    HW114891   6.838   6.491   0.122
 4664SOL    HW214892   6.757   6.350   0.138
 4665SOL     OW14893   2.041   0.240   4.411
 4665SOL    HW114894   2.100   0.316   4.383
 4665SOL    HW214895   1.949   0.274   4.431
 4666SOL     OW14896   2.272   1.993   5.394
 4666SOL    HW114897   2.243   2.080   5.435
 4666SOL    HW214898   2.221   1.918   5.435
 4667SOL     OW14899   6.223   3.778   1.350
 4667SOL    HW114900   6.142   3.814   1.304
 4667SOL    HW214901   6.303   3.793   1.292
 4668SOL     OW14902   4.078   2.231   4.162
 4668SOL    HW114903   4.078   2.317   4.213
 4668SOL    HW214904   4.136   2.240   4.081
 4669SOL     OW14905   5.594   6.763   6.269
 4669SOL    HW114906   5.668   6.727   6.326
 4669SOL    HW214907   5.546   6.834   6.319
 4670SOL     OW14908   1.021   2.662   0.821
 4670SOL    HW114909   0.945   2.698   0.876
 4670SOL    HW214910   1.020   2.562   0.826
 4671SOL     OW14911   0.644   3.997   0.588
 4671SOL    HW114912   0.576   4.039   0.528
 4671SOL    HW214913   0.600   3.971   0.674
 4672SOL     OW14914   2.992   3.754   5.989
 4672SOL    HW114915   3.017   3.676   5.932
 4672SOL    HW214916   2.954   3.827   5.933
 4673SOL     OW14917   5.786   0.651   6.932
 4673SOL    HW114918   5.864   0.703   6.895
 4673SOL    HW214919   5.812   0.612   7.020
 4674SOL     OW14920   1.619   1.986   0.995
 4674SOL    HW114921   1.690   2.031   0.942
 4674SOL    HW214922   1.531   1.996   0.947
 4675SOL     OW14923   2.196   6.339   6.701
 4675SOL    HW114924   2.141   6.318   6.620
 4675SOL    HW214925   2.273   6.397   6.676
 4676SOL     OW14926   0.392   5.985   4.146
 4676SOL    HW114927   0.418   6.067   4.094
 4676SOL    HW214928   0.429   5.992   4.238
 4677SOL     OW14929   4.152   0.191   6.696
 4677SOL    HW114930   4.077   0.146   6.646
 4677SOL    HW214931   4.235   0.135   6.689
 4678SOL     OW14932   1.977   4.564   0.085
 4678SOL    HW114933   2.055   4.514   0.048
 4678SOL    HW214934   1.941   4.515   0.165
 4679SOL     OW14935   3.139   0.887   6.097
 4679SOL    HW114936   3.071   0.915   6.030
 4679SOL    HW214937   3.139   0.788   6.107
 4680SOL     OW14938   1.732   4.920   0.489
 4680SOL    HW114939   1.762   4.831   0.523
 4680SOL    HW214940   1.791   4.992   0.528
 4681SOL     OW14941   0.391   5.467   5.305
 4681SOL    HW114942   0.477   5.496   5.261
 4681SOL    HW214943   0.367   5.532   5.378
 4682SOL     OW14944   4.315   6.552   0.848
 4682SOL    HW114945   4.343   6.647   0.834
 4682SOL    HW214946   4.354   6.518   0.934
 4683SOL     OW14947   6.224   4.388   3.004
 4683SOL    HW114948   6.252   4.318   3.069
 4683SOL    HW214949   6.125   4.393   3.000
 4684SOL     OW14950   1.397   1.183   4.439
 4684SOL    HW114951   1.350   1.112   4.386
 4684SOL    HW214952   1.479   1.212   4.390
 4685SOL     OW14953   5.529   5.192   4.942
 4685SOL    HW114954   5.521   5.160   4.847
 4685SOL    HW214955   5.441   5.184   4.988
 4686SOL     OW14956   4.331   6.109   0.077
 4686SOL    HW114957   4.235   6.126   0.100
 4686SOL    HW214958   4.343   6.116   6.999
 4687SOL     OW14959   6.337   6.002   4.584
 4687SOL    HW114960   6.318   5.965   4.675
 4687SOL    HW214961   6.384   5.934   4.529
 4688SOL     OW14962   0.689   2.405   6.443
 4688SOL    HW114963   0.723   2.410   6.537
 4688SOL    HW214964   0.592   2.384   6.444
 4689SOL     OW14965   1.117   6.182   5.102
 4689SOL    HW114966   1.200   6.236   5.113
 4689SOL    HW214967   1.116   6.139   5.012
 4690SOL     OW14968   1.265   2.149   6.935
 4690SOL    HW114969   1.311   2.238   6.928
 4690SOL    HW214970   1.220   2.128   6.847
 4691SOL     OW14971   2.393   5.462   0.951
 4691SOL    HW114972   2.340   5.488   0.870
 4691SOL    HW214973   2.483   5.428   0.921
 4692SOL     OW14974   0.358   5.166   3.306
 4692SOL    HW114975   0.320   5.131   3.391
 4692SOL    HW214976   0.441   5.116   3.283
 4693SOL     OW14977   0.541   1.143   3.912
 4693SOL    HW114978   0.523   1.198   3.831
 4693SOL    HW214979   0.471   1.162   3.981
 4694SOL     OW14980   1.493   2.147   6.105
 4694SOL    HW114981   1.401   2.110   6.100
 4694SOL    HW214982   1.559   2.073   6.118
 4695SOL     OW14983   3.682   3.135   2.057
 4695SOL    HW114984   3.641   3.136   1.966
 4695SOL    HW214985   3.782   3.138   2.049
 4696SOL     OW14986   0.241   2.881   6.310
 4696SOL    HW114987   0.198   2.878   6.400
 4696SOL    HW214988   0.203   2.957   6.258
 4697SOL     OW14989   0.823   5.184   0.237
 4697SOL    HW114990   0.820   5.267   0.292
 4697SOL    HW214991   0.899   5.188   0.173
 4698SOL     OW14992   5.615   3.433   0.822
 4698SOL    HW114993   5.609   3.508   0.756
 4698SOL    HW214994   5.610   3.470   0.915
 4699SOL     OW14995   6.894   0.049   2.569
 4699SOL    HW114996   6.860   6.989   2.521
 4699SOL    HW214997   6.836   0.067   2.648
 4700SOL     OW14998   4.820   1.240   1.052
 4700SOL    HW114999   4.765   1.308   1.003
 4700SOL    HW215000   4.764   1.159   1.071
 4701SOL     OW15001   0.534   0.755   0.889
 4701SOL    HW115002   0.598   0.709   0.951
 4701SOL    HW215003   0.444   0.758   0.931
 4702SOL     OW15004   3.244   3.883   0.454
 4702SOL    HW115005   3.255   3.951   0.526
 4702SOL    HW215006   3.323   3.886   0.393
 4703SOL     OW15007   2.369   0.766   1.996
 4703SOL    HW115008   2.354   0.855   1.953
 4703SOL    HW215009   2.333   0.693   1.937
 4704SOL     OW15010   5.614   6.353   0.716
 4704SOL    HW115011   5.596   6.288   0.790
 4704SOL    HW215012   5.532   6.363   0.660
 4705SOL     OW15013   3.008   3.875   4.008
 4705SOL    HW115014   3.103   3.883   3.976
 4705SOL    HW215015   3.003   3.897   4.105
 4706SOL     OW15016   4.049   5.758   0.197
 4706SOL    HW115017   3.993   5.841   0.208
 4706SOL    HW215018   4.008   5.699   0.128
 4707SOL     OW15019   2.125   5.785   1.315
 4707SOL    HW115020   2.114   5.701   1.368
 4707SOL    HW215021   2.117   5.765   1.218
 4708SOL     OW15022   2.303   2.394   1.927
 4708SOL    HW115023   2.262   2.367   2.015
 4708SOL    HW215024   2.300   2.316   1.865
 4709SOL     OW15025   4.197   4.844   5.773
 4709SOL    HW115026   4.217   4.921   5.713
 4709SOL    HW215027   4.114   4.863   5.825
 4710SOL     OW15028   4.340   1.125   0.340
 4710SOL    HW115029   4.338   1.225   0.344
 4710SOL    HW215030   4.246   1.090   0.344
 4711SOL     OW15031   3.220   0.449   2.750
 4711SOL    HW115032   3.159   0.428   2.673
 4711SOL    HW215033   3.176   0.514   2.811
 4712SOL     OW15034   1.947   5.037   0.631
 4712SOL    HW115035   2.039   5.030   0.592
 4712SOL    HW215036   1.932   5.130   0.665
 4713SOL     OW15037   1.681   5.517   0.712
 4713SOL    HW115038   1.582   5.506   0.721
 4713SOL    HW215039   1.727   5.431   0.734
 4714SOL     OW15040   2.976   2.121   1.399
 4714SOL    HW115041   2.977   2.025   1.427
 4714SOL    HW215042   3.029   2.175   1.465
 4715SOL     OW15043   0.237   3.130   3.527
 4715SOL    HW115044   0.168   3.189   3.569
 4715SOL    HW215045   0.193   3.073   3.458
 4716SOL     OW15046   3.336   5.993   0.896
 4716SOL    HW115047   3.418   5.986   0.952
 4716SOL    HW215048   3.258   5.957   0.946
 4717SOL     OW15049   1.641   6.250   3.710
 4717SOL    HW115050   1.579   6.320   3.675
 4717SOL    HW215051   1.735   6.284   3.704
 4718SOL     OW15052   5.862   1.285   5.862
 4718SOL    HW115053   5.859   1.287   5.762
 4718SOL    HW215054   5.878   1.192   5.893
 4719SOL     OW15055   4.338   2.991   0.852
 4719SOL    HW115056   4.290   3.043   0.924
 4719SOL    HW215057   4.271   2.939   0.799
 4720SOL     OW15058   2.750   0.754   5.127
 4720SOL    HW115059   2.733   0.707   5.040
 4720SOL    HW215060   2.664   0.793   5.161
 4721SOL     OW15061   1.405   2.131   1.392
 4721SOL    HW115062   1.374   2.063   1.326
 4721SOL    HW215063   1.417   2.088   1.481
 4722SOL     OW15064   2.410   0.353   0.740
 4722SOL    HW115065   2.470   0.394   0.671
 4722SOL    HW215066   2.428   0.395   0.829
 4723SOL     OW15067   1.990   6.663   6.600
 4723SOL    HW115068   1.991   6.621   6.691
 4723SOL    HW215069   1.993   6.591   6.531
 4724SOL     OW15070   4.133   6.273   1.860
 4724SOL    HW115071   4.085   6.186   1.868
 4724SOL    HW215072   4.070   6.348   1.877
 4725SOL     OW15073   5.008   6.621   3.413
 4725SOL    HW115074   4.947   6.669   3.476
 4725SOL    HW215075   4.993   6.522   3.420
 4726SOL     OW15076   0.501   4.950   6.476
 4726SOL    HW115077   0.431   4.909   6.417
 4726SOL    HW215078   0.497   5.049   6.467
 4727SOL     OW15079   0.210   5.661   0.175
 4727SOL    HW115080   0.262   5.746   0.170
 4727SOL    HW215081   0.273   5.583   0.174
 4728SOL     OW15082   0.076   1.147   6.907
 4728SOL    HW115083   0.060   1.203   6.989
 4728SOL    HW215084   7.010   1.111   6.874
 4729SOL     OW15085   3.378   0.840   1.620
 4729SOL    HW115086   3.326   0.769   1.570
 4729SOL    HW215087   3.434   0.891   1.555
 4730SOL     OW15088   2.060   0.165   5.596
 4730SOL    HW115089   1.985   0.130   5.653
 4730SOL    HW215090   2.067   0.110   5.513
 4731SOL     OW15091   5.329   1.502   4.804
 4731SOL    HW115092   5.301   1.555   4.724
 4731SOL    HW215093   5.425   1.520   4.825
 4732SOL     OW15094   0.259   1.937   0.362
 4732SOL    HW115095   0.220   1.989   0.286
 4732SOL    HW215096   0.353   1.969   0.379
 4733SOL     OW15097   0.130   2.985   3.326
 4733SOL    HW115098   0.088   2.901   3.362
 4733SOL    HW215099   0.201   2.960   3.259
 4734SOL     OW15100   4.226   4.205   6.899
 4734SOL    HW115101   4.234   4.127   6.961
 4734SOL    HW215102   4.317   4.241   6.878
 4735SOL     OW15103   1.490   4.993   3.514
 4735SOL    HW115104   1.560   5.029   3.452
 4735SOL    HW215105   1.480   4.894   3.500
 4736SOL     OW15106   1.043   0.781   0.420
 4736SOL    HW115107   0.962   0.835   0.396
 4736SOL    HW215108   1.115   0.842   0.454
 4737SOL     OW15109   2.280   5.125   1.745
 4737SOL    HW115110   2.248   5.130   1.651
 4737SOL    HW215111   2.380   5.116   1.746
 4738SOL     OW15112   6.545   6.035   2.503
 4738SOL    HW115113   6.606   5.982   2.444
 4738SOL    HW215114   6.556   6.133   2.484
 4739SOL     OW15115   4.510   0.752   1.000
 4739SOL    HW115116   4.513   0.684   1.073
 4739SOL    HW215117   4.581   0.732   0.932
 4740SOL     OW15118   1.183   1.711   3.169
 4740SOL    HW115119   1.085   1.703   3.150
 4740SOL    HW215120   1.197   1.753   3.258
 4741SOL     OW15121   4.247   3.500   1.614
 4741SOL    HW115122   4.306   3.580   1.626
 4741SOL    HW215123   4.235   3.482   1.516
 4742SOL     OW15124   3.748   6.737   0.732
 4742SOL    HW115125   3.731   6.737   0.831
 4742SOL    HW215126   3.791   6.650   0.706
 4743SOL     OW15127   2.609   5.160   1.436
 4743SOL    HW115128   2.608   5.208   1.348
 4743SOL    HW215129   2.558   5.075   1.429
 4744SOL     OW15130   2.099   6.270   0.942
 4744SOL    HW115131   2.008   6.243   0.973
 4744SOL    HW215132   2.125   6.215   0.862
 4745SOL     OW15133   1.203   4.571   0.306
 4745SOL    HW115134   1.225   4.620   0.222
 4745SOL    HW215135   1.286   4.559   0.361
 4746SOL     OW15136   4.757   5.350   4.341
 4746SOL    HW115137   4.658   5.349   4.350
 4746SOL    HW215138   4.784   5.292   4.264
 4747SOL     OW15139   1.521   2.135   0.602
 4747SOL    HW115140   1.521   2.230   0.571
 4747SOL    HW215141   1.607   2.115   0.649
 4748SOL     OW15142   1.471   6.525   2.915
 4748SOL    HW115143   1.495   6.485   3.003
 4748SOL    HW215144   1.536   6.495   2.846
 4749SOL     OW15145   1.984   0.762   6.927
 4749SOL    HW115146   1.913   0.707   6.884
 4749SOL    HW215147   1.968   0.859   6.909
 4750SOL     OW15148   4.834   3.292   5.493
 4750SOL    HW115149   4.915   3.250   5.452
 4750SOL    HW215150   4.854   3.387   5.515
 4751SOL     OW15151   4.507   0.656   3.186
 4751SOL    HW115152   4.538   0.735   3.134
 4751SOL    HW215153   4.519   0.674   3.284
 4752SOL     OW15154   4.328   1.800   0.125
 4752SOL    HW115155   4.399   1.864   0.154
 4752SOL    HW215156   4.368   1.729   0.067
 4753SOL     OW15157   3.149   5.661   5.058
 4753SOL    HW115158   3.166   5.756   5.084
 4753SOL    HW215159   3.230   5.623   5.014
 4754SOL     OW15160   4.735   4.781   6.303
 4754SOL    HW115161   4.798   4.757   6.377
 4754SOL    HW215162   4.738   4.879   6.287
 4755SOL     OW15163   1.671   0.858   1.354
 4755SOL    HW115164   1.727   0.917   1.296
 4755SOL    HW215165   1.717   0.771   1.368
 4756SOL     OW15166   5.997   4.175   6.496
 4756SOL    HW115167   5.897   4.176   6.494
 4756SOL    HW215168   6.030   4.248   6.555
 4757SOL     OW15169   1.984   3.843   1.679
 4757SOL    HW115170   2.019   3.892   1.759
 4757SOL    HW215171   1.971   3.906   1.603
 4758SOL     OW15172   3.021   6.470   3.266
 4758SOL    HW115173   2.930   6.473   3.307
 4758SOL    HW215174   3.028   6.538   3.193
 4759SOL     OW15175   0.967   5.101   1.362
 4759SOL    HW115176   0.931   5.174   1.304
 4759SOL    HW215177   1.066   5.114   1.373
 4760SOL     OW15178   1.833   5.948   1.056
 4760SOL    HW115179   1.767   5.917   1.123
 4760SOL    HW215180   1.813   6.043   1.030
 4761SOL     OW15181   6.753   6.657   1.076
 4761SOL    HW115182   6.689   6.618   1.142
 4761SOL    HW215183   6.845   6.622   1.094
 4762SOL     OW15184   1.744   7.004   1.875
 4762SOL    HW115185   1.760   6.910   1.905
 4762SOL    HW215186   1.830   0.034   1.877
 4763SOL     OW15187   5.800   4.425   1.862
 4763SOL    HW115188   5.773   4.500   1.801
 4763SOL    HW215189   5.731   4.415   1.934
 4764SOL     OW15190   4.162   3.592   6.463
 4764SOL    HW115191   4.248   3.619   6.419
 4764SOL    HW215192   4.179   3.567   6.558
 4765SOL     OW15193   3.150   1.835   4.272
 4765SOL    HW115194   3.057   1.864   4.252
 4765SOL    HW215195   3.166   1.838   4.370
 4766SOL     OW15196   0.751   0.001   4.442
 4766SOL    HW115197   0.713   6.965   4.514
 4766SOL    HW215198   0.682   0.066   4.410
 4767SOL     OW15199   1.589   4.408   4.163
 4767SOL    HW115200   1.650   4.486   4.175
 4767SOL    HW215201   1.533   4.423   4.082
 4768SOL     OW15202   3.709   2.315   6.745
 4768SOL    HW115203   3.748   2.406   6.756
 4768SOL    HW215204   3.648   2.296   6.822
 4769SOL     OW15205   2.459   5.129   1.087
 4769SOL    HW115206   2.449   5.061   1.160
 4769SOL    HW215207   2.371   5.175   1.072
 4770SOL     OW15208   0.405   1.608   5.734
 4770SOL    HW115209   0.470   1.532   5.736
 4770SOL    HW215210   0.434   1.675   5.665
 4771SOL     OW15211   2.181   6.702   4.841
 4771SOL    HW115212   2.161   6.745   4.754
 4771SOL    HW215213   2.233   6.617   4.826
 4772SOL     OW15214   3.091   5.527   1.966
 4772SOL    HW115215   3.067   5.440   1.924
 4772SOL    HW215216   3.143   5.510   2.049
 4773SOL     OW15217   2.296   5.075   4.700
 4773SOL    HW115218   2.215   5.133   4.693
 4773SOL    HW215219   2.284   5.009   4.774
 4774SOL     OW15220   1.672   3.899   0.115
 4774SOL    HW115221   1.670   3.864   0.022
 4774SOL    HW215222   1.714   3.830   0.175
 4775SOL     OW15223   6.416   6.118   5.205
 4775SOL    HW115224   6.449   6.213   5.212
 4775SOL    HW215225   6.395   6.097   5.110
 4776SOL     OW15226   0.824   1.563   6.728
 4776SOL    HW115227   0.866   1.475   6.706
 4776SOL    HW215228   0.748   1.548   6.792
 4777SOL     OW15229   0.730   0.005   2.007
 4777SOL    HW115230   0.675   6.944   1.999
 4777SOL    HW215231   0.725   0.041   2.100
 4778SOL     OW15232   1.099   1.840   6.013
 4778SOL    HW115233   1.111   1.813   6.108
 4778SOL    HW215234   1.136   1.769   5.953
 4779SOL     OW15235   5.341   0.751   4.014
 4779SOL    HW115236   5.263   0.810   3.991
 4779SOL    HW215237   5.416   0.807   4.049
 4780SOL     OW15238   6.289   2.854   4.809
 4780SOL    HW115239   6.374   2.814   4.778
 4780SOL    HW215240   6.228   2.783   4.844
 4781SOL     OW15241   2.069   6.212   2.467
 4781SOL    HW115242   2.145   6.166   2.513
 4781SOL    HW215243   2.103   6.292   2.418
 4782SOL     OW15244   6.974   6.584   4.065
 4782SOL    HW115245   6.916   6.615   3.990
 4782SOL    HW215246   6.925   6.518   4.121
 4783SOL     OW15247   6.565   3.404   0.379
 4783SOL    HW115248   6.658   3.411   0.416
 4783SOL    HW215249   6.499   3.407   0.454
 4784SOL     OW15250   5.120   2.973   6.783
 4784SOL    HW115251   5.064   2.963   6.701
 4784SOL    HW215252   5.131   2.884   6.827
 4785SOL     OW15253   0.421   6.234   3.672
 4785SOL    HW115254   0.337   6.179   3.676
 4785SOL    HW215255   0.414   6.298   3.595
 4786SOL     OW15256   2.049   6.169   0.379
 4786SOL    HW115257   1.951   6.172   0.359
 4786SOL    HW215258   2.075   6.075   0.402
 4787SOL     OW15259   3.400   1.405   4.467
 4787SOL    HW115260   3.388   1.495   4.425
 4787SOL    HW215261   3.324   1.346   4.442
 4788SOL     OW15262   5.771   6.565   0.045
 4788SOL    HW115263   5.767   6.593   6.970
 4788SOL    HW215264   5.680   6.538   0.075
 4789SOL     OW15265   5.421   1.458   3.448
 4789SOL    HW115266   5.517   1.432   3.440
 4789SOL    HW215267   5.375   1.447   3.360
 4790SOL     OW15268   6.807   2.120   4.795
 4790SOL    HW115269   6.723   2.067   4.803
 4790SOL    HW215270   6.802   2.177   4.713
 4791SOL     OW15271   6.965   0.377   0.456
 4791SOL    HW115272   6.907   0.438   0.402
 4791SOL    HW215273   0.005   0.432   0.513
 4792SOL     OW15274   2.263   2.948   2.698
 4792SOL    HW115275   2.199   2.986   2.631
 4792SOL    HW215276   2.327   2.886   2.652
 4793SOL     OW15277   0.915   3.985   5.735
 4793SOL    HW115278   0.883   4.037   5.814
 4793SOL    HW215279   0.857   4.006   5.656
 4794SOL     OW15280   4.238   1.483   4.084
 4794SOL    HW115281   4.153   1.431   4.091
 4794SOL    HW215282   4.300   1.437   4.020
 4795SOL     OW15283   0.206   0.523   5.927
 4795SOL    HW115284   0.190   0.456   5.855
 4795SOL    HW215285   0.294   0.567   5.914
 4796SOL     OW15286   3.732   1.452   4.811
 4796SOL    HW115287   3.803   1.397   4.766
 4796SOL    HW215288   3.735   1.436   4.910
 4797SOL     OW15289   1.587   5.436   4.566
 4797SOL    HW115290   1.555   5.342   4.575
 4797SOL    HW215291   1.681   5.443   4.601
 4798SOL     OW15292   4.262   4.776   6.326
 4798SOL    HW115293   4.326   4.745   6.397
 4798SOL    HW215294   4.170   4.780   6.365
 4799SOL     OW15295   3.105   3.172   6.279
 4799SOL    HW115296   3.097   3.176   6.378
 4799SOL    HW215297   3.201   3.166   6.253
 4800SOL     OW15298   0.857   5.031   0.782
 4800SOL    HW115299   0.950   5.006   0.810
 4800SOL    HW215300   0.857   5.058   0.686
 4801SOL     OW15301   5.262   2.850   1.820
 4801SOL    HW115302   5.271   2.753   1.840
 4801SOL    HW215303   5.196   2.863   1.747
 4802SOL     OW15304   6.815   6.745   3.862
 4802SOL    HW115305   6.843   6.837   3.889
 4802SOL    HW215306   6.885   6.704   3.804
 4803SOL     OW15307   4.906   4.114   6.208
 4803SOL    HW115308   4.899   4.157   6.297
 4803SOL    HW215309   4.919   4.184   6.138
 4804SOL     OW15310   4.797   1.509   0.607
 4804SOL    HW115311   4.705   1.526   0.573
 4804SOL    HW215312   4.859   1.580   0.573
 4805SOL     OW15313   6.612   1.210   0.326
 4805SOL    HW115314   6.649   1.296   0.362
 4805SOL    HW215315   6.522   1.228   0.285
 4806SOL     OW15316   1.487   0.830   2.976
 4806SOL    HW115317   1.437   0.877   3.049
 4806SOL    HW215318   1.532   0.750   3.013
 4807SOL     OW15319   1.157   3.568   5.770
 4807SOL    HW115320   1.241   3.514   5.769
 4807SOL    HW215321   1.127   3.585   5.676
 4808SOL     OW15322   4.163   5.485   0.752
 4808SOL    HW115323   4.213   5.531   0.825
 4808SOL    HW215324   4.081   5.441   0.790
 4809SOL     OW15325   3.348   4.643   1.404
 4809SOL    HW115326   3.355   4.742   1.407
 4809SOL    HW215327   3.348   4.607   1.498
 4810SOL     OW15328   0.463   4.316   3.838
 4810SOL    HW115329   0.512   4.251   3.897
 4810SOL    HW215330   0.436   4.395   3.892
 4811SOL     OW15331   3.327   4.078   4.113
 4811SOL    HW115332   3.317   3.983   4.082
 4811SOL    HW215333   3.275   4.138   4.053
 4812SOL     OW15334   0.610   0.100   2.235
 4812SOL    HW115335   0.584   0.189   2.199
 4812SOL    HW215336   0.576   0.090   2.329
 4813SOL     OW15337   5.995   1.803   5.911
 4813SOL    HW115338   5.910   1.856   5.910
 4813SOL    HW215339   5.975   1.708   5.886
 4814SOL     OW15340   6.250   4.232   1.506
 4814SOL    HW115341   6.294   4.281   1.581
 4814SOL    HW215342   6.198   4.297   1.450
 4815SOL     OW15343   5.696   5.321   2.337
 4815SOL    HW115344   5.689   5.378   2.256
 4815SOL    HW215345   5.626   5.250   2.334
 4816SOL     OW15346   1.508   1.184   2.734
 4816SOL    HW115347   1.440   1.134   2.680
 4816SOL    HW215348   1.477   1.278   2.747
 4817SOL     OW15349   3.860   1.844   0.734
 4817SOL    HW115350   3.891   1.873   0.824
 4817SOL    HW215351   3.778   1.895   0.709
 4818SOL     OW15352   3.993   0.209   5.483
 4818SOL    HW115353   3.987   0.167   5.574
 4818SOL    HW215354   3.936   0.158   5.419
 4819SOL     OW15355   2.745   0.597   1.115
 4819SOL    HW115356   2.673   0.642   1.168
 4819SOL    HW215357   2.800   0.540   1.175
 4820SOL     OW15358   6.161   4.156   2.009
 4820SOL    HW115359   6.201   4.081   2.062
 4820SOL    HW215360   6.084   4.195   2.060
 4821SOL     OW15361   7.018   4.401   1.421
 4821SOL    HW115362   0.037   4.310   1.414
 4821SOL    HW215363   7.015   4.429   1.517
 4822SOL     OW15364   2.147   4.164   2.565
 4822SOL    HW115365   2.139   4.094   2.636
 4822SOL    HW215366   2.062   4.216   2.560
 4823SOL     OW15367   0.953   1.050   4.588
 4823SOL    HW115368   1.047   1.062   4.619
 4823SOL    HW215369   0.904   1.137   4.594
 4824SOL     OW15370   5.364   2.937   2.324
 4824SOL    HW115371   5.405   3.006   2.264
 4824SOL    HW215372   5.272   2.966   2.350
 4825SOL     OW15373   0.700   3.398   2.753
 4825SOL    HW115374   0.698   3.330   2.680
 4825SOL    HW215375   0.690   3.352   2.841
 4826SOL     OW15376   6.382   6.124   0.154
 4826SOL    HW115377   6.388   6.198   0.222
 4826SOL    HW215378   6.287   6.107   0.132
 4827SOL     OW15379   5.435   0.688   1.030
 4827SOL    HW115380   5.448   0.689   1.129
 4827SOL    HW215381   5.383   0.606   1.004
 4828SOL     OW15382   5.831   3.583   0.600
 4828SOL    HW115383   5.905   3.526   0.565
 4828SOL    HW215384   5.835   3.673   0.557
 4829SOL     OW15385   2.911   0.285   6.230
 4829SOL    HW115386   2.969   0.333   6.295
 4829SOL    HW215387   2.901   0.339   6.146
 4830SOL     OW15388   4.314   0.039   4.549
 4830SOL    HW115389   4.275   0.093   4.624
 4830SOL    HW215390   4.287   6.965   4.559
 4831SOL     OW15391   6.165   3.644   5.843
 4831SOL    HW115392   6.068   3.664   5.854
 4831SOL    HW215393   6.184   3.624   5.747
 4832SOL     OW15394   2.573   3.565   6.191
 4832SOL    HW115395   2.526   3.498   6.249
 4832SOL    HW215396   2.542   3.657   6.213
 4833SOL     OW15397   4.655   1.523   2.529
 4833SOL    HW115398   4.612   1.598   2.580
 4833SOL    HW215399   4.743   1.553   2.494
 4834SOL     OW15400   5.043   1.320   2.446
 4834SOL    HW115401   4.989   1.289   2.368
 4834SOL    HW215402   5.040   1.252   2.518
 4835SOL     OW15403   2.110   0.500   6.494
 4835SOL    HW115404   2.157   0.448   6.565
 4835SOL    HW215405   2.076   0.438   6.423
 4836SOL     OW15406   5.449   2.213   3.760
 4836SOL    HW115407   5.485   2.257   3.842
 4836SOL    HW215408   5.481   2.261   3.678
 4837SOL     OW15409   1.450   3.593   0.688
 4837SOL    HW115410   1.400   3.677   0.710
 4837SOL    HW215411   1.547   3.614   0.679
 4838SOL     OW15412   3.314   5.689   2.523
 4838SOL    HW115413   3.309   5.675   2.622
 4838SOL    HW215414   3.238   5.746   2.493
 4839SOL     OW15415   0.524   5.909   6.685
 4839SOL    HW115416   0.540   5.986   6.623
 4839SOL    HW215417   0.539   5.823   6.635
 4840SOL     OW15418   0.023   6.949   0.085
 4840SOL    HW115419   0.020   6.876   0.153
 4840SOL    HW215420   6.972   7.015   0.104
 4841SOL     OW15421   2.887   5.492   2.206
 4841SOL    HW115422   2.983   5.498   2.234
 4841SOL    HW215423   2.828   5.515   2.284
 4842SOL     OW15424   4.242   6.055   1.180
 4842SOL    HW115425   4.187   6.128   1.140
 4842SOL    HW215426   4.201   6.024   1.266
 4843SOL     OW15427   0.272   3.530   6.902
 4843SOL    HW115428   0.204   3.604   6.905
 4843SOL    HW215429   0.271   3.481   6.989
 4844SOL     OW15430   5.790   2.172   6.398
 4844SOL    HW115431   5.719   2.218   6.344
 4844SOL    HW215432   5.749   2.136   6.482
 4845SOL     OW15433   6.221   5.675   4.030
 4845SOL    HW115434   6.276   5.598   4.063
 4845SOL    HW215435   6.267   5.717   3.951
 4846SOL     OW15436   1.268   3.908   0.375
 4846SOL    HW115437   1.175   3.873   0.390
 4846SOL    HW215438   1.302   3.874   0.288
 4847SOL     OW15439   3.611   2.134   4.269
 4847SOL    HW115440   3.692   2.127   4.211
 4847SOL    HW215441   3.588   2.043   4.306
 4848SOL     OW15442   2.543   2.482   2.374
 4848SOL    HW115443   2.581   2.413   2.435
 4848SOL    HW215444   2.580   2.471   2.282
 4849SOL     OW15445   1.527   6.830   0.492
 4849SOL    HW115446   1.484   6.875   0.570
 4849SOL    HW215447   1.621   6.862   0.483
 4850SOL     OW15448   4.316   0.743   2.247
 4850SOL    HW115449   4.358   0.820   2.200
 4850SOL    HW215450   4.388   0.683   2.283
 4851SOL     OW15451   5.107   6.131   4.991
 4851SOL    HW115452   5.010   6.145   5.010
 4851SOL    HW215453   5.154   6.219   4.986
 4852SOL     OW15454   1.898   1.102   0.249
 4852SOL    HW115455   1.845   1.056   0.319
 4852SOL    HW215456   1.971   1.041   0.216
 4853SOL     OW15457   3.014   1.828   2.320
 4853SOL    HW115458   3.052   1.914   2.354
 4853SOL    HW215459   3.005   1.832   2.221
 4854SOL     OW15460   5.195   6.930   1.446
 4854SOL    HW115461   5.271   6.920   1.510
 4854SOL    HW215462   5.230   6.921   1.352
 4855SOL     OW15463   6.918   1.961   2.393
 4855SOL    HW115464   6.825   1.945   2.361
 4855SOL    HW215465   6.945   2.055   2.373
 4856SOL     OW15466   3.190   4.919   3.333
 4856SOL    HW115467   3.210   5.007   3.376
 4856SOL    HW215468   3.266   4.856   3.350
 4857SOL     OW15469   6.822   1.622   5.497
 4857SOL    HW115470   6.844   1.527   5.475
 4857SOL    HW215471   6.741   1.651   5.446
 4858SOL     OW15472   1.333   1.941   4.264
 4858SOL    HW115473   1.430   1.953   4.246
 4858SOL    HW215474   1.297   1.868   4.206
 4859SOL     OW15475   2.346   5.885   4.661
 4859SOL    HW115476   2.281   5.955   4.688
 4859SOL    HW215477   2.433   5.928   4.637
 4860SOL     OW15478   4.575   5.107   1.078
 4860SOL    HW115479   4.592   5.166   0.999
 4860SOL    HW215480   4.657   5.103   1.135
 4861SOL     OW15481   4.769   4.316   4.824
 4861SOL    HW115482   4.842   4.377   4.792
 4861SOL    HW215483   4.694   4.371   4.861
 4862SOL     OW15484   1.505   6.823   2.093
 4862SOL    HW115485   1.450   6.903   2.069
 4862SOL    HW215486   1.480   6.746   2.035
 4863SOL     OW15487   5.942   3.879   0.203
 4863SOL    HW115488   5.956   3.937   0.123
 4863SOL    HW215489   5.933   3.784   0.175
 4864SOL     OW15490   3.009   1.375   3.334
 4864SOL    HW115491   3.031   1.462   3.289
 4864SOL    HW215492   2.970   1.393   3.424
 4865SOL     OW15493   2.765   6.289   4.508
 4865SOL    HW115494   2.703   6.311   4.583
 4865SOL    HW215495   2.843   6.238   4.543
 4866SOL     OW15496   6.787   3.721   0.837
 4866SOL    HW115497   6.841   3.805   0.828
 4866SOL    HW215498   6.690   3.743   0.840
 4867SOL     OW15499   4.534   7.001   3.177
 4867SOL    HW115500   4.632   6.997   3.156
 4867SOL    HW215501   4.518   0.052   3.243
 4868SOL     OW15502   6.481   4.990   1.241
 4868SOL    HW115503   6.407   4.955   1.183
 4868SOL    HW215504   6.568   4.953   1.209
 4869SOL     OW15505   0.384   1.580   6.944
 4869SOL    HW115506   0.290   1.582   6.912
 4869SOL    HW215507   0.446   1.563   6.867
 4870SOL     OW15508   0.725   6.400   2.223
 4870SOL    HW115509   0.717   6.390   2.124
 4870SOL    HW215510   0.738   6.310   2.265
 4871SOL     OW15511   1.026   1.515   4.282
 4871SOL    HW115512   1.111   1.462   4.281
 4871SOL    HW215513   0.974   1.496   4.199
 4872SOL     OW15514   5.948   7.009   3.997
 4872SOL    HW115515   5.904   0.028   3.916
 4872SOL    HW215516   6.005   0.057   4.041
 4873SOL     OW15517   6.717   6.272   5.317
 4873SOL    HW115518   6.724   6.265   5.417
 4873SOL    HW215519   6.633   6.319   5.293
 4874SOL     OW15520   4.653   2.746   3.154
 4874SOL    HW115521   4.556   2.761   3.136
 4874SOL    HW215522   4.672   2.763   3.251
 4875SOL     OW15523   5.494   6.402   5.949
 4875SOL    HW115524   5.465   6.389   5.854
 4875SOL    HW215525   5.568   6.338   5.970
 4876SOL     OW15526   1.826   1.241   3.165
 4876SOL    HW115527   1.770   1.184   3.104
 4876SOL    HW215528   1.777   1.326   3.185
 4877SOL     OW15529   0.205   2.121   4.617
 4877SOL    HW115530   0.203   2.220   4.635
 4877SOL    HW215531   0.245   2.104   4.527
 4878SOL     OW15532   0.257   2.430   2.529
 4878SOL    HW115533   0.264   2.466   2.622
 4878SOL    HW215534   0.234   2.333   2.532
 4879SOL     OW15535   4.906   1.736   3.176
 4879SOL    HW115536   4.965   1.787   3.113
 4879SOL    HW215537   4.812   1.767   3.164
 4880SOL     OW15538   6.430   2.602   6.190
 4880SOL    HW115539   6.338   2.632   6.163
 4880SOL    HW215540   6.426   2.561   6.281
 4881SOL     OW15541   1.444   3.037   2.228
 4881SOL    HW115542   1.537   3.067   2.203
 4881SOL    HW215543   1.444   2.939   2.244
 4882SOL     OW15544   4.469   2.565   4.966
 4882SOL    HW115545   4.410   2.644   4.945
 4882SOL    HW215546   4.496   2.521   4.880
 4883SOL     OW15547   6.491   4.088   1.841
 4883SOL    HW115548   6.495   4.187   1.854
 4883SOL    HW215549   6.503   4.067   1.744
 4884SOL     OW15550   1.786   6.139   1.453
 4884SOL    HW115551   1.829   6.135   1.363
 4884SOL    HW215552   1.741   6.227   1.465
 4885SOL     OW15553   1.546   4.609   0.759
 4885SOL    HW115554   1.539   4.515   0.723
 4885SOL    HW215555   1.635   4.620   0.804
 4886SOL     OW15556   2.840   1.163   2.475
 4886SOL    HW115557   2.753   1.207   2.456
 4886SOL    HW215558   2.896   1.163   2.392
 4887SOL     OW15559   0.436   6.954   1.456
 4887SOL    HW115560   0.517   6.989   1.411
 4887SOL    HW215561   0.365   0.003   1.457
 4888SOL     OW15562   3.367   6.662   2.982
 4888SOL    HW115563   3.381   6.759   2.964
 4888SOL    HW215564   3.382   6.610   2.897
 4889SOL     OW15565   6.744   2.601   3.590
 4889SOL    HW115566   6.820   2.662   3.571
 4889SOL    HW215567   6.710   2.618   3.683
 4890SOL     OW15568   0.169   1.421   4.719
 4890SOL    HW115569   0.229   1.408   4.640
 4890SOL    HW215570   0.149   1.333   4.761
 4891SOL     OW15571   2.505   5.367   6.018
 4891SOL    HW115572   2.507   5.270   6.043
 4891SOL    HW215573   2.586   5.389   5.965
 4892SOL     OW15574   5.313   6.074   3.151
 4892SOL    HW115575   5.348   5.994   3.102
 4892SOL    HW215576   5.390   6.132   3.179
 4893SOL     OW15577   0.437   3.610   1.984
 4893SOL    HW115578   0.363   3.628   2.050
 4893SOL    HW215579   0.414   3.528   1.931
 4894SOL     OW15580   4.616   6.801   2.028
 4894SOL    HW115581   4.679   6.772   2.100
 4894SOL    HW215582   4.567   6.884   2.058
 4895SOL     OW15583   0.150   4.401   3.718
 4895SOL    HW115584   0.054   4.414   3.691
 4895SOL    HW215585   0.178   4.307   3.697
 4896SOL     OW15586   2.072   4.857   4.113
 4896SOL    HW115587   2.118   4.815   4.191
 4896SOL    HW215588   2.049   4.787   4.046
 4897SOL     OW15589   1.957   6.586   5.290
 4897SOL    HW115590   2.050   6.586   5.327
 4897SOL    HW215591   1.962   6.584   5.190
 4898SOL     OW15592   3.806   1.925   3.841
 4898SOL    HW115593   3.824   1.875   3.756
 4898SOL    HW215594   3.890   1.931   3.894
 4899SOL     OW15595   0.036   4.953   1.636
 4899SOL    HW115596   6.977   5.012   1.627
 4899SOL    HW215597   0.055   4.908   1.548
 4900SOL     OW15598   4.102   6.002   5.564
 4900SOL    HW115599   4.201   6.007   5.554
 4900SOL    HW215600   4.071   5.908   5.550
 4901SOL     OW15601   0.694   1.359   6.131
 4901SOL    HW115602   0.720   1.442   6.081
 4901SOL    HW215603   0.596   1.342   6.118
 4902SOL     OW15604   1.850   0.295   5.950
 4902SOL    HW115605   1.940   0.332   5.976
 4902SOL    HW215606   1.811   0.351   5.877
 4903SOL     OW15607   5.344   4.801   1.839
 4903SOL    HW115608   5.365   4.704   1.826
 4903SOL    HW215609   5.429   4.853   1.847
 4904SOL     OW15610   1.505   0.493   0.339
 4904SOL    HW115611   1.464   0.403   0.353
 4904SOL    HW215612   1.534   0.531   0.427
 4905SOL     OW15613   3.292   6.358   2.501
 4905SOL    HW115614   3.346   6.434   2.537
 4905SOL    HW215615   3.338   6.272   2.522
 4906SOL     OW15616   5.467   2.928   4.775
 4906SOL    HW115617   5.547   2.871   4.756
 4906SOL    HW215618   5.424   2.956   4.688
 4907SOL     OW15619   4.750   1.432   6.804
 4907SOL    HW115620   4.742   1.528   6.777
 4907SOL    HW215621   4.723   1.423   6.900
 4908SOL     OW15622   4.574   0.016   0.233
 4908SOL    HW115623   4.589   0.113   0.253
 4908SOL    HW215624   4.549   0.005   0.137
 4909SOL     OW15625   5.765   4.511   4.246
 4909SOL    HW115626   5.710   4.429   4.261
 4909SOL    HW215627   5.834   4.518   4.318
 4910SOL     OW15628   4.816   1.195   5.893
 4910SOL    HW115629   4.777   1.128   5.830
 4910SOL    HW215630   4.916   1.185   5.894
 4911SOL     OW15631   0.275   2.258   1.806
 4911SOL    HW115632   0.294   2.180   1.866
 4911SOL    HW215633   0.346   2.327   1.819
 4912SOL     OW15634   6.087   2.083   4.315
 4912SOL    HW115635   6.024   2.091   4.238
 4912SOL    HW215636   6.142   2.166   4.321
 4913SOL     OW15637   6.455   2.770   5.243
 4913SOL    HW115638   6.425   2.677   5.222
 4913SOL    HW215639   6.409   2.835   5.181
 4914SOL     OW15640   4.462   0.757   4.186
 4914SOL    HW115641   4.376   0.751   4.136
 4914SOL    HW215642   4.500   0.849   4.176
 4915SOL     OW15643   3.575   5.442   5.633
 4915SOL    HW115644   3.567   5.372   5.704
 4915SOL    HW215645   3.666   5.483   5.636
 4916SOL     OW15646   6.393   1.428   3.892
 4916SOL    HW115647   6.347   1.397   3.976
 4916SOL    HW215648   6.380   1.526   3.881
 4917SOL     OW15649   4.635   0.358   1.010
 4917SOL    HW115650   4.554   0.384   0.957
 4917SOL    HW215651   4.712   0.418   0.984
 4918SOL     OW15652   6.449   5.550   1.958
 4918SOL    HW115653   6.441   5.646   1.932
 4918SOL    HW215654   6.546   5.526   1.967
 4919SOL     OW15655   4.000   3.915   2.282
 4919SOL    HW115656   4.056   3.850   2.232
 4919SOL    HW215657   4.052   4.000   2.296
 4920SOL     OW15658   5.981   0.517   5.486
 4920SOL    HW115659   5.984   0.522   5.586
 4920SOL    HW215660   5.911   0.580   5.451
 4921SOL     OW15661   0.059   6.916   2.034
 4921SOL    HW115662   6.998   6.914   1.976
 4921SOL    HW215663   0.139   6.926   1.975
 4922SOL     OW15664   3.810   2.244   6.106
 4922SOL    HW115665   3.759   2.158   6.114
 4922SOL    HW215666   3.758   2.308   6.049
 4923SOL     OW15667   3.431   1.421   2.624
 4923SOL    HW115668   3.476   1.486   2.563
 4923SOL    HW215669   3.493   1.397   2.699
 4924SOL     OW15670   2.479   0.794   5.809
 4924SOL    HW115671   2.437   0.793   5.900
 4924SOL    HW215672   2.417   0.838   5.744
 4925SOL     OW15673   4.945   6.350   3.384
 4925SOL    HW115674   4.956   6.305   3.295
 4925SOL    HW215675   4.894   6.289   3.446
 4926SOL     OW15676   5.482   2.433   0.685
 4926SOL    HW115677   5.552   2.387   0.739
 4926SOL    HW215678   5.394   2.426   0.731
 4927SOL     OW15679   3.444   1.560   6.312
 4927SOL    HW115680   3.368   1.499   6.335
 4927SOL    HW215681   3.489   1.590   6.396
 4928SOL     OW15682   0.589   2.431   0.793
 4928SOL    HW115683   0.507   2.450   0.739
 4928SOL    HW215684   0.594   2.495   0.869
 4929SOL     OW15685   0.178   6.406   4.740
 4929SOL    HW115686   0.265   6.432   4.699
 4929SOL    HW215687   0.171   6.307   4.744
 4930SOL     OW15688   5.281   6.678   2.321
 4930SOL    HW115689   5.210   6.726   2.372
 4930SOL    HW215690   5.362   6.667   2.379
 4931SOL     OW15691   6.052   6.172   0.878
 4931SOL    HW115692   5.968   6.186   0.824
 4931SOL    HW215693   6.078   6.259   0.920
 4932SOL     OW15694   3.075   3.078   2.013
 4932SOL    HW115695   3.058   3.049   1.919
 4932SOL    HW215696   3.039   3.170   2.027
 4933SOL     OW15697   3.284   6.073   5.413
 4933SOL    HW115698   3.318   6.058   5.320
 4933SOL    HW215699   3.195   6.118   5.409
 4934SOL     OW15700   3.979   5.216   3.213
 4934SOL    HW115701   3.890   5.191   3.250
 4934SOL    HW215702   4.019   5.289   3.269
 4935SOL     OW15703   1.269   1.530   5.877
 4935SOL    HW115704   1.184   1.476   5.880
 4935SOL    HW215705   1.296   1.553   5.970
 4936SOL     OW15706   2.709   3.191   0.972
 4936SOL    HW115707   2.690   3.106   1.019
 4936SOL    HW215708   2.646   3.202   0.895
 4937SOL     OW15709   4.759   2.845   5.284
 4937SOL    HW115710   4.720   2.933   5.312
 4937SOL    HW215711   4.686   2.785   5.251
 4938SOL     OW15712   3.897   5.615   5.903
 4938SOL    HW115713   3.958   5.585   5.976
 4938SOL    HW215714   3.816   5.659   5.942
 4939SOL     OW15715   4.317   3.310   5.916
 4939SOL    HW115716   4.370   3.232   5.884
 4939SOL    HW215717   4.266   3.285   5.998
 4940SOL     OW15718   2.339   6.523   4.529
 4940SOL    HW115719   2.412   6.574   4.574
 4940SOL    HW215720   2.362   6.510   4.432
 4941SOL     OW15721   5.409   0.810   0.682
 4941SOL    HW115722   5.433   0.847   0.772
 4941SOL    HW215723   5.328   0.857   0.648
 4942SOL     OW15724   4.925   3.622   5.292
 4942SOL    HW115725   4.995   3.550   5.294
 4942SOL    HW215726   4.853   3.597   5.227
 4943SOL     OW15727   4.369   2.327   0.971
 4943SOL    HW115728   4.339   2.422   0.961
 4943SOL    HW215729   4.396   2.291   0.882
 4944SOL     OW15730   2.482   4.538   2.372
 4944SOL    HW115731   2.450   4.545   2.277
 4944SOL    HW215732   2.451   4.452   2.412
 4945SOL     OW15733   0.372   6.797   4.548
 4945SOL    HW115734   0.302   6.843   4.492
 4945SOL    HW215735   0.405   6.861   4.618
 4946SOL     OW15736   1.311   3.509   2.317
 4946SOL    HW115737   1.228   3.458   2.339
 4946SOL    HW215738   1.294   3.607   2.327
 4947SOL     OW15739   0.608   6.708   0.621
 4947SOL    HW115740   0.681   6.767   0.657
 4947SOL    HW215741   0.637   6.668   0.534
 4948SOL     OW15742   2.455   1.286   1.985
 4948SOL    HW115743   2.483   1.224   1.912
 4948SOL    HW215744   2.512   1.368   1.982
 4949SOL     OW15745   5.465   1.497   4.254
 4949SOL    HW115746   5.464   1.497   4.154
 4949SOL    HW215747   5.550   1.455   4.287
 4950SOL     OW15748   3.281   5.602   4.647
 4950SOL    HW115749   3.212   5.529   4.648
 4950SOL    HW215750   3.268   5.660   4.566
 4951SOL     OW15751   4.163   2.279   3.884
 4951SOL    HW115752   4.098   2.278   3.808
 4951SOL    HW215753   4.246   2.326   3.855
 4952SOL     OW15754   0.241   6.222   5.460
 4952SOL    HW115755   0.151   6.215   5.416
 4952SOL    HW215756   0.297   6.143   5.434
 4953SOL     OW15757   2.196   5.294   1.945
 4953SOL    HW115758   2.257   5.245   1.883
 4953SOL    HW215759   2.109   5.312   1.899
 4954SOL     OW15760   5.540   5.722   6.514
 4954SOL    HW115761   5.577   5.784   6.583
 4954SOL    HW215762   5.516   5.774   6.432
 4955SOL     OW15763   1.619   6.381   1.412
 4955SOL    HW115764   1.564   6.386   1.495
 4955SOL    HW215765   1.558   6.374   1.332
 4956SOL     OW15766   4.428   6.492   4.211
 4956SOL    HW115767   4.513   6.532   4.177
 4956SOL    HW215768   4.352   6.554   4.191
 4957SOL     OW15769   0.963   0.655   4.025
 4957SOL    HW115770   1.062   0.645   4.019
 4957SOL    HW215771   0.924   0.657   3.932
 4958SOL     OW15772   0.020   5.845   0.304
 4958SOL    HW115773   0.050   5.764   0.254
 4958SOL    HW215774   7.019   5.918   0.238
 4959SOL     OW15775   0.690   0.655   1.064
 4959SOL    HW115776   0.725   0.563   1.080
 4959SOL    HW215777   0.646   0.689   1.147
 4960SOL     OW15778   3.983   6.928   4.706
 4960SOL    HW115779   4.009   6.870   4.629
 4960SOL    HW215780   4.055   6.926   4.775
 4961SOL     OW15781   4.833   0.853   5.205
 4961SOL    HW115782   4.895   0.848   5.283
 4961SOL    HW215783   4.740   0.867   5.238
 4962SOL     OW15784   6.854   1.159   0.613
 4962SOL    HW115785   6.840   1.077   0.557
 4962SOL    HW215786   6.948   1.191   0.604
 4963SOL     OW15787   0.413   4.782   1.608
 4963SOL    HW115788   0.345   4.711   1.623
 4963SOL    HW215789   0.374   4.854   1.550
 4964SOL     OW15790   3.443   6.578   3.242
 4964SOL    HW115791   3.461   6.638   3.164
 4964SOL    HW215792   3.405   6.492   3.210
 4965SOL     OW15793   6.749   0.225   4.631
 4965SOL    HW115794   6.704   0.291   4.691
 4965SOL    HW215795   6.684   0.155   4.604
 4966SOL     OW15796   3.321   4.909   3.859
 4966SOL    HW115797   3.389   4.915   3.786
 4966SOL    HW215798   3.230   4.893   3.819
 4967SOL     OW15799   4.082   2.407   5.825
 4967SOL    HW115800   4.062   2.390   5.729
 4967SOL    HW215801   4.041   2.494   5.853
 4968SOL     OW15802   6.049   2.651   5.297
 4968SOL    HW115803   6.090   2.611   5.379
 4968SOL    HW215804   6.098   2.734   5.272
 4969SOL     OW15805   1.323   1.541   1.733
 4969SOL    HW115806   1.304   1.444   1.724
 4969SOL    HW215807   1.369   1.559   1.820
 4970SOL     OW15808   0.908   2.326   5.742
 4970SOL    HW115809   0.874   2.327   5.648
 4970SOL    HW215810   0.855   2.390   5.798
 4971SOL     OW15811   5.389   6.100   3.586
 4971SOL    HW115812   5.456   6.151   3.640
 4971SOL    HW215813   5.304   6.153   3.581
 4972SOL     OW15814   1.619   2.770   6.421
 4972SOL    HW115815   1.655   2.843   6.364
 4972SOL    HW215816   1.538   2.803   6.470
 4973SOL     OW15817   5.215   6.578   2.672
 4973SOL    HW115818   5.245   6.503   2.731
 4973SOL    HW215819   5.213   6.548   2.577
 4974SOL     OW15820   5.284   6.915   2.163
 4974SOL    HW115821   5.298   7.002   2.210
 4974SOL    HW215822   5.300   6.840   2.227
 4975SOL     OW15823   5.550   5.772   0.424
 4975SOL    HW115824   5.541   5.759   0.523
 4975SOL    HW215825   5.642   5.746   0.396
 4976SOL     OW15826   4.141   0.807   5.212
 4976SOL    HW115827   4.079   0.772   5.143
 4976SOL    HW215828   4.191   0.732   5.255
 4977SOL     OW15829   3.709   3.887   0.520
 4977SOL    HW115830   3.614   3.879   0.490
 4977SOL    HW215831   3.717   3.856   0.614
 4978SOL     OW15832   5.681   2.924   6.279
 4978SOL    HW115833   5.584   2.909   6.297
 4978SOL    HW215834   5.699   3.022   6.271
 4979SOL     OW15835   1.491   0.903   5.659
 4979SOL    HW115836   1.544   0.900   5.744
 4979SOL    HW215837   1.436   0.820   5.651
 4980SOL     OW15838   2.480   5.369   2.154
 4980SOL    HW115839   2.511   5.382   2.248
 4980SOL    HW215840   2.395   5.419   2.139
 4981SOL     OW15841   4.308   6.774   5.307
 4981SOL    HW115842   4.319   6.676   5.289
 4981SOL    HW215843   4.361   6.799   5.389
 4982SOL     OW15844   2.398   3.338   0.335
 4982SOL    HW115845   2.345   3.323   0.252
 4982SOL    HW215846   2.355   3.289   0.411
 4983SOL     OW15847   5.197   3.408   4.298
 4983SOL    HW115848   5.225   3.412   4.202
 4983SOL    HW215849   5.190   3.501   4.334
 4984SOL     OW15850   4.745   4.002   2.708
 4984SOL    HW115851   4.650   4.021   2.684
 4984SOL    HW215852   4.804   4.023   2.630
 4985SOL     OW15853   5.606   5.078   2.502
 4985SOL    HW115854   5.641   5.057   2.593
 4985SOL    HW215855   5.520   5.129   2.511
 4986SOL     OW15856   4.555   4.943   2.170
 4986SOL    HW115857   4.505   4.978   2.249
 4986SOL    HW215858   4.538   4.845   2.159
 4987SOL     OW15859   6.872   3.359   1.523
 4987SOL    HW115860   6.922   3.364   1.436
 4987SOL    HW215861   6.774   3.369   1.505
 4988SOL     OW15862   0.496   2.107   4.280
 4988SOL    HW115863   0.477   2.194   4.326
 4988SOL    HW215864   0.533   2.041   4.346
 4989SOL     OW15865   0.840   0.941   0.385
 4989SOL    HW115866   0.825   0.945   0.484
 4989SOL    HW215867   0.752   0.938   0.338
 4990SOL     OW15868   1.010   2.295   5.127
 4990SOL    HW115869   1.057   2.212   5.156
 4990SOL    HW215870   1.053   2.374   5.172
 4991SOL     OW15871   1.358   2.964   4.347
 4991SOL    HW115872   1.305   2.909   4.283
 4991SOL    HW215873   1.335   2.939   4.441
 4992SOL     OW15874   3.514   0.400   6.010
 4992SOL    HW115875   3.478   0.351   5.930
 4992SOL    HW215876   3.568   0.478   5.979
 4993SOL     OW15877   2.973   6.101   3.837
 4993SOL    HW115878   3.011   6.062   3.754
 4993SOL    HW215879   2.985   6.037   3.913
 4994SOL     OW15880   7.015   6.736   2.543
 4994SOL    HW115881   7.002   6.637   2.549
 4994SOL    HW215882   0.036   6.759   2.455
 4995SOL     OW15883   5.812   2.830   6.088
 4995SOL    HW115884   5.796   2.735   6.114
 4995SOL    HW215885   5.762   2.891   6.149
 4996SOL     OW15886   1.057   1.293   3.724
 4996SOL    HW115887   1.035   1.282   3.626
 4996SOL    HW215888   1.069   1.202   3.765
 4997SOL     OW15889   0.609   2.492   3.562
 4997SOL    HW115890   0.553   2.574   3.572
 4997SOL    HW215891   0.567   2.416   3.612
 4998SOL     OW15892   1.842   5.462   4.620
 4998SOL    HW115893   1.929   5.451   4.668
 4998SOL    HW215894   1.847   5.541   4.559
 4999SOL     OW15895   5.906   4.692   1.378
 4999SOL    HW115896   5.819   4.731   1.347
 4999SOL    HW215897   5.981   4.740   1.334
 5000SOL     OW15898   0.259   6.211   4.435
 5000SOL    HW115899   0.294   6.288   4.381
 5000SOL    HW215900   0.295   6.216   4.528
 5001SOL     OW15901   4.425   4.314   5.858
 5001SOL    HW115902   4.450   4.336   5.764
 5001SOL    HW215903   4.471   4.378   5.921
 5002SOL     OW15904   2.257   1.203   2.179
 5002SOL    HW115905   2.342   1.234   2.137
 5002SOL    HW215906   2.260   1.103   2.190
 5003SOL     OW15907   6.610   5.863   2.962
 5003SOL    HW115908   6.527   5.905   2.999
 5003SOL    HW215909   6.687   5.880   3.023
 5004SOL     OW15910   3.350   5.810   0.056
 5004SOL    HW115911   3.258   5.848   0.051
 5004SOL    HW215912   3.375   5.771   6.989
 5005SOL     OW15913   4.518   2.037   6.931
 5005SOL    HW115914   4.549   2.122   6.975
 5005SOL    HW215915   4.496   2.056   6.835
 5006SOL     OW15916   5.677   6.065   4.081
 5006SOL    HW115917   5.763   6.107   4.052
 5006SOL    HW215918   5.697   5.992   4.147
 5007SOL     OW15919   3.974   1.475   5.369
 5007SOL    HW115920   3.942   1.567   5.344
 5007SOL    HW215921   3.927   1.444   5.451
 5008SOL     OW15922   6.357   1.234   3.650
 5008SOL    HW115923   6.386   1.298   3.578
 5008SOL    HW215924   6.386   1.269   3.739
 5009SOL     OW15925   1.444   6.540   3.218
 5009SOL    HW115926   1.507   6.589   3.279
 5009SOL    HW215927   1.357   6.526   3.265
 5010SOL     OW15928   3.661   3.218   4.518
 5010SOL    HW115929   3.642   3.316   4.512
 5010SOL    HW215930   3.692   3.184   4.429
 5011SOL     OW15931   1.190   2.898   2.621
 5011SOL    HW115932   1.218   2.891   2.717
 5011SOL    HW215933   1.222   2.984   2.582
 5012SOL     OW15934   6.387   2.400   6.742
 5012SOL    HW115935   6.447   2.345   6.799
 5012SOL    HW215936   6.336   2.341   6.680
 5013SOL     OW15937   4.114   1.184   6.556
 5013SOL    HW115938   4.080   1.264   6.605
 5013SOL    HW215939   4.038   1.120   6.540
 5014SOL     OW15940   6.054   6.510   0.147
 5014SOL    HW115941   5.999   6.580   0.100
 5014SOL    HW215942   6.079   6.438   0.082
 5015SOL     OW15943   4.610   2.437   3.473
 5015SOL    HW115944   4.684   2.433   3.406
 5015SOL    HW215945   4.631   2.505   3.543
 5016SOL     OW15946   1.935   0.028   3.183
 5016SOL    HW115947   1.950   7.011   3.092
 5016SOL    HW215948   1.919   0.126   3.175
 5017SOL     OW15949   2.363   2.814   1.424
 5017SOL    HW115950   2.349   2.733   1.481
 5017SOL    HW215951   2.310   2.890   1.461
 5018SOL     OW15952   6.759   5.482   3.850
 5018SOL    HW115953   6.693   5.481   3.925
 5018SOL    HW215954   6.800   5.391   3.840
 5019SOL     OW15955   1.838   4.642   6.402
 5019SOL    HW115956   1.797   4.551   6.392
 5019SOL    HW215957   1.810   4.681   6.490
 5020SOL     OW15958   5.073   5.612   6.206
 5020SOL    HW115959   5.039   5.704   6.189
 5020SOL    HW215960   5.170   5.617   6.232
 5021SOL     OW15961   1.509   4.511   6.497
 5021SOL    HW115962   1.488   4.609   6.491
 5021SOL    HW215963   1.593   4.492   6.445
 5022SOL     OW15964   1.012   5.565   0.383
 5022SOL    HW115965   1.016   5.661   0.410
 5022SOL    HW215966   1.091   5.516   0.423
 5023SOL     OW15967   6.190   3.272   2.365
 5023SOL    HW115968   6.110   3.212   2.363
 5023SOL    HW215969   6.168   3.354   2.419
 5024SOL     OW15970   6.224   3.931   4.632
 5024SOL    HW115971   6.213   3.848   4.577
 5024SOL    HW215972   6.219   3.908   4.729
 5025SOL     OW15973   5.934   1.109   3.460
 5025SOL    HW115974   5.926   1.075   3.367
 5025SOL    HW215975   6.026   1.146   3.475
 5026SOL     OW15976   0.974   6.475   4.263
 5026SOL    HW115977   0.984   6.404   4.333
 5026SOL    HW215978   1.030   6.453   4.184
 5027SOL     OW15979   0.928   6.825   3.766
 5027SOL    HW115980   0.884   6.793   3.849
 5027SOL    HW215981   1.000   6.761   3.739
 5028SOL     OW15982   0.314   0.282   2.826
 5028SOL    HW115983   0.397   0.302   2.774
 5028SOL    HW215984   0.298   0.184   2.828
 5029SOL     OW15985   0.066   1.526   1.964
 5029SOL    HW115986   0.125   1.489   1.892
 5029SOL    HW215987   0.089   1.622   1.980
 5030SOL     OW15988   1.532   5.956   6.821
 5030SOL    HW115989   1.572   6.027   6.763
 5030SOL    HW215990   1.602   5.919   6.881
 5031SOL     OW15991   5.404   0.212   4.916
 5031SOL    HW115992   5.431   0.256   5.001
 5031SOL    HW215993   5.406   0.113   4.927
 5032SOL     OW15994   1.810   5.556   0.985
 5032SOL    HW115995   1.718   5.572   1.022
 5032SOL    HW215996   1.806   5.479   0.922
 5033SOL     OW15997   1.861   4.314   5.570
 5033SOL    HW115998   1.909   4.381   5.626
 5033SOL    HW215999   1.899   4.314   5.478
 5034SOL     OW16000   6.749   3.525   1.161
 5034SOL    HW116001   6.801   3.588   1.219
 5034SOL    HW216002   6.693   3.465   1.219
 5035SOL     OW16003   5.835   4.077   0.883
 5035SOL    HW116004   5.860   4.021   0.804
 5035SOL    HW216005   5.782   4.021   0.947
 5036SOL     OW16006   1.251   0.347   2.042
 5036SOL    HW116007   1.217   0.363   2.135
 5036SOL    HW216008   1.346   0.315   2.047
 5037SOL     OW16009   4.593   2.169   3.560
 5037SOL    HW116010   4.607   2.123   3.472
 5037SOL    HW216011   4.595   2.268   3.547
 5038SOL     OW16012   2.829   6.367   5.677
 5038SOL    HW116013   2.807   6.345   5.582
 5038SOL    HW216014   2.927   6.354   5.692
 5039SOL     OW16015   1.817   1.574   4.838
 5039SOL    HW116016   1.877   1.559   4.760
 5039SOL    HW216017   1.843   1.660   4.884
 5040SOL     OW16018   2.744   3.519   5.819
 5040SOL    HW116019   2.763   3.615   5.838
 5040SOL    HW216020   2.648   3.499   5.840
 5041SOL     OW16021   1.454   4.562   0.468
 5041SOL    HW116022   1.468   4.637   0.532
 5041SOL    HW216023   1.394   4.494   0.510
 5042SOL     OW16024   5.724   2.524   6.123
 5042SOL    HW116025   5.677   2.453   6.176
 5042SOL    HW216026   5.812   2.489   6.091
 5043SOL     OW16027   4.290   0.607   3.826
 5043SOL    HW116028   4.258   0.539   3.761
 5043SOL    HW216029   4.325   0.687   3.777
 5044SOL     OW16030   6.690   4.625   3.344
 5044SOL    HW116031   6.755   4.552   3.365
 5044SOL    HW216032   6.626   4.593   3.274
 5045SOL     OW16033   6.172   2.710   6.475
 5045SOL    HW116034   6.231   2.787   6.454
 5045SOL    HW216035   6.119   2.730   6.558
 5046SOL     OW16036   3.115   3.039   4.818
 5046SOL    HW116037   3.039   2.987   4.778
 5046SOL    HW216038   3.196   2.980   4.824
 5047SOL     OW16039   0.839   0.980   2.525
 5047SOL    HW116040   0.752   1.011   2.563
 5047SOL    HW216041   0.876   1.050   2.464
 5048SOL     OW16042   5.819   2.809   1.937
 5048SOL    HW116043   5.879   2.730   1.947
 5048SOL    HW216044   5.839   2.856   1.851
 5049SOL     OW16045   1.390   2.579   2.468
 5049SOL    HW116046   1.443   2.663   2.480
 5049SOL    HW216047   1.350   2.578   2.376
 5050SOL     OW16048   0.821   3.458   1.497
 5050SOL    HW116049   0.745   3.494   1.442
 5050SOL    HW216050   0.831   3.512   1.580
 5051SOL     OW16051   2.824   5.298   0.291
 5051SOL    HW116052   2.918   5.322   0.268
 5051SOL    HW216053   2.785   5.239   0.220
 5052SOL     OW16054   5.432   4.761   1.172
 5052SOL    HW116055   5.465   4.733   1.082
 5052SOL    HW216056   5.476   4.846   1.199
 5053SOL     OW16057   2.365   4.647   0.374
 5053SOL    HW116058   2.283   4.686   0.417
 5053SOL    HW216059   2.380   4.690   0.285
 5054SOL     OW16060   3.971   5.679   4.755
 5054SOL    HW116061   3.910   5.662   4.833
 5054SOL    HW216062   3.950   5.768   4.715
 5055SOL     OW16063   1.447   1.889   4.578
 5055SOL    HW116064   1.368   1.838   4.543
 5055SOL    HW216065   1.518   1.825   4.607
 5056SOL     OW16066   1.607   3.051   5.414
 5056SOL    HW116067   1.604   3.092   5.505
 5056SOL    HW216068   1.635   2.955   5.422
 5057SOL     OW16069   0.540   4.653   2.525
 5057SOL    HW116070   0.453   4.666   2.572
 5057SOL    HW216071   0.563   4.556   2.521
 5058SOL     OW16072   3.716   4.260   6.620
 5058SOL    HW116073   3.766   4.176   6.600
 5058SOL    HW216074   3.654   4.245   6.697
 5059SOL     OW16075   3.441   1.540   3.568
 5059SOL    HW116076   3.358   1.488   3.591
 5059SOL    HW216077   3.469   1.595   3.647
 5060SOL     OW16078   0.439   3.106   5.995
 5060SOL    HW116079   0.444   3.197   5.954
 5060SOL    HW216080   0.507   3.097   6.067
 5061SOL     OW16081   3.734   2.783   5.663
 5061SOL    HW116082   3.805   2.724   5.702
 5061SOL    HW216083   3.772   2.875   5.648
 5062SOL     OW16084   5.025   1.499   3.294
 5062SOL    HW116085   5.035   1.507   3.393
 5062SOL    HW216086   5.004   1.589   3.256
 5063SOL     OW16087   0.766   0.592   2.631
 5063SOL    HW116088   0.740   0.496   2.617
 5063SOL    HW216089   0.865   0.601   2.623
 5064SOL     OW16090   4.681   5.730   1.208
 5064SOL    HW116091   4.668   5.640   1.250
 5064SOL    HW216092   4.600   5.786   1.222
 5065SOL     OW16093   2.239   0.411   2.506
 5065SOL    HW116094   2.314   0.350   2.530
 5065SOL    HW216095   2.235   0.486   2.572
 5066SOL     OW16096   2.745   4.794   1.846
 5066SOL    HW116097   2.708   4.855   1.916
 5066SOL    HW216098   2.804   4.726   1.890
 5067SOL     OW16099   4.581   2.959   0.568
 5067SOL    HW116100   4.543   2.892   0.631
 5067SOL    HW216101   4.673   2.933   0.542
 5068SOL     OW16102   2.783   6.235   0.685
 5068SOL    HW116103   2.740   6.145   0.675
 5068SOL    HW216104   2.741   6.299   0.621
 5069SOL     OW16105   3.243   4.789   5.649
 5069SOL    HW116106   3.305   4.721   5.688
 5069SOL    HW216107   3.165   4.802   5.710
 5070SOL     OW16108   6.207   3.441   3.570
 5070SOL    HW116109   6.143   3.494   3.515
 5070SOL    HW216110   6.286   3.498   3.594
 5071SOL     OW16111   2.772   0.692   4.381
 5071SOL    HW116112   2.775   0.639   4.296
 5071SOL    HW216113   2.727   0.638   4.453
 5072SOL     OW16114   0.525   1.435   0.454
 5072SOL    HW116115   0.432   1.412   0.482
 5072SOL    HW216116   0.522   1.488   0.369
 5073SOL     OW16117   2.424   0.953   2.508
 5073SOL    HW116118   2.350   0.958   2.441
 5073SOL    HW216119   2.508   0.921   2.464
 5074SOL     OW16120   3.430   2.357   1.720
 5074SOL    HW116121   3.368   2.280   1.737
 5074SOL    HW216122   3.520   2.337   1.759
 5075SOL     OW16123   1.026   3.640   0.161
 5075SOL    HW116124   1.014   3.608   0.255
 5075SOL    HW216125   1.074   3.728   0.162
 5076SOL     OW16126   5.709   0.023   6.419
 5076SOL    HW116127   5.716   0.095   6.489
 5076SOL    HW216128   5.613   7.019   6.408
 5077SOL     OW16129   0.887   4.797   3.874
 5077SOL    HW116130   0.795   4.758   3.880
 5077SOL    HW216131   0.937   4.775   3.958
 5078SOL     OW16132   0.894   1.476   4.051
 5078SOL    HW116133   0.854   1.459   3.961
 5078SOL    HW216134   0.871   1.569   4.080
 5079SOL     OW16135   1.279   2.733   5.465
 5079SOL    HW116136   1.331   2.794   5.524
 5079SOL    HW216137   1.222   2.673   5.521
 5080SOL     OW16138   5.800   5.638   6.510
 5080SOL    HW116139   5.704   5.665   6.503
 5080SOL    HW216140   5.851   5.710   6.558
 5081SOL     OW16141   3.367   5.010   5.631
 5081SOL    HW116142   3.300   4.938   5.613
 5081SOL    HW216143   3.439   5.007   5.561
 5082SOL     OW16144   5.400   5.951   2.306
 5082SOL    HW116145   5.400   5.899   2.391
 5082SOL    HW216146   5.491   5.948   2.265
 5083SOL     OW16147   1.710   0.218   3.369
 5083SOL    HW116148   1.779   0.243   3.301
 5083SOL    HW216149   1.655   0.298   3.392
 5084SOL     OW16150   1.728   4.843   5.429
 5084SOL    HW116151   1.813   4.844   5.481
 5084SOL    HW216152   1.735   4.778   5.354
 5085SOL     OW16153   0.452   4.098   5.950
 5085SOL    HW116154   0.374   4.149   5.986
 5085SOL    HW216155   0.466   4.122   5.854
 5086SOL     OW16156   2.291   5.696   2.515
 5086SOL    HW116157   2.301   5.790   2.480
 5086SOL    HW216158   2.223   5.695   2.588
 5087SOL     OW16159   6.755   4.994   1.932
 5087SOL    HW116160   6.826   4.924   1.930
 5087SOL    HW216161   6.697   4.985   1.851
 5088SOL     OW16162   5.252   6.168   1.983
 5088SOL    HW116163   5.324   6.215   2.034
 5088SOL    HW216164   5.294   6.111   1.912
 5089SOL     OW16165   5.596   4.995   5.474
 5089SOL    HW116166   5.544   4.913   5.497
 5089SOL    HW216167   5.690   4.986   5.508
 5090SOL     OW16168   2.949   0.128   5.003
 5090SOL    HW116169   2.986   0.106   5.093
 5090SOL    HW216170   3.000   0.204   4.963
 5091SOL     OW16171   6.374   6.910   0.110
 5091SOL    HW116172   6.365   6.913   0.010
 5091SOL    HW216173   6.352   6.818   0.142
 5092SOL     OW16174   2.983   3.331   3.995
 5092SOL    HW116175   2.994   3.424   4.031
 5092SOL    HW216176   3.044   3.269   4.043
 5093SOL     OW16177   2.077   2.040   3.128
 5093SOL    HW116178   2.141   2.006   3.059
 5093SOL    HW216179   2.128   2.086   3.201
 5094SOL     OW16180   2.466   5.419   5.582
 5094SOL    HW116181   2.418   5.447   5.499
 5094SOL    HW216182   2.549   5.474   5.592
 5095SOL     OW16183   6.491   1.375   3.191
 5095SOL    HW116184   6.514   1.461   3.144
 5095SOL    HW216185   6.485   1.302   3.123
 5096SOL     OW16186   5.636   3.139   5.274
 5096SOL    HW116187   5.633   3.101   5.182
 5096SOL    HW216188   5.566   3.210   5.283
 5097SOL     OW16189   1.332   0.416   6.523
 5097SOL    HW116190   1.356   0.513   6.521
 5097SOL    HW216191   1.235   0.407   6.546
 5098SOL     OW16192   3.899   2.338   1.344
 5098SOL    HW116193   3.955   2.354   1.262
 5098SOL    HW216194   3.907   2.417   1.405
 5099SOL     OW16195   1.009   0.461   1.713
 5099SOL    HW116196   1.000   0.522   1.792
 5099SOL    HW216197   0.919   0.442   1.675
 5100SOL     OW16198   5.823   4.722   2.505
 5100SOL    HW116199   5.758   4.665   2.454
 5100SOL    HW216200   5.904   4.668   2.526
 5101SOL     OW16201   3.948   6.930   6.076
 5101SOL    HW116202   3.976   7.000   6.141
 5101SOL    HW216203   3.903   6.974   5.998
 5102SOL     OW16204   4.838   4.585   4.627
 5102SOL    HW116205   4.919   4.527   4.617
 5102SOL    HW216206   4.758   4.538   4.588
 5103SOL     OW16207   1.175   1.219   6.470
 5103SOL    HW116208   1.170   1.191   6.374
 5103SOL    HW216209   1.146   1.143   6.528
 5104SOL     OW16210   3.550   3.564   1.643
 5104SOL    HW116211   3.469   3.506   1.641
 5104SOL    HW216212   3.565   3.603   1.552
 5105SOL     OW16213   3.991   3.996   6.288
 5105SOL    HW116214   4.023   4.003   6.193
 5105SOL    HW216215   3.999   3.902   6.319
 5106SOL     OW16216   4.285   2.532   0.672
 5106SOL    HW116217   4.250   2.576   0.755
 5106SOL    HW216218   4.377   2.497   0.689
 5107SOL     OW16219   4.654   3.507   0.378
 5107SOL    HW116220   4.614   3.425   0.420
 5107SOL    HW216221   4.591   3.584   0.389
 5108SOL     OW16222   3.995   4.961   6.988
 5108SOL    HW116223   4.036   4.871   6.999
 5108SOL    HW216224   3.940   4.984   0.047
 5109SOL     OW16225   1.051   2.880   1.398
 5109SOL    HW116226   1.092   2.802   1.350
 5109SOL    HW216227   1.072   2.874   1.495
 5110SOL     OW16228   4.928   0.583   6.093
 5110SOL    HW116229   4.879   0.623   6.171
 5110SOL    HW216230   4.919   0.643   6.014
 5111SOL     OW16231   0.814   6.628   4.968
 5111SOL    HW116232   0.883   6.556   4.964
 5111SOL    HW216233   0.858   6.716   4.988
 5112SOL     OW16234   0.184   7.002   2.639
 5112SOL    HW116235   0.099   0.031   2.653
 5112SOL    HW216236   0.229   6.988   2.727
 5113SOL     OW16237   2.008   4.152   0.215
 5113SOL    HW116238   2.021   4.241   0.171
 5113SOL    HW216239   2.046   4.080   0.156
 5114SOL     OW16240   4.525   5.472   0.660
 5114SOL    HW116241   4.488   5.449   0.571
 5114SOL    HW216242   4.483   5.556   0.693
 5115SOL     OW16243   2.219   3.607   1.155
 5115SOL    HW116244   2.147   3.570   1.096
 5115SOL    HW216245   2.250   3.695   1.119
 5116SOL     OW16246   1.706   6.752   6.561
 5116SOL    HW116247   1.713   6.779   6.657
 5116SOL    HW216248   1.756   6.666   6.548
 5117SOL     OW16249   1.329   2.093   3.917
 5117SOL    HW116250   1.353   2.067   4.010
 5117SOL    HW216251   1.328   2.012   3.859
 5118SOL     OW16252   5.184   6.221   6.444
 5118SOL    HW116253   5.240   6.294   6.483
 5118SOL    HW216254   5.112   6.195   6.508
 5119SOL     OW16255   5.183   1.709   0.644
 5119SOL    HW116256   5.248   1.769   0.597
 5119SOL    HW216257   5.099   1.702   0.591
 5120SOL     OW16258   5.246   6.901   5.636
 5120SOL    HW116259   5.254   6.815   5.585
 5120SOL    HW216260   5.281   6.889   5.729
 5121SOL     OW16261   1.644   4.040   6.706
 5121SOL    HW116262   1.626   4.030   6.608
 5121SOL    HW216263   1.725   4.097   6.720
 5122SOL     OW16264   5.081   5.169   4.172
 5122SOL    HW116265   5.116   5.164   4.266
 5122SOL    HW216266   4.983   5.148   4.173
 5123SOL     OW16267   5.498   2.911   1.902
 5123SOL    HW116268   5.551   2.827   1.889
 5123SOL    HW216269   5.408   2.900   1.859
 5124SOL     OW16270   2.140   6.019   3.904
 5124SOL    HW116271   2.044   6.044   3.910
 5124SOL    HW216272   2.185   6.075   3.833
 5125SOL     OW16273   0.104   1.699   3.766
 5125SOL    HW116274   0.116   1.671   3.670
 5125SOL    HW216275   0.030   1.645   3.807
 5126SOL     OW16276   2.168   0.239   0.222
 5126SOL    HW116277   2.238   0.221   0.291
 5126SOL    HW216278   2.140   0.152   0.181
 5127SOL     OW16279   1.651   5.280   6.853
 5127SOL    HW116280   1.739   5.328   6.852
 5127SOL    HW216281   1.630   5.247   6.760
 5128SOL     OW16282   6.454   6.595   1.578
 5128SOL    HW116283   6.411   6.643   1.502
 5128SOL    HW216284   6.419   6.502   1.583
 5129SOL     OW16285   5.639   6.701   1.274
 5129SOL    HW116286   5.705   6.729   1.205
 5129SOL    HW216287   5.601   6.782   1.319
 5130SOL     OW16288   6.699   5.003   3.150
 5130SOL    HW116289   6.740   4.940   3.084
 5130SOL    HW216290   6.772   5.046   3.204
 5131SOL     OW16291   2.450   2.536   3.157
 5131SOL    HW116292   2.412   2.622   3.125
 5131SOL    HW216293   2.506   2.495   3.085
 5132SOL     OW16294   2.780   5.690   5.107
 5132SOL    HW116295   2.753   5.699   5.012
 5132SOL    HW216296   2.877   5.668   5.113
 5133SOL     OW16297   3.862   6.213   6.329
 5133SOL    HW116298   3.911   6.290   6.288
 5133SOL    HW216299   3.863   6.136   6.265
 5134SOL     OW16300   0.276   3.951   0.527
 5134SOL    HW116301   0.301   3.876   0.465
 5134SOL    HW216302   0.228   4.022   0.476
 5135SOL     OW16303   6.666   1.757   4.655
 5135SOL    HW116304   6.568   1.742   4.643
 5135SOL    HW216305   6.706   1.785   4.568
 5136SOL     OW16306   4.081   1.661   3.933
 5136SOL    HW116307   4.057   1.596   3.860
 5136SOL    HW216308   4.151   1.621   3.992
 5137SOL     OW16309   3.477   4.732   6.729
 5137SOL    HW116310   3.564   4.686   6.711
 5137SOL    HW216311   3.472   4.816   6.676
 5138SOL     OW16312   2.332   3.655   5.697
 5138SOL    HW116313   2.359   3.687   5.606
 5138SOL    HW216314   2.408   3.604   5.738
 5139SOL     OW16315   0.540   6.987   3.692
 5139SOL    HW116316   0.470   6.968   3.761
 5139SOL    HW216317   0.568   6.901   3.649
 5140SOL     OW16318   3.392   2.811   1.202
 5140SOL    HW116319   3.364   2.871   1.278
 5140SOL    HW216320   3.406   2.718   1.237
 5141SOL     OW16321   6.054   3.478   6.863
 5141SOL    HW116322   6.085   3.406   6.801
 5141SOL    HW216323   5.956   3.468   6.878
 5142SOL     OW16324   5.665   3.603   4.441
 5142SOL    HW116325   5.631   3.622   4.349
 5142SOL    HW216326   5.653   3.505   4.461
 5143SOL     OW16327   6.872   5.160   4.067
 5143SOL    HW116328   6.874   5.165   3.967
 5143SOL    HW216329   6.956   5.199   4.104
 5144SOL     OW16330   1.313   1.299   5.445
 5144SOL    HW116331   1.363   1.302   5.531
 5144SOL    HW216332   1.376   1.315   5.369
 5145SOL     OW16333   2.621   5.169   5.863
 5145SOL    HW116334   2.631   5.154   5.961
 5145SOL    HW216335   2.662   5.257   5.838
 5146SOL     OW16336   2.727   5.089   0.120
 5146SOL    HW116337   2.729   4.994   0.151
 5146SOL    HW216338   2.634   5.126   0.131
 5147SOL     OW16339   5.876   4.633   6.671
 5147SOL    HW116340   5.956   4.687   6.695
 5147SOL    HW216341   5.824   4.611   6.754
 5148SOL     OW16342   0.478   6.050   1.493
 5148SOL    HW116343   0.397   6.101   1.465
 5148SOL    HW216344   0.472   5.956   1.459
 5149SOL     OW16345   6.951   1.363   4.362
 5149SOL    HW116346   6.890   1.427   4.408
 5149SOL    HW216347   6.898   1.305   4.299
 5150SOL     OW16348   1.482   4.725   4.314
 5150SOL    HW116349   1.527   4.769   4.391
 5150SOL    HW216350   1.551   4.697   4.247
 5151SOL     OW16351   4.357   0.915   6.604
 5151SOL    HW116352   4.444   0.898   6.651
 5151SOL    HW216353   4.358   1.006   6.564
 5152SOL     OW16354   0.755   4.966   6.850
 5152SOL    HW116355   0.707   4.880   6.829
 5152SOL    HW216356   0.835   4.947   6.906
 5153SOL     OW16357   1.782   2.084   0.762
 5153SOL    HW116358   1.865   2.083   0.706
 5153SOL    HW216359   1.797   2.141   0.843
 5154SOL     OW16360   1.609   2.837   4.657
 5154SOL    HW116361   1.684   2.789   4.611
 5154SOL    HW216362   1.641   2.928   4.684
 5155SOL     OW16363   3.033   0.434   2.548
 5155SOL    HW116364   3.079   0.355   2.507
 5155SOL    HW216365   3.008   0.499   2.476
 5156SOL     OW16366   5.862   2.648   5.095
 5156SOL    HW116367   5.930   2.634   5.167
 5156SOL    HW216368   5.877   2.582   5.022
 5157SOL     OW16369   5.198   2.979   3.489
 5157SOL    HW116370   5.205   3.071   3.451
 5157SOL    HW216371   5.272   2.922   3.452
 5158SOL     OW16372   3.825   1.502   1.516
 5158SOL    HW116373   3.909   1.511   1.462
 5158SOL    HW216374   3.843   1.447   1.597
 5159SOL     OW16375   1.846   3.037   3.926
 5159SOL    HW116376   1.897   2.952   3.911
 5159SOL    HW216377   1.754   3.015   3.959
 5160SOL     OW16378   2.157   3.244   4.237
 5160SOL    HW116379   2.164   3.314   4.166
 5160SOL    HW216380   2.176   3.285   4.326
 5161SOL     OW16381   1.133   3.265   5.562
 5161SOL    HW116382   1.142   3.195   5.491
 5161SOL    HW216383   1.142   3.355   5.521
 5162SOL     OW16384   6.758   6.443   4.142
 5162SOL    HW116385   6.774   6.410   4.049
 5162SOL    HW216386   6.770   6.367   4.206
 5163SOL     OW16387   5.651   3.733   0.805
 5163SOL    HW116388   5.645   3.761   0.709
 5163SOL    HW216389   5.746   3.738   0.835
 5164SOL     OW16390   5.646   3.899   5.992
 5164SOL    HW116391   5.715   3.903   6.065
 5164SOL    HW216392   5.594   3.814   6.001
 5165SOL     OW16393   6.348   4.325   4.202
 5165SOL    HW116394   6.438   4.292   4.174
 5165SOL    HW216395   6.355   4.421   4.229
 5166SOL     OW16396   1.521   6.371   2.196
 5166SOL    HW116397   1.425   6.400   2.199
 5166SOL    HW216398   1.563   6.383   2.286
 5167SOL     OW16399   0.531   6.226   5.947
 5167SOL    HW116400   0.600   6.220   6.020
 5167SOL    HW216401   0.529   6.319   5.911
 5168SOL     OW16402   4.079   2.238   2.861
 5168SOL    HW116403   4.057   2.235   2.763
 5168SOL    HW216404   4.128   2.323   2.881
 5169SOL     OW16405   3.696   4.248   5.998
 5169SOL    HW116406   3.701   4.151   5.973
 5169SOL    HW216407   3.651   4.257   6.086
 5170SOL     OW16408   5.477   4.022   4.969
 5170SOL    HW116409   5.522   3.936   4.945
 5170SOL    HW216410   5.526   4.099   4.928
 5171SOL     OW16411   2.411   4.568   4.423
 5171SOL    HW116412   2.438   4.523   4.508
 5171SOL    HW216413   2.493   4.598   4.374
 5172SOL     OW16414   0.942   5.266   1.803
 5172SOL    HW116415   1.022   5.282   1.745
 5172SOL    HW216416   0.967   5.203   1.877
 5173SOL     OW16417   5.554   3.363   6.007
 5173SOL    HW116418   5.463   3.387   6.042
 5173SOL    HW216419   5.544   3.309   5.923
 5174SOL     OW16420   1.181   4.523   6.130
 5174SOL    HW116421   1.099   4.508   6.074
 5174SOL    HW216422   1.262   4.501   6.076
 5175SOL     OW16423   0.359   4.868   6.741
 5175SOL    HW116424   0.398   4.938   6.680
 5175SOL    HW216425   0.376   4.777   6.701
 5176SOL     OW16426   5.624   3.524   0.418
 5176SOL    HW116427   5.607   3.611   0.371
 5176SOL    HW216428   5.694   3.538   0.487
 5177SOL     OW16429   5.079   0.081   6.323
 5177SOL    HW116430   5.003   0.112   6.380
 5177SOL    HW216431   5.043   0.034   6.242
 5178SOL     OW16432   2.507   2.587   1.930
 5178SOL    HW116433   2.430   2.523   1.940
 5178SOL    HW216434   2.473   2.677   1.904
 5179SOL     OW16435   2.935   6.135   5.834
 5179SOL    HW116436   2.838   6.139   5.810
 5179SOL    HW216437   2.972   6.047   5.805
 5180SOL     OW16438   2.844   1.864   1.451
 5180SOL    HW116439   2.750   1.841   1.426
 5180SOL    HW216440   2.845   1.922   1.532
 5181SOL     OW16441   4.533   6.688   2.802
 5181SOL    HW116442   4.534   6.641   2.890
 5181SOL    HW216443   4.438   6.705   2.774
 5182SOL     OW16444   4.942   4.523   1.824
 5182SOL    HW116445   4.870   4.516   1.893
 5182SOL    HW216446   4.986   4.613   1.831
 5183SOL     OW16447   4.331   0.247   2.293
 5183SOL    HW116448   4.415   0.194   2.283
 5183SOL    HW216449   4.330   0.321   2.226
 5184SOL     OW16450   1.078   0.993   3.146
 5184SOL    HW116451   1.017   1.071   3.137
 5184SOL    HW216452   1.034   0.922   3.201
 5185SOL     OW16453   3.832   0.651   2.265
 5185SOL    HW116454   3.767   0.656   2.340
 5185SOL    HW216455   3.891   0.731   2.265
 5186SOL     OW16456   6.206   4.349   0.458
 5186SOL    HW116457   6.210   4.339   0.557
 5186SOL    HW216458   6.113   4.330   0.426
 5187SOL     OW16459   5.155   1.876   3.908
 5187SOL    HW116460   5.055   1.875   3.919
 5187SOL    HW216461   5.177   1.862   3.812
 5188SOL     OW16462   1.167   3.950   5.641
 5188SOL    HW116463   1.073   3.951   5.675
 5188SOL    HW216464   1.229   3.925   5.716
 5189SOL     OW16465   4.685   5.577   6.487
 5189SOL    HW116466   4.600   5.524   6.500
 5189SOL    HW216467   4.671   5.671   6.518
 5190SOL     OW16468   1.408   2.243   3.603
 5190SOL    HW116469   1.369   2.269   3.691
 5190SOL    HW216470   1.501   2.209   3.615
 5191SOL     OW16471   3.845   0.015   1.705
 5191SOL    HW116472   3.824   0.092   1.766
 5191SOL    HW216473   3.901   6.969   1.755
 5192SOL     OW16474   5.968   5.482   2.944
 5192SOL    HW116475   5.888   5.524   2.901
 5192SOL    HW216476   6.011   5.548   3.005
 5193SOL     OW16477   4.841   3.819   2.880
 5193SOL    HW116478   4.883   3.745   2.827
 5193SOL    HW216479   4.817   3.894   2.819
 5194SOL     OW16480   5.951   0.566   5.746
 5194SOL    HW116481   6.018   0.626   5.790
 5194SOL    HW216482   5.900   0.516   5.816
 5195SOL     OW16483   7.002   6.057   5.765
 5195SOL    HW116484   6.933   5.985   5.779
 5195SOL    HW216485   6.956   6.147   5.765
 5196SOL     OW16486   0.185   3.975   2.174
 5196SOL    HW116487   0.092   3.957   2.207
 5196SOL    HW216488   0.180   4.019   2.084
 5197SOL     OW16489   3.079   5.878   4.673
 5197SOL    HW116490   3.045   5.817   4.601
 5197SOL    HW216491   3.007   5.893   4.741
 5198SOL     OW16492   4.495   6.917   5.155
 5198SOL    HW116493   4.429   6.865   5.209
 5198SOL    HW216494   4.498   6.880   5.062
 5199SOL     OW16495   1.456   4.785   1.754
 5199SOL    HW116496   1.513   4.745   1.682
 5199SOL    HW216497   1.429   4.877   1.728
 5200SOL     OW16498   6.548   0.704   5.619
 5200SOL    HW116499   6.522   0.785   5.567
 5200SOL    HW216500   6.596   0.640   5.558
 5201SOL     OW16501   6.419   5.034   4.143
 5201SOL    HW116502   6.354   5.029   4.219
 5201SOL    HW216503   6.372   5.008   4.058
 5202SOL     OW16504   3.797   2.846   6.254
 5202SOL    HW116505   3.813   2.941   6.279
 5202SOL    HW216506   3.860   2.787   6.303
 5203SOL     OW16507   1.837   0.116   0.193
 5203SOL    HW116508   1.923   0.131   0.241
 5203SOL    HW216509   1.763   0.102   0.259
 5204SOL     OW16510   2.999   0.776   0.061
 5204SOL    HW116511   3.078   0.753   0.004
 5204SOL    HW216512   2.926   0.812   0.003
 5205SOL     OW16513   0.566   5.924   1.092
 5205SOL    HW116514   0.665   5.932   1.098
 5205SOL    HW216515   0.524   6.012   1.116
 5206SOL     OW16516   1.032   4.739   4.089
 5206SOL    HW116517   0.952   4.733   4.148
 5206SOL    HW216518   1.099   4.670   4.116
 5207SOL     OW16519   0.071   0.425   3.643
 5207SOL    HW116520   0.092   0.514   3.683
 5207SOL    HW216521   0.154   0.386   3.604
 5208SOL     OW16522   4.959   2.036   0.481
 5208SOL    HW116523   4.929   2.031   0.386
 5208SOL    HW216524   5.052   2.072   0.485
 5209SOL     OW16525   5.515   6.140   2.557
 5209SOL    HW116526   5.573   6.065   2.588
 5209SOL    HW216527   5.419   6.112   2.560
 5210SOL     OW16528   5.594   4.293   0.129
 5210SOL    HW116529   5.562   4.212   0.080
 5210SOL    HW216530   5.532   4.312   0.205
 5211SOL     OW16531   4.806   3.102   4.764
 5211SOL    HW116532   4.742   3.165   4.720
 5211SOL    HW216533   4.758   3.018   4.788
 5212SOL     OW16534   1.058   3.653   0.443
 5212SOL    HW116535   1.054   3.596   0.525
 5212SOL    HW216536   0.986   3.722   0.446
 5213SOL     OW16537   4.117   3.708   2.442
 5213SOL    HW116538   4.111   3.616   2.404
 5213SOL    HW216539   4.054   3.768   2.393
 5214SOL     OW16540   5.347   3.739   5.585
 5214SOL    HW116541   5.445   3.718   5.590
 5214SOL    HW216542   5.300   3.696   5.662
 5215SOL     OW16543   0.313   3.800   5.027
 5215SOL    HW116544   0.393   3.743   5.010
 5215SOL    HW216545   0.342   3.894   5.048
 5216SOL     OW16546   5.037   5.536   1.346
 5216SOL    HW116547   4.997   5.628   1.338
 5216SOL    HW216548   5.105   5.523   1.273
 5217SOL     OW16549   4.361   6.150   3.500
 5217SOL    HW116550   4.441   6.157   3.560
 5217SOL    HW216551   4.292   6.216   3.530
 5218SOL     OW16552   0.758   0.039   1.331
 5218SOL    HW116553   0.789   0.080   1.417
 5218SOL    HW216554   0.713   0.109   1.275
 5219SOL     OW16555   3.317   1.776   4.986
 5219SOL    HW116556   3.317   1.787   4.886
 5219SOL    HW216557   3.377   1.845   5.026
 5220SOL     OW16558   2.191   4.535   3.894
 5220SOL    HW116559   2.261   4.551   3.963
 5220SOL    HW216560   2.205   4.596   3.816
 5221SOL     OW16561   6.357   5.909   0.977
 5221SOL    HW116562   6.386   5.882   1.069
 5221SOL    HW216563   6.437   5.940   0.925
 5222SOL     OW16564   5.930   3.713   0.906
 5222SOL    HW116565   5.971   3.701   0.815
 5222SOL    HW216566   5.998   3.752   0.968
 5223SOL     OW16567   0.453   2.998   0.995
 5223SOL    HW116568   0.409   3.080   0.957
 5223SOL    HW216569   0.390   2.953   1.058
 5224SOL     OW16570   0.203   2.379   4.678
 5224SOL    HW116571   0.286   2.372   4.732
 5224SOL    HW216572   0.199   2.469   4.633
 5225SOL     OW16573   0.229   1.935   4.821
 5225SOL    HW116574   0.132   1.911   4.833
 5225SOL    HW216575   0.236   2.008   4.753
 5226SOL     OW16576   0.787   6.695   3.984
 5226SOL    HW116577   0.729   6.695   4.065
 5226SOL    HW216578   0.805   6.601   3.955
 5227SOL     OW16579   0.083   2.876   5.381
 5227SOL    HW116580   0.149   2.857   5.454
 5227SOL    HW216581   0.002   2.819   5.394
 5228SOL     OW16582   0.999   1.690   5.786
 5228SOL    HW116583   1.028   1.776   5.744
 5228SOL    HW216584   1.004   1.617   5.718
 5229SOL     OW16585   3.065   1.213   5.983
 5229SOL    HW116586   2.996   1.180   6.047
 5229SOL    HW216587   3.042   1.182   5.890
 5230SOL     OW16588   6.482   6.693   2.089
 5230SOL    HW116589   6.424   6.768   2.119
 5230SOL    HW216590   6.578   6.717   2.103
 5231SOL     OW16591   6.515   2.171   1.832
 5231SOL    HW116592   6.436   2.192   1.774
 5231SOL    HW216593   6.549   2.256   1.873
 5232SOL     OW16594   1.476   2.574   5.669
 5232SOL    HW116595   1.451   2.671   5.670
 5232SOL    HW216596   1.400   2.520   5.705
 5233SOL     OW16597   2.613   6.771   3.047
 5233SOL    HW116598   2.709   6.773   3.072
 5233SOL    HW216599   2.600   6.715   2.965
 5234SOL     OW16600   1.916   2.101   0.370
 5234SOL    HW116601   1.817   2.085   0.370
 5234SOL    HW216602   1.963   2.019   0.336
 5235SOL     OW16603   1.918   2.239   1.513
 5235SOL    HW116604   1.834   2.222   1.460
 5235SOL    HW216605   1.992   2.182   1.476
 5236SOL     OW16606   3.565   5.574   2.017
 5236SOL    HW116607   3.514   5.629   1.951
 5236SOL    HW216608   3.651   5.619   2.040
 5237SOL     OW16609   1.765   2.225   2.699
 5237SOL    HW116610   1.861   2.247   2.684
 5237SOL    HW216611   1.736   2.155   2.633
 5238SOL     OW16612   0.489   6.754   2.991
 5238SOL    HW116613   0.461   6.666   3.030
 5238SOL    HW216614   0.569   6.741   2.932
 5239SOL     OW16615   2.631   3.550   1.093
 5239SOL    HW116616   2.613   3.631   1.037
 5239SOL    HW216617   2.545   3.506   1.116
 5240SOL     OW16618   1.891   3.297   5.560
 5240SOL    HW116619   1.917   3.394   5.562
 5240SOL    HW216620   1.936   3.249   5.636
 5241SOL     OW16621   0.544   5.371   2.060
 5241SOL    HW116622   0.463   5.398   2.113
 5241SOL    HW216623   0.619   5.349   2.123
 5242SOL     OW16624   4.704   0.287   6.825
 5242SOL    HW116625   4.643   0.363   6.801
 5242SOL    HW216626   4.671   0.243   6.908
 5243SOL     OW16627   2.481   6.757   2.315
 5243SOL    HW116628   2.480   6.690   2.240
 5243SOL    HW216629   2.388   6.769   2.350
 5244SOL     OW16630   4.494   2.275   0.074
 5244SOL    HW116631   4.402   2.264   0.037
 5244SOL    HW216632   4.505   2.369   0.107
 5245SOL     OW16633   3.990   3.539   1.796
 5245SOL    HW116634   4.067   3.569   1.740
 5245SOL    HW216635   3.930   3.481   1.741
 5246SOL     OW16636   5.813   3.194   0.336
 5246SOL    HW116637   5.852   3.117   0.387
 5246SOL    HW216638   5.881   3.267   0.329
 5247SOL     OW16639   3.992   1.870   6.352
 5247SOL    HW116640   4.016   1.903   6.443
 5247SOL    HW216641   3.975   1.772   6.356
 5248SOL     OW16642   6.869   0.807   3.606
 5248SOL    HW116643   6.923   0.853   3.676
 5248SOL    HW216644   6.872   0.860   3.521
 5249SOL     OW16645   0.127   4.879   6.894
 5249SOL    HW116646   0.212   4.864   6.843
 5249SOL    HW216647   0.136   4.962   6.950
 5250SOL     OW16648   1.894   5.503   1.256
 5250SOL    HW116649   1.847   5.416   1.276
 5250SOL    HW216650   1.875   5.531   1.162
 5251SOL     OW16651   0.603   4.603   0.445
 5251SOL    HW116652   0.552   4.566   0.523
 5251SOL    HW216653   0.603   4.536   0.371
 5252SOL     OW16654   4.038   6.700   2.531
 5252SOL    HW116655   4.124   6.727   2.487
 5252SOL    HW216656   4.024   6.601   2.520
 5253SOL     OW16657   6.741   5.904   4.595
 5253SOL    HW116658   6.800   5.900   4.676
 5253SOL    HW216659   6.732   5.999   4.566
 5254SOL     OW16660   5.615   7.007   3.918
 5254SOL    HW116661   5.675   0.046   3.865
 5254SOL    HW216662   5.636   7.018   4.016
 5255SOL     OW16663   5.800   1.462   5.417
 5255SOL    HW116664   5.815   1.540   5.478
 5255SOL    HW216665   5.888   1.427   5.386
 5256SOL     OW16666   6.853   1.452   2.734
 5256SOL    HW116667   6.765   1.411   2.710
 5256SOL    HW216668   6.922   1.424   2.667
 5257SOL     OW16669   4.033   0.694   6.046
 5257SOL    HW116670   4.049   0.770   5.984
 5257SOL    HW216671   4.119   0.661   6.084
 5258SOL     OW16672   4.175   1.421   2.912
 5258SOL    HW116673   4.162   1.459   3.003
 5258SOL    HW216674   4.257   1.363   2.912
 5259SOL     OW16675   6.287   5.514   3.331
 5259SOL    HW116676   6.321   5.422   3.354
 5259SOL    HW216677   6.319   5.539   3.240
 5260SOL     OW16678   2.528   1.064   0.691
 5260SOL    HW116679   2.612   1.118   0.690
 5260SOL    HW216680   2.468   1.093   0.616
 5261SOL     OW16681   5.558   4.026   0.024
 5261SOL    HW116682   5.476   4.063   7.001
 5261SOL    HW216683   5.594   3.950   6.992
 5262SOL     OW16684   2.029   0.823   3.001
 5262SOL    HW116685   2.126   0.823   2.979
 5262SOL    HW216686   2.016   0.794   3.095
 5263SOL     OW16687   1.276   6.521   2.193
 5263SOL    HW116688   1.244   6.606   2.150
 5263SOL    HW216689   1.268   6.529   2.292
 5264SOL     OW16690   6.230   1.431   1.662
 5264SOL    HW116691   6.200   1.517   1.703
 5264SOL    HW216692   6.155   1.391   1.609
 5265SOL     OW16693   6.562   5.059   4.566
 5265SOL    HW116694   6.652   5.037   4.604
 5265SOL    HW216695   6.567   5.147   4.519
 5266SOL     OW16696   2.093   0.368   6.988
 5266SOL    HW116697   2.001   0.408   6.989
 5266SOL    HW216698   2.111   0.324   0.054
 5267SOL     OW16699   5.358   3.165   4.333
 5267SOL    HW116700   5.278   3.224   4.322
 5267SOL    HW216701   5.371   3.145   4.430
 5268SOL     OW16702   5.307   0.439   6.234
 5268SOL    HW116703   5.355   0.527   6.230
 5268SOL    HW216704   5.255   0.426   6.150
 5269SOL     OW16705   0.522   6.702   4.078
 5269SOL    HW116706   0.517   6.694   4.177
 5269SOL    HW216707   0.497   6.795   4.050
 5270SOL     OW16708   0.154   2.216   5.801
 5270SOL    HW116709   0.057   2.227   5.781
 5270SOL    HW216710   0.166   2.151   5.876
 5271SOL     OW16711   0.531   4.662   3.262
 5271SOL    HW116712   0.621   4.675   3.221
 5271SOL    HW216713   0.537   4.591   3.333
 5272SOL     OW16714   4.721   0.946   0.365
 5272SOL    HW116715   4.695   0.865   0.418
 5272SOL    HW216716   4.676   0.944   0.276
 5273SOL     OW16717   1.557   2.140   2.862
 5273SOL    HW116718   1.635   2.180   2.813
 5273SOL    HW216719   1.589   2.093   2.944
 5274SOL     OW16720   4.821   5.273   1.905
 5274SOL    HW116721   4.760   5.335   1.855
 5274SOL    HW216722   4.888   5.234   1.842
 5275SOL     OW16723   4.395   1.807   6.469
 5275SOL    HW116724   4.324   1.738   6.477
 5275SOL    HW216725   4.437   1.802   6.379
 5276SOL     OW16726   4.585   6.573   2.325
 5276SOL    HW116727   4.672   6.608   2.292
 5276SOL    HW216728   4.564   6.486   2.279
 5277SOL     OW16729   2.336   2.798   1.836
 5277SOL    HW116730   2.338   2.897   1.823
 5277SOL    HW216731   2.309   2.753   1.751
 5278SOL     OW16732   4.493   4.110   1.418
 5278SOL    HW116733   4.434   4.075   1.491
 5278SOL    HW216734   4.579   4.059   1.417
 5279SOL     OW16735   2.696   5.566   2.678
 5279SOL    HW116736   2.727   5.637   2.740
 5279SOL    HW216737   2.598   5.550   2.692
 5280SOL     OW16738   5.191   6.128   4.411
 5280SOL    HW116739   5.125   6.064   4.451
 5280SOL    HW216740   5.274   6.129   4.467
 5281SOL     OW16741   6.972   1.931   1.552
 5281SOL    HW116742   6.893   1.875   1.526
 5281SOL    HW216743   0.018   1.929   1.479
 5282SOL     OW16744   4.597   1.943   2.464
 5282SOL    HW116745   4.665   1.991   2.409
 5282SOL    HW216746   4.506   1.979   2.442
 5283SOL     OW16747   4.893   4.777   6.517
 5283SOL    HW116748   4.894   4.798   6.615
 5283SOL    HW216749   4.985   4.788   6.480
 5284SOL     OW16750   5.514   3.117   3.850
 5284SOL    HW116751   5.481   3.159   3.935
 5284SOL    HW216752   5.607   3.085   3.862
 5285SOL     OW16753   3.379   5.833   3.381
 5285SOL    HW116754   3.281   5.847   3.397
 5285SOL    HW216755   3.399   5.735   3.377
 5286SOL     OW16756   2.194   4.652   1.891
 5286SOL    HW116757   2.150   4.609   1.970
 5286SOL    HW216758   2.202   4.750   1.906
 5287SOL     OW16759   1.045   1.492   1.257
 5287SOL    HW116760   1.055   1.573   1.314
 5287SOL    HW216761   0.969   1.436   1.291
 5288SOL     OW16762   3.940   0.500   0.488
 5288SOL    HW116763   3.891   0.471   0.570
 5288SOL    HW216764   3.883   0.482   0.408
 5289SOL     OW16765   2.309   5.363   1.330
 5289SOL    HW116766   2.396   5.406   1.308
 5289SOL    HW216767   2.258   5.420   1.395
 5290SOL     OW16768   5.155   5.654   0.581
 5290SOL    HW116769   5.148   5.643   0.680
 5290SOL    HW216770   5.082   5.714   0.549
 5291SOL     OW16771   1.553   5.075   5.952
 5291SOL    HW116772   1.588   5.090   5.860
 5291SOL    HW216773   1.528   4.979   5.962
 5292SOL     OW16774   4.792   3.008   5.761
 5292SOL    HW116775   4.750   3.051   5.840
 5292SOL    HW216776   4.729   2.942   5.721
 5293SOL     OW16777   0.545   0.730   4.597
 5293SOL    HW116778   0.449   0.713   4.618
 5293SOL    HW216779   0.592   0.642   4.586
 5294SOL     OW16780   5.185   1.985   5.306
 5294SOL    HW116781   5.189   2.043   5.225
 5294SOL    HW216782   5.221   2.035   5.385
 5295SOL     OW16783   6.005   0.861   1.920
 5295SOL    HW116784   6.010   0.862   2.020
 5295SOL    HW216785   5.911   0.845   1.891
 5296SOL     OW16786   0.936   4.450   0.296
 5296SOL    HW116787   1.028   4.487   0.309
 5296SOL    HW216788   0.891   4.439   0.384
 5297SOL     OW16789   1.978   3.177   1.466
 5297SOL    HW116790   1.899   3.141   1.417
 5297SOL    HW216791   1.967   3.160   1.564
 5298SOL     OW16792   1.075   4.906   1.653
 5298SOL    HW116793   0.993   4.939   1.607
 5298SOL    HW216794   1.144   4.978   1.654
 5299SOL     OW16795   3.227   0.459   1.631
 5299SOL    HW116796   3.175   0.445   1.547
 5299SOL    HW216797   3.301   0.392   1.635
 5300SOL     OW16798   0.197   5.394   3.289
 5300SOL    HW116799   0.102   5.368   3.274
 5300SOL    HW216800   0.253   5.312   3.299
 5301SOL     OW16801   4.798   1.174   0.056
 5301SOL    HW116802   4.779   1.087   0.011
 5301SOL    HW216803   4.712   1.222   0.073
 5302SOL     OW16804   6.508   4.557   3.137
 5302SOL    HW116805   6.528   4.484   3.071
 5302SOL    HW216806   6.461   4.632   3.090
 5303SOL     OW16807   0.713   4.763   3.590
 5303SOL    HW116808   0.780   4.808   3.650
 5303SOL    HW216809   0.744   4.770   3.495
 5304SOL     OW16810   5.272   2.070   5.553
 5304SOL    HW116811   5.265   1.986   5.606
 5304SOL    HW216812   5.199   2.133   5.578
 5305SOL     OW16813   2.696   0.995   3.069
 5305SOL    HW116814   2.675   1.012   2.972
 5305SOL    HW216815   2.759   1.065   3.102
 5306SOL     OW16816   2.601   0.430   5.189
 5306SOL    HW116817   2.631   0.355   5.130
 5306SOL    HW216818   2.668   0.445   5.261
 5307SOL     OW16819   4.431   6.720   6.610
 5307SOL    HW116820   4.343   6.760   6.583
 5307SOL    HW216821   4.434   6.710   6.709
 5308SOL     OW16822   6.903   0.887   3.345
 5308SOL    HW116823   6.859   0.927   3.265
 5308SOL    HW216824   6.929   0.793   3.326
 5309SOL     OW16825   3.609   3.834   3.993
 5309SOL    HW116826   3.624   3.933   3.984
 5309SOL    HW216827   3.664   3.785   3.926
 5310SOL     OW16828   5.581   2.148   0.540
 5310SOL    HW116829   5.623   2.058   0.542
 5310SOL    HW216830   5.626   2.204   0.470
 5311SOL     OW16831   1.937   5.925   6.995
 5311SOL    HW116832   1.943   6.024   6.984
 5311SOL    HW216833   2.017   5.881   6.954
 5312SOL     OW16834   0.291   2.650   2.061
 5312SOL    HW116835   0.305   2.645   2.160
 5312SOL    HW216836   0.337   2.731   2.025
 5313SOL     OW16837   1.354   5.783   6.960
 5313SOL    HW116838   1.348   5.840   0.020
 5313SOL    HW216839   1.441   5.801   6.913
 5314SOL     OW16840   3.138   5.282   0.882
 5314SOL    HW116841   3.085   5.316   0.804
 5314SOL    HW216842   3.093   5.201   0.920
 5315SOL     OW16843   5.136   3.041   2.497
 5315SOL    HW116844   5.205   3.049   2.569
 5315SOL    HW216845   5.059   3.102   2.518
 5316SOL     OW16846   6.522   5.360   4.907
 5316SOL    HW116847   6.433   5.327   4.875
 5316SOL    HW216848   6.591   5.289   4.892
 5317SOL     OW16849   5.435   5.932   2.934
 5317SOL    HW116850   5.507   5.949   3.000
 5317SOL    HW216851   5.475   5.922   2.843
 5318SOL     OW16852   0.312   2.955   4.995
 5318SOL    HW116853   0.252   2.887   5.036
 5318SOL    HW216854   0.406   2.920   4.994
 5319SOL     OW16855   4.063   6.788   1.538
 5319SOL    HW116856   4.149   6.807   1.492
 5319SOL    HW216857   4.069   6.816   1.634
 5320SOL     OW16858   5.451   3.666   5.986
 5320SOL    HW116859   5.403   3.622   5.910
 5320SOL    HW216860   5.393   3.663   6.067
 5321SOL     OW16861   1.787   5.035   6.513
 5321SOL    HW116862   1.871   5.083   6.538
 5321SOL    HW216863   1.798   4.994   6.422
 5322SOL     OW16864   3.249   6.225   0.406
 5322SOL    HW116865   3.332   6.174   0.428
 5322SOL    HW216866   3.180   6.208   0.477
 5323SOL     OW16867   6.200   3.189   0.196
 5323SOL    HW116868   6.138   3.170   0.120
 5323SOL    HW216869   6.270   3.254   0.167
 5324SOL     OW16870   3.931   2.937   1.526
 5324SOL    HW116871   3.999   3.003   1.557
 5324SOL    HW216872   3.938   2.853   1.580
 5325SOL     OW16873   4.959   6.067   3.781
 5325SOL    HW116874   4.904   5.997   3.826
 5325SOL    HW216875   5.016   6.024   3.710
 5326SOL     OW16876   6.705   0.353   2.346
 5326SOL    HW116877   6.694   0.426   2.279
 5326SOL    HW216878   6.802   0.339   2.364
 5327SOL     OW16879   6.704   0.412   4.835
 5327SOL    HW116880   6.775   0.382   4.898
 5327SOL    HW216881   6.626   0.449   4.886
 5328SOL     OW16882   3.606   5.117   0.800
 5328SOL    HW116883   3.572   5.024   0.785
 5328SOL    HW216884   3.597   5.141   0.896
 5329SOL     OW16885   6.505   5.152   0.469
 5329SOL    HW116886   6.560   5.169   0.551
 5329SOL    HW216887   6.529   5.062   0.432
 5330SOL     OW16888   3.851   4.957   0.178
 5330SOL    HW116889   3.862   4.862   0.205
 5330SOL    HW216890   3.893   5.016   0.247
 5331SOL     OW16891   4.557   2.599   6.651
 5331SOL    HW116892   4.570   2.573   6.555
 5331SOL    HW216893   4.641   2.639   6.686
 5332SOL     OW16894   6.430   3.006   0.234
 5332SOL    HW116895   6.352   3.060   0.265
 5332SOL    HW216896   6.433   2.920   0.286
 5333SOL     OW16897   1.300   1.735   4.089
 5333SOL    HW116898   1.297   1.637   4.072
 5333SOL    HW216899   1.394   1.768   4.079
 5334SOL     OW16900   3.325   5.724   1.890
 5334SOL    HW116901   3.266   5.735   1.810
 5334SOL    HW216902   3.282   5.663   1.955
 5335SOL     OW16903   0.338   4.321   1.398
 5335SOL    HW116904   0.326   4.420   1.399
 5335SOL    HW216905   0.298   4.284   1.314
 5336SOL     OW16906   1.770   3.066   4.421
 5336SOL    HW116907   1.838   3.080   4.349
 5336SOL    HW216908   1.709   3.145   4.426
 5337SOL     OW16909   5.971   5.412   0.508
 5337SOL    HW116910   5.943   5.508   0.512
 5337SOL    HW216911   6.065   5.406   0.475
 5338SOL     OW16912   6.206   3.503   0.800
 5338SOL    HW116913   6.140   3.429   0.807
 5338SOL    HW216914   6.273   3.495   0.874
 5339SOL     OW16915   5.544   3.778   2.933
 5339SOL    HW116916   5.564   3.861   2.881
 5339SOL    HW216917   5.532   3.702   2.869
 5340SOL     OW16918   5.086   3.780   2.448
 5340SOL    HW116919   5.050   3.835   2.373
 5340SOL    HW216920   5.174   3.740   2.421
 5341SOL     OW16921   4.115   4.867   3.854
 5341SOL    HW116922   4.174   4.925   3.798
 5341SOL    HW216923   4.105   4.778   3.812
 5342SOL     OW16924   6.443   6.096   4.919
 5342SOL    HW116925   6.542   6.096   4.913
 5342SOL    HW216926   6.406   6.177   4.873
 5343SOL     OW16927   3.122   2.761   6.741
 5343SOL    HW116928   3.117   2.666   6.773
 5343SOL    HW216929   3.031   2.801   6.741
 5344SOL     OW16930   1.073   1.662   6.258
 5344SOL    HW116931   1.081   1.607   6.341
 5344SOL    HW216932   0.981   1.699   6.251
 5345SOL     OW16933   4.321   1.269   6.749
 5345SOL    HW116934   4.342   1.253   6.653
 5345SOL    HW216935   4.329   1.366   6.769
 5346SOL     OW16936   2.955   6.487   3.647
 5346SOL    HW116937   3.029   6.519   3.588
 5346SOL    HW216938   2.867   6.519   3.612
 5347SOL     OW16939   5.685   1.842   3.787
 5347SOL    HW116940   5.703   1.935   3.756
 5347SOL    HW216941   5.744   1.820   3.865
 5348SOL     OW16942   5.019   2.639   4.119
 5348SOL    HW116943   4.922   2.659   4.134
 5348SOL    HW216944   5.034   2.620   4.022
 5349SOL     OW16945   0.776   3.580   1.733
 5349SOL    HW116946   0.701   3.621   1.681
 5349SOL    HW216947   0.814   3.648   1.795
 5350SOL     OW16948   1.080   6.185   6.960
 5350SOL    HW116949   1.176   6.163   6.946
 5350SOL    HW216950   1.071   6.267   7.016
 5351SOL     OW16951   6.469   6.285   3.181
 5351SOL    HW116952   6.456   6.186   3.174
 5351SOL    HW216953   6.396   6.332   3.130
 5352SOL     OW16954   1.094   3.175   5.841
 5352SOL    HW116955   1.126   3.221   5.758
 5352SOL    HW216956   1.019   3.113   5.818
 5353SOL     OW16957   4.037   5.181   3.698
 5353SOL    HW116958   4.106   5.250   3.719
 5353SOL    HW216959   4.011   5.188   3.602
 5354SOL     OW16960   4.103   6.212   0.958
 5354SOL    HW116961   4.054   6.299   0.956
 5354SOL    HW216962   4.183   6.218   0.898
 5355SOL     OW16963   5.346   4.377   5.271
 5355SOL    HW116964   5.354   4.278   5.263
 5355SOL    HW216965   5.322   4.402   5.364
 5356SOL     OW16966   6.964   5.598   0.978
 5356SOL    HW116967   7.020   5.665   0.929
 5356SOL    HW216968   7.013   5.565   1.058
 5357SOL     OW16969   6.362   3.719   2.920
 5357SOL    HW116970   6.263   3.707   2.929
 5357SOL    HW216971   6.404   3.632   2.894
 5358SOL     OW16972   4.266   1.431   0.053
 5358SOL    HW116973   4.204   1.355   0.072
 5358SOL    HW216974   4.249   1.466   6.982
 5359SOL     OW16975   3.602   1.975   7.011
 5359SOL    HW116976   3.600   2.070   6.981
 5359SOL    HW216977   3.609   1.972   0.090
 5360SOL     OW16978   5.661   4.695   4.072
 5360SOL    HW116979   5.670   4.621   4.139
 5360SOL    HW216980   5.728   4.766   4.092
 5361SOL     OW16981   1.756   5.525   2.450
 5361SOL    HW116982   1.730   5.458   2.519
 5361SOL    HW216983   1.812   5.596   2.492
 5362SOL     OW16984   5.918   1.458   2.396
 5362SOL    HW116985   5.836   1.514   2.411
 5362SOL    HW216986   5.891   1.363   2.381
 5363SOL     OW16987   5.916   5.482   3.477
 5363SOL    HW116988   5.941   5.413   3.544
 5363SOL    HW216989   5.873   5.560   3.523
 5364SOL     OW16990   4.396   1.226   2.910
 5364SOL    HW116991   4.421   1.291   2.839
 5364SOL    HW216992   4.414   1.133   2.878
 5365SOL     OW16993   3.170   3.173   4.132
 5365SOL    HW116994   3.179   3.102   4.202
 5365SOL    HW216995   3.232   3.154   4.056
 5366SOL     OW16996   6.252   6.363   3.019
 5366SOL    HW116997   6.189   6.393   3.091
 5366SOL    HW216998   6.209   6.290   2.966
 5367SOL     OW16999   6.170   6.015   1.627
 5367SOL    HW117000   6.256   5.966   1.615
 5367SOL    HW217001   6.154   6.074   1.548
 5368SOL     OW17002   0.013   5.690   4.029
 5368SOL    HW117003   7.005   5.688   3.934
 5368SOL    HW217004   6.994   5.770   4.074
 5369SOL     OW17005   3.458   5.346   2.799
 5369SOL    HW117006   3.533   5.320   2.739
 5369SOL    HW217007   3.495   5.370   2.889
 5370SOL     OW17008   1.240   3.159   0.408
 5370SOL    HW117009   1.317   3.215   0.440
 5370SOL    HW217010   1.209   3.192   0.319
 5371SOL     OW17011   5.936   5.137   4.857
 5371SOL    HW117012   5.861   5.193   4.892
 5371SOL    HW217013   5.900   5.071   4.790
 5372SOL     OW17014   1.646   0.122   3.075
 5372SOL    HW117015   1.662   0.098   3.171
 5372SOL    HW217016   1.594   0.208   3.070
 5373SOL     OW17017   3.034   1.402   6.746
 5373SOL    HW117018   2.935   1.409   6.735
 5373SOL    HW217019   3.075   1.493   6.738
 5374SOL     OW17020   1.983   4.316   2.228
 5374SOL    HW117021   1.923   4.341   2.152
 5374SOL    HW217022   1.979   4.387   2.298
 5375SOL     OW17023   2.478   4.450   4.680
 5375SOL    HW117024   2.499   4.542   4.713
 5375SOL    HW217025   2.531   4.383   4.731
 5376SOL     OW17026   0.636   6.964   5.929
 5376SOL    HW117027   0.554   6.997   5.882
 5376SOL    HW217028   0.672   6.884   5.881
 5377SOL     OW17029   1.995   1.053   3.286
 5377SOL    HW117030   2.020   1.102   3.369
 5377SOL    HW217031   1.952   1.116   3.221
 5378SOL     OW17032   4.555   0.584   2.387
 5378SOL    HW117033   4.553   0.670   2.439
 5378SOL    HW217034   4.646   0.570   2.348
 5379SOL     OW17035   2.047   2.314   5.142
 5379SOL    HW117036   2.129   2.329   5.198
 5379SOL    HW217037   2.004   2.228   5.169
 5380SOL     OW17038   3.819   6.668   1.707
 5380SOL    HW117039   3.844   6.597   1.772
 5380SOL    HW217040   3.898   6.690   1.650
 5381SOL     OW17041   3.471   0.198   3.873
 5381SOL    HW117042   3.516   0.110   3.889
 5381SOL    HW217043   3.453   0.209   3.775
 5382SOL     OW17044   4.741   0.891   1.869
 5382SOL    HW117045   4.783   0.846   1.790
 5382SOL    HW217046   4.707   0.981   1.841
 5383SOL     OW17047   2.515   2.600   4.698
 5383SOL    HW117048   2.546   2.602   4.603
 5383SOL    HW217049   2.430   2.548   4.704
 5384SOL     OW17050   5.828   5.027   5.244
 5384SOL    HW117051   5.729   5.025   5.255
 5384SOL    HW217052   5.857   4.948   5.190
 5385SOL     OW17053   3.828   3.315   6.048
 5385SOL    HW117054   3.843   3.383   6.119
 5385SOL    HW217055   3.753   3.255   6.074
 5386SOL     OW17056   4.850   4.548   4.338
 5386SOL    HW117057   4.843   4.474   4.272
 5386SOL    HW217058   4.920   4.526   4.406
 5387SOL     OW17059   0.584   1.847   3.763
 5387SOL    HW117060   0.647   1.913   3.804
 5387SOL    HW217061   0.500   1.894   3.735
 5388SOL     OW17062   0.604   6.655   2.472
 5388SOL    HW117063   0.681   6.605   2.511
 5388SOL    HW217064   0.525   6.648   2.533
 5389SOL     OW17065   4.815   1.395   3.646
 5389SOL    HW117066   4.759   1.358   3.572
 5389SOL    HW217067   4.781   1.361   3.734
 5390SOL     OW17068   0.338   3.035   3.150
 5390SOL    HW117069   0.423   3.036   3.202
 5390SOL    HW217070   0.356   3.063   3.055
 5391SOL     OW17071   2.837   2.643   0.761
 5391SOL    HW117072   2.883   2.564   0.720
 5391SOL    HW217073   2.753   2.613   0.806
 5392SOL     OW17074   5.964   0.826   3.859
 5392SOL    HW117075   6.024   0.883   3.915
 5392SOL    HW217076   5.953   0.868   3.769
 5393SOL     OW17077   4.373   2.233   4.648
 5393SOL    HW117078   4.330   2.179   4.576
 5393SOL    HW217079   4.308   2.247   4.723
 5394SOL     OW17080   0.900   1.987   1.380
 5394SOL    HW117081   0.881   2.078   1.415
 5394SOL    HW217082   0.815   1.939   1.362
 5395SOL     OW17083   6.424   1.426   0.583
 5395SOL    HW117084   6.376   1.358   0.529
 5395SOL    HW217085   6.455   1.384   0.669
 5396SOL     OW17086   4.361   3.903   0.551
 5396SOL    HW117087   4.345   4.002   0.546
 5396SOL    HW217088   4.429   3.877   0.483
 5397SOL     OW17089   0.302   1.011   2.893
 5397SOL    HW117090   0.250   1.030   2.810
 5397SOL    HW217091   0.330   0.915   2.893
 5398SOL     OW17092   6.216   2.561   2.607
 5398SOL    HW117093   6.216   2.541   2.509
 5398SOL    HW217094   6.129   2.533   2.647
 5399SOL     OW17095   1.570   2.293   0.174
 5399SOL    HW117096   1.527   2.382   0.158
 5399SOL    HW217097   1.627   2.270   0.096
 5400SOL     OW17098   4.703   3.329   1.751
 5400SOL    HW117099   4.759   3.319   1.668
 5400SOL    HW217100   4.691   3.240   1.794
 5401SOL     OW17101   5.545   2.833   1.232
 5401SOL    HW117102   5.561   2.756   1.170
 5401SOL    HW217103   5.470   2.811   1.294
 5402SOL     OW17104   1.440   6.848   2.356
 5402SOL    HW117105   1.460   6.824   2.261
 5402SOL    HW217106   1.402   6.768   2.403
 5403SOL     OW17107   4.489   2.607   0.442
 5403SOL    HW117108   4.560   2.538   0.457
 5403SOL    HW217109   4.489   2.671   0.518
 5404SOL     OW17110   5.132   0.402   6.882
 5404SOL    HW117111   5.129   0.341   6.961
 5404SOL    HW217112   5.221   0.447   6.878
 5405SOL     OW17113   0.453   4.907   0.080
 5405SOL    HW117114   0.510   4.950   0.151
 5405SOL    HW217115   0.405   4.978   0.029
 5406SOL     OW17116   2.379   0.835   6.066
 5406SOL    HW117117   2.402   0.932   6.056
 5406SOL    HW217118   2.436   0.795   6.138
 5407SOL     OW17119   1.698   6.879   3.285
 5407SOL    HW117120   1.774   6.919   3.335
 5407SOL    HW217121   1.613   6.894   3.336
 5408SOL     OW17122   2.338   1.748   4.410
 5408SOL    HW117123   2.349   1.732   4.311
 5408SOL    HW217124   2.426   1.774   4.449
 5409SOL     OW17125   0.736   2.728   1.762
 5409SOL    HW117126   0.706   2.811   1.808
 5409SOL    HW217127   0.834   2.715   1.777
 5410SOL     OW17128   6.963   2.354   0.599
 5410SOL    HW117129   6.900   2.308   0.536
 5410SOL    HW217130   6.910   2.410   0.663
 5411SOL     OW17131   3.241   5.519   0.173
 5411SOL    HW117132   3.266   5.537   0.268
 5411SOL    HW217133   3.286   5.585   0.114
 5412SOL     OW17134   0.005   2.083   6.240
 5412SOL    HW117135   0.062   2.115   6.316
 5412SOL    HW217136   0.060   2.025   6.180
 5413SOL     OW17137   1.008   5.491   4.711
 5413SOL    HW117138   1.093   5.510   4.661
 5413SOL    HW217139   0.930   5.505   4.651
 5414SOL     OW17140   5.333   4.416   5.550
 5414SOL    HW117141   5.374   4.458   5.631
 5414SOL    HW217142   5.234   4.421   5.556
 5415SOL     OW17143   3.877   0.485   7.018
 5415SOL    HW117144   3.848   0.481   0.092
 5415SOL    HW217145   3.950   0.419   7.002
 5416SOL     OW17146   3.410   5.763   6.809
 5416SOL    HW117147   3.492   5.820   6.803
 5416SOL    HW217148   3.371   5.751   6.718
 5417SOL     OW17149   4.231   6.916   4.190
 5417SOL    HW117150   4.239   6.996   4.250
 5417SOL    HW217151   4.135   6.904   4.164
 5418SOL     OW17152   6.619   2.914   5.666
 5418SOL    HW117153   6.622   3.011   5.644
 5418SOL    HW217154   6.624   2.860   5.582
 5419SOL     OW17155   4.392   1.421   5.916
 5419SOL    HW117156   4.331   1.415   5.996
 5419SOL    HW217157   4.337   1.423   5.833
 5420SOL     OW17158   1.298   1.869   1.977
 5420SOL    HW117159   1.222   1.934   1.976
 5420SOL    HW217160   1.365   1.897   2.047
 5421SOL     OW17161   3.690   4.880   2.279
 5421SOL    HW117162   3.689   4.834   2.190
 5421SOL    HW217163   3.596   4.892   2.311
 5422SOL     OW17164   2.571   4.950   3.679
 5422SOL    HW117165   2.609   4.857   3.674
 5422SOL    HW217166   2.560   4.986   3.587
 5423SOL     OW17167   4.517   6.564   1.910
 5423SOL    HW117168   4.538   6.656   1.943
 5423SOL    HW217169   4.582   6.538   1.840
 5424SOL     OW17170   4.285   3.913   5.429
 5424SOL    HW117171   4.307   3.851   5.354
 5424SOL    HW217172   4.245   3.997   5.392
 5425SOL     OW17173   1.240   4.341   5.335
 5425SOL    HW117174   1.207   4.252   5.366
 5425SOL    HW217175   1.336   4.333   5.307
 5426SOL     OW17176   6.460   5.543   1.281
 5426SOL    HW117177   6.544   5.596   1.267
 5426SOL    HW217178   6.472   5.452   1.239
 5427SOL     OW17179   4.118   2.963   6.927
 5427SOL    HW117180   4.196   2.905   6.902
 5427SOL    HW217181   4.150   3.040   6.982
 5428SOL     OW17182   5.758   5.599   2.831
 5428SOL    HW117183   5.690   5.531   2.859
 5428SOL    HW217184   5.749   5.617   2.733
 5429SOL     OW17185   3.318   0.968   4.732
 5429SOL    HW117186   3.393   0.936   4.790
 5429SOL    HW217187   3.351   0.984   4.639
 5430SOL     OW17188   2.947   3.919   5.083
 5430SOL    HW117189   2.878   3.909   5.155
 5430SOL    HW217190   3.000   4.002   5.099
 5431SOL     OW17191   4.768   4.610   0.472
 5431SOL    HW117192   4.689   4.645   0.523
 5431SOL    HW217193   4.834   4.573   0.536
 5432SOL     OW17194   6.999   5.206   6.433
 5432SOL    HW117195   6.990   5.291   6.382
 5432SOL    HW217196   0.004   5.226   6.527
 5433SOL     OW17197   3.095   0.525   1.398
 5433SOL    HW117198   3.170   0.534   1.332
 5433SOL    HW217199   3.018   0.477   1.354
 5434SOL     OW17200   4.802   0.691   4.372
 5434SOL    HW117201   4.801   0.649   4.463
 5434SOL    HW217202   4.769   0.785   4.377
 5435SOL     OW17203   6.427   4.819   0.830
 5435SOL    HW117204   6.448   4.729   0.867
 5435SOL    HW217205   6.419   4.813   0.730
 5436SOL     OW17206   1.754   4.365   2.750
 5436SOL    HW117207   1.830   4.355   2.814
 5436SOL    HW217208   1.780   4.325   2.661
 5437SOL     OW17209   3.353   6.116   1.393
 5437SOL    HW117210   3.356   6.147   1.298
 5437SOL    HW217211   3.271   6.152   1.437
 5438SOL     OW17212   4.661   5.710   2.290
 5438SOL    HW117213   4.702   5.791   2.250
 5438SOL    HW217214   4.705   5.689   2.377
 5439SOL     OW17215   1.038   4.422   1.566
 5439SOL    HW117216   1.009   4.518   1.561
 5439SOL    HW217217   1.137   4.417   1.551
 5440SOL     OW17218   5.997   6.568   3.799
 5440SOL    HW117219   6.022   6.624   3.719
 5440SOL    HW217220   5.940   6.622   3.861
 5441SOL     OW17221   5.693   2.815   4.670
 5441SOL    HW117222   5.706   2.814   4.571
 5441SOL    HW217223   5.687   2.721   4.704
 5442SOL     OW17224   3.271   6.878   6.529
 5442SOL    HW117225   3.253   6.975   6.512
 5442SOL    HW217226   3.344   6.847   6.468
 5443SOL     OW17227   5.034   0.991   3.208
 5443SOL    HW117228   5.039   0.907   3.261
 5443SOL    HW217229   5.049   1.070   3.268
 5444SOL     OW17230   6.246   0.658   5.689
 5444SOL    HW117231   6.345   0.660   5.700
 5444SOL    HW217232   6.202   0.679   5.776
 5445SOL     OW17233   5.641   5.779   5.292
 5445SOL    HW117234   5.557   5.746   5.247
 5445SOL    HW217235   5.627   5.873   5.323
 5446SOL     OW17236   6.441   3.901   6.014
 5446SOL    HW117237   6.420   3.932   6.107
 5446SOL    HW217238   6.519   3.953   5.979
 5447SOL     OW17239   0.043   1.807   1.287
 5447SOL    HW117240   0.098   1.773   1.211
 5447SOL    HW217241   6.986   1.858   1.251
 5448SOL     OW17242   4.886   4.969   3.109
 5448SOL    HW117243   4.884   4.938   3.014
 5448SOL    HW217244   4.956   5.040   3.119
 5449SOL     OW17245   2.654   0.935   1.708
 5449SOL    HW117246   2.688   0.901   1.620
 5449SOL    HW217247   2.659   0.862   1.776
 5450SOL     OW17248   4.040   5.540   1.719
 5450SOL    HW117249   3.983   5.478   1.773
 5450SOL    HW217250   4.049   5.505   1.626
 5451SOL     OW17251   6.418   0.119   3.101
 5451SOL    HW117252   6.444   0.046   3.038
 5451SOL    HW217253   6.473   0.113   3.184
 5452SOL     OW17254   2.136   3.785   2.397
 5452SOL    HW117255   2.209   3.844   2.365
 5452SOL    HW217256   2.053   3.804   2.345
 5453SOL     OW17257   6.198   4.099   3.426
 5453SOL    HW117258   6.257   4.176   3.403
 5453SOL    HW217259   6.118   4.132   3.475
 5454SOL     OW17260   6.448   4.245   3.388
 5454SOL    HW117261   6.416   4.319   3.447
 5454SOL    HW217262   6.535   4.271   3.346
 5455SOL     OW17263   2.348   1.860   3.520
 5455SOL    HW117264   2.297   1.847   3.605
 5455SOL    HW217265   2.410   1.938   3.530
 5456SOL     OW17266   5.114   2.348   1.047
 5456SOL    HW117267   5.029   2.297   1.031
 5456SOL    HW217268   5.100   2.414   1.121
 5457SOL     OW17269   5.372   1.267   6.837
 5457SOL    HW117270   5.347   1.175   6.866
 5457SOL    HW217271   5.290   1.320   6.817
 5458SOL     OW17272   6.013   3.430   0.477
 5458SOL    HW117273   6.074   3.354   0.497
 5458SOL    HW217274   6.042   3.475   0.393
 5459SOL     OW17275   1.910   3.485   5.293
 5459SOL    HW117276   2.007   3.462   5.285
 5459SOL    HW217277   1.880   3.530   5.209
 5460SOL     OW17278   0.903   0.959   1.530
 5460SOL    HW117279   0.967   0.981   1.604
 5460SOL    HW217280   0.840   1.035   1.517
 5461SOL     OW17281   6.373   1.056   5.439
 5461SOL    HW117282   6.354   1.132   5.376
 5461SOL    HW217283   6.416   1.091   5.522
 5462SOL     OW17284   4.444   4.369   6.813
 5462SOL    HW117285   4.535   4.329   6.826
 5462SOL    HW217286   4.420   4.367   6.716
 5463SOL     OW17287   1.074   2.711   6.034
 5463SOL    HW117288   1.165   2.751   6.036
 5463SOL    HW217289   1.014   2.761   6.096
 5464SOL     OW17290   2.189   5.615   5.743
 5464SOL    HW117291   2.255   5.545   5.771
 5464SOL    HW217292   2.097   5.577   5.746
 5465SOL     OW17293   0.506   6.959   4.731
 5465SOL    HW117294   0.517   0.030   4.767
 5465SOL    HW217295   0.589   6.906   4.748
 5466SOL     OW17296   6.098   2.051   4.996
 5466SOL    HW117297   6.035   1.986   5.039
 5466SOL    HW217298   6.123   2.018   4.905
 5467SOL     OW17299   4.772   2.753   4.428
 5467SOL    HW117300   4.714   2.733   4.507
 5467SOL    HW217301   4.813   2.843   4.438
 5468SOL     OW17302   0.052   1.044   0.960
 5468SOL    HW117303   6.988   0.991   0.966
 5468SOL    HW217304   0.099   1.041   1.048
 5469SOL     OW17305   3.470   0.343   4.116
 5469SOL    HW117306   3.513   0.291   4.190
 5469SOL    HW217307   3.458   0.285   4.036
 5470SOL     OW17308   3.603   5.472   4.000
 5470SOL    HW117309   3.677   5.428   4.050
 5470SOL    HW217310   3.527   5.492   4.063
 5471SOL     OW17311   4.833   1.074   3.723
 5471SOL    HW117312   4.845   1.125   3.809
 5471SOL    HW217313   4.737   1.075   3.697
 5472SOL     OW17314   2.979   3.244   7.006
 5472SOL    HW117315   2.958   3.323   6.948
 5472SOL    HW217316   2.916   3.170   6.985
 5473SOL     OW17317   2.530   4.545   1.896
 5473SOL    HW117318   2.505   4.485   1.821
 5473SOL    HW217319   2.624   4.577   1.884
 5474SOL     OW17320   0.794   5.172   2.640
 5474SOL    HW117321   0.886   5.159   2.679
 5474SOL    HW217322   0.761   5.085   2.605
 5475SOL     OW17323   0.488   1.035   5.036
 5475SOL    HW117324   0.546   0.992   4.966
 5475SOL    HW217325   0.448   1.119   4.999
 5476SOL     OW17326   2.442   0.016   5.157
 5476SOL    HW117327   2.367   6.987   5.115
 5476SOL    HW217328   2.529   6.993   5.133
 5477SOL     OW17329   1.695   3.878   4.174
 5477SOL    HW117330   1.648   3.966   4.170
 5477SOL    HW217331   1.683   3.830   4.087
 5478SOL     OW17332   5.286   4.722   6.189
 5478SOL    HW117333   5.226   4.739   6.266
 5478SOL    HW217334   5.245   4.760   6.105
 5479SOL     OW17335   4.596   2.033   4.693
 5479SOL    HW117336   4.671   1.999   4.635
 5479SOL    HW217337   4.584   2.131   4.678
 5480SOL     OW17338   0.406   3.473   4.008
 5480SOL    HW117339   0.493   3.516   4.030
 5480SOL    HW217340   0.410   3.434   3.916
 5481SOL     OW17341   4.534   1.183   5.958
 5481SOL    HW117342   4.488   1.271   5.951
 5481SOL    HW217343   4.631   1.196   5.978
 5482SOL     OW17344   4.813   2.917   1.200
 5482SOL    HW117345   4.742   2.866   1.152
 5482SOL    HW217346   4.830   2.875   1.289
 5483SOL     OW17347   6.709   2.640   6.200
 5483SOL    HW117348   6.746   2.703   6.131
 5483SOL    HW217349   6.610   2.651   6.205
 5484SOL     OW17350   6.908   6.736   4.722
 5484SOL    HW117351   6.973   6.748   4.797
 5484SOL    HW217352   6.825   6.790   4.742
 5485SOL     OW17353   3.329   0.020   5.325
 5485SOL    HW117354   3.381   6.973   5.275
 5485SOL    HW217355   3.232   7.018   5.322
 5486SOL     OW17356   0.928   0.862   4.216
 5486SOL    HW117357   1.023   0.879   4.191
 5486SOL    HW217358   0.891   0.788   4.160
 5487SOL     OW17359   4.822   5.052   1.212
 5487SOL    HW117360   4.821   5.112   1.292
 5487SOL    HW217361   4.905   5.069   1.159
 5488SOL     OW17362   5.038   0.921   6.566
 5488SOL    HW117363   4.989   0.897   6.482
 5488SOL    HW217364   5.059   1.018   6.567
 5489SOL     OW17365   1.342   3.757   2.948
 5489SOL    HW117366   1.391   3.805   2.875
 5489SOL    HW217367   1.332   3.818   3.026
 5490SOL     OW17368   1.616   2.089   6.966
 5490SOL    HW117369   1.682   2.163   6.952
 5490SOL    HW217370   1.662   2.011   7.008
 5491SOL     OW17371   0.612   5.102   1.105
 5491SOL    HW117372   0.640   5.064   1.194
 5491SOL    HW217373   0.614   5.030   1.036
 5492SOL     OW17374   1.100   0.879   5.747
 5492SOL    HW117375   1.010   0.895   5.788
 5492SOL    HW217376   1.143   0.966   5.725
 5493SOL     OW17377   3.230   3.161   0.049
 5493SOL    HW117378   3.138   3.189   0.021
 5493SOL    HW217379   3.290   3.156   6.991
 5494SOL     OW17380   6.022   3.013   2.149
 5494SOL    HW117381   5.932   2.971   2.152
 5494SOL    HW217382   6.013   3.109   2.123
 5495SOL     OW17383   3.472   3.171   2.457
 5495SOL    HW117384   3.500   3.121   2.375
 5495SOL    HW217385   3.553   3.199   2.508
 5496SOL     OW17386   3.473   5.832   1.644
 5496SOL    HW117387   3.524   5.806   1.726
 5496SOL    HW217388   3.375   5.826   1.662
 5497SOL     OW17389   6.775   6.799   2.131
 5497SOL    HW117390   6.808   6.838   2.217
 5497SOL    HW217391   6.733   6.872   2.076
 5498SOL     OW17392   4.123   1.188   5.095
 5498SOL    HW117393   4.046   1.202   5.157
 5498SOL    HW217394   4.166   1.100   5.114
 5499SOL     OW17395   0.426   1.410   3.588
 5499SOL    HW117396   0.480   1.489   3.616
 5499SOL    HW217397   0.383   1.428   3.500
 5500SOL     OW17398   1.751   5.888   2.158
 5500SOL    HW117399   1.757   5.790   2.171
 5500SOL    HW217400   1.720   5.908   2.064
 5501SOL     OW17401   2.215   6.865   2.611
 5501SOL    HW117402   2.289   6.848   2.677
 5501SOL    HW217403   2.165   6.947   2.637
 5502SOL     OW17404   5.006   4.148   6.643
 5502SOL    HW117405   4.955   4.063   6.654
 5502SOL    HW217406   5.085   4.148   6.704
 5503SOL     OW17407   1.508   5.770   3.558
 5503SOL    HW117408   1.592   5.792   3.508
 5503SOL    HW217409   1.528   5.760   3.655
 5504SOL     OW17410   3.267   2.087   4.938
 5504SOL    HW117411   3.314   2.025   5.001
 5504SOL    HW217412   3.221   2.159   4.990
 5505SOL     OW17413   2.422   5.042   5.705
 5505SOL    HW117414   2.505   5.062   5.756
 5505SOL    HW217415   2.351   5.108   5.730
 5506SOL     OW17416   6.296   6.963   5.712
 5506SOL    HW117417   6.313   6.878   5.663
 5506SOL    HW217418   6.371   6.982   5.774
 5507SOL     OW17419   2.775   5.990   4.124
 5507SOL    HW117420   2.870   5.957   4.123
 5507SOL    HW217421   2.774   6.090   4.123
 5508SOL     OW17422   2.582   0.711   6.225
 5508SOL    HW117423   2.677   0.694   6.253
 5508SOL    HW217424   2.543   0.783   6.283
 5509SOL     OW17425   6.108   6.100   6.638
 5509SOL    HW117426   6.089   6.050   6.553
 5509SOL    HW217427   6.206   6.118   6.646
 5510SOL     OW17428   5.317   1.434   5.524
 5510SOL    HW117429   5.321   1.522   5.475
 5510SOL    HW217430   5.282   1.363   5.463
 5511SOL     OW17431   0.075   1.404   2.612
 5511SOL    HW117432   0.170   1.429   2.630
 5511SOL    HW217433   0.072   1.321   2.557
 5512SOL     OW17434   1.344   0.201   1.006
 5512SOL    HW117435   1.415   0.240   0.946
 5512SOL    HW217436   1.281   0.274   1.034
 5513SOL     OW17437   4.173   4.795   4.656
 5513SOL    HW117438   4.269   4.781   4.682
 5513SOL    HW217439   4.125   4.707   4.659
 5514SOL     OW17440   5.859   5.238   2.924
 5514SOL    HW117441   5.903   5.327   2.932
 5514SOL    HW217442   5.778   5.235   2.983
 5515SOL     OW17443   6.612   2.664   1.120
 5515SOL    HW117444   6.651   2.706   1.037
 5515SOL    HW217445   6.552   2.588   1.094
 5516SOL     OW17446   1.640   3.039   6.355
 5516SOL    HW117447   1.727   3.063   6.312
 5516SOL    HW217448   1.573   3.110   6.337
 5517SOL     OW17449   2.708   1.737   2.299
 5517SOL    HW117450   2.679   1.815   2.243
 5517SOL    HW217451   2.751   1.770   2.383
 5518SOL     OW17452   6.111   5.063   5.062
 5518SOL    HW117453   6.108   5.067   4.962
 5518SOL    HW217454   6.060   5.140   5.100
 5519SOL     OW17455   5.196   3.650   4.390
 5519SOL    HW117456   5.114   3.656   4.448
 5519SOL    HW217457   5.209   3.737   4.343
 5520SOL     OW17458   1.929   3.407   1.728
 5520SOL    HW117459   1.845   3.362   1.698
 5520SOL    HW217460   1.918   3.438   1.822
 5521SOL     OW17461   5.432   5.183   1.813
 5521SOL    HW117462   5.455   5.086   1.820
 5521SOL    HW217463   5.395   5.203   1.722
 5522SOL     OW17464   2.210   3.634   1.642
 5522SOL    HW117465   2.290   3.690   1.619
 5522SOL    HW217466   2.231   3.577   1.722
 5523SOL     OW17467   2.177   0.756   2.220
 5523SOL    HW117468   2.223   0.788   2.137
 5523SOL    HW217469   2.200   0.660   2.235
 5524SOL     OW17470   0.307   5.859   6.235
 5524SOL    HW117471   0.256   5.942   6.260
 5524SOL    HW217472   0.283   5.833   6.142
 5525SOL     OW17473   6.725   5.762   4.903
 5525SOL    HW117474   6.640   5.715   4.930
 5525SOL    HW217475   6.778   5.702   4.843
 5526SOL     OW17476   6.374   3.267   4.438
 5526SOL    HW117477   6.299   3.333   4.437
 5526SOL    HW217478   6.338   3.175   4.446
 5527SOL     OW17479   1.741   3.663   1.530
 5527SOL    HW117480   1.758   3.747   1.478
 5527SOL    HW217481   1.648   3.631   1.513
 5528SOL     OW17482   0.402   3.622   3.059
 5528SOL    HW117483   0.473   3.661   3.001
 5528SOL    HW217484   0.365   3.540   3.016
 5529SOL     OW17485   1.777   1.379   5.160
 5529SOL    HW117486   1.806   1.287   5.187
 5529SOL    HW217487   1.857   1.439   5.157
 5530SOL     OW17488   1.216   2.674   0.401
 5530SOL    HW117489   1.189   2.760   0.443
 5530SOL    HW217490   1.161   2.600   0.439
 5531SOL     OW17491   3.540   2.763   6.050
 5531SOL    HW117492   3.510   2.730   5.960
 5531SOL    HW217493   3.637   2.786   6.045
 5532SOL     OW17494   2.713   1.485   1.294
 5532SOL    HW117495   2.625   1.514   1.257
 5532SOL    HW217496   2.778   1.473   1.219
 5533SOL     OW17497   4.265   0.748   1.537
 5533SOL    HW117498   4.258   0.660   1.584
 5533SOL    HW217499   4.344   0.748   1.477
 5534SOL     OW17500   6.828   3.657   6.070
 5534SOL    HW117501   6.871   3.701   6.149
 5534SOL    HW217502   6.821   3.722   5.995
 5535SOL     OW17503   6.189   3.034   3.279
 5535SOL    HW117504   6.092   3.022   3.256
 5535SOL    HW217505   6.224   3.116   3.234
 5536SOL     OW17506   2.198   0.398   3.979
 5536SOL    HW117507   2.237   0.306   3.972
 5536SOL    HW217508   2.121   0.396   4.043
 5537SOL     OW17509   4.490   0.924   4.600
 5537SOL    HW117510   4.411   0.864   4.612
 5537SOL    HW217511   4.458   1.018   4.586
 5538SOL     OW17512   5.059   1.507   0.293
 5538SOL    HW117513   5.013   1.425   0.259
 5538SOL    HW217514   5.043   1.583   0.230
 5539SOL     OW17515   3.381   6.814   0.463
 5539SOL    HW117516   3.430   6.737   0.504
 5539SOL    HW217517   3.333   6.865   0.534
 5540SOL     OW17518   5.347   0.969   6.587
 5540SOL    HW117519   5.265   1.024   6.574
 5540SOL    HW217520   5.344   0.925   6.677
 5541SOL     OW17521   4.441   3.692   6.424
 5541SOL    HW117522   4.430   3.733   6.514
 5541SOL    HW217523   4.493   3.754   6.365
 5542SOL     OW17524   4.468   4.765   0.166
 5542SOL    HW117525   4.550   4.823   0.166
 5542SOL    HW217526   4.476   4.696   0.093
 5543SOL     OW17527   1.270   0.458   1.103
 5543SOL    HW117528   1.176   0.492   1.104
 5543SOL    HW217529   1.296   0.429   1.195
 5544SOL     OW17530   4.356   5.559   6.211
 5544SOL    HW117531   4.384   5.586   6.119
 5544SOL    HW217532   4.275   5.610   6.238
 5545SOL     OW17533   3.939   0.859   3.427
 5545SOL    HW117534   3.870   0.899   3.367
 5545SOL    HW217535   4.002   0.803   3.374
 5546SOL     OW17536   0.787   5.941   5.475
 5546SOL    HW117537   0.757   6.035   5.458
 5546SOL    HW217538   0.880   5.941   5.510
 5547SOL     OW17539   5.619   1.540   4.824
 5547SOL    HW117540   5.650   1.482   4.900
 5547SOL    HW217541   5.661   1.630   4.831
 5548SOL     OW17542   6.848   4.602   5.502
 5548SOL    HW117543   6.768   4.632   5.449
 5548SOL    HW217544   6.900   4.536   5.450
 5549SOL     OW17545   4.357   3.292   1.213
 5549SOL    HW117546   4.364   3.217   1.279
 5549SOL    HW217547   4.290   3.267   1.143
 5550SOL     OW17548   1.131   3.369   2.459
 5550SOL    HW117549   1.127   3.269   2.469
 5550SOL    HW217550   1.050   3.410   2.501
 5551SOL     OW17551   2.154   5.194   3.846
 5551SOL    HW117552   2.178   5.287   3.876
 5551SOL    HW217553   2.064   5.195   3.804
 5552SOL     OW17554   0.547   6.539   6.501
 5552SOL    HW117555   0.536   6.638   6.503
 5552SOL    HW217556   0.643   6.516   6.519
 5553SOL     OW17557   4.934   0.272   6.721
 5553SOL    HW117558   4.993   0.330   6.777
 5553SOL    HW217559   4.841   0.274   6.759
 5554SOL     OW17560   5.575   2.563   1.756
 5554SOL    HW117561   5.578   2.636   1.687
 5554SOL    HW217562   5.586   2.474   1.711
 5555SOL     OW17563   1.573   4.089   2.393
 5555SOL    HW117564   1.579   4.088   2.493
 5555SOL    HW217565   1.664   4.096   2.354
 5556SOL     OW17566   6.478   0.425   4.992
 5556SOL    HW117567   6.497   0.399   5.087
 5556SOL    HW217568   6.441   0.347   4.942
 5557SOL     OW17569   3.271   6.003   1.886
 5557SOL    HW117570   3.243   6.042   1.973
 5557SOL    HW217571   3.224   5.916   1.871
 5558SOL     OW17572   3.412   4.678   0.080
 5558SOL    HW117573   3.483   4.666   0.149
 5558SOL    HW217574   3.434   4.758   0.024
 5559SOL     OW17575   1.653   6.972   2.875
 5559SOL    HW117576   1.643   7.004   2.969
 5559SOL    HW217577   1.727   0.000   2.830
 5560SOL     OW17578   0.355   6.040   2.974
 5560SOL    HW117579   0.316   6.043   2.882
 5560SOL    HW217580   0.285   6.008   3.039
 5561SOL     OW17581   3.200   0.668   3.709
 5561SOL    HW117582   3.191   0.570   3.723
 5561SOL    HW217583   3.111   0.712   3.719
 5562SOL     OW17584   3.973   3.843   0.954
 5562SOL    HW117585   3.959   3.748   0.984
 5562SOL    HW217586   4.039   3.844   0.879
 5563SOL     OW17587   2.717   4.698   2.878
 5563SOL    HW117588   2.696   4.620   2.820
 5563SOL    HW217589   2.647   4.768   2.865
 5564SOL     OW17590   5.735   0.693   5.929
 5564SOL    HW117591   5.783   0.737   6.005
 5564SOL    HW217592   5.734   0.753   5.850
 5565SOL     OW17593   3.357   2.400   6.714
 5565SOL    HW117594   3.351   2.301   6.708
 5565SOL    HW217595   3.445   2.426   6.753
 5566SOL     OW17596   1.253   3.297   6.385
 5566SOL    HW117597   1.222   3.283   6.291
 5566SOL    HW217598   1.215   3.225   6.444
 5567SOL     OW17599   6.834   3.781   1.559
 5567SOL    HW117600   6.843   3.869   1.605
 5567SOL    HW217601   6.741   3.747   1.569
 5568SOL     OW17602   4.304   6.792   2.332
 5568SOL    HW117603   4.384   6.790   2.391
 5568SOL    HW217604   4.280   6.699   2.304
 5569SOL     OW17605   2.606   2.536   4.438
 5569SOL    HW117606   2.619   2.583   4.351
 5569SOL    HW217607   2.688   2.483   4.460
 5570SOL     OW17608   0.006   3.382   3.055
 5570SOL    HW117609   0.009   3.301   3.113
 5570SOL    HW217610   6.947   3.378   2.995
 5571SOL     OW17611   6.963   5.204   1.840
 5571SOL    HW117612   0.032   5.246   1.842
 5571SOL    HW217613   6.949   5.152   1.925
 5572SOL     OW17614   0.722   3.402   4.838
 5572SOL    HW117615   0.731   3.351   4.753
 5572SOL    HW217616   0.638   3.374   4.885
 5573SOL     OW17617   2.532   5.182   4.565
 5573SOL    HW117618   2.502   5.159   4.472
 5573SOL    HW217619   2.456   5.166   4.629
 5574SOL     OW17620   0.381   2.469   6.633
 5574SOL    HW117621   0.427   2.461   6.722
 5574SOL    HW217622   0.316   2.545   6.636
 5575SOL     OW17623   0.406   0.568   1.230
 5575SOL    HW117624   0.485   0.607   1.277
 5575SOL    HW217625   0.334   0.550   1.297
 5576SOL     OW17626   1.837   3.824   3.476
 5576SOL    HW117627   1.887   3.909   3.459
 5576SOL    HW217628   1.816   3.780   3.389
 5577SOL     OW17629   1.499   3.258   6.341
 5577SOL    HW117630   1.404   3.270   6.371
 5577SOL    HW217631   1.552   3.338   6.368
 5578SOL     OW17632   3.364   2.921   2.687
 5578SOL    HW117633   3.427   2.984   2.642
 5578SOL    HW217634   3.297   2.887   2.621
 5579SOL     OW17635   6.856   2.651   1.387
 5579SOL    HW117636   6.856   2.750   1.377
 5579SOL    HW217637   6.929   2.624   1.450
 5580SOL     OW17638   4.575   2.066   5.446
 5580SOL    HW117639   4.528   2.142   5.402
 5580SOL    HW217640   4.601   2.093   5.539
 5581SOL     OW17641   0.689   1.624   0.543
 5581SOL    HW117642   0.649   1.542   0.500
 5581SOL    HW217643   0.788   1.611   0.553
 5582SOL     OW17644   2.062   3.546   6.086
 5582SOL    HW117645   2.056   3.639   6.048
 5582SOL    HW217646   2.128   3.545   6.161
 5583SOL     OW17647   5.147   1.549   2.273
 5583SOL    HW117648   5.108   1.473   2.220
 5583SOL    HW217649   5.166   1.519   2.366
 5584SOL     OW17650   0.273   4.360   5.012
 5584SOL    HW117651   0.225   4.347   5.099
 5584SOL    HW217652   0.209   4.348   4.936
 5585SOL     OW17653   4.528   5.521   2.191
 5585SOL    HW117654   4.503   5.539   2.096
 5585SOL    HW217655   4.566   5.604   2.231
 5586SOL     OW17656   6.714   2.849   6.009
 5586SOL    HW117657   6.640   2.803   5.960
 5586SOL    HW217658   6.682   2.938   6.042
 5587SOL     OW17659   4.338   0.649   6.574
 5587SOL    HW117660   4.331   0.749   6.572
 5587SOL    HW217661   4.369   0.616   6.485
 5588SOL     OW17662   3.096   6.647   2.108
 5588SOL    HW117663   3.081   6.656   2.009
 5588SOL    HW217664   3.010   6.660   2.156
 5589SOL     OW17665   6.102   4.498   6.501
 5589SOL    HW117666   6.113   4.585   6.453
 5589SOL    HW217667   6.023   4.503   6.562
 5590SOL     OW17668   5.892   5.880   3.850
 5590SOL    HW117669   5.980   5.877   3.803
 5590SOL    HW217670   5.879   5.971   3.890
 5591SOL     OW17671   6.627   1.497   1.729
 5591SOL    HW117672   6.578   1.554   1.795
 5591SOL    HW217673   6.725   1.510   1.741
 5592SOL     OW17674   1.052   4.482   3.589
 5592SOL    HW117675   1.078   4.390   3.619
 5592SOL    HW217676   1.103   4.550   3.643
 5593SOL     OW17677   6.300   2.043   6.964
 5593SOL    HW117678   6.293   2.036   6.865
 5593SOL    HW217679   6.316   1.952   7.002
 5594SOL     OW17680   5.547   1.964   5.484
 5594SOL    HW117681   5.456   2.002   5.501
 5594SOL    HW217682   5.554   1.937   5.388
 5595SOL     OW17683   0.613   2.515   4.871
 5595SOL    HW117684   0.671   2.495   4.950
 5595SOL    HW217685   0.525   2.551   4.902
 5596SOL     OW17686   4.136   6.982   2.914
 5596SOL    HW117687   4.121   0.039   2.854
 5596SOL    HW217688   4.189   7.010   2.994
 5597SOL     OW17689   5.277   3.111   3.742
 5597SOL    HW117690   5.369   3.144   3.764
 5597SOL    HW217691   5.275   3.076   3.648
 5598SOL     OW17692   5.461   2.839   4.236
 5598SOL    HW117693   5.394   2.901   4.278
 5598SOL    HW217694   5.419   2.797   4.155
 5599SOL     OW17695   0.844   1.514   4.498
 5599SOL    HW117696   0.914   1.501   4.428
 5599SOL    HW217697   0.790   1.595   4.476
 5600SOL     OW17698   1.334   2.596   4.208
 5600SOL    HW117699   1.293   2.515   4.251
 5600SOL    HW217700   1.424   2.572   4.171
 5601SOL     OW17701   2.655   0.368   6.330
 5601SOL    HW117702   2.680   0.434   6.401
 5601SOL    HW217703   2.699   0.281   6.348
 5602SOL     OW17704   0.815   1.134   0.806
 5602SOL    HW117705   0.731   1.092   0.839
 5602SOL    HW217706   0.800   1.231   0.787
 5603SOL     OW17707   5.203   1.846   6.892
 5603SOL    HW117708   5.230   1.914   6.961
 5603SOL    HW217709   5.129   1.790   6.928
 5604SOL     OW17710   6.153   2.153   5.895
 5604SOL    HW117711   6.171   2.068   5.945
 5604SOL    HW217712   6.237   2.206   5.887
 5605SOL     OW17713   0.500   1.913   4.483
 5605SOL    HW117714   0.582   1.869   4.447
 5605SOL    HW217715   0.500   1.909   4.582
 5606SOL     OW17716   4.860   6.334   1.207
 5606SOL    HW117717   4.862   6.424   1.164
 5606SOL    HW217718   4.909   6.337   1.295
 5607SOL     OW17719   5.330   1.810   1.967
 5607SOL    HW117720   5.368   1.885   2.022
 5607SOL    HW217721   5.342   1.724   2.016
 5608SOL     OW17722   4.511   0.368   5.345
 5608SOL    HW117723   4.484   0.296   5.280
 5608SOL    HW217724   4.464   0.352   5.432
 5609SOL     OW17725   2.563   5.968   6.850
 5609SOL    HW117726   2.611   5.917   6.778
 5609SOL    HW217727   2.483   6.013   6.811
 5610SOL     OW17728   5.011   0.582   0.123
 5610SOL    HW117729   5.095   0.530   0.132
 5610SOL    HW217730   5.026   0.661   0.063
 5611SOL     OW17731   1.750   5.004   2.844
 5611SOL    HW117732   1.715   5.012   2.750
 5611SOL    HW217733   1.832   4.947   2.844
 5612SOL     OW17734   3.808   0.670   5.854
 5612SOL    HW117735   3.824   0.657   5.756
 5612SOL    HW217736   3.896   0.672   5.902
 5613SOL     OW17737   4.560   4.693   2.321
 5613SOL    HW117738   4.462   4.691   2.302
 5613SOL    HW217739   4.599   4.602   2.304
 5614SOL     OW17740   4.761   2.752   3.442
 5614SOL    HW117741   4.704   2.726   3.521
 5614SOL    HW217742   4.844   2.697   3.442
 5615SOL     OW17743   1.133   0.423   0.116
 5615SOL    HW117744   1.158   0.334   0.152
 5615SOL    HW217745   1.040   0.445   0.143
 5616SOL     OW17746   2.186   1.282   4.372
 5616SOL    HW117747   2.130   1.328   4.304
 5616SOL    HW217748   2.200   1.187   4.346
 5617SOL     OW17749   2.379   0.551   5.285
 5617SOL    HW117750   2.462   0.499   5.262
 5617SOL    HW217751   2.302   0.487   5.294
 5618SOL     OW17752   5.857   4.260   3.796
 5618SOL    HW117753   5.893   4.272   3.704
 5618SOL    HW217754   5.931   4.273   3.863
 5619SOL     OW17755   2.147   3.786   5.889
 5619SOL    HW117756   2.173   3.832   5.974
 5619SOL    HW217757   2.229   3.769   5.834
 5620SOL     OW17758   3.683   2.351   0.168
 5620SOL    HW117759   3.668   2.420   0.239
 5620SOL    HW217760   3.721   2.268   0.210
 5621SOL     OW17761   1.592   1.347   5.581
 5621SOL    HW117762   1.543   1.425   5.621
 5621SOL    HW217763   1.669   1.380   5.527
 5622SOL     OW17764   4.902   0.716   5.858
 5622SOL    HW117765   4.848   0.723   5.775
 5622SOL    HW217766   4.998   0.699   5.835
 5623SOL     OW17767   1.882   6.189   6.211
 5623SOL    HW117768   1.785   6.168   6.193
 5623SOL    HW217769   1.935   6.104   6.204
 5624SOL     OW17770   1.066   4.529   3.164
 5624SOL    HW117771   1.124   4.606   3.190
 5624SOL    HW217772   1.000   4.511   3.237
 5625SOL     OW17773   6.722   2.992   4.360
 5625SOL    HW117774   6.694   3.082   4.326
 5625SOL    HW217775   6.702   2.923   4.290
 5626SOL     OW17776   3.242   6.762   5.205
 5626SOL    HW117777   3.192   6.680   5.232
 5626SOL    HW217778   3.245   6.768   5.105
 5627SOL     OW17779   1.810   6.117   1.754
 5627SOL    HW117780   1.890   6.136   1.811
 5627SOL    HW217781   1.833   6.132   1.658
 5628SOL     OW17782   1.971   1.781   5.420
 5628SOL    HW117783   2.027   1.715   5.369
 5628SOL    HW217784   2.026   1.819   5.495
 5629SOL     OW17785   3.277   3.745   2.549
 5629SOL    HW117786   3.323   3.813   2.605
 5629SOL    HW217787   3.193   3.783   2.511
 5630SOL     OW17788   0.893   4.924   1.178
 5630SOL    HW117789   0.919   4.827   1.184
 5630SOL    HW217790   0.942   4.975   1.248
 5631SOL     OW17791   4.074   1.054   0.357
 5631SOL    HW117792   4.056   0.960   0.384
 5631SOL    HW217793   3.996   1.112   0.379
 5632SOL     OW17794   4.389   4.041   6.515
 5632SOL    HW117795   4.455   4.015   6.445
 5632SOL    HW217796   4.339   4.122   6.484
 5633SOL     OW17797   6.676   2.958   4.057
 5633SOL    HW117798   6.649   2.960   3.960
 5633SOL    HW217799   6.771   2.986   4.067
 5634SOL     OW17800   3.763   5.013   4.716
 5634SOL    HW117801   3.838   4.993   4.653
 5634SOL    HW217802   3.682   4.962   4.687
 5635SOL     OW17803   2.625   2.564   5.134
 5635SOL    HW117804   2.602   2.637   5.199
 5635SOL    HW217805   2.694   2.504   5.175
 5636SOL     OW17806   4.147   5.540   3.149
 5636SOL    HW117807   4.079   5.542   3.222
 5636SOL    HW217808   4.166   5.633   3.119
 5637SOL     OW17809   6.283   0.023   4.366
 5637SOL    HW117810   6.306   6.985   4.288
 5637SOL    HW217811   6.266   0.116   4.333
 5638SOL     OW17812   5.144   2.754   0.246
 5638SOL    HW117813   5.144   2.846   0.286
 5638SOL    HW217814   5.227   2.706   0.275
 5639SOL     OW17815   0.641   1.506   6.380
 5639SOL    HW117816   0.715   1.504   6.447
 5639SOL    HW217817   0.676   1.482   6.290
 5640SOL     OW17818   2.467   6.987   3.907
 5640SOL    HW117819   2.558   7.003   3.870
 5640SOL    HW217820   2.442   6.891   3.895
 5641SOL     OW17821   6.639   5.321   5.661
 5641SOL    HW117822   6.676   5.270   5.583
 5641SOL    HW217823   6.574   5.390   5.628
 5642SOL     OW17824   1.772   1.835   6.526
 5642SOL    HW117825   1.760   1.748   6.479
 5642SOL    HW217826   1.696   1.850   6.589
 5643SOL     OW17827   6.448   2.701   4.379
 5643SOL    HW117828   6.518   2.748   4.433
 5643SOL    HW217829   6.405   2.630   4.435
 5644SOL     OW17830   2.932   6.779   6.339
 5644SOL    HW117831   2.927   6.875   6.311
 5644SOL    HW217832   2.840   6.741   6.346
 5645SOL     OW17833   5.728   3.726   3.703
 5645SOL    HW117834   5.696   3.662   3.773
 5645SOL    HW217835   5.694   3.698   3.614
 5646SOL     OW17836   1.984   4.273   2.876
 5646SOL    HW117837   1.950   4.238   2.963
 5646SOL    HW217838   2.063   4.220   2.847
 5647SOL     OW17839   5.926   6.176   2.679
 5647SOL    HW117840   5.909   6.085   2.640
 5647SOL    HW217841   6.009   6.214   2.640
 5648SOL     OW17842   3.549   6.304   2.850
 5648SOL    HW117843   3.597   6.254   2.779
 5648SOL    HW217844   3.579   6.399   2.850
 5649SOL     OW17845   0.789   5.749   3.660
 5649SOL    HW117846   0.777   5.651   3.676
 5649SOL    HW217847   0.702   5.795   3.674
 5650SOL     OW17848   0.200   4.445   0.473
 5650SOL    HW117849   0.137   4.448   0.396
 5650SOL    HW217850   0.267   4.519   0.465
 5651SOL     OW17851   1.689   0.679   0.978
 5651SOL    HW117852   1.649   0.607   1.035
 5651SOL    HW217853   1.647   0.767   1.001
 5652SOL     OW17854   0.523   4.838   1.858
 5652SOL    HW117855   0.486   4.822   1.766
 5652SOL    HW217856   0.452   4.820   1.926
 5653SOL     OW17857   0.044   6.222   1.702
 5653SOL    HW117858   0.125   6.179   1.743
 5653SOL    HW217859   0.073   6.298   1.644
 5654SOL     OW17860   2.203   6.118   4.699
 5654SOL    HW117861   2.236   6.165   4.617
 5654SOL    HW217862   2.108   6.089   4.685
 5655SOL     OW17863   6.466   3.119   4.176
 5655SOL    HW117864   6.528   3.044   4.153
 5655SOL    HW217865   6.426   3.103   4.266
 5656SOL     OW17866   0.485   2.940   6.421
 5656SOL    HW117867   0.405   2.913   6.367
 5656SOL    HW217868   0.517   2.862   6.475
 5657SOL     OW17869   4.230   5.085   5.023
 5657SOL    HW117870   4.325   5.080   4.992
 5657SOL    HW217871   4.181   5.003   4.993
 5658SOL     OW17872   1.971   2.101   5.768
 5658SOL    HW117873   1.877   2.127   5.792
 5658SOL    HW217874   2.030   2.182   5.776
 5659SOL     OW17875   3.459   4.167   6.184
 5659SOL    HW117876   3.503   4.086   6.224
 5659SOL    HW217877   3.381   4.138   6.128
 5660SOL     OW17878   4.316   6.941   6.926
 5660SOL    HW117879   4.374   6.860   6.913
 5660SOL    HW217880   4.280   6.970   6.837
 5661SOL     OW17881   1.344   5.509   5.706
 5661SOL    HW117882   1.424   5.451   5.718
 5661SOL    HW217883   1.274   5.459   5.656
 5662SOL     OW17884   2.808   6.228   2.690
 5662SOL    HW117885   2.906   6.223   2.674
 5662SOL    HW217886   2.768   6.137   2.688
 5663SOL     OW17887   0.955   3.165   0.459
 5663SOL    HW117888   0.914   3.084   0.417
 5663SOL    HW217889   1.055   3.158   0.454
 5664SOL     OW17890   5.026   4.145   4.383
 5664SOL    HW117891   4.966   4.095   4.446
 5664SOL    HW217892   5.019   4.106   4.292
 5665SOL     OW17893   2.241   0.620   1.060
 5665SOL    HW117894   2.200   0.535   1.093
 5665SOL    HW217895   2.169   0.684   1.032
 5666SOL     OW17896   6.277   0.883   5.079
 5666SOL    HW117897   6.299   0.795   5.121
 5666SOL    HW217898   6.221   0.868   4.998
 5667SOL     OW17899   2.439   5.613   4.717
 5667SOL    HW117900   2.419   5.707   4.690
 5667SOL    HW217901   2.442   5.555   4.635
 5668SOL     OW17902   5.558   3.153   3.576
 5668SOL    HW117903   5.654   3.129   3.560
 5668SOL    HW217904   5.542   3.160   3.674
 5669SOL     OW17905   6.327   4.143   6.690
 5669SOL    HW117906   6.405   4.089   6.660
 5669SOL    HW217907   6.322   4.142   6.790
 5670SOL     OW17908   1.237   2.607   2.250
 5670SOL    HW117909   1.158   2.638   2.302
 5670SOL    HW217910   1.222   2.512   2.220
 5671SOL     OW17911   0.152   7.010   3.749
 5671SOL    HW117912   0.112   6.983   3.837
 5671SOL    HW217913   0.146   6.934   3.685
 5672SOL     OW17914   5.124   3.799   5.141
 5672SOL    HW117915   5.078   3.714   5.169
 5672SOL    HW217916   5.221   3.792   5.161
 5673SOL     OW17917   1.009   0.560   1.132
 5673SOL    HW117918   0.928   0.503   1.149
 5673SOL    HW217919   1.006   0.640   1.192
 5674SOL     OW17920   1.690   5.691   5.092
 5674SOL    HW117921   1.635   5.711   5.173
 5674SOL    HW217922   1.770   5.636   5.118
 5675SOL     OW17923   2.161   1.935   0.342
 5675SOL    HW117924   2.220   2.015   0.340
 5675SOL    HW217925   2.164   1.888   0.254
 5676SOL     OW17926   2.638   2.195   1.751
 5676SOL    HW117927   2.648   2.191   1.850
 5676SOL    HW217928   2.725   2.222   1.710
 5677SOL     OW17929   0.031   7.010   1.261
 5677SOL    HW117930   0.098   0.056   1.231
 5677SOL    HW217931   0.069   6.958   1.338
 5678SOL     OW17932   3.682   2.108   1.701
 5678SOL    HW117933   3.594   2.061   1.706
 5678SOL    HW217934   3.679   2.190   1.759
 5679SOL     OW17935   6.200   3.342   5.068
 5679SOL    HW117936   6.145   3.265   5.100
 5679SOL    HW217937   6.218   3.404   5.144
 5680SOL     OW17938   1.734   5.709   5.906
 5680SOL    HW117939   1.653   5.696   5.964
 5680SOL    HW217940   1.732   5.800   5.865
 5681SOL     OW17941   0.754   4.140   3.151
 5681SOL    HW117942   0.683   4.078   3.118
 5681SOL    HW217943   0.840   4.122   3.103
 5682SOL     OW17944   2.265   4.283   2.193
 5682SOL    HW117945   2.320   4.367   2.197
 5682SOL    HW217946   2.172   4.302   2.224
 5683SOL     OW17947   4.571   1.449   0.096
 5683SOL    HW117948   4.575   1.434   0.195
 5683SOL    HW217949   4.477   1.437   0.065
 5684SOL     OW17950   2.464   2.553   5.463
 5684SOL    HW117951   2.488   2.628   5.402
 5684SOL    HW217952   2.409   2.589   5.539
 5685SOL     OW17953   2.717   2.103   3.996
 5685SOL    HW117954   2.801   2.048   4.000
 5685SOL    HW217955   2.741   2.199   3.981
 5686SOL     OW17956   3.009   6.344   6.008
 5686SOL    HW117957   2.990   6.277   5.937
 5686SOL    HW217958   3.049   6.298   6.088
 5687SOL     OW17959   2.391   6.305   6.030
 5687SOL    HW117960   2.462   6.235   6.039
 5687SOL    HW217961   2.429   6.394   6.053
 5688SOL     OW17962   2.149   3.331   3.296
 5688SOL    HW117963   2.051   3.345   3.277
 5688SOL    HW217964   2.194   3.420   3.304
 5689SOL     OW17965   1.283   1.749   1.559
 5689SOL    HW117966   1.324   1.833   1.596
 5689SOL    HW217967   1.324   1.670   1.604
 5690SOL     OW17968   1.329   5.954   0.120
 5690SOL    HW117969   1.341   6.037   0.066
 5690SOL    HW217970   1.297   5.978   0.212
 5691SOL     OW17971   3.669   1.174   2.705
 5691SOL    HW117972   3.644   1.243   2.773
 5691SOL    HW217973   3.732   1.214   2.639
 5692SOL     OW17974   4.440   4.770   1.302
 5692SOL    HW117975   4.534   4.797   1.322
 5692SOL    HW217976   4.390   4.847   1.262
 5693SOL     OW17977   3.504   1.002   1.410
 5693SOL    HW117978   3.519   0.967   1.318
 5693SOL    HW217979   3.464   1.094   1.405
 5694SOL     OW17980   0.326   6.892   2.448
 5694SOL    HW117981   0.255   6.932   2.506
 5694SOL    HW217982   0.413   6.938   2.466
 5695SOL     OW17983   0.931   0.631   0.859
 5695SOL    HW117984   0.893   0.625   0.951
 5695SOL    HW217985   1.024   0.667   0.864
 5696SOL     OW17986   1.619   0.009   3.814
 5696SOL    HW117987   1.670   6.975   3.881
 5696SOL    HW217988   1.522   7.007   3.819
 5697SOL     OW17989   6.224   2.707   0.683
 5697SOL    HW117990   6.229   2.726   0.585
 5697SOL    HW217991   6.149   2.760   0.724
 5698SOL     OW17992   2.296   2.804   3.790
 5698SOL    HW117993   2.321   2.876   3.856
 5698SOL    HW217994   2.207   2.825   3.751
 5699SOL     OW17995   2.407   2.572   2.714
 5699SOL    HW117996   2.465   2.497   2.681
 5699SOL    HW217997   2.351   2.539   2.790
 5700SOL     OW17998   6.045   0.546   3.353
 5700SOL    HW117999   6.031   0.530   3.451
 5700SOL    HW218000   6.139   0.524   3.329
 5701SOL     OW18001   6.851   0.635   0.643
 5701SOL    HW118002   6.784   0.650   0.571
 5701SOL    HW218003   6.810   0.580   0.716
 5702SOL     OW18004   2.590   6.944   4.766
 5702SOL    HW118005   2.575   0.011   4.808
 5702SOL    HW218006   2.577   6.871   4.833
 5703SOL     OW18007   6.878   2.672   6.700
 5703SOL    HW118008   6.906   2.616   6.779
 5703SOL    HW218009   6.870   2.613   6.619
 5704SOL     OW18010   5.436   4.494   4.258
 5704SOL    HW118011   5.456   4.507   4.161
 5704SOL    HW218012   5.361   4.429   4.268
 5705SOL     OW18013   5.998   6.635   6.253
 5705SOL    HW118014   5.943   6.709   6.292
 5705SOL    HW218015   5.943   6.585   6.185
 5706SOL     OW18016   5.657   2.327   6.928
 5706SOL    HW118017   5.748   2.292   6.909
 5706SOL    HW218018   5.647   2.347   0.004
 5707SOL     OW18019   5.693   6.605   2.266
 5707SOL    HW118020   5.741   6.521   2.292
 5707SOL    HW218021   5.624   6.626   2.335
 5708SOL     OW18022   4.525   5.890   3.541
 5708SOL    HW118023   4.499   5.804   3.583
 5708SOL    HW218024   4.479   5.900   3.453
 5709SOL     OW18025   0.693   1.124   2.309
 5709SOL    HW118026   0.625   1.080   2.251
 5709SOL    HW218027   0.750   1.185   2.254
 5710SOL     OW18028   2.438   2.108   0.990
 5710SOL    HW118029   2.513   2.174   0.998
 5710SOL    HW218030   2.393   2.120   0.902
 5711SOL     OW18031   4.989   2.014   2.070
 5711SOL    HW118032   4.993   1.963   1.985
 5711SOL    HW218033   4.895   2.017   2.104
 5712SOL     OW18034   6.580   6.349   1.781
 5712SOL    HW118035   6.509   6.387   1.722
 5712SOL    HW218036   6.651   6.418   1.797
 5713SOL     OW18037   2.706   6.339   0.449
 5713SOL    HW118038   2.732   6.339   0.352
 5713SOL    HW218039   2.607   6.329   0.457
 5714SOL     OW18040   6.316   6.343   1.642
 5714SOL    HW118041   6.225   6.337   1.599
 5714SOL    HW218042   6.311   6.308   1.735
 5715SOL     OW18043   0.865   0.254   1.477
 5715SOL    HW118044   0.781   0.308   1.466
 5715SOL    HW218045   0.944   0.315   1.477
 5716SOL     OW18046   6.909   4.597   6.033
 5716SOL    HW118047   6.977   4.578   6.103
 5716SOL    HW218048   6.840   4.524   6.033
 5717SOL     OW18049   1.490   5.062   2.990
 5717SOL    HW118050   1.471   4.966   3.011
 5717SOL    HW218051   1.588   5.078   2.994
 5718SOL     OW18052   1.098   3.160   0.137
 5718SOL    HW118053   1.137   3.250   0.121
 5718SOL    HW218054   0.998   3.167   0.143
 5719SOL     OW18055   2.933   4.072   0.683
 5719SOL    HW118056   2.961   4.059   0.588
 5719SOL    HW218057   3.006   4.041   0.744
 5720SOL     OW18058   1.856   5.137   5.593
 5720SOL    HW118059   1.950   5.159   5.565
 5720SOL    HW218060   1.816   5.074   5.527
 5721SOL     OW18061   4.434   4.255   0.345
 5721SOL    HW118062   4.422   4.349   0.313
 5721SOL    HW218063   4.379   4.240   0.427
 5722SOL     OW18064   0.746   0.945   5.543
 5722SOL    HW118065   0.813   1.012   5.511
 5722SOL    HW218066   0.763   0.857   5.498
 5723SOL     OW18067   4.500   3.239   6.902
 5723SOL    HW118068   4.572   3.294   6.944
 5723SOL    HW218069   4.415   3.250   6.953
 5724SOL     OW18070   4.925   2.355   3.499
 5724SOL    HW118071   5.014   2.328   3.535
 5724SOL    HW218072   4.891   2.284   3.437
 5725SOL     OW18073   6.809   4.117   3.731
 5725SOL    HW118074   6.723   4.068   3.747
 5725SOL    HW218075   6.881   4.051   3.709
 5726SOL     OW18076   5.228   4.792   2.863
 5726SOL    HW118077   5.146   4.756   2.908
 5726SOL    HW218078   5.299   4.721   2.861
 5727SOL     OW18079   0.547   2.893   4.604
 5727SOL    HW118080   0.598   2.810   4.583
 5727SOL    HW218081   0.553   2.956   4.527
 5728SOL     OW18082   5.244   5.898   5.027
 5728SOL    HW118083   5.190   5.969   4.982
 5728SOL    HW218084   5.319   5.870   4.967
 5729SOL     OW18085   1.982   1.494   5.980
 5729SOL    HW118086   2.061   1.494   5.919
 5729SOL    HW218087   1.929   1.410   5.967
 5730SOL     OW18088   6.131   4.017   5.919
 5730SOL    HW118089   6.197   3.971   5.978
 5730SOL    HW218090   6.063   4.064   5.975
 5731SOL     OW18091   0.289   6.160   1.798
 5731SOL    HW118092   0.315   6.174   1.893
 5731SOL    HW218093   0.371   6.158   1.740
 5732SOL     OW18094   1.338   6.965   3.830
 5732SOL    HW118095   1.289   6.912   3.762
 5732SOL    HW218096   1.352   6.909   3.912
 5733SOL     OW18097   3.323   0.255   5.128
 5733SOL    HW118098   3.358   0.208   5.046
 5733SOL    HW218099   3.335   0.196   5.208
 5734SOL     OW18100   2.211   5.963   3.031
 5734SOL    HW118101   2.188   5.866   3.040
 5734SOL    HW218102   2.199   5.991   2.936
 5735SOL     OW18103   3.042   0.950   2.155
 5735SOL    HW118104   2.971   1.013   2.186
 5735SOL    HW218105   3.091   0.991   2.078
 5736SOL     OW18106   1.030   5.529   0.122
 5736SOL    HW118107   1.027   5.549   0.220
 5736SOL    HW218108   0.995   5.608   0.072
 5737SOL     OW18109   5.511   4.658   0.478
 5737SOL    HW118110   5.430   4.708   0.450
 5737SOL    HW218111   5.489   4.599   0.556
 5738SOL     OW18112   1.565   4.016   5.767
 5738SOL    HW118113   1.525   4.015   5.858
 5738SOL    HW218114   1.549   4.105   5.724
 5739SOL     OW18115   1.027   1.196   0.942
 5739SOL    HW118116   0.961   1.148   0.884
 5739SOL    HW218117   1.065   1.274   0.892
 5740SOL     OW18118   4.067   5.929   5.933
 5740SOL    HW118119   4.167   5.939   5.932
 5740SOL    HW218120   4.040   5.863   5.863
 5741SOL     OW18121   0.893   5.034   4.166
 5741SOL    HW118122   0.957   4.996   4.234
 5741SOL    HW218123   0.815   4.973   4.156
 5742SOL     OW18124   6.392   6.623   4.038
 5742SOL    HW118125   6.480   6.652   4.076
 5742SOL    HW218126   6.399   6.619   3.938
 5743SOL     OW18127   1.518   6.732   5.366
 5743SOL    HW118128   1.604   6.708   5.410
 5743SOL    HW218129   1.531   6.812   5.308
 5744SOL     OW18130   6.404   0.293   2.171
 5744SOL    HW118131   6.402   0.363   2.100
 5744SOL    HW218132   6.321   0.299   2.227
 5745SOL     OW18133   1.733   1.825   3.620
 5745SOL    HW118134   1.684   1.857   3.539
 5745SOL    HW218135   1.666   1.795   3.689
 5746SOL     OW18136   5.254   3.405   0.297
 5746SOL    HW118137   5.285   3.388   0.391
 5746SOL    HW218138   5.239   3.503   0.284
 5747SOL     OW18139   1.009   5.875   3.248
 5747SOL    HW118140   1.082   5.943   3.256
 5747SOL    HW218141   1.014   5.812   3.325
 5748SOL     OW18142   2.365   6.449   2.459
 5748SOL    HW118143   2.385   6.543   2.432
 5748SOL    HW218144   2.266   6.435   2.459
 5749SOL     OW18145   2.557   1.688   3.607
 5749SOL    HW118146   2.503   1.662   3.687
 5749SOL    HW218147   2.513   1.765   3.560
 5750SOL     OW18148   6.421   5.801   2.634
 5750SOL    HW118149   6.462   5.878   2.585
 5750SOL    HW218150   6.491   5.733   2.654
 5751SOL     OW18151   2.324   3.954   5.555
 5751SOL    HW118152   2.255   3.897   5.513
 5751SOL    HW218153   2.286   4.045   5.573
 5752SOL     OW18154   6.720   0.250   6.646
 5752SOL    HW118155   6.711   0.350   6.645
 5752SOL    HW218156   6.629   0.209   6.648
 5753SOL     OW18157   3.678   2.400   0.636
 5753SOL    HW118158   3.759   2.343   0.618
 5753SOL    HW218159   3.705   2.497   0.634
 5754SOL     OW18160   6.194   4.660   1.536
 5754SOL    HW118161   6.216   4.747   1.491
 5754SOL    HW218162   6.097   4.659   1.559
 5755SOL     OW18163   3.610   3.992   1.159
 5755SOL    HW118164   3.553   3.912   1.140
 5755SOL    HW218165   3.681   3.967   1.225
 5756SOL     OW18166   0.181   5.712   4.818
 5756SOL    HW118167   0.221   5.667   4.898
 5756SOL    HW218168   0.174   5.647   4.743
 5757SOL     OW18169   0.576   4.657   1.004
 5757SOL    HW118170   0.548   4.566   1.034
 5757SOL    HW218171   0.536   4.726   1.064
 5758SOL     OW18172   1.117   1.910   5.621
 5758SOL    HW118173   1.049   1.962   5.570
 5758SOL    HW218174   1.171   1.854   5.558
 5759SOL     OW18175   5.650   1.841   5.231
 5759SOL    HW118176   5.693   1.840   5.141
 5759SOL    HW218177   5.556   1.807   5.223
 5760SOL     OW18178   2.003   5.259   2.395
 5760SOL    HW118179   2.090   5.225   2.361
 5760SOL    HW218180   2.020   5.324   2.470
 5761SOL     OW18181   4.945   0.193   4.962
 5761SOL    HW118182   4.947   0.183   5.061
 5761SOL    HW218183   5.036   0.217   4.929
 5762SOL     OW18184   5.644   6.048   1.505
 5762SOL    HW118185   5.690   6.000   1.580
 5762SOL    HW218186   5.706   6.054   1.426
 5763SOL     OW18187   1.086   1.048   1.742
 5763SOL    HW118188   1.155   1.102   1.695
 5763SOL    HW218189   1.112   0.952   1.742
 5764SOL     OW18190   4.290   3.720   5.216
 5764SOL    HW118191   4.369   3.661   5.195
 5764SOL    HW218192   4.233   3.729   5.135
 5765SOL     OW18193   5.742   5.228   0.089
 5765SOL    HW118194   5.806   5.193   0.021
 5765SOL    HW218195   5.793   5.256   0.171
 5766SOL     OW18196   3.651   1.491   3.280
 5766SOL    HW118197   3.594   1.538   3.348
 5766SOL    HW218198   3.645   1.393   3.294
 5767SOL     OW18199   0.095   6.551   1.775
 5767SOL    HW118200   0.097   6.469   1.717
 5767SOL    HW218201   0.165   6.543   1.846
 5768SOL     OW18202   6.792   1.650   2.918
 5768SOL    HW118203   6.818   1.591   2.842
 5768SOL    HW218204   6.773   1.742   2.884
 5769SOL     OW18205   2.407   5.500   3.667
 5769SOL    HW118206   2.327   5.466   3.716
 5769SOL    HW218207   2.455   5.424   3.624
 5770SOL     OW18208   6.142   0.536   1.656
 5770SOL    HW118209   6.239   0.559   1.652
 5770SOL    HW218210   6.124   0.481   1.738
 5771SOL     OW18211   0.819   1.626   1.939
 5771SOL    HW118212   0.824   1.696   2.011
 5771SOL    HW218213   0.909   1.618   1.895
 5772SOL     OW18214   6.958   3.990   6.766
 5772SOL    HW118215   7.018   4.062   6.733
 5772SOL    HW218216   6.934   4.008   6.862
 5773SOL     OW18217   5.747   5.781   4.109
 5773SOL    HW118218   5.796   5.774   4.196
 5773SOL    HW218219   5.813   5.794   4.035
 5774SOL     OW18220   2.228   5.035   3.554
 5774SOL    HW118221   2.210   4.990   3.641
 5774SOL    HW218222   2.287   4.977   3.498
 5775SOL     OW18223   0.172   0.407   6.936
 5775SOL    HW118224   0.137   0.440   0.002
 5775SOL    HW218225   0.228   0.325   6.951
 5776SOL     OW18226   5.736   0.857   5.707
 5776SOL    HW118227   5.791   0.890   5.630
 5776SOL    HW218228   5.641   0.846   5.678
 5777SOL     OW18229   6.620   0.934   5.405
 5777SOL    HW118230   6.665   0.921   5.317
 5777SOL    HW218231   6.523   0.956   5.389
 5778SOL     OW18232   2.512   6.696   4.021
 5778SOL    HW118233   2.589   6.746   4.061
 5778SOL    HW218234   2.534   6.598   4.016
 5779SOL     OW18235   4.448   1.377   2.689
 5779SOL    HW118236   4.498   1.416   2.611
 5779SOL    HW218237   4.357   1.350   2.660
 5780SOL     OW18238   5.975   3.698   1.417
 5780SOL    HW118239   6.073   3.722   1.419
 5780SOL    HW218240   5.931   3.731   1.500
 5781SOL     OW18241   2.142   5.472   4.491
 5781SOL    HW118242   2.133   5.572   4.484
 5781SOL    HW218243   2.117   5.444   4.583
 5782SOL     OW18244   2.719   1.715   2.649
 5782SOL    HW118245   2.628   1.721   2.690
 5782SOL    HW218246   2.745   1.805   2.614
 5783SOL     OW18247   1.961   6.770   0.636
 5783SOL    HW118248   1.971   6.835   0.711
 5783SOL    HW218249   1.947   6.678   0.672
 5784SOL     OW18250   1.520   5.654   0.164
 5784SOL    HW118251   1.445   5.648   0.099
 5784SOL    HW218252   1.494   5.610   0.250
 5785SOL     OW18253   1.772   2.329   6.916
 5785SOL    HW118254   1.851   2.309   6.857
 5785SOL    HW218255   1.713   2.395   6.871
 5786SOL     OW18256   1.044   3.133   1.465
 5786SOL    HW118257   1.054   3.039   1.432
 5786SOL    HW218258   0.993   3.186   1.397
 5787SOL     OW18259   0.236   3.185   5.544
 5787SOL    HW118260   0.159   3.134   5.583
 5787SOL    HW218261   0.228   3.281   5.570
 5788SOL     OW18262   1.957   2.555   1.881
 5788SOL    HW118263   2.023   2.615   1.928
 5788SOL    HW218264   2.004   2.504   1.809
 5789SOL     OW18265   3.107   5.195   6.844
 5789SOL    HW118266   3.190   5.143   6.824
 5789SOL    HW218267   3.033   5.131   6.867
 5790SOL     OW18268   6.264   6.162   3.440
 5790SOL    HW118269   6.312   6.164   3.528
 5790SOL    HW218270   6.181   6.217   3.445
 5791SOL     OW18271   3.820   1.267   2.496
 5791SOL    HW118272   3.821   1.366   2.508
 5791SOL    HW218273   3.858   1.244   2.406
 5792SOL     OW18274   5.156   3.203   2.779
 5792SOL    HW118275   5.083   3.150   2.823
 5792SOL    HW218276   5.139   3.300   2.794
 5793SOL     OW18277   4.557   2.306   6.375
 5793SOL    HW118278   4.504   2.271   6.298
 5793SOL    HW218279   4.512   2.280   6.461
 5794SOL     OW18280   3.875   6.480   6.979
 5794SOL    HW118281   3.902   6.552   0.022
 5794SOL    HW218282   3.795   6.511   6.927
 5795SOL     OW18283   2.308   5.681   1.863
 5795SOL    HW118284   2.251   5.668   1.781
 5795SOL    HW218285   2.272   5.758   1.916
 5796SOL     OW18286   4.893   1.152   6.798
 5796SOL    HW118287   4.859   1.082   6.860
 5796SOL    HW218288   4.841   1.237   6.812
 5797SOL     OW18289   5.804   2.476   1.255
 5797SOL    HW118290   5.706   2.494   1.247
 5797SOL    HW218291   5.825   2.448   1.349
 5798SOL     OW18292   1.644   3.637   5.019
 5798SOL    HW118293   1.610   3.713   4.965
 5798SOL    HW218294   1.735   3.658   5.055
 5799SOL     OW18295   2.258   6.421   3.695
 5799SOL    HW118296   2.202   6.403   3.614
 5799SOL    HW218297   2.352   6.440   3.668
 5800SOL     OW18298   1.796   0.103   1.313
 5800SOL    HW118299   1.698   0.087   1.302
 5800SOL    HW218300   1.845   0.016   1.300
 5801SOL     OW18301   2.108   1.409   2.069
 5801SOL    HW118302   2.157   1.327   2.099
 5801SOL    HW218303   2.050   1.442   2.144
 5802SOL     OW18304   0.432   0.797   1.541
 5802SOL    HW118305   0.384   0.746   1.612
 5802SOL    HW218306   0.487   0.870   1.583
 5803SOL     OW18307   0.378   5.480   4.157
 5803SOL    HW118308   0.297   5.454   4.105
 5803SOL    HW218309   0.406   5.572   4.130
 5804SOL     OW18310   5.894   1.756   3.130
 5804SOL    HW118311   5.976   1.767   3.074
 5804SOL    HW218312   5.865   1.845   3.164
 5805SOL     OW18313   1.339   2.700   1.813
 5805SOL    HW118314   1.367   2.604   1.808
 5805SOL    HW218315   1.388   2.745   1.888
 5806SOL     OW18316   6.831   4.287   2.105
 5806SOL    HW118317   6.901   4.355   2.126
 5806SOL    HW218318   6.776   4.269   2.187
 5807SOL     OW18319   1.574   0.461   1.124
 5807SOL    HW118320   1.591   0.381   1.066
 5807SOL    HW218321   1.517   0.434   1.202
 5808SOL     OW18322   6.807   0.121   5.730
 5808SOL    HW118323   6.818   0.096   5.826
 5808SOL    HW218324   6.719   0.167   5.717
 5809SOL     OW18325   0.368   2.187   5.397
 5809SOL    HW118326   0.464   2.208   5.415
 5809SOL    HW218327   0.311   2.264   5.427
 5810SOL     OW18328   2.829   6.365   5.383
 5810SOL    HW118329   2.757   6.320   5.330
 5810SOL    HW218330   2.886   6.420   5.321
 5811SOL     OW18331   3.509   4.136   6.795
 5811SOL    HW118332   3.535   4.054   6.847
 5811SOL    HW218333   3.420   4.167   6.827
 5812SOL     OW18334   5.686   2.691   6.472
 5812SOL    HW118335   5.695   2.706   6.373
 5812SOL    HW218336   5.613   2.625   6.489
 5813SOL     OW18337   4.864   5.757   0.194
 5813SOL    HW118338   4.781   5.767   0.249
 5813SOL    HW218339   4.900   5.847   0.171
 5814SOL     OW18340   5.195   1.407   1.699
 5814SOL    HW118341   5.251   1.411   1.782
 5814SOL    HW218342   5.113   1.464   1.711
 5815SOL     OW18343   6.796   2.388   3.923
 5815SOL    HW118344   6.773   2.353   3.832
 5815SOL    HW218345   6.875   2.447   3.916
 5816SOL     OW18346   0.084   3.267   2.476
 5816SOL    HW118347   0.011   3.201   2.494
 5816SOL    HW218348   0.092   3.280   2.377
 5817SOL     OW18349   6.028   3.604   3.425
 5817SOL    HW118350   6.117   3.623   3.385
 5817SOL    HW218351   5.974   3.689   3.429
 5818SOL     OW18352   2.328   0.367   4.804
 5818SOL    HW118353   2.232   0.355   4.779
 5818SOL    HW218354   2.333   0.418   4.890
 5819SOL     OW18355   4.423   5.153   0.343
 5819SOL    HW118356   4.417   5.053   0.340
 5819SOL    HW218357   4.497   5.181   0.403
 5820SOL     OW18358   5.817   6.343   2.392
 5820SOL    HW118359   5.807   6.248   2.361
 5820SOL    HW218360   5.801   6.348   2.491
 5821SOL     OW18361   0.184   0.162   1.119
 5821SOL    HW118362   0.147   0.151   1.027
 5821SOL    HW218363   0.276   0.201   1.114
 5822SOL     OW18364   1.583   3.441   3.219
 5822SOL    HW118365   1.530   3.437   3.135
 5822SOL    HW218366   1.565   3.361   3.275
 5823SOL     OW18367   1.853   5.127   3.085
 5823SOL    HW118368   1.818   5.076   3.007
 5823SOL    HW218369   1.949   5.151   3.068
 5824SOL     OW18370   1.246   0.572   2.985
 5824SOL    HW118371   1.309   0.622   3.045
 5824SOL    HW218372   1.186   0.637   2.938
 5825SOL     OW18373   5.282   1.151   4.536
 5825SOL    HW118374   5.271   1.185   4.630
 5825SOL    HW218375   5.359   1.088   4.533
 5826SOL     OW18376   0.985   6.929   5.320
 5826SOL    HW118377   1.073   6.919   5.367
 5826SOL    HW218378   0.919   6.973   5.381
 5827SOL     OW18379   2.142   4.015   3.677
 5827SOL    HW118380   2.093   4.093   3.639
 5827SOL    HW218381   2.138   3.937   3.614
 5828SOL     OW18382   3.990   0.457   5.062
 5828SOL    HW118383   3.976   0.410   4.975
 5828SOL    HW218384   3.985   0.555   5.048
 5829SOL     OW18385   2.380   0.666   3.740
 5829SOL    HW118386   2.432   0.669   3.655
 5829SOL    HW218387   2.426   0.722   3.809
 5830SOL     OW18388   4.057   4.820   4.266
 5830SOL    HW118389   4.002   4.739   4.282
 5830SOL    HW218390   4.040   4.855   4.174
 5831SOL     OW18391   1.490   1.857   5.625
 5831SOL    HW118392   1.417   1.903   5.574
 5831SOL    HW218393   1.579   1.878   5.583
 5832SOL     OW18394   2.929   5.012   1.721
 5832SOL    HW118395   2.849   4.973   1.767
 5832SOL    HW218396   2.900   5.082   1.657
 5833SOL     OW18397   3.497   4.920   6.968
 5833SOL    HW118398   3.570   4.862   6.932
 5833SOL    HW218399   3.535   5.009   6.993
 5834SOL     OW18400   5.865   2.871   6.604
 5834SOL    HW118401   5.914   2.923   6.535
 5834SOL    HW218402   5.798   2.812   6.560
 5835SOL     OW18403   5.016   2.249   3.056
 5835SOL    HW118404   5.113   2.230   3.040
 5835SOL    HW218405   4.962   2.168   3.033
 5836SOL     OW18406   4.748   5.944   3.056
 5836SOL    HW118407   4.731   5.974   2.962
 5836SOL    HW218408   4.722   5.848   3.067
 5837SOL     OW18409   2.558   5.531   6.849
 5837SOL    HW118410   2.529   5.513   6.754
 5837SOL    HW218411   2.650   5.495   6.863
 5838SOL     OW18412   3.886   2.212   0.627
 5838SOL    HW118413   3.952   2.146   0.590
 5838SOL    HW218414   3.935   2.281   0.681
 5839SOL     OW18415   2.128   2.507   0.359
 5839SOL    HW118416   2.225   2.526   0.369
 5839SOL    HW218417   2.075   2.591   0.370
 5840SOL     OW18418   0.428   3.329   3.172
 5840SOL    HW118419   0.345   3.350   3.121
 5840SOL    HW218420   0.405   3.270   3.250
 5841SOL     OW18421   4.724   1.071   0.601
 5841SOL    HW118422   4.676   1.158   0.588
 5841SOL    HW218423   4.748   1.033   0.511
 5842SOL     OW18424   2.075   2.622   1.219
 5842SOL    HW118425   2.152   2.681   1.245
 5842SOL    HW218426   2.008   2.619   1.293
 5843SOL     OW18427   2.764   3.934   1.071
 5843SOL    HW118428   2.748   3.965   0.978
 5843SOL    HW218429   2.697   3.863   1.094
 5844SOL     OW18430   0.742   6.305   4.838
 5844SOL    HW118431   0.710   6.365   4.911
 5844SOL    HW218432   0.786   6.360   4.767
 5845SOL     OW18433   0.980   0.466   2.221
 5845SOL    HW118434   1.029   0.543   2.181
 5845SOL    HW218435   0.921   0.425   2.152
 5846SOL     OW18436   0.102   3.894   5.324
 5846SOL    HW118437   0.125   3.803   5.290
 5846SOL    HW218438   0.048   3.943   5.256
 5847SOL     OW18439   2.168   4.153   6.522
 5847SOL    HW118440   2.162   4.198   6.611
 5847SOL    HW218441   2.224   4.208   6.461
 5848SOL     OW18442   1.823   5.214   2.183
 5848SOL    HW118443   1.889   5.254   2.247
 5848SOL    HW218444   1.872   5.164   2.111
 5849SOL     OW18445   3.746   5.906   5.521
 5849SOL    HW118446   3.678   5.927   5.451
 5849SOL    HW218447   3.777   5.812   5.511
 5850SOL     OW18448   0.964   1.520   2.586
 5850SOL    HW118449   0.901   1.517   2.508
 5850SOL    HW218450   0.996   1.428   2.606
 5851SOL     OW18451   6.430   3.846   4.239
 5851SOL    HW118452   6.419   3.907   4.160
 5851SOL    HW218453   6.527   3.839   4.262
 5852SOL     OW18454   5.016   4.201   2.310
 5852SOL    HW118455   4.983   4.295   2.315
 5852SOL    HW218456   5.105   4.200   2.263
 5853SOL     OW18457   4.791   5.041   6.273
 5853SOL    HW118458   4.726   5.079   6.208
 5853SOL    HW218459   4.829   5.115   6.329
 5854SOL     OW18460   2.792   4.772   5.292
 5854SOL    HW118461   2.844   4.711   5.232
 5854SOL    HW218462   2.809   4.867   5.266
 5855SOL     OW18463   2.131   2.983   3.216
 5855SOL    HW118464   2.161   2.964   3.122
 5855SOL    HW218465   2.161   3.074   3.243
 5856SOL     OW18466   1.055   6.541   2.787
 5856SOL    HW118467   1.145   6.523   2.749
 5856SOL    HW218468   1.014   6.620   2.740
 5857SOL     OW18469   5.192   4.482   6.695
 5857SOL    HW118470   5.290   4.471   6.679
 5857SOL    HW218471   5.143   4.483   6.607
 5858SOL     OW18472   1.830   1.009   2.991
 5858SOL    HW118473   1.892   0.931   2.984
 5858SOL    HW218474   1.789   1.028   2.902
 5859SOL     OW18475   5.874   6.260   1.216
 5859SOL    HW118476   5.855   6.312   1.133
 5859SOL    HW218477   5.807   6.284   1.286
 5860SOL     OW18478   0.692   4.298   3.366
 5860SOL    HW118479   0.618   4.251   3.413
 5860SOL    HW218480   0.722   4.244   3.288
 5861SOL     OW18481   5.148   1.208   5.257
 5861SOL    HW118482   5.232   1.154   5.267
 5861SOL    HW218483   5.160   1.273   5.182
 5862SOL     OW18484   6.520   5.340   2.634
 5862SOL    HW118485   6.522   5.373   2.729
 5862SOL    HW218486   6.428   5.350   2.597
 5863SOL     OW18487   3.797   6.403   6.592
 5863SOL    HW118488   3.881   6.453   6.614
 5863SOL    HW218489   3.819   6.306   6.578
 5864SOL     OW18490   3.624   4.134   2.173
 5864SOL    HW118491   3.586   4.166   2.260
 5864SOL    HW218492   3.688   4.060   2.189
 5865SOL     OW18493   6.803   0.596   6.350
 5865SOL    HW118494   6.860   0.517   6.328
 5865SOL    HW218495   6.725   0.598   6.287
 5866SOL     OW18496   3.382   3.246   2.886
 5866SOL    HW118497   3.433   3.278   2.806
 5866SOL    HW218498   3.400   3.306   2.964
 5867SOL     OW18499   2.805   1.377   1.797
 5867SOL    HW118500   2.903   1.393   1.783
 5867SOL    HW218501   2.792   1.289   1.843
 5868SOL     OW18502   0.777   1.325   5.578
 5868SOL    HW118503   0.751   1.358   5.487
 5868SOL    HW218504   0.842   1.249   5.568
 5869SOL     OW18505   1.036   6.142   3.339
 5869SOL    HW118506   1.015   6.150   3.436
 5869SOL    HW218507   1.135   6.138   3.326
 5870SOL     OW18508   3.426   5.740   4.832
 5870SOL    HW118509   3.374   5.671   4.782
 5870SOL    HW218510   3.400   5.831   4.799
 5871SOL     OW18511   3.034   3.143   3.810
 5871SOL    HW118512   3.133   3.145   3.818
 5871SOL    HW218513   2.994   3.201   3.882
 5872SOL     OW18514   4.871   5.543   1.594
 5872SOL    HW118515   4.901   5.525   1.501
 5872SOL    HW218516   4.947   5.579   1.647
 5873SOL     OW18517   4.316   5.907   2.453
 5873SOL    HW118518   4.330   5.812   2.479
 5873SOL    HW218519   4.405   5.951   2.439
 5874SOL     OW18520   1.691   4.069   5.227
 5874SOL    HW118521   1.610   4.027   5.186
 5874SOL    HW218522   1.744   4.000   5.277
 5875SOL     OW18523   3.192   1.228   0.808
 5875SOL    HW118524   3.213   1.290   0.884
 5875SOL    HW218525   3.264   1.159   0.800
 5876SOL     OW18526   3.523   2.937   1.650
 5876SOL    HW118527   3.566   3.018   1.609
 5876SOL    HW218528   3.463   2.964   1.725
 5877SOL     OW18529   6.088   4.399   1.116
 5877SOL    HW118530   6.092   4.303   1.088
 5877SOL    HW218531   6.018   4.446   1.062
 5878SOL     OW18532   2.198   4.519   2.633
 5878SOL    HW118533   2.207   4.586   2.560
 5878SOL    HW218534   2.287   4.508   2.679
 5879SOL     OW18535   0.535   4.638   4.619
 5879SOL    HW118536   0.478   4.717   4.637
 5879SOL    HW218537   0.580   4.609   4.704
 5880SOL     OW18538   3.031   5.759   0.737
 5880SOL    HW118539   2.943   5.715   0.717
 5880SOL    HW218540   3.072   5.716   0.818
 5881SOL     OW18541   1.725   6.122   4.511
 5881SOL    HW118542   1.735   6.132   4.610
 5881SOL    HW218543   1.656   6.053   4.491
 5882SOL     OW18544   4.818   0.872   2.133
 5882SOL    HW118545   4.734   0.883   2.186
 5882SOL    HW218546   4.796   0.859   2.036
 5883SOL     OW18547   0.231   3.361   5.297
 5883SOL    HW118548   0.172   3.332   5.373
 5883SOL    HW218549   0.187   3.338   5.210
 5884SOL     OW18550   1.236   1.361   3.433
 5884SOL    HW118551   1.140   1.334   3.423
 5884SOL    HW218552   1.284   1.345   3.347
 5885SOL     OW18553   5.777   6.732   1.056
 5885SOL    HW118554   5.742   6.665   0.991
 5885SOL    HW218555   5.874   6.749   1.038
 5886SOL     OW18556   1.049   1.377   5.848
 5886SOL    HW118557   0.987   1.318   5.901
 5886SOL    HW218558   1.015   1.471   5.852
 5887SOL     OW18559   4.275   6.861   3.572
 5887SOL    HW118560   4.243   6.769   3.553
 5887SOL    HW218561   4.370   6.870   3.541
 5888SOL     OW18562   1.973   0.259   3.487
 5888SOL    HW118563   1.876   0.235   3.487
 5888SOL    HW218564   1.987   0.341   3.432
 5889SOL     OW18565   2.578   0.806   0.715
 5889SOL    HW118566   2.570   0.906   0.711
 5889SOL    HW218567   2.628   0.774   0.635
 5890SOL     OW18568   3.399   4.977   6.244
 5890SOL    HW118569   3.397   4.896   6.185
 5890SOL    HW218570   3.340   4.962   6.323
 5891SOL     OW18571   2.329   3.742   0.470
 5891SOL    HW118572   2.332   3.835   0.433
 5891SOL    HW218573   2.256   3.691   0.424
 5892SOL     OW18574   0.987   0.108   1.673
 5892SOL    HW118575   0.970   0.017   1.634
 5892SOL    HW218576   0.934   0.176   1.624
 5893SOL     OW18577   1.862   0.735   3.555
 5893SOL    HW118578   1.781   0.767   3.505
 5893SOL    HW218579   1.850   0.638   3.577
 5894SOL     OW18580   0.803   2.851   3.253
 5894SOL    HW118581   0.796   2.758   3.289
 5894SOL    HW218582   0.768   2.915   3.320
 5895SOL     OW18583   5.261   3.612   3.679
 5895SOL    HW118584   5.286   3.668   3.599
 5895SOL    HW218585   5.340   3.557   3.707
 5896SOL     OW18586   3.304   2.073   6.090
 5896SOL    HW118587   3.343   2.069   6.183
 5896SOL    HW218588   3.343   2.152   6.042
 5897SOL     OW18589   4.095   0.450   1.813
 5897SOL    HW118590   4.031   0.525   1.827
 5897SOL    HW218591   4.077   0.377   1.880
 5898SOL     OW18592   1.789   0.272   2.180
 5898SOL    HW118593   1.705   0.239   2.138
 5898SOL    HW218594   1.819   0.207   2.250
 5899SOL     OW18595   4.978   6.869   4.058
 5899SOL    HW118596   5.045   6.844   4.128
 5899SOL    HW218597   5.025   6.886   3.971
 5900SOL     OW18598   4.475   5.179   2.903
 5900SOL    HW118599   4.461   5.081   2.896
 5900SOL    HW218600   4.397   5.221   2.950
 5901SOL     OW18601   3.652   6.854   5.096
 5901SOL    HW118602   3.593   6.849   5.177
 5901SOL    HW218603   3.595   6.858   5.014
 5902SOL     OW18604   6.557   1.226   6.485
 5902SOL    HW118605   6.636   1.211   6.425
 5902SOL    HW218606   6.532   1.139   6.528
 5903SOL     OW18607   6.689   2.925   6.527
 5903SOL    HW118608   6.632   2.867   6.586
 5903SOL    HW218609   6.657   2.917   6.433
 5904SOL     OW18610   0.183   4.323   2.564
 5904SOL    HW118611   0.170   4.235   2.519
 5904SOL    HW218612   0.203   4.308   2.661
 5905SOL     OW18613   0.141   5.216   2.607
 5905SOL    HW118614   0.180   5.248   2.693
 5905SOL    HW218615   0.123   5.295   2.548
 5906SOL     OW18616   6.622   1.578   4.116
 5906SOL    HW118617   6.523   1.566   4.101
 5906SOL    HW218618   6.672   1.519   4.052
 5907SOL     OW18619   1.702   6.680   1.838
 5907SOL    HW118620   1.609   6.708   1.814
 5907SOL    HW218621   1.758   6.675   1.755
 5908SOL     OW18622   0.597   2.796   6.113
 5908SOL    HW118623   0.590   2.885   6.159
 5908SOL    HW218624   0.518   2.740   6.139
 5909SOL     OW18625   6.856   4.473   0.922
 5909SOL    HW118626   6.879   4.491   1.018
 5909SOL    HW218627   6.824   4.557   0.879
 5910SOL     OW18628   2.342   1.835   3.810
 5910SOL    HW118629   2.422   1.860   3.864
 5910SOL    HW218630   2.272   1.794   3.869
 5911SOL     OW18631   6.893   5.692   6.109
 5911SOL    HW118632   6.978   5.714   6.062
 5911SOL    HW218633   6.838   5.775   6.120
 5912SOL     OW18634   0.500   0.836   4.059
 5912SOL    HW118635   0.476   0.907   3.992
 5912SOL    HW218636   0.557   0.876   4.131
 5913SOL     OW18637   5.421   1.505   0.046
 5913SOL    HW118638   5.366   1.424   0.025
 5913SOL    HW218639   5.406   1.532   0.141
 5914SOL     OW18640   0.689   6.096   0.348
 5914SOL    HW118641   0.666   6.020   0.288
 5914SOL    HW218642   0.681   6.182   0.298
 5915SOL     OW18643   3.694   1.388   6.053
 5915SOL    HW118644   3.655   1.322   6.116
 5915SOL    HW218645   3.678   1.481   6.088
 5916SOL     OW18646   0.856   6.028   2.640
 5916SOL    HW118647   0.827   5.953   2.699
 5916SOL    HW218648   0.934   6.074   2.681
 5917SOL     OW18649   3.956   4.285   0.310
 5917SOL    HW118650   3.908   4.207   0.349
 5917SOL    HW218651   4.041   4.254   0.267
 5918SOL     OW18652   3.218   6.394   5.662
 5918SOL    HW118653   3.263   6.310   5.693
 5918SOL    HW218654   3.192   6.449   5.741
 5919SOL     OW18655   3.802   3.165   4.000
 5919SOL    HW118656   3.735   3.149   3.927
 5919SOL    HW218657   3.894   3.156   3.962
 5920SOL     OW18658   6.196   0.194   5.226
 5920SOL    HW118659   6.269   0.142   5.182
 5920SOL    HW218660   6.231   0.284   5.253
 5921SOL     OW18661   2.365   4.805   6.495
 5921SOL    HW118662   2.412   4.791   6.408
 5921SOL    HW218663   2.276   4.758   6.493
 5922SOL     OW18664   4.922   4.013   3.060
 5922SOL    HW118665   4.958   4.072   2.987
 5922SOL    HW218666   4.891   3.927   3.019
 5923SOL     OW18667   7.005   0.347   2.767
 5923SOL    HW118668   6.978   0.325   2.674
 5923SOL    HW218669   6.949   0.424   2.801
 5924SOL     OW18670   5.779   0.125   3.773
 5924SOL    HW118671   5.768   0.218   3.809
 5924SOL    HW218672   5.793   0.129   3.674
 5925SOL     OW18673   4.544   6.994   1.506
 5925SOL    HW118674   4.597   7.002   1.590
 5925SOL    HW218675   4.580   0.037   1.438
 5926SOL     OW18676   4.795   4.877   3.873
 5926SOL    HW118677   4.711   4.861   3.925
 5926SOL    HW218678   4.777   4.942   3.799
 5927SOL     OW18679   1.232   4.547   2.118
 5927SOL    HW118680   1.204   4.577   2.209
 5927SOL    HW218681   1.158   4.495   2.076
 5928SOL     OW18682   3.476   0.233   0.510
 5928SOL    HW118683   3.488   0.322   0.554
 5928SOL    HW218684   3.380   0.222   0.484
 5929SOL     OW18685   1.882   0.582   6.694
 5929SOL    HW118686   1.800   0.623   6.654
 5929SOL    HW218687   1.948   0.560   6.622
 5930SOL     OW18688   1.022   3.080   2.405
 5930SOL    HW118689   1.093   3.035   2.460
 5930SOL    HW218690   1.064   3.115   2.320
 5931SOL     OW18691   4.747   6.019   3.308
 5931SOL    HW118692   4.672   6.084   3.315
 5931SOL    HW218693   4.740   5.971   3.221
 5932SOL     OW18694   2.863   1.033   7.021
 5932SOL    HW118695   2.781   1.033   0.057
 5932SOL    HW218696   2.837   1.047   6.925
 5933SOL     OW18697   6.334   6.187   3.914
 5933SOL    HW118698   6.317   6.107   3.971
 5933SOL    HW218699   6.247   6.233   3.894
 5934SOL     OW18700   3.266   3.705   5.807
 5934SOL    HW118701   3.243   3.608   5.797
 5934SOL    HW218702   3.245   3.734   5.900
 5935SOL     OW18703   0.562   5.858   5.613
 5935SOL    HW118704   0.522   5.947   5.633
 5935SOL    HW218705   0.655   5.869   5.578
 5936SOL     OW18706   3.697   3.125   1.528
 5936SOL    HW118707   3.784   3.076   1.517
 5936SOL    HW218708   3.658   3.143   1.437
 5937SOL     OW18709   6.834   3.094   1.907
 5937SOL    HW118710   6.809   2.997   1.905
 5937SOL    HW218711   6.901   3.109   1.979
 5938SOL     OW18712   0.154   4.862   4.973
 5938SOL    HW118713   0.099   4.897   4.897
 5938SOL    HW218714   0.109   4.884   5.060
 5939SOL     OW18715   3.734   0.848   5.144
 5939SOL    HW118716   3.699   0.941   5.130
 5939SOL    HW218717   3.696   0.810   5.228
 5940SOL     OW18718   5.224   6.050   2.847
 5940SOL    HW118719   5.298   6.004   2.896
 5940SOL    HW218720   5.252   6.144   2.825
 5941SOL     OW18721   6.848   2.195   2.162
 5941SOL    HW118722   6.846   2.290   2.132
 5941SOL    HW218723   6.839   2.191   2.261
 5942SOL     OW18724   5.142   3.282   6.147
 5942SOL    HW118725   5.171   3.190   6.120
 5942SOL    HW218726   5.055   3.276   6.197
 5943SOL     OW18727   2.998   4.266   1.743
 5943SOL    HW118728   3.044   4.303   1.663
 5943SOL    HW218729   2.967   4.340   1.802
 5944SOL     OW18730   0.611   3.525   6.527
 5944SOL    HW118731   0.707   3.501   6.512
 5944SOL    HW218732   0.573   3.465   6.598
 5945SOL     OW18733   0.244   5.722   5.416
 5945SOL    HW118734   0.217   5.722   5.512
 5945SOL    HW218735   0.250   5.816   5.382
 5946SOL     OW18736   3.324   4.085   0.675
 5946SOL    HW118737   3.356   4.012   0.735
 5946SOL    HW218738   3.293   4.163   0.729
 5947SOL     OW18739   3.309   3.233   4.713
 5947SOL    HW118740   3.293   3.321   4.759
 5947SOL    HW218741   3.242   3.166   4.744
 5948SOL     OW18742   5.183   3.887   2.010
 5948SOL    HW118743   5.170   3.983   1.985
 5948SOL    HW218744   5.111   3.860   2.074
 5949SOL     OW18745   6.771   4.159   1.876
 5949SOL    HW118746   6.798   4.230   1.942
 5949SOL    HW218747   6.675   4.170   1.852
 5950SOL     OW18748   4.817   0.566   5.137
 5950SOL    HW118749   4.845   0.660   5.118
 5950SOL    HW218750   4.727   0.549   5.095
 5951SOL     OW18751   1.045   3.872   6.582
 5951SOL    HW118752   1.121   3.936   6.591
 5951SOL    HW218753   1.074   3.781   6.610
 5952SOL     OW18754   3.591   4.780   1.135
 5952SOL    HW118755   3.646   4.696   1.132
 5952SOL    HW218756   3.520   4.776   1.065
 5953SOL     OW18757   6.517   2.786   4.685
 5953SOL    HW118758   6.521   2.886   4.690
 5953SOL    HW218759   6.552   2.747   4.770
 5954SOL     OW18760   1.941   6.240   3.953
 5954SOL    HW118761   1.886   6.321   3.972
 5954SOL    HW218762   2.037   6.260   3.970
 5955SOL     OW18763   6.486   3.664   0.630
 5955SOL    HW118764   6.427   3.588   0.603
 5955SOL    HW218765   6.581   3.643   0.604
 5956SOL     OW18766   5.001   2.878   5.151
 5956SOL    HW118767   4.910   2.866   5.190
 5956SOL    HW218768   4.997   2.947   5.078
 5957SOL     OW18769   0.605   1.484   2.689
 5957SOL    HW118770   0.613   1.430   2.605
 5957SOL    HW218771   0.598   1.581   2.666
 5958SOL     OW18772   3.853   6.767   2.915
 5958SOL    HW118773   3.854   6.789   3.013
 5958SOL    HW218774   3.843   6.851   2.862
 5959SOL     OW18775   5.479   2.618   4.455
 5959SOL    HW118776   5.458   2.675   4.376
 5959SOL    HW218777   5.476   2.521   4.428
 5960SOL     OW18778   4.263   0.191   6.274
 5960SOL    HW118779   4.342   0.193   6.212
 5960SOL    HW218780   4.282   0.127   6.348
 5961SOL     OW18781   2.697   1.848   3.264
 5961SOL    HW118782   2.780   1.809   3.304
 5961SOL    HW218783   2.625   1.779   3.264
 5962SOL     OW18784   5.004   6.567   0.492
 5962SOL    HW118785   4.918   6.531   0.456
 5962SOL    HW218786   5.047   6.625   0.424
 5963SOL     OW18787   3.414   4.440   6.916
 5963SOL    HW118788   3.486   4.471   6.854
 5963SOL    HW218789   3.397   4.510   6.985
 5964SOL     OW18790   1.971   6.664   2.898
 5964SOL    HW118791   1.974   6.686   2.800
 5964SOL    HW218792   1.890   6.706   2.939
 5965SOL     OW18793   2.047   0.474   0.286
 5965SOL    HW118794   2.102   0.397   0.254
 5965SOL    HW218795   1.951   0.449   0.286
 5966SOL     OW18796   2.853   1.145   4.999
 5966SOL    HW118797   2.935   1.149   4.942
 5966SOL    HW218798   2.782   1.093   4.951
 5967SOL     OW18799   2.963   1.706   3.838
 5967SOL    HW118800   2.963   1.753   3.927
 5967SOL    HW218801   3.054   1.716   3.797
 5968SOL     OW18802   5.213   2.234   1.416
 5968SOL    HW118803   5.126   2.252   1.462
 5968SOL    HW218804   5.203   2.155   1.356
 5969SOL     OW18805   4.767   0.936   6.929
 5969SOL    HW118806   4.692   0.873   6.947
 5969SOL    HW218807   4.853   0.885   6.919
 5970SOL     OW18808   0.364   3.290   0.658
 5970SOL    HW118809   0.303   3.273   0.581
 5970SOL    HW218810   0.434   3.220   0.661
 5971SOL     OW18811   0.844   6.675   4.405
 5971SOL    HW118812   0.875   6.597   4.350
 5971SOL    HW218813   0.908   6.750   4.394
 5972SOL     OW18814   5.005   5.078   0.971
 5972SOL    HW118815   4.965   5.153   0.918
 5972SOL    HW218816   4.991   4.992   0.922
 5973SOL     OW18817   1.810   2.354   2.416
 5973SOL    HW118818   1.842   2.391   2.503
 5973SOL    HW218819   1.726   2.302   2.431
 5974SOL     OW18820   4.842   2.245   5.595
 5974SOL    HW118821   4.941   2.249   5.580
 5974SOL    HW218822   4.821   2.176   5.664
 5975SOL     OW18823   4.587   4.766   0.613
 5975SOL    HW118824   4.560   4.728   0.702
 5975SOL    HW218825   4.648   4.844   0.627
 5976SOL     OW18826   2.201   3.369   5.839
 5976SOL    HW118827   2.137   3.427   5.889
 5976SOL    HW218828   2.290   3.415   5.833
 5977SOL     OW18829   6.931   4.700   0.297
 5977SOL    HW118830   6.962   4.714   0.203
 5977SOL    HW218831   6.945   4.604   0.322
 5978SOL     OW18832   3.095   5.125   0.590
 5978SOL    HW118833   3.016   5.109   0.649
 5978SOL    HW218834   3.072   5.100   0.496
 5979SOL     OW18835   5.662   0.126   1.422
 5979SOL    HW118836   5.646   0.031   1.450
 5979SOL    HW218837   5.657   0.185   1.503
 5980SOL     OW18838   3.354   2.791   1.472
 5980SOL    HW118839   3.424   2.826   1.534
 5980SOL    HW218840   3.319   2.704   1.508
 5981SOL     OW18841   2.864   2.664   0.450
 5981SOL    HW118842   2.778   2.710   0.430
 5981SOL    HW218843   2.869   2.646   0.549
 5982SOL     OW18844   5.843   2.756   1.405
 5982SOL    HW118845   5.921   2.743   1.465
 5982SOL    HW218846   5.857   2.704   1.320
 5983SOL     OW18847   6.819   0.527   3.579
 5983SOL    HW118848   6.857   0.619   3.572
 5983SOL    HW218849   6.792   0.509   3.673
 5984SOL     OW18850   6.617   6.633   3.557
 5984SOL    HW118851   6.528   6.587   3.559
 5984SOL    HW218852   6.607   6.727   3.589
 5985SOL     OW18853   5.642   2.430   2.921
 5985SOL    HW118854   5.675   2.336   2.922
 5985SOL    HW218855   5.720   2.493   2.918
 5986SOL     OW18856   4.079   3.588   5.336
 5986SOL    HW118857   4.130   3.657   5.285
 5986SOL    HW218858   4.135   3.554   5.412
 5987SOL     OW18859   6.912   0.039   5.509
 5987SOL    HW118860   7.005   0.075   5.502
 5987SOL    HW218861   6.872   0.067   5.596
 5988SOL     OW18862   1.213   2.159   6.035
 5988SOL    HW118863   1.210   2.139   5.937
 5988SOL    HW218864   1.209   2.258   6.049
 5989SOL     OW18865   0.322   5.476   6.492
 5989SOL    HW118866   0.307   5.509   6.399
 5989SOL    HW218867   0.351   5.380   6.489
 5990SOL     OW18868   3.629   5.008   1.859
 5990SOL    HW118869   3.649   4.943   1.932
 5990SOL    HW218870   3.633   5.101   1.896
 5991SOL     OW18871   5.349   6.846   0.714
 5991SOL    HW118872   5.406   6.838   0.633
 5991SOL    HW218873   5.318   6.941   0.724
 5992SOL     OW18874   3.548   7.010   1.980
 5992SOL    HW118875   3.555   0.049   2.060
 5992SOL    HW218876   3.628   6.950   1.977
 5993SOL     OW18877   6.265   2.037   0.502
 5993SOL    HW118878   6.357   2.049   0.465
 5993SOL    HW218879   6.246   1.940   0.512
 5994SOL     OW18880   0.686   3.653   0.335
 5994SOL    HW118881   0.756   3.698   0.390
 5994SOL    HW218882   0.649   3.718   0.269
 5995SOL     OW18883   4.345   3.966   1.229
 5995SOL    HW118884   4.383   3.959   1.137
 5995SOL    HW218885   4.404   4.023   1.286
 5996SOL     OW18886   2.989   5.535   1.185
 5996SOL    HW118887   3.073   5.483   1.199
 5996SOL    HW218888   2.954   5.568   1.273
 5997SOL     OW18889   6.928   0.195   3.677
 5997SOL    HW118890   6.967   0.286   3.670
 5997SOL    HW218891   6.963   0.138   3.603
 5998SOL     OW18892   6.690   6.786   1.408
 5998SOL    HW118893   6.737   6.846   1.344
 5998SOL    HW218894   6.647   6.841   1.480
 5999SOL     OW18895   4.753   2.957   0.898
 5999SOL    HW118896   4.852   2.973   0.890
 5999SOL    HW218897   4.707   3.045   0.912
 6000SOL     OW18898   0.011   4.126   1.347
 6000SOL    HW118899   6.934   4.133   1.365
 6000SOL    HW218900   0.054   4.072   1.419
 6001SOL     OW18901   6.334   5.340   5.371
 6001SOL    HW118902   6.299   5.403   5.302
 6001SOL    HW218903   6.285   5.253   5.365
 6002SOL     OW18904   6.347   5.445   4.169
 6002SOL    HW118905   6.329   5.348   4.184
 6002SOL    HW218906   6.322   5.497   4.250
 6003SOL     OW18907   0.250   3.192   4.837
 6003SOL    HW118908   0.198   3.159   4.758
 6003SOL    HW218909   0.248   3.123   4.910
 6004SOL     OW18910   5.080   3.098   4.236
 6004SOL    HW118911   5.140   3.084   4.157
 6004SOL    HW218912   5.066   3.196   4.251
 6005SOL     OW18913   3.609   5.285   6.397
 6005SOL    HW118914   3.560   5.275   6.484
 6005SOL    HW218915   3.565   5.356   6.341
 6006SOL     OW18916   3.571   6.152   5.599
 6006SOL    HW118917   3.599   6.147   5.503
 6006SOL    HW218918   3.607   6.236   5.639
 6007SOL     OW18919   2.137   5.620   6.505
 6007SOL    HW118920   2.126   5.551   6.434
 6007SOL    HW218921   2.163   5.576   6.591
 6008SOL     OW18922   3.018   4.332   6.090
 6008SOL    HW118923   2.989   4.381   6.173
 6008SOL    HW218924   3.103   4.283   6.109
 6009SOL     OW18925   3.614   5.494   3.009
 6009SOL    HW118926   3.652   5.413   3.054
 6009SOL    HW218927   3.554   5.542   3.073
 6010SOL     OW18928   0.793   5.787   5.230
 6010SOL    HW118929   0.795   5.847   5.310
 6010SOL    HW218930   0.810   5.842   5.148
 6011SOL     OW18931   6.193   2.226   2.012
 6011SOL    HW118932   6.157   2.218   1.919
 6011SOL    HW218933   6.268   2.160   2.025
 6012SOL     OW18934   6.772   6.959   6.262
 6012SOL    HW118935   6.728   0.018   6.303
 6012SOL    HW218936   6.725   6.876   6.292
 6013SOL     OW18937   6.269   1.596   2.586
 6013SOL    HW118938   6.267   1.571   2.489
 6013SOL    HW218939   6.180   1.634   2.612
 6014SOL     OW18940   4.000   3.293   4.316
 6014SOL    HW118941   3.952   3.206   4.304
 6014SOL    HW218942   3.947   3.366   4.273
 6015SOL     OW18943   6.245   1.428   4.562
 6015SOL    HW118944   6.215   1.339   4.594
 6015SOL    HW218945   6.167   1.490   4.556
 6016SOL     OW18946   4.968   1.555   4.963
 6016SOL    HW118947   4.960   1.513   4.872
 6016SOL    HW218948   5.023   1.496   5.022
 6017SOL     OW18949   6.649   1.983   5.481
 6017SOL    HW118950   6.730   1.960   5.535
 6017SOL    HW218951   6.663   2.072   5.437
 6018SOL     OW18952   2.912   1.175   5.328
 6018SOL    HW118953   3.005   1.150   5.301
 6018SOL    HW218954   2.877   1.245   5.266
 6019SOL     OW18955   6.812   3.374   6.410
 6019SOL    HW118956   6.807   3.454   6.471
 6019SOL    HW218957   6.872   3.395   6.333
 6020SOL     OW18958   0.629   4.531   6.824
 6020SOL    HW118959   0.613   4.599   6.896
 6020SOL    HW218960   0.561   4.543   6.752
 6021SOL     OW18961   4.908   0.181   3.430
 6021SOL    HW118962   4.899   0.170   3.529
 6021SOL    HW218963   4.848   0.255   3.399
 6022SOL     OW18964   6.068   1.800   2.130
 6022SOL    HW118965   6.074   1.893   2.165
 6022SOL    HW218966   5.985   1.790   2.075
 6023SOL     OW18967   4.381   0.897   2.039
 6023SOL    HW118968   4.409   0.990   2.063
 6023SOL    HW218969   4.359   0.893   1.942
 6024SOL     OW18970   0.572   5.522   0.139
 6024SOL    HW118971   0.529   5.432   0.140
 6024SOL    HW218972   0.561   5.562   0.048
 6025SOL     OW18973   2.421   0.936   4.313
 6025SOL    HW118974   2.414   0.836   4.310
 6025SOL    HW218975   2.491   0.963   4.379
 6026SOL     OW18976   6.285   4.401   4.604
 6026SOL    HW118977   6.243   4.363   4.687
 6026SOL    HW218978   6.285   4.332   4.532
 6027SOL     OW18979   5.740   4.162   6.514
 6027SOL    HW118980   5.663   4.192   6.570
 6027SOL    HW218981   5.728   4.066   6.489
 6028SOL     OW18982   5.687   4.938   6.351
 6028SOL    HW118983   5.629   4.942   6.270
 6028SOL    HW218984   5.779   4.971   6.327
 6029SOL     OW18985   2.359   0.526   3.121
 6029SOL    HW118986   2.440   0.484   3.079
 6029SOL    HW218987   2.347   0.618   3.084
 6030SOL     OW18988   5.572   3.785   4.607
 6030SOL    HW118989   5.479   3.808   4.578
 6030SOL    HW218990   5.611   3.718   4.545
 6031SOL     OW18991   1.004   5.834   5.644
 6031SOL    HW118992   0.978   5.780   5.564
 6031SOL    HW218993   1.090   5.799   5.681
 6032SOL     OW18994   3.336   6.103   3.802
 6032SOL    HW118995   3.398   6.040   3.755
 6032SOL    HW218996   3.242   6.087   3.769
 6033SOL     OW18997   2.170   1.832   2.544
 6033SOL    HW118998   2.135   1.926   2.546
 6033SOL    HW218999   2.129   1.780   2.619
 6034SOL     OW19000   0.576   1.030   0.240
 6034SOL    HW119001   0.610   1.121   0.267
 6034SOL    HW219002   0.526   0.990   0.317
 6035SOL     OW19003   1.774   0.463   2.573
 6035SOL    HW119004   1.787   0.509   2.485
 6035SOL    HW219005   1.693   0.500   2.618
 6036SOL     OW19006   6.429   2.218   0.897
 6036SOL    HW119007   6.510   2.246   0.948
 6036SOL    HW219008   6.354   2.202   0.961
 6037SOL     OW19009   5.104   2.386   0.327
 6037SOL    HW119010   5.065   2.379   0.235
 6037SOL    HW219011   5.044   2.442   0.385
 6038SOL     OW19012   0.198   2.023   6.023
 6038SOL    HW119013   0.285   2.071   6.032
 6038SOL    HW219014   0.200   1.965   5.941
 6039SOL     OW19015   3.499   3.503   3.327
 6039SOL    HW119016   3.487   3.424   3.387
 6039SOL    HW219017   3.595   3.534   3.332
 6040SOL     OW19018   0.562   1.773   0.323
 6040SOL    HW119019   0.541   1.862   0.363
 6040SOL    HW219020   0.602   1.714   0.393
 6041SOL     OW19021   2.488   3.206   5.604
 6041SOL    HW119022   2.407   3.178   5.656
 6041SOL    HW219023   2.549   3.128   5.593
 6042SOL     OW19024   3.409   6.056   3.192
 6042SOL    HW119025   3.452   6.124   3.251
 6042SOL    HW219026   3.412   5.966   3.236
 6043SOL     OW19027   2.636   0.450   3.767
 6043SOL    HW119028   2.726   0.455   3.810
 6043SOL    HW219029   2.647   0.439   3.668
 6044SOL     OW19030   0.419   2.696   1.621
 6044SOL    HW119031   0.392   2.791   1.608
 6044SOL    HW219032   0.474   2.688   1.704
 6045SOL     OW19033   4.962   1.849   3.456
 6045SOL    HW119034   4.943   1.799   3.371
 6045SOL    HW219035   5.058   1.837   3.481
 6046SOL     OW19036   3.209   2.876   2.472
 6046SOL    HW119037   3.221   2.782   2.441
 6046SOL    HW219038   3.212   2.938   2.393
 6047SOL     OW19039   6.065   1.395   0.801
 6047SOL    HW119040   6.073   1.435   0.710
 6047SOL    HW219041   6.131   1.320   0.811
 6048SOL     OW19042   6.086   5.800   4.251
 6048SOL    HW119043   6.108   5.760   4.162
 6048SOL    HW219044   6.046   5.890   4.238
 6049SOL     OW19045   4.407   4.654   5.387
 6049SOL    HW119046   4.491   4.696   5.422
 6049SOL    HW219047   4.345   4.636   5.463
 6050SOL     OW19048   3.994   6.435   1.480
 6050SOL    HW119049   3.996   6.347   1.528
 6050SOL    HW219050   3.900   6.464   1.468
 6051SOL     OW19051   1.341   1.167   3.558
 6051SOL    HW119052   1.323   1.256   3.516
 6051SOL    HW219053   1.421   1.173   3.617
 6052SOL     OW19054   5.598   6.592   0.350
 6052SOL    HW119055   5.542   6.512   0.369
 6052SOL    HW219056   5.692   6.574   0.380
 6053SOL     OW19057   4.204   2.707   6.580
 6053SOL    HW119058   4.259   2.772   6.527
 6053SOL    HW219059   4.208   2.730   6.677
 6054SOL     OW19060   4.058   4.384   0.825
 6054SOL    HW119061   3.970   4.364   0.781
 6054SOL    HW219062   4.044   4.449   0.900
 6055SOL     OW19063   3.227   4.824   0.531
 6055SOL    HW119064   3.128   4.818   0.542
 6055SOL    HW219065   3.261   4.742   0.486
 6056SOL     OW19066   5.663   5.322   5.271
 6056SOL    HW119067   5.735   5.320   5.201
 6056SOL    HW219068   5.665   5.410   5.319
 6057SOL     OW19069   5.059   0.191   4.142
 6057SOL    HW119070   4.971   0.171   4.100
 6057SOL    HW219071   5.046   0.247   4.224
 6058SOL     OW19072   5.394   2.149   6.187
 6058SOL    HW119073   5.438   2.074   6.236
 6058SOL    HW219074   5.403   2.134   6.088
 6059SOL     OW19075   3.908   4.134   6.946
 6059SOL    HW119076   3.961   4.185   6.879
 6059SOL    HW219077   3.839   4.194   6.987
 6060SOL     OW19078   2.537   3.193   6.566
 6060SOL    HW119079   2.453   3.153   6.602
 6060SOL    HW219080   2.573   3.260   6.630
 6061SOL     OW19081   3.382   5.239   0.183
 6061SOL    HW119082   3.336   5.168   0.237
 6061SOL    HW219083   3.313   5.300   0.143
 6062SOL     OW19084   1.864   2.541   0.057
 6062SOL    HW119085   1.899   2.504   0.143
 6062SOL    HW219086   1.829   2.467   7.021
 6063SOL     OW19087   3.963   5.080   6.276
 6063SOL    HW119088   4.045   5.058   6.224
 6063SOL    HW219089   3.897   5.005   6.270
 6064SOL     OW19090   6.617   5.824   0.812
 6064SOL    HW119091   6.641   5.806   0.908
 6064SOL    HW219092   6.635   5.920   0.791
 6065SOL     OW19093   0.975   5.895   2.106
 6065SOL    HW119094   0.971   5.867   2.202
 6065SOL    HW219095   1.028   5.979   2.097
 6066SOL     OW19096   5.176   6.610   3.177
 6066SOL    HW119097   5.135   6.625   3.267
 6066SOL    HW219098   5.266   6.568   3.189
 6067SOL     OW19099   5.690   0.501   6.359
 6067SOL    HW119100   5.665   0.543   6.447
 6067SOL    HW219101   5.630   0.535   6.287
 6068SOL     OW19102   4.492   1.816   5.764
 6068SOL    HW119103   4.523   1.728   5.728
 6068SOL    HW219104   4.422   1.854   5.703
 6069SOL     OW19105   0.274   3.504   6.590
 6069SOL    HW119106   0.330   3.436   6.544
 6069SOL    HW219107   0.280   3.492   6.689
 6070SOL     OW19108   2.864   1.721   0.766
 6070SOL    HW119109   2.877   1.748   0.671
 6070SOL    HW219110   2.860   1.622   0.773
 6071SOL     OW19111   6.003   6.873   5.293
 6071SOL    HW119112   6.020   6.970   5.280
 6071SOL    HW219113   5.973   6.832   5.207
 6072SOL     OW19114   0.211   2.767   0.557
 6072SOL    HW119115   0.184   2.671   0.546
 6072SOL    HW219116   0.294   2.784   0.504
 6073SOL     OW19117   4.401   3.043   0.395
 6073SOL    HW119118   4.463   2.993   0.455
 6073SOL    HW219119   4.306   3.021   0.420
 6074SOL     OW19120   0.551   6.154   2.588
 6074SOL    HW119121   0.501   6.207   2.657
 6074SOL    HW219122   0.637   6.122   2.627
 6075SOL     OW19123   4.885   6.896   6.651
 6075SOL    HW119124   4.923   6.917   6.741
 6075SOL    HW219125   4.901   6.973   6.589
 6076SOL     OW19126   1.442   4.999   3.789
 6076SOL    HW119127   1.349   4.963   3.778
 6076SOL    HW219128   1.490   4.993   3.701
 6077SOL     OW19129   5.403   6.628   1.709
 6077SOL    HW119130   5.365   6.536   1.711
 6077SOL    HW219131   5.432   6.654   1.802
 6078SOL     OW19132   4.192   3.136   0.100
 6078SOL    HW119133   4.286   3.157   0.129
 6078SOL    HW219134   4.139   3.105   0.179
 6079SOL     OW19135   3.144   4.132   6.597
 6079SOL    HW119136   3.159   4.034   6.606
 6079SOL    HW219137   3.216   4.173   6.541
 6080SOL     OW19138   0.084   4.409   6.782
 6080SOL    HW119139   0.018   4.454   6.841
 6080SOL    HW219140   0.172   4.403   6.829
 6081SOL     OW19141   1.916   3.487   4.564
 6081SOL    HW119142   2.015   3.482   4.569
 6081SOL    HW219143   1.883   3.565   4.616
 6082SOL     OW19144   4.506   1.181   1.048
 6082SOL    HW119145   4.449   1.152   0.971
 6082SOL    HW219146   4.505   1.111   1.119
 6083SOL     OW19147   4.897   0.106   6.508
 6083SOL    HW119148   4.799   0.103   6.490
 6083SOL    HW219149   4.916   0.179   6.574
 6084SOL     OW19150   0.246   6.504   2.933
 6084SOL    HW119151   0.259   6.548   3.021
 6084SOL    HW219152   0.183   6.557   2.877
 6085SOL     OW19153   0.657   5.971   0.833
 6085SOL    HW119154   0.593   5.905   0.794
 6085SOL    HW219155   0.625   5.997   0.925
 6086SOL     OW19156   3.542   3.483   6.024
 6086SOL    HW119157   3.635   3.476   5.987
 6086SOL    HW219158   3.536   3.564   6.082
 6087SOL     OW19159   5.089   6.567   0.941
 6087SOL    HW119160   5.079   6.637   0.871
 6087SOL    HW219161   5.020   6.581   1.012
 6088SOL     OW19162   5.530   6.769   3.170
 6088SOL    HW119163   5.473   6.851   3.169
 6088SOL    HW219164   5.594   6.771   3.094
 6089SOL     OW19165   6.461   3.614   3.634
 6089SOL    HW119166   6.438   3.711   3.626
 6089SOL    HW219167   6.520   3.588   3.558
 6090SOL     OW19168   4.176   6.598   4.144
 6090SOL    HW119169   4.145   6.639   4.058
 6090SOL    HW219170   4.114   6.625   4.218
 6091SOL     OW19171   2.062   1.183   1.840
 6091SOL    HW119172   1.983   1.226   1.884
 6091SOL    HW219173   2.119   1.254   1.798
 6092SOL     OW19174   4.382   6.468   1.384
 6092SOL    HW119175   4.342   6.469   1.475
 6092SOL    HW219176   4.366   6.557   1.340
 6093SOL     OW19177   2.147   1.657   2.308
 6093SOL    HW119178   2.159   1.706   2.394
 6093SOL    HW219179   2.215   1.688   2.241
 6094SOL     OW19180   0.982   6.143   4.840
 6094SOL    HW119181   0.908   6.207   4.857
 6094SOL    HW219182   0.990   6.126   4.742
 6095SOL     OW19183   4.651   5.931   0.618
 6095SOL    HW119184   4.731   5.992   0.610
 6095SOL    HW219185   4.592   5.945   0.539
 6096SOL     OW19186   5.998   6.615   2.643
 6096SOL    HW119187   6.082   6.561   2.632
 6096SOL    HW219188   5.995   6.686   2.573
 6097SOL     OW19189   1.952   6.388   2.633
 6097SOL    HW119190   2.002   6.328   2.570
 6097SOL    HW219191   1.998   6.476   2.639
 6098SOL     OW19192   6.404   0.837   4.715
 6098SOL    HW119193   6.320   0.890   4.724
 6098SOL    HW219194   6.482   0.893   4.743
 6099SOL     OW19195   4.510   0.258   5.947
 6099SOL    HW119196   4.575   0.312   6.001
 6099SOL    HW219197   4.437   0.317   5.913
 6100SOL     OW19198   6.995   5.920   4.705
 6100SOL    HW119199   7.015   5.836   4.755
 6100SOL    HW219200   0.018   5.916   4.615
 6101SOL     OW19201   6.182   2.505   1.383
 6101SOL    HW119202   6.268   2.459   1.406
 6101SOL    HW219203   6.181   2.528   1.286
 6102SOL     OW19204   4.499   0.039   2.868
 6102SOL    HW119205   4.481   0.134   2.843
 6102SOL    HW219206   4.514   0.033   2.967
 6103SOL     OW19207   0.204   1.720   1.502
 6103SOL    HW119208   0.131   1.755   1.444
 6103SOL    HW219209   0.240   1.635   1.462
 6104SOL     OW19210   6.629   0.769   4.535
 6104SOL    HW119211   6.550   0.774   4.597
 6104SOL    HW219212   6.659   0.861   4.511
 6105SOL     OW19213   2.704   4.844   5.561
 6105SOL    HW119214   2.758   4.917   5.603
 6105SOL    HW219215   2.758   4.796   5.493
 6106SOL     OW19216   6.352   4.616   0.134
 6106SOL    HW119217   6.429   4.680   0.134
 6106SOL    HW219218   6.344   4.573   0.044
 6107SOL     OW19219   5.055   4.874   5.644
 6107SOL    HW119220   5.064   4.954   5.704
 6107SOL    HW219221   5.067   4.903   5.549
 6108SOL     OW19222   2.240   1.422   1.037
 6108SOL    HW119223   2.265   1.368   0.957
 6108SOL    HW219224   2.146   1.399   1.064
 6109SOL     OW19225   6.347   6.969   3.415
 6109SOL    HW119226   6.428   6.925   3.376
 6109SOL    HW219227   6.270   6.958   3.352
 6110SOL     OW19228   1.589   1.545   4.973
 6110SOL    HW119229   1.667   1.577   4.919
 6110SOL    HW219230   1.614   1.460   5.020
 6111SOL     OW19231   2.117   4.243   1.135
 6111SOL    HW119232   2.193   4.179   1.129
 6111SOL    HW219233   2.151   4.333   1.160
 6112SOL     OW19234   4.467   0.287   2.794
 6112SOL    HW119235   4.495   0.322   2.705
 6112SOL    HW219236   4.387   0.338   2.826
 6113SOL     OW19237   1.955   5.609   0.345
 6113SOL    HW119238   1.949   5.603   0.444
 6113SOL    HW219239   1.988   5.699   0.318
 6114SOL     OW19240   5.102   1.352   0.532
 6114SOL    HW119241   5.073   1.418   0.463
 6114SOL    HW219242   5.041   1.357   0.611
 6115SOL     OW19243   0.498   0.287   5.278
 6115SOL    HW119244   0.431   0.329   5.217
 6115SOL    HW219245   0.570   0.354   5.298
 6116SOL     OW19246   4.866   1.998   5.265
 6116SOL    HW119247   4.818   1.910   5.274
 6116SOL    HW219248   4.962   1.987   5.293
 6117SOL     OW19249   1.635   1.811   1.442
 6117SOL    HW119250   1.702   1.747   1.478
 6117SOL    HW219251   1.629   1.801   1.342
 6118SOL     OW19252   6.161   0.521   6.933
 6118SOL    HW119253   6.137   0.615   6.956
 6118SOL    HW219254   6.201   0.518   6.841
 6119SOL     OW19255   6.349   1.684   0.764
 6119SOL    HW119256   6.395   1.596   0.776
 6119SOL    HW219257   6.287   1.678   0.686
 6120SOL     OW19258   2.316   1.050   5.425
 6120SOL    HW119259   2.320   0.955   5.456
 6120SOL    HW219260   2.220   1.079   5.422
 6121SOL     OW19261   0.554   3.065   5.266
 6121SOL    HW119262   0.591   3.045   5.175
 6121SOL    HW219263   0.550   3.164   5.279
 6122SOL     OW19264   5.192   5.759   5.642
 6122SOL    HW119265   5.118   5.821   5.668
 6122SOL    HW219266   5.266   5.766   5.708
 6123SOL     OW19267   5.918   1.862   5.189
 6123SOL    HW119268   5.911   1.961   5.202
 6123SOL    HW219269   5.841   1.817   5.235
 6124SOL     OW19270   2.227   6.995   4.246
 6124SOL    HW119271   2.242   6.905   4.206
 6124SOL    HW219272   2.311   0.005   4.292
 6125SOL     OW19273   1.872   2.249   6.577
 6125SOL    HW119274   1.945   2.185   6.555
 6125SOL    HW219275   1.905   2.316   6.643
 6126SOL     OW19276   6.408   3.030   5.358
 6126SOL    HW119277   6.463   2.958   5.314
 6126SOL    HW219278   6.426   3.117   5.312
 6127SOL     OW19279   3.944   2.070   1.669
 6127SOL    HW119280   3.848   2.085   1.690
 6127SOL    HW219281   3.956   1.978   1.633
 6128SOL     OW19282   5.710   5.970   0.100
 6128SOL    HW119283   5.659   6.009   0.023
 6128SOL    HW219284   5.799   6.016   0.107
 6129SOL     OW19285   1.896   5.418   2.871
 6129SOL    HW119286   1.915   5.429   2.773
 6129SOL    HW219287   1.804   5.451   2.891
 6130SOL     OW19288   5.041   2.708   0.958
 6130SOL    HW119289   5.093   2.682   1.039
 6130SOL    HW219290   5.091   2.778   0.907
 6131SOL     OW19291   0.108   1.883   2.627
 6131SOL    HW119292   0.036   1.877   2.558
 6131SOL    HW219293   0.071   1.854   2.716
 6132SOL     OW19294   3.665   1.169   6.437
 6132SOL    HW119295   3.691   1.082   6.478
 6132SOL    HW219296   3.593   1.212   6.492
 6133SOL     OW19297   1.923   1.833   4.004
 6133SOL    HW119298   1.996   1.900   4.013
 6133SOL    HW219299   1.847   1.872   3.953
 6134SOL     OW19300   4.913   6.703   6.025
 6134SOL    HW119301   4.824   6.706   5.981
 6134SOL    HW219302   4.936   6.794   6.059
 6135SOL     OW19303   6.225   6.991   6.843
 6135SOL    HW119304   6.256   7.012   6.751
 6135SOL    HW219305   6.195   0.053   6.889
 6136SOL     OW19306   1.461   2.747   2.204
 6136SOL    HW119307   1.377   2.693   2.215
 6136SOL    HW219308   1.540   2.685   2.200
 6137SOL     OW19309   6.893   4.095   2.657
 6137SOL    HW119310   6.927   4.103   2.563
 6137SOL    HW219311   6.866   4.000   2.674
 6138SOL     OW19312   3.036   0.393   2.122
 6138SOL    HW119313   3.132   0.401   2.151
 6138SOL    HW219314   3.030   0.335   2.041
 6139SOL     OW19315   2.030   0.559   5.897
 6139SOL    HW119316   1.940   0.584   5.861
 6139SOL    HW219317   2.045   0.461   5.885
 6140SOL     OW19318   1.738   0.013   3.541
 6140SOL    HW119319   1.735   0.030   3.640
 6140SOL    HW219320   1.733   0.100   3.492
 6141SOL     OW19321   0.434   0.045   5.750
 6141SOL    HW119322   0.437   0.139   5.786
 6141SOL    HW219323   0.511   0.030   5.689
 6142SOL     OW19324   0.997   0.264   0.900
 6142SOL    HW119325   0.958   0.311   0.821
 6142SOL    HW219326   1.042   0.180   0.870
 6143SOL     OW19327   6.345   3.948   6.245
 6143SOL    HW119328   6.245   3.956   6.248
 6143SOL    HW219329   6.387   4.035   6.270
 6144SOL     OW19330   4.279   4.796   2.520
 6144SOL    HW119331   4.342   4.843   2.458
 6144SOL    HW219332   4.220   4.735   2.467
 6145SOL     OW19333   5.218   3.264   4.862
 6145SOL    HW119334   5.196   3.353   4.902
 6145SOL    HW219335   5.245   3.276   4.766
 6146SOL     OW19336   5.460   0.664   5.384
 6146SOL    HW119337   5.456   0.565   5.395
 6146SOL    HW219338   5.377   0.696   5.339
 6147SOL     OW19339   1.808   2.236   4.000
 6147SOL    HW119340   1.762   2.287   3.928
 6147SOL    HW219341   1.836   2.299   4.073
 6148SOL     OW19342   3.062   5.899   0.503
 6148SOL    HW119343   3.154   5.863   0.486
 6148SOL    HW219344   3.025   5.858   0.586
 6149SOL     OW19345   2.878   0.056   2.201
 6149SOL    HW119346   2.938   0.062   2.122
 6149SOL    HW219347   2.931   0.028   2.281
 6150SOL     OW19348   6.350   4.378   6.557
 6150SOL    HW119349   6.258   4.408   6.532
 6150SOL    HW219350   6.345   4.293   6.609
 6151SOL     OW19351   4.398   4.585   4.534
 6151SOL    HW119352   4.474   4.520   4.526
 6151SOL    HW219353   4.392   4.640   4.450
 6152SOL     OW19354   0.723   4.852   4.200
 6152SOL    HW119355   0.636   4.879   4.160
 6152SOL    HW219356   0.713   4.762   4.243
 6153SOL     OW19357   4.749   5.019   0.675
 6153SOL    HW119358   4.826   5.084   0.675
 6153SOL    HW219359   4.760   4.954   0.749
 6154SOL     OW19360   5.930   3.230   2.482
 6154SOL    HW119361   5.868   3.299   2.519
 6154SOL    HW219362   5.976   3.182   2.556
 6155SOL     OW19363   2.243   1.326   3.125
 6155SOL    HW119364   2.183   1.376   3.188
 6155SOL    HW219365   2.333   1.369   3.124
 6156SOL     OW19366   4.993   4.944   1.601
 6156SOL    HW119367   4.934   4.863   1.596
 6156SOL    HW219368   5.053   4.946   1.522
 6157SOL     OW19369   1.621   2.085   2.512
 6157SOL    HW119370   1.545   2.147   2.533
 6157SOL    HW219371   1.584   1.999   2.477
 6158SOL     OW19372   2.791   2.557   5.593
 6158SOL    HW119373   2.789   2.555   5.493
 6158SOL    HW219374   2.793   2.652   5.625
 6159SOL     OW19375   5.413   2.684   6.888
 6159SOL    HW119376   5.416   2.598   6.838
 6159SOL    HW219377   5.500   2.698   6.935
 6160SOL     OW19378   1.258   0.018   6.772
 6160SOL    HW119379   1.344   0.050   6.732
 6160SOL    HW219380   1.182   0.062   6.725
 6161SOL     OW19381   4.833   2.195   6.690
 6161SOL    HW119382   4.811   2.259   6.616
 6161SOL    HW219383   4.832   2.244   6.777
 6162SOL     OW19384   6.278   5.392   2.499
 6162SOL    HW119385   6.310   5.410   2.406
 6162SOL    HW219386   6.201   5.453   2.520
 6163SOL     OW19387   5.660   5.953   3.112
 6163SOL    HW119388   5.653   6.027   3.180
 6163SOL    HW219389   5.684   5.868   3.158
 6164SOL     OW19390   3.969   3.919   4.620
 6164SOL    HW119391   3.924   3.959   4.540
 6164SOL    HW219392   3.946   3.822   4.627
 6165SOL     OW19393   4.005   1.967   0.554
 6165SOL    HW119394   3.953   1.910   0.618
 6165SOL    HW219395   4.012   1.919   0.466
 6166SOL     OW19396   0.463   2.261   0.263
 6166SOL    HW119397   0.549   2.287   0.217
 6166SOL    HW219398   0.386   2.296   0.210
 6167SOL     OW19399   1.120   3.707   3.206
 6167SOL    HW119400   1.126   3.679   3.302
 6167SOL    HW219401   1.124   3.625   3.148
 6168SOL     OW19402   1.090   3.460   4.082
 6168SOL    HW119403   1.120   3.375   4.039
 6168SOL    HW219404   0.999   3.485   4.048
 6169SOL     OW19405   2.393   6.984   0.418
 6169SOL    HW119406   2.360   7.019   0.505
 6169SOL    HW219407   2.317   6.945   0.366
 6170SOL     OW19408   3.738   4.336   0.015
 6170SOL    HW119409   3.746   4.417   0.073
 6170SOL    HW219410   3.651   4.290   0.033
 6171SOL     OW19411   1.861   4.727   2.449
 6171SOL    HW119412   1.781   4.770   2.406
 6171SOL    HW219413   1.936   4.793   2.455
 6172SOL     OW19414   1.080   6.341   2.993
 6172SOL    HW119415   1.048   6.423   2.946
 6172SOL    HW219416   1.050   6.343   3.088
 6173SOL     OW19417   1.157   5.034   2.923
 6173SOL    HW119418   1.185   5.109   2.983
 6173SOL    HW219419   1.239   4.987   2.889
 6174SOL     OW19420   5.630   5.211   3.171
 6174SOL    HW119421   5.677   5.140   3.223
 6174SOL    HW219422   5.649   5.300   3.212
 6175SOL     OW19423   4.386   0.650   3.443
 6175SOL    HW119424   4.422   0.623   3.532
 6175SOL    HW219425   4.328   0.730   3.453
 6176SOL     OW19426   5.953   3.057   6.385
 6176SOL    HW119427   5.908   2.995   6.320
 6176SOL    HW219428   6.044   3.082   6.350
 6177SOL     OW19429   5.339   2.412   1.233
 6177SOL    HW119430   5.274   2.369   1.295
 6177SOL    HW219431   5.343   2.361   1.147
 6178SOL     OW19432   5.353   3.692   0.848
 6178SOL    HW119433   5.318   3.600   0.870
 6178SOL    HW219434   5.447   3.685   0.816
 6179SOL     OW19435   0.401   2.494   5.322
 6179SOL    HW119436   0.315   2.538   5.297
 6179SOL    HW219437   0.475   2.533   5.268
 6180SOL     OW19438   3.886   6.964   1.384
 6180SOL    HW119439   3.929   6.932   1.469
 6180SOL    HW219440   3.825   0.019   1.405
 6181SOL     OW19441   4.906   6.446   6.500
 6181SOL    HW119442   4.852   6.401   6.429
 6181SOL    HW219443   4.941   6.378   6.564
 6182SOL     OW19444   4.881   5.830   6.188
 6182SOL    HW119445   4.795   5.787   6.213
 6182SOL    HW219446   4.900   5.811   6.091
 6183SOL     OW19447   2.441   6.828   3.251
 6183SOL    HW119448   2.516   6.815   3.186
 6183SOL    HW219449   2.357   6.788   3.214
 6184SOL     OW19450   0.683   0.334   6.315
 6184SOL    HW119451   0.640   0.298   6.398
 6184SOL    HW219452   0.679   0.434   6.316
 6185SOL     OW19453   6.999   3.453   6.240
 6185SOL    HW119454   0.015   3.541   6.214
 6185SOL    HW219455   0.050   3.396   6.280
 6186SOL     OW19456   5.301   0.256   4.362
 6186SOL    HW119457   5.208   0.293   4.366
 6186SOL    HW219458   5.297   0.157   4.350
 6187SOL     OW19459   4.400   4.715   3.897
 6187SOL    HW119460   4.346   4.793   3.864
 6187SOL    HW219461   4.432   4.661   3.818
 6188SOL     OW19462   2.969   6.707   1.375
 6188SOL    HW119463   2.971   6.608   1.392
 6188SOL    HW219464   3.020   6.727   1.291
 6189SOL     OW19465   5.747   5.002   3.332
 6189SOL    HW119466   5.735   5.068   3.407
 6189SOL    HW219467   5.730   4.910   3.366
 6190SOL     OW19468   5.438   2.408   6.776
 6190SOL    HW119469   5.389   2.323   6.755
 6190SOL    HW219470   5.502   2.392   6.850
 6191SOL     OW19471   5.571   1.881   0.064
 6191SOL    HW119472   5.653   1.846   0.110
 6191SOL    HW219473   5.505   1.910   0.133
 6192SOL     OW19474   2.521   3.090   6.907
 6192SOL    HW119475   2.537   2.992   6.920
 6192SOL    HW219476   2.451   3.122   6.970
 6193SOL     OW19477   5.703   0.146   2.038
 6193SOL    HW119478   5.728   0.154   1.942
 6193SOL    HW219479   5.638   0.218   2.061
 6194SOL     OW19480   2.477   0.500   0.986
 6194SOL    HW119481   2.553   0.564   0.980
 6194SOL    HW219482   2.392   0.550   0.999
 6195SOL     OW19483   3.482   6.811   6.390
 6195SOL    HW119484   3.562   6.851   6.436
 6195SOL    HW219485   3.475   6.849   6.298
 6196SOL     OW19486   0.846   1.946   5.967
 6196SOL    HW119487   0.945   1.946   5.958
 6196SOL    HW219488   0.814   1.853   5.986
 6197SOL     OW19489   2.699   3.982   0.800
 6197SOL    HW119490   2.770   4.021   0.742
 6197SOL    HW219491   2.609   4.003   0.761
 6198SOL     OW19492   3.687   4.843   2.567
 6198SOL    HW119493   3.777   4.876   2.595
 6198SOL    HW219494   3.691   4.809   2.473
 6199SOL     OW19495   1.802   6.872   0.452
 6199SOL    HW119496   1.863   6.822   0.514
 6199SOL    HW219497   1.795   6.822   0.366
 6200SOL     OW19498   3.606   0.776   6.256
 6200SOL    HW119499   3.528   0.727   6.218
 6200SOL    HW219500   3.684   0.715   6.262
 6201SOL     OW19501   2.153   3.688   5.350
 6201SOL    HW119502   2.153   3.732   5.260
 6201SOL    HW219503   2.059   3.664   5.375
 6202SOL     OW19504   2.948   1.885   1.100
 6202SOL    HW119505   3.019   1.955   1.103
 6202SOL    HW219506   2.865   1.919   1.143
 6203SOL     OW19507   4.934   0.954   4.702
 6203SOL    HW119508   4.908   1.005   4.620
 6203SOL    HW219509   4.868   0.880   4.718
 6204SOL     OW19510   1.901   5.901   5.383
 6204SOL    HW119511   1.896   5.909   5.284
 6204SOL    HW219512   1.871   5.809   5.410
 6205SOL     OW19513   5.146   5.466   6.593
 6205SOL    HW119514   5.238   5.437   6.564
 6205SOL    HW219515   5.084   5.462   6.515
 6206SOL     OW19516   5.741   0.353   2.571
 6206SOL    HW119517   5.738   0.290   2.493
 6206SOL    HW219518   5.836   0.383   2.585
 6207SOL     OW19519   1.237   3.908   4.720
 6207SOL    HW119520   1.189   3.935   4.636
 6207SOL    HW219521   1.319   3.964   4.731
 6208SOL     OW19522   6.185   0.081   6.594
 6208SOL    HW119523   6.090   0.062   6.620
 6208SOL    HW219524   6.186   0.141   6.514
 6209SOL     OW19525   4.470   6.721   6.931
 6209SOL    HW119526   4.515   6.727   7.020
 6209SOL    HW219527   4.471   6.626   6.899
 6210SOL     OW19528   5.509   4.488   3.468
 6210SOL    HW119529   5.548   4.494   3.376
 6210SOL    HW219530   5.468   4.398   3.481
 6211SOL     OW19531   2.572   0.515   4.935
 6211SOL    HW119532   2.597   0.470   5.021
 6211SOL    HW219533   2.511   0.592   4.954
 6212SOL     OW19534   6.404   6.010   3.706
 6212SOL    HW119535   6.495   6.009   3.665
 6212SOL    HW219536   6.410   6.041   3.801
 6213SOL     OW19537   6.077   0.786   6.865
 6213SOL    HW119538   6.069   0.868   6.809
 6213SOL    HW219539   6.111   0.811   6.956
 6214SOL     OW19540   6.358   4.906   2.564
 6214SOL    HW119541   6.320   4.986   2.518
 6214SOL    HW219542   6.371   4.926   2.661
 6215SOL     OW19543   2.989   2.767   1.093
 6215SOL    HW119544   2.951   2.851   1.053
 6215SOL    HW219545   3.046   2.722   1.024
 6216SOL     OW19546   5.795   1.907   2.434
 6216SOL    HW119547   5.892   1.885   2.446
 6216SOL    HW219548   5.761   1.863   2.351
 6217SOL     OW19549   4.583   1.941   0.999
 6217SOL    HW119550   4.671   1.895   1.009
 6217SOL    HW219551   4.599   2.039   0.984
 6218SOL     OW19552   2.612   4.903   4.578
 6218SOL    HW119553   2.574   4.990   4.549
 6218SOL    HW219554   2.675   4.868   4.509
 6219SOL     OW19555   0.764   2.419   5.071
 6219SOL    HW119556   0.848   2.371   5.044
 6219SOL    HW219557   0.781   2.471   5.155
 6220SOL     OW19558   2.157   4.881   4.868
 6220SOL    HW119559   2.205   4.821   4.932
 6220SOL    HW219560   2.064   4.897   4.901
 6221SOL     OW19561   4.073   5.147   4.448
 6221SOL    HW119562   4.024   5.220   4.401
 6221SOL    HW219563   4.128   5.185   4.522
 6222SOL     OW19564   6.723   0.210   2.045
 6222SOL    HW119565   6.693   0.265   2.124
 6222SOL    HW219566   6.652   0.143   2.023
 6223SOL     OW19567   5.467   3.658   4.216
 6223SOL    HW119568   5.408   3.690   4.290
 6223SOL    HW219569   5.536   3.728   4.195
 6224SOL     OW19570   2.110   1.272   5.280
 6224SOL    HW119571   2.141   1.179   5.302
 6224SOL    HW219572   2.080   1.275   5.184
 6225SOL     OW19573   3.417   3.303   0.742
 6225SOL    HW119574   3.338   3.284   0.800
 6225SOL    HW219575   3.391   3.294   0.646
 6226SOL     OW19576   5.402   0.917   4.461
 6226SOL    HW119577   5.420   0.851   4.535
 6226SOL    HW219578   5.331   0.881   4.401
 6227SOL     OW19579   3.446   4.607   5.777
 6227SOL    HW119580   3.534   4.577   5.816
 6227SOL    HW219581   3.374   4.594   5.845
 6228SOL     OW19582   0.084   1.367   3.254
 6228SOL    HW119583   0.108   1.274   3.225
 6228SOL    HW219584   0.034   1.363   3.340
 6229SOL     OW19585   2.430   2.192   3.035
 6229SOL    HW119586   2.483   2.276   3.048
 6229SOL    HW219587   2.377   2.173   3.117
 6230SOL     OW19588   2.335   2.061   4.348
 6230SOL    HW119589   2.256   2.037   4.405
 6230SOL    HW219590   2.313   2.044   4.252
 6231SOL     OW19591   0.287   5.183   1.300
 6231SOL    HW119592   0.331   5.219   1.217
 6231SOL    HW219593   0.259   5.260   1.359
 6232SOL     OW19594   0.411   0.340   0.545
 6232SOL    HW119595   0.480   0.278   0.581
 6232SOL    HW219596   0.450   0.393   0.469
 6233SOL     OW19597   4.979   1.904   6.282
 6233SOL    HW119598   4.906   1.846   6.317
 6233SOL    HW219599   4.988   1.985   6.340
 6234SOL     OW19600   1.642   2.079   4.829
 6234SOL    HW119601   1.633   2.176   4.807
 6234SOL    HW219602   1.553   2.035   4.821
 6235SOL     OW19603   1.568   0.250   2.591
 6235SOL    HW119604   1.666   0.266   2.580
 6235SOL    HW219605   1.537   0.293   2.676
 6236SOL     OW19606   6.946   4.826   1.102
 6236SOL    HW119607   6.984   4.738   1.074
 6236SOL    HW219608   7.020   4.887   1.130
 6237SOL     OW19609   5.021   6.312   0.702
 6237SOL    HW119610   5.076   6.298   0.785
 6237SOL    HW219611   5.021   6.409   0.679
 6238SOL     OW19612   4.964   5.483   2.034
 6238SOL    HW119613   4.910   5.410   1.992
 6238SOL    HW219614   5.060   5.472   2.010
 6239SOL     OW19615   2.529   6.656   2.750
 6239SOL    HW119616   2.585   6.738   2.749
 6239SOL    HW219617   2.559   6.593   2.678
 6240SOL     OW19618   1.678   3.333   0.713
 6240SOL    HW119619   1.762   3.387   0.710
 6240SOL    HW219620   1.698   3.238   0.689
 6241SOL     OW19621   2.547   0.558   1.652
 6241SOL    HW119622   2.577   0.464   1.666
 6241SOL    HW219623   2.619   0.621   1.682
 6242SOL     OW19624   5.178   2.201   3.623
 6242SOL    HW119625   5.234   2.225   3.702
 6242SOL    HW219626   5.230   2.214   3.539
 6243SOL     OW19627   5.677   6.756   4.372
 6243SOL    HW119628   5.631   6.730   4.457
 6243SOL    HW219629   5.657   6.852   4.351
 6244SOL     OW19630   2.812   1.921   2.487
 6244SOL    HW119631   2.895   1.912   2.431
 6244SOL    HW219632   2.828   1.990   2.558
 6245SOL     OW19633   2.747   4.825   1.271
 6245SOL    HW119634   2.761   4.811   1.369
 6245SOL    HW219635   2.798   4.905   1.241
 6246SOL     OW19636   2.749   1.930   5.742
 6246SOL    HW119637   2.840   1.889   5.735
 6246SOL    HW219638   2.714   1.949   5.651
 6247SOL     OW19639   0.348   6.782   3.426
 6247SOL    HW119640   0.248   6.790   3.433
 6247SOL    HW219641   0.383   6.732   3.506
 6248SOL     OW19642   0.487   4.450   1.164
 6248SOL    HW119643   0.577   4.434   1.205
 6248SOL    HW219644   0.429   4.498   1.230
 6249SOL     OW19645   6.883   4.068   0.019
 6249SOL    HW119646   6.811   4.055   0.086
 6249SOL    HW219647   6.951   4.134   0.053
 6250SOL     OW19648   6.202   6.346   7.010
 6250SOL    HW119649   6.287   6.397   0.004
 6250SOL    HW219650   6.183   6.342   6.912
 6251SOL     OW19651   4.202   1.041   1.144
 6251SOL    HW119652   4.164   0.969   1.201
 6251SOL    HW219653   4.129   1.102   1.113
 6252SOL     OW19654   3.040   5.146   5.006
 6252SOL    HW119655   3.071   5.051   5.005
 6252SOL    HW219656   3.108   5.203   4.959
 6253SOL     OW19657   2.324   4.168   1.937
 6253SOL    HW119658   2.320   4.222   2.021
 6253SOL    HW219659   2.334   4.229   1.859
 6254SOL     OW19660   5.799   0.106   0.435
 6254SOL    HW119661   5.769   0.105   0.530
 6254SOL    HW219662   5.799   0.012   0.400
 6255SOL     OW19663   0.991   1.181   2.346
 6255SOL    HW119664   0.944   1.216   2.265
 6255SOL    HW219665   1.033   1.093   2.326
 6256SOL     OW19666   4.191   5.263   2.645
 6256SOL    HW119667   4.192   5.175   2.693
 6256SOL    HW219668   4.282   5.304   2.650
 6257SOL     OW19669   5.403   2.647   0.219
 6257SOL    HW119670   5.452   2.563   0.196
 6257SOL    HW219671   5.463   2.725   0.206
 6258SOL     OW19672   4.584   1.717   2.282
 6258SOL    HW119673   4.489   1.689   2.291
 6258SOL    HW219674   4.602   1.797   2.340
 6259SOL     OW19675   3.216   2.183   1.791
 6259SOL    HW119676   3.238   2.096   1.834
 6259SOL    HW219677   3.136   2.224   1.836
 6260SOL     OW19678   3.298   4.172   0.182
 6260SOL    HW119679   3.257   4.240   0.243
 6260SOL    HW219680   3.394   4.160   0.205
 6261SOL     OW19681   3.740   0.758   0.387
 6261SOL    HW119682   3.647   0.766   0.422
 6261SOL    HW219683   3.762   0.839   0.333
 6262SOL     OW19684   1.314   4.679   0.078
 6262SOL    HW119685   1.280   4.662   7.007
 6262SOL    HW219686   1.284   4.769   0.109
 6263SOL     OW19687   0.021   0.012   0.621
 6263SOL    HW119688   6.962   0.013   0.561
 6263SOL    HW219689   0.093   0.069   0.582
 6264SOL     OW19690   2.651   2.272   1.004
 6264SOL    HW119691   2.736   2.219   1.007
 6264SOL    HW219692   2.673   2.370   1.005
 6265SOL     OW19693   4.145   4.109   0.880
 6265SOL    HW119694   4.071   4.061   0.928
 6265SOL    HW219695   4.122   4.207   0.874
 6266SOL     OW19696   3.337   0.604   3.211
 6266SOL    HW119697   3.279   0.676   3.173
 6266SOL    HW219698   3.346   0.530   3.144
 6267SOL     OW19699   3.043   0.355   0.029
 6267SOL    HW119700   3.043   0.267   0.075
 6267SOL    HW219701   3.017   0.427   0.093
 6268SOL     OW19702   2.961   4.917   2.862
 6268SOL    HW119703   3.039   4.925   2.924
 6268SOL    HW219704   2.927   4.823   2.864
 6269SOL     OW19705   5.554   6.209   1.719
 6269SOL    HW119706   5.515   6.140   1.658
 6269SOL    HW219707   5.648   6.229   1.691
 6270SOL     OW19708   1.768   0.743   4.724
 6270SOL    HW119709   1.718   0.801   4.788
 6270SOL    HW219710   1.806   0.798   4.650
 6271SOL     OW19711   0.207   1.554   0.208
 6271SOL    HW119712   0.147   1.578   0.132
 6271SOL    HW219713   0.302   1.557   0.178
 6272SOL     OW19714   2.219   2.390   4.133
 6272SOL    HW119715   2.282   2.416   4.207
 6272SOL    HW219716   2.210   2.290   4.131
 6273SOL     OW19717   2.504   1.504   1.128
 6273SOL    HW119718   2.563   1.528   1.051
 6273SOL    HW219719   2.419   1.464   1.094
 6274SOL     OW19720   3.609   5.824   6.494
 6274SOL    HW119721   3.520   5.830   6.451
 6274SOL    HW219722   3.611   5.744   6.555
 6275SOL     OW19723   2.089   0.084   4.846
 6275SOL    HW119724   2.108   0.045   4.755
 6275SOL    HW219725   2.126   0.177   4.851
 6276SOL     OW19726   1.260   5.892   3.707
 6276SOL    HW119727   1.277   5.923   3.800
 6276SOL    HW219728   1.315   5.811   3.688
 6277SOL     OW19729   5.221   2.444   2.733
 6277SOL    HW119730   5.147   2.493   2.779
 6277SOL    HW219731   5.233   2.481   2.640
 6278SOL     OW19732   4.748   0.328   4.347
 6278SOL    HW119733   4.695   0.401   4.304
 6278SOL    HW219734   4.726   0.324   4.445
 6279SOL     OW19735   3.784   1.755   1.173
 6279SOL    HW119736   3.705   1.745   1.234
 6279SOL    HW219737   3.850   1.682   1.191
 6280SOL     OW19738   0.232   4.163   5.693
 6280SOL    HW119739   0.322   4.120   5.693
 6280SOL    HW219740   0.241   4.261   5.677
 6281SOL     OW19741   2.101   0.438   5.322
 6281SOL    HW119742   2.085   0.386   5.406
 6281SOL    HW219743   2.038   0.515   5.318
 6282SOL     OW19744   1.966   7.007   4.322
 6282SOL    HW119745   2.057   6.993   4.284
 6282SOL    HW219746   1.968   0.064   4.384
 6283SOL     OW19747   0.152   2.738   5.146
 6283SOL    HW119748   0.144   2.794   5.229
 6283SOL    HW219749   0.073   2.678   5.139
 6284SOL     OW19750   1.127   4.589   5.420
 6284SOL    HW119751   1.187   4.667   5.400
 6284SOL    HW219752   1.155   4.510   5.366
 6285SOL     OW19753   1.513   2.934   3.722
 6285SOL    HW119754   1.589   2.990   3.690
 6285SOL    HW219755   1.549   2.854   3.772
 6286SOL     OW19756   5.248   1.300   3.617
 6286SOL    HW119757   5.288   1.380   3.571
 6286SOL    HW219758   5.201   1.243   3.549
 6287SOL     OW19759   4.837   3.785   1.863
 6287SOL    HW119760   4.848   3.823   1.771
 6287SOL    HW219761   4.786   3.850   1.920
 6288SOL     OW19762   5.327   3.836   0.378
 6288SOL    HW119763   5.321   3.820   0.477
 6288SOL    HW219764   5.332   3.934   0.360
 6289SOL     OW19765   1.534   1.852   4.067
 6289SOL    HW119766   1.601   1.792   4.111
 6289SOL    HW219767   1.580   1.935   4.034
 6290SOL     OW19768   4.823   3.947   3.717
 6290SOL    HW119769   4.869   4.036   3.708
 6290SOL    HW219770   4.738   3.949   3.664
 6291SOL     OW19771   3.687   3.908   3.442
 6291SOL    HW119772   3.624   3.983   3.420
 6291SOL    HW219773   3.757   3.940   3.505
 6292SOL     OW19774   1.076   1.688   2.089
 6292SOL    HW119775   1.068   1.757   2.161
 6292SOL    HW219776   1.084   1.733   2.000
 6293SOL     OW19777   5.006   0.198   0.047
 6293SOL    HW119778   4.922   0.240   0.081
 6293SOL    HW219779   5.076   0.199   0.119
 6294SOL     OW19780   3.688   5.253   2.673
 6294SOL    HW119781   3.721   5.194   2.746
 6294SOL    HW219782   3.761   5.313   2.642
 6295SOL     OW19783   5.799   5.687   6.034
 6295SOL    HW119784   5.823   5.597   5.996
 6295SOL    HW219785   5.700   5.700   6.027
 6296SOL     OW19786   6.738   0.748   3.020
 6296SOL    HW119787   6.798   0.730   3.098
 6296SOL    HW219788   6.666   0.679   3.017
 6297SOL     OW19789   5.491   6.008   6.006
 6297SOL    HW119790   5.483   5.977   6.101
 6297SOL    HW219791   5.415   6.068   5.983
 6298SOL     OW19792   0.483   3.325   5.231
 6298SOL    HW119793   0.522   3.416   5.216
 6298SOL    HW219794   0.387   3.334   5.257
 6299SOL     OW19795   6.451   2.485   6.430
 6299SOL    HW119796   6.480   2.535   6.511
 6299SOL    HW219797   6.474   2.388   6.440
 6300SOL     OW19798   4.674   0.951   4.137
 6300SOL    HW119799   4.706   1.040   4.104
 6300SOL    HW219800   4.664   0.954   4.236
 6301SOL     OW19801   3.102   6.922   1.074
 6301SOL    HW119802   3.193   6.892   1.105
 6301SOL    HW219803   3.047   6.842   1.051
 6302SOL     OW19804   1.813   1.022   3.676
 6302SOL    HW119805   1.908   1.038   3.702
 6302SOL    HW219806   1.809   0.964   3.595
 6303SOL     OW19807   1.916   6.323   5.127
 6303SOL    HW119808   1.820   6.295   5.124
 6303SOL    HW219809   1.924   6.418   5.096
 6304SOL     OW19810   2.474   1.579   0.136
 6304SOL    HW119811   2.525   1.636   0.071
 6304SOL    HW219812   2.492   1.611   0.229
 6305SOL     OW19813   6.780   0.017   1.256
 6305SOL    HW119814   6.880   0.012   1.265
 6305SOL    HW219815   6.757   0.041   1.162
 6306SOL     OW19816   6.637   2.926   3.778
 6306SOL    HW119817   6.658   2.847   3.834
 6306SOL    HW219818   6.539   2.930   3.760
 6307SOL     OW19819   2.304   5.080   6.613
 6307SOL    HW119820   2.242   5.037   6.678
 6307SOL    HW219821   2.269   5.069   6.520
 6308SOL     OW19822   2.480   1.682   4.710
 6308SOL    HW119823   2.414   1.757   4.700
 6308SOL    HW219824   2.563   1.717   4.753
 6309SOL     OW19825   5.161   2.391   3.821
 6309SOL    HW119826   5.128   2.484   3.802
 6309SOL    HW219827   5.092   2.342   3.875
 6310SOL     OW19828   1.361   4.913   4.979
 6310SOL    HW119829   1.338   4.844   5.049
 6310SOL    HW219830   1.442   4.964   5.009
 6311SOL     OW19831   6.073   0.246   4.789
 6311SOL    HW119832   6.051   0.149   4.794
 6311SOL    HW219833   6.028   0.286   4.709
 6312SOL     OW19834   4.721   5.440   5.983
 6312SOL    HW119835   4.629   5.451   5.945
 6312SOL    HW219836   4.719   5.462   6.081
 6313SOL     OW19837   2.017   5.846   3.208
 6313SOL    HW119838   2.043   5.902   3.286
 6313SOL    HW219839   2.041   5.751   3.226
 6314SOL     OW19840   2.823   5.996   2.858
 6314SOL    HW119841   2.815   5.989   2.759
 6314SOL    HW219842   2.920   5.995   2.884
 6315SOL     OW19843   3.265   3.606   0.408
 6315SOL    HW119844   3.247   3.700   0.439
 6315SOL    HW219845   3.362   3.595   0.390
 6316SOL     OW19846   4.655   2.442   5.514
 6316SOL    HW119847   4.727   2.380   5.546
 6316SOL    HW219848   4.685   2.537   5.525
 6317SOL     OW19849   5.209   0.259   3.674
 6317SOL    HW119850   5.255   0.177   3.640
 6317SOL    HW219851   5.161   0.304   3.599
 6318SOL     OW19852   2.285   2.405   5.292
 6318SOL    HW119853   2.325   2.399   5.200
 6318SOL    HW219854   2.348   2.455   5.352
 6319SOL     OW19855   1.350   1.837   3.429
 6319SOL    HW119856   1.290   1.773   3.477
 6319SOL    HW219857   1.312   1.929   3.436
 6320SOL     OW19858   6.100   3.656   2.977
 6320SOL    HW119859   6.013   3.691   3.011
 6320SOL    HW219860   6.103   3.557   2.988
 6321SOL     OW19861   2.624   5.269   0.929
 6321SOL    HW119862   2.554   5.201   0.953
 6321SOL    HW219863   2.678   5.235   0.852
 6322SOL     OW19864   1.386   1.376   6.843
 6322SOL    HW119865   1.392   1.460   6.898
 6322SOL    HW219866   1.425   1.300   6.894
 6323SOL     OW19867   4.097   2.844   0.747
 6323SOL    HW119868   4.049   2.880   0.667
 6323SOL    HW219869   4.041   2.773   0.791
 6324SOL     OW19870   4.399   1.096   5.709
 6324SOL    HW119871   4.439   1.155   5.779
 6324SOL    HW219872   4.306   1.125   5.689
 6325SOL     OW19873   0.717   2.507   2.163
 6325SOL    HW119874   0.726   2.603   2.140
 6325SOL    HW219875   0.743   2.493   2.259
 6326SOL     OW19876   5.146   5.761   1.734
 6326SOL    HW119877   5.196   5.837   1.775
 6326SOL    HW219878   5.059   5.748   1.782
 6327SOL     OW19879   5.727   5.987   5.496
 6327SOL    HW119880   5.688   5.950   5.580
 6327SOL    HW219881   5.819   5.951   5.482
 6328SOL     OW19882   2.256   3.944   6.769
 6328SOL    HW119883   2.286   3.857   6.806
 6328SOL    HW219884   2.329   3.984   6.713
 6329SOL     OW19885   1.544   1.475   3.646
 6329SOL    HW119886   1.623   1.425   3.681
 6329SOL    HW219887   1.566   1.514   3.557
 6330SOL     OW19888   4.213   0.580   0.528
 6330SOL    HW119889   4.129   0.560   0.476
 6330SOL    HW219890   4.191   0.641   0.604
 6331SOL     OW19891   6.399   1.976   1.328
 6331SOL    HW119892   6.465   2.026   1.384
 6331SOL    HW219893   6.426   1.880   1.321
 6332SOL     OW19894   6.020   5.785   1.137
 6332SOL    HW119895   6.079   5.862   1.112
 6332SOL    HW219896   5.928   5.819   1.159
 6333SOL     OW19897   3.441   4.934   3.282
 6333SOL    HW119898   3.517   4.999   3.287
 6333SOL    HW219899   3.413   4.924   3.186
 6334SOL     OW19900   2.206   0.438   2.211
 6334SOL    HW119901   2.176   0.459   2.304
 6334SOL    HW219902   2.131   0.397   2.159
 6335SOL     OW19903   6.621   1.021   6.644
 6335SOL    HW119904   6.574   0.975   6.719
 6335SOL    HW219905   6.654   0.953   6.579
 6336SOL     OW19906   0.005   2.701   4.325
 6336SOL    HW119907   6.936   2.690   4.282
 6336SOL    HW219908   0.028   2.798   4.330
 6337SOL     OW19909   5.379   4.037   5.813
 6337SOL    HW119910   5.457   3.981   5.839
 6337SOL    HW219911   5.406   4.098   5.738
 6338SOL     OW19912   3.695   1.713   2.750
 6338SOL    HW119913   3.679   1.625   2.795
 6338SOL    HW219914   3.751   1.699   2.669
 6339SOL     OW19915   0.366   2.030   3.705
 6339SOL    HW119916   0.333   2.051   3.613
 6339SOL    HW219917   0.293   2.049   3.771
 6340SOL     OW19918   2.878   5.801   3.779
 6340SOL    HW119919   2.892   5.752   3.693
 6340SOL    HW219920   2.791   5.772   3.820
 6341SOL     OW19921   0.374   4.380   3.077
 6341SOL    HW119922   0.424   4.360   2.992
 6341SOL    HW219923   0.304   4.449   3.058
 6342SOL     OW19924   1.625   2.608   1.655
 6342SOL    HW119925   1.692   2.539   1.625
 6342SOL    HW219926   1.533   2.569   1.652
 6343SOL     OW19927   3.967   1.422   6.608
 6343SOL    HW119928   3.975   1.521   6.610
 6343SOL    HW219929   3.958   1.391   6.513
 6344SOL     OW19930   0.462   4.011   4.803
 6344SOL    HW119931   0.453   4.025   4.902
 6344SOL    HW219932   0.485   3.916   4.785
 6345SOL     OW19933   3.617   1.674   2.120
 6345SOL    HW119934   3.549   1.712   2.184
 6345SOL    HW219935   3.571   1.619   2.051
 6346SOL     OW19936   0.497   3.900   3.288
 6346SOL    HW119937   0.479   3.996   3.309
 6346SOL    HW219938   0.546   3.894   3.201
 6347SOL     OW19939   3.214   0.181   0.823
 6347SOL    HW119940   3.150   0.183   0.900
 6347SOL    HW219941   3.186   0.248   0.754
 6348SOL     OW19942   1.094   3.217   3.975
 6348SOL    HW119943   1.106   3.181   4.067
 6348SOL    HW219944   1.149   3.164   3.911
 6349SOL     OW19945   2.837   0.735   0.905
 6349SOL    HW119946   2.820   0.685   0.989
 6349SOL    HW219947   2.751   0.767   0.867
 6350SOL     OW19948   1.489   5.891   2.312
 6350SOL    HW119949   1.525   5.961   2.375
 6350SOL    HW219950   1.561   5.865   2.247
 6351SOL     OW19951   6.978   1.305   2.081
 6351SOL    HW119952   0.011   1.381   2.044
 6351SOL    HW219953   6.908   1.342   2.142
 6352SOL     OW19954   1.666   5.291   2.606
 6352SOL    HW119955   1.600   5.282   2.532
 6352SOL    HW219956   1.726   5.211   2.607
 6353SOL     OW19957   0.676   0.016   0.351
 6353SOL    HW119958   0.739   0.058   0.416
 6353SOL    HW219959   0.669   0.073   0.269
 6354SOL     OW19960   0.691   0.359   2.446
 6354SOL    HW119961   0.758   0.297   2.405
 6354SOL    HW219962   0.668   0.432   2.381
 6355SOL     OW19963   1.602   3.032   3.069
 6355SOL    HW119964   1.702   3.025   3.061
 6355SOL    HW219965   1.559   2.953   3.024
 6356SOL     OW19966   3.349   4.592   0.904
 6356SOL    HW119967   3.389   4.582   0.996
 6356SOL    HW219968   3.298   4.509   0.881
 6357SOL     OW19969   4.064   2.222   0.267
 6357SOL    HW119970   4.145   2.211   0.210
 6357SOL    HW219971   3.993   2.159   0.235
 6358SOL     OW19972   6.942   2.196   3.715
 6358SOL    HW119973   6.846   2.223   3.723
 6358SOL    HW219974   6.949   2.097   3.711
 6359SOL     OW19975   0.022   0.686   6.045
 6359SOL    HW119976   7.015   0.647   6.133
 6359SOL    HW219977   0.103   0.637   6.012
 6360SOL     OW19978   2.435   5.167   3.814
 6360SOL    HW119979   2.468   5.098   3.749
 6360SOL    HW219980   2.336   5.172   3.810
 6361SOL     OW19981   4.346   5.974   5.935
 6361SOL    HW119982   4.435   5.995   5.975
 6361SOL    HW219983   4.318   6.049   5.875
 6362SOL     OW19984   6.119   5.268   0.009
 6362SOL    HW119985   6.142   5.323   6.950
 6362SOL    HW219986   6.133   5.323   0.092
 6363SOL     OW19987   1.685   5.851   4.161
 6363SOL    HW119988   1.737   5.913   4.102
 6363SOL    HW219989   1.747   5.783   4.200
 6364SOL     OW19990   2.441   2.771   5.811
 6364SOL    HW119991   2.492   2.829   5.874
 6364SOL    HW219992   2.486   2.682   5.802
 6365SOL     OW19993   4.798   6.996   3.110
 6365SOL    HW119994   4.886   6.975   3.067
 6365SOL    HW219995   4.798   6.964   3.204
 6366SOL     OW19996   0.585   5.621   5.196
 6366SOL    HW119997   0.656   5.673   5.243
 6366SOL    HW219998   0.614   5.600   5.103
 6367SOL     OW19999   5.251   0.145   3.940
 6367SOL    HW120000   5.222   0.196   3.859
 6367SOL    HW220001   5.212   0.187   4.021
 6368SOL     OW20002   3.443   6.418   4.340
 6368SOL    HW120003   3.534   6.402   4.301
 6368SOL    HW220004   3.444   6.503   4.393
 6369SOL     OW20005   2.234   4.924   3.836
 6369SOL    HW120006   2.306   4.904   3.903
 6369SOL    HW220007   2.209   5.020   3.843
 6370SOL     OW20008   5.628   2.317   0.895
 6370SOL    HW120009   5.693   2.250   0.857
 6370SOL    HW220010   5.573   2.272   0.965
 6371SOL     OW20011   4.770   2.814   2.696
 6371SOL    HW120012   4.768   2.851   2.603
 6371SOL    HW220013   4.701   2.742   2.705
 6372SOL     OW20014   3.690   6.411   2.409
 6372SOL    HW120015   3.613   6.447   2.462
 6372SOL    HW220016   3.675   6.430   2.312
 6373SOL     OW20017   4.276   4.165   6.039
 6373SOL    HW120018   4.343   4.218   5.987
 6373SOL    HW220019   4.322   4.088   6.084
 6374SOL     OW20020   3.032   3.211   2.889
 6374SOL    HW120021   2.982   3.260   2.960
 6374SOL    HW220022   3.079   3.133   2.928
 6375SOL     OW20023   1.260   0.086   2.927
 6375SOL    HW120024   1.252   0.183   2.946
 6375SOL    HW220025   1.269   0.035   3.013
 6376SOL     OW20026   6.351   1.945   4.708
 6376SOL    HW120027   6.325   1.935   4.612
 6376SOL    HW220028   6.419   2.019   4.716
 6377SOL     OW20029   0.286   0.970   4.783
 6377SOL    HW120030   0.382   0.974   4.812
 6377SOL    HW220031   0.281   0.956   4.684
 6378SOL     OW20032   4.773   4.304   4.209
 6378SOL    HW120033   4.817   4.224   4.248
 6378SOL    HW220034   4.784   4.303   4.109
 6379SOL     OW20035   2.279   4.112   3.921
 6379SOL    HW120036   2.304   4.207   3.902
 6379SOL    HW220037   2.235   4.072   3.841
 6380SOL     OW20038   0.600   0.873   6.383
 6380SOL    HW120039   0.545   0.878   6.300
 6380SOL    HW220040   0.665   0.949   6.385
 6381SOL     OW20041   2.964   3.781   3.040
 6381SOL    HW120042   2.975   3.692   2.995
 6381SOL    HW220043   2.891   3.832   2.995
 6382SOL     OW20044   1.198   3.259   6.096
 6382SOL    HW120045   1.295   3.248   6.074
 6382SOL    HW220046   1.143   3.227   6.019
 6383SOL     OW20047   2.379   2.371   4.370
 6383SOL    HW120048   2.426   2.285   4.353
 6383SOL    HW220049   2.447   2.444   4.386
 6384SOL     OW20050   6.684   5.133   2.613
 6384SOL    HW120051   6.604   5.193   2.609
 6384SOL    HW220052   6.750   5.159   2.543
 6385SOL     OW20053   0.673   5.577   4.661
 6385SOL    HW120054   0.648   5.633   4.582
 6385SOL    HW220055   0.680   5.481   4.632
 6386SOL     OW20056   2.736   5.588   0.917
 6386SOL    HW120057   2.737   5.624   0.824
 6386SOL    HW220058   2.720   5.490   0.915
 6387SOL     OW20059   6.740   1.007   5.172
 6387SOL    HW120060   6.789   1.060   5.241
 6387SOL    HW220061   6.799   0.994   5.092
 6388SOL     OW20062   3.297   4.879   2.077
 6388SOL    HW120063   3.344   4.825   2.008
 6388SOL    HW220064   3.199   4.879   2.059
 6389SOL     OW20065   1.422   6.065   3.087
 6389SOL    HW120066   1.505   6.012   3.068
 6389SOL    HW220067   1.385   6.039   3.176
 6390SOL     OW20068   0.787   2.545   3.791
 6390SOL    HW120069   0.732   2.562   3.873
 6390SOL    HW220070   0.727   2.520   3.715
 6391SOL     OW20071   2.595   2.416   0.565
 6391SOL    HW120072   2.591   2.317   0.576
 6391SOL    HW220073   2.610   2.458   0.655
 6392SOL     OW20074   1.269   6.518   3.485
 6392SOL    HW120075   1.215   6.521   3.569
 6392SOL    HW220076   1.210   6.533   3.406
 6393SOL     OW20077   6.059   6.524   0.546
 6393SOL    HW120078   6.095   6.451   0.488
 6393SOL    HW220079   6.108   6.609   0.527
 6394SOL     OW20080   2.208   5.000   0.528
 6394SOL    HW120081   2.238   5.014   0.434
 6394SOL    HW220082   2.281   5.028   0.591
 6395SOL     OW20083   6.240   1.197   0.848
 6395SOL    HW120084   6.203   1.121   0.795
 6395SOL    HW220085   6.334   1.175   0.875
 6396SOL     OW20086   5.059   3.793   5.864
 6396SOL    HW120087   5.056   3.891   5.847
 6396SOL    HW220088   4.993   3.769   5.935
 6397SOL     OW20089   0.249   1.342   0.373
 6397SOL    HW120090   0.233   1.260   0.318
 6397SOL    HW220091   0.210   1.421   0.326
 6398SOL     OW20092   3.138   1.675   1.606
 6398SOL    HW120093   3.157   1.773   1.595
 6398SOL    HW220094   3.080   1.644   1.531
 6399SOL     OW20095   1.966   5.778   6.647
 6399SOL    HW120096   2.008   5.768   6.738
 6399SOL    HW220097   2.021   5.728   6.580
 6400SOL     OW20098   2.819   5.794   3.176
 6400SOL    HW120099   2.779   5.747   3.255
 6400SOL    HW220100   2.833   5.890   3.199
 6401SOL     OW20101   0.577   4.534   3.475
 6401SOL    HW120102   0.620   4.447   3.497
 6401SOL    HW220103   0.631   4.609   3.513
 6402SOL     OW20104   2.245   0.974   3.136
 6402SOL    HW120105   2.319   1.001   3.197
 6402SOL    HW220106   2.158   0.978   3.184
 6403SOL     OW20107   1.022   4.888   6.656
 6403SOL    HW120108   1.012   4.851   6.748
 6403SOL    HW220109   1.101   4.845   6.611
 6404SOL     OW20110   4.752   1.453   3.159
 6404SOL    HW120111   4.799   1.540   3.175
 6404SOL    HW220112   4.782   1.415   3.071
 6405SOL     OW20113   2.514   1.543   2.320
 6405SOL    HW120114   2.453   1.583   2.252
 6405SOL    HW220115   2.601   1.593   2.322
 6406SOL     OW20116   2.160   1.439   4.055
 6406SOL    HW120117   2.060   1.433   4.050
 6406SOL    HW220118   2.186   1.499   4.130
 6407SOL     OW20119   3.466   5.798   5.494
 6407SOL    HW120120   3.413   5.761   5.570
 6407SOL    HW220121   3.416   5.874   5.453
 6408SOL     OW20122   5.367   1.779   6.497
 6408SOL    HW120123   5.333   1.695   6.454
 6408SOL    HW220124   5.292   1.826   6.543
 6409SOL     OW20125   0.266   3.389   2.964
 6409SOL    HW120126   0.178   3.419   3.002
 6409SOL    HW220127   0.253   3.306   2.911
 6410SOL     OW20128   2.055   1.753   0.564
 6410SOL    HW120129   2.033   1.830   0.623
 6410SOL    HW220130   2.081   1.786   0.473
 6411SOL     OW20131   0.925   0.962   3.633
 6411SOL    HW120132   0.877   1.006   3.708
 6411SOL    HW220133   1.024   0.967   3.649
 6412SOL     OW20134   0.231   2.663   5.619
 6412SOL    HW120135   0.211   2.701   5.709
 6412SOL    HW220136   0.146   2.630   5.578
 6413SOL     OW20137   6.665   4.821   1.065
 6413SOL    HW120138   6.627   4.747   1.008
 6413SOL    HW220139   6.761   4.833   1.043
 6414SOL     OW20140   6.337   6.922   2.132
 6414SOL    HW120141   6.355   7.014   2.095
 6414SOL    HW220142   6.248   6.890   2.098
 6415SOL     OW20143   1.758   1.580   1.229
 6415SOL    HW120144   1.676   1.634   1.246
 6415SOL    HW220145   1.733   1.488   1.199
 6416SOL     OW20146   1.655   0.675   6.577
 6416SOL    HW120147   1.708   0.757   6.599
 6416SOL    HW220148   1.575   0.699   6.523
 6417SOL     OW20149   0.566   0.095   3.458
 6417SOL    HW120150   0.567   0.064   3.553
 6417SOL    HW220151   0.535   0.021   3.399
 6418SOL     OW20152   0.183   5.735   2.096
 6418SOL    HW120153   0.162   5.821   2.049
 6418SOL    HW220154   0.279   5.736   2.125
 6419SOL     OW20155   3.883   4.940   1.647
 6419SOL    HW120156   3.896   5.038   1.633
 6419SOL    HW220157   3.970   4.892   1.637
 6420SOL     OW20158   2.230   4.136   6.045
 6420SOL    HW120159   2.166   4.131   5.968
 6420SOL    HW220160   2.285   4.052   6.048
 6421SOL     OW20161   5.352   0.968   1.354
 6421SOL    HW120162   5.397   0.882   1.375
 6421SOL    HW220163   5.301   0.958   1.268
 6422SOL     OW20164   6.768   1.232   3.313
 6422SOL    HW120165   6.829   1.273   3.381
 6422SOL    HW220166   6.700   1.299   3.284
 6423SOL     OW20167   5.407   3.676   1.133
 6423SOL    HW120168   5.400   3.768   1.172
 6423SOL    HW220169   5.395   3.680   1.034
 6424SOL     OW20170   7.010   3.465   5.935
 6424SOL    HW120171   6.940   3.515   5.988
 6424SOL    HW220172   0.077   3.509   5.948
 6425SOL     OW20173   0.573   4.183   2.206
 6425SOL    HW120174   0.477   4.198   2.228
 6425SOL    HW220175   0.608   4.262   2.155
 6426SOL     OW20176   1.291   2.116   3.189
 6426SOL    HW120177   1.200   2.098   3.152
 6426SOL    HW220178   1.360   2.079   3.127
 6427SOL     OW20179   1.649   3.416   5.609
 6427SOL    HW120180   1.594   3.435   5.528
 6427SOL    HW220181   1.725   3.356   5.585
 6428SOL     OW20182   6.641   3.527   1.931
 6428SOL    HW120183   6.716   3.514   1.866
 6428SOL    HW220184   6.631   3.445   1.986
 6429SOL     OW20185   1.144   6.821   4.402
 6429SOL    HW120186   1.140   6.801   4.305
 6429SOL    HW220187   1.101   6.910   4.420
 6430SOL     OW20188   5.873   1.829   1.325
 6430SOL    HW120189   5.963   1.786   1.334
 6430SOL    HW220190   5.875   1.920   1.365
 6431SOL     OW20191   5.470   6.718   2.752
 6431SOL    HW120192   5.383   6.676   2.724
 6431SOL    HW220193   5.545   6.657   2.727
 6432SOL     OW20194   4.786   3.368   0.689
 6432SOL    HW120195   4.700   3.403   0.725
 6432SOL    HW220196   4.769   3.316   0.605
 6433SOL     OW20197   2.807   4.184   1.193
 6433SOL    HW120198   2.813   4.151   1.287
 6433SOL    HW220199   2.790   4.108   1.131
 6434SOL     OW20200   0.824   3.668   0.774
 6434SOL    HW120201   0.915   3.633   0.752
 6434SOL    HW220202   0.760   3.643   0.702
 6435SOL     OW20203   4.353   4.691   6.607
 6435SOL    HW120204   4.443   4.720   6.642
 6435SOL    HW220205   4.281   4.738   6.657
 6436SOL     OW20206   1.790   3.338   3.603
 6436SOL    HW120207   1.736   3.417   3.577
 6436SOL    HW220208   1.807   3.339   3.701
 6437SOL     OW20209   1.496   6.748   0.127
 6437SOL    HW120210   1.438   6.692   0.187
 6437SOL    HW220211   1.447   6.770   0.043
 6438SOL     OW20212   1.245   3.798   3.755
 6438SOL    HW120213   1.291   3.776   3.841
 6438SOL    HW220214   1.187   3.879   3.768
 6439SOL     OW20215   1.556   0.036   1.211
 6439SOL    HW120216   1.470   0.054   1.164
 6439SOL    HW220217   1.620   7.014   1.148
 6440SOL     OW20218   1.218   1.800   2.630
 6440SOL    HW120219   1.180   1.826   2.541
 6440SOL    HW220220   1.224   1.882   2.688
 6441SOL     OW20221   2.065   1.060   3.805
 6441SOL    HW120222   2.124   1.049   3.724
 6441SOL    HW220223   2.060   0.973   3.854
 6442SOL     OW20224   2.267   2.409   4.693
 6442SOL    HW120225   2.314   2.334   4.739
 6442SOL    HW220226   2.229   2.375   4.606
 6443SOL     OW20227   2.821   2.484   0.242
 6443SOL    HW120228   2.839   2.539   0.324
 6443SOL    HW220229   2.746   2.421   0.261
 6444SOL     OW20230   0.849   1.134   3.054
 6444SOL    HW120231   0.801   1.183   3.127
 6444SOL    HW220232   0.787   1.122   2.976
 6445SOL     OW20233   3.869   2.863   5.215
 6445SOL    HW120234   3.876   2.889   5.119
 6445SOL    HW220235   3.873   2.764   5.224
 6446SOL     OW20236   6.645   1.189   6.938
 6446SOL    HW120237   6.559   1.236   6.921
 6446SOL    HW220238   6.710   1.253   6.980
 6447SOL     OW20239   1.587   0.168   2.022
 6447SOL    HW120240   1.628   0.091   1.972
 6447SOL    HW220241   1.487   0.165   2.011
 6448SOL     OW20242   6.152   2.888   3.516
 6448SOL    HW120243   6.166   2.949   3.439
 6448SOL    HW220244   6.054   2.882   3.537
 6449SOL     OW20245   3.269   3.179   0.957
 6449SOL    HW120246   3.239   3.218   1.044
 6449SOL    HW220247   3.198   3.118   0.921
 6450SOL     OW20248   6.264   3.881   1.804
 6450SOL    HW120249   6.200   3.809   1.777
 6450SOL    HW220250   6.265   3.890   1.903
 6451SOL     OW20251   2.394   5.933   5.286
 6451SOL    HW120252   2.377   5.995   5.363
 6451SOL    HW220253   2.473   5.875   5.307
 6452SOL     OW20254   3.559   6.961   4.243
 6452SOL    HW120255   3.561   0.025   4.295
 6452SOL    HW220256   3.644   6.911   4.257
 6453SOL     OW20257   1.398   6.218   6.610
 6453SOL    HW120258   1.349   6.249   6.529
 6453SOL    HW220259   1.337   6.223   6.689
 6454SOL     OW20260   3.036   1.864   4.613
 6454SOL    HW120261   2.984   1.779   4.616
 6454SOL    HW220262   3.010   1.922   4.690
 6455SOL     OW20263   6.570   2.669   4.917
 6455SOL    HW120264   6.668   2.665   4.938
 6455SOL    HW220265   6.519   2.680   5.002
 6456SOL     OW20266   0.635   0.464   3.022
 6456SOL    HW120267   0.544   0.462   2.981
 6456SOL    HW220268   0.628   0.483   3.120
 6457SOL     OW20269   6.308   2.131   1.633
 6457SOL    HW120270   6.356   2.081   1.561
 6457SOL    HW220271   6.295   2.226   1.604
 6458SOL     OW20272   1.306   5.794   3.367
 6458SOL    HW120273   1.366   5.825   3.441
 6458SOL    HW220274   1.356   5.733   3.307
 6459SOL     OW20275   5.926   4.345   6.888
 6459SOL    HW120276   5.871   4.429   6.883
 6459SOL    HW220277   6.014   4.365   6.929
 6460SOL     OW20278   3.536   4.954   6.577
 6460SOL    HW120279   3.524   4.945   6.479
 6460SOL    HW220280   3.627   4.992   6.597
 6461SOL     OW20281   3.579   5.191   5.477
 6461SOL    HW120282   3.570   5.281   5.521
 6461SOL    HW220283   3.674   5.160   5.483
 6462SOL     OW20284   2.149   3.393   4.919
 6462SOL    HW120285   2.164   3.435   5.008
 6462SOL    HW220286   2.147   3.293   4.929
 6463SOL     OW20287   2.243   4.304   6.263
 6463SOL    HW120288   2.150   4.325   6.292
 6463SOL    HW220289   2.242   4.232   6.194
 6464SOL     OW20290   0.594   5.296   3.436
 6464SOL    HW120291   0.537   5.260   3.362
 6464SOL    HW220292   0.590   5.396   3.435
 6465SOL     OW20293   6.483   1.649   3.657
 6465SOL    HW120294   6.384   1.640   3.652
 6465SOL    HW220295   6.510   1.743   3.636
 6466SOL     OW20296   0.370   2.536   4.990
 6466SOL    HW120297   0.345   2.445   5.025
 6466SOL    HW220298   0.317   2.606   5.038
 6467SOL     OW20299   2.768   1.448   6.706
 6467SOL    HW120300   2.689   1.388   6.718
 6467SOL    HW220301   2.756   1.503   6.624
 6468SOL     OW20302   4.716   6.117   1.463
 6468SOL    HW120303   4.760   6.051   1.524
 6468SOL    HW220304   4.766   6.123   1.377
 6469SOL     OW20305   6.404   0.461   5.848
 6469SOL    HW120306   6.480   0.513   5.887
 6469SOL    HW220307   6.392   0.486   5.752
 6470SOL     OW20308   5.850   0.088   5.996
 6470SOL    HW120309   5.903   0.042   5.925
 6470SOL    HW220310   5.764   0.121   5.958
 6471SOL     OW20311   6.463   4.480   6.933
 6471SOL    HW120312   6.484   4.515   6.842
 6471SOL    HW220313   6.442   4.382   6.927
 6472SOL     OW20314   1.156   6.741   2.100
 6472SOL    HW120315   1.132   6.810   2.032
 6472SOL    HW220316   1.105   6.758   2.184
 6473SOL     OW20317   1.988   1.181   6.425
 6473SOL    HW120318   1.923   1.256   6.441
 6473SOL    HW220319   1.939   1.103   6.386
 6474SOL     OW20320   1.335   3.366   5.703
 6474SOL    HW120321   1.288   3.297   5.648
 6474SOL    HW220322   1.424   3.385   5.661
 6475SOL     OW20323   4.909   6.186   4.013
 6475SOL    HW120324   4.934   6.157   3.921
 6475SOL    HW220325   4.938   6.116   4.079
 6476SOL     OW20326   4.669   4.730   2.727
 6476SOL    HW120327   4.594   4.717   2.663
 6476SOL    HW220328   4.752   4.754   2.677
 6477SOL     OW20329   6.591   5.558   0.144
 6477SOL    HW120330   6.636   5.647   0.136
 6477SOL    HW220331   6.659   5.485   0.143
 6478SOL     OW20332   4.705   6.496   1.705
 6478SOL    HW120333   4.676   6.457   1.618
 6478SOL    HW220334   4.751   6.583   1.690
 6479SOL     OW20335   4.279   5.275   1.980
 6479SOL    HW120336   4.318   5.367   1.975
 6479SOL    HW220337   4.222   5.267   2.062
 6480SOL     OW20338   2.834   2.670   0.054
 6480SOL    HW120339   2.833   2.761   0.096
 6480SOL    HW220340   2.803   2.602   0.121
 6481SOL     OW20341   3.732   0.812   1.551
 6481SOL    HW120342   3.800   0.755   1.598
 6481SOL    HW220343   3.684   0.869   1.618
 6482SOL     OW20344   0.039   0.534   6.567
 6482SOL    HW120345   0.013   0.495   6.478
 6482SOL    HW220346   0.132   0.505   6.589
 6483SOL     OW20347   1.328   0.030   2.034
 6483SOL    HW120348   1.288   0.035   2.126
 6483SOL    HW220349   1.262   0.064   1.967
 6484SOL     OW20350   4.889   0.537   3.197
 6484SOL    HW120351   4.887   0.630   3.233
 6484SOL    HW220352   4.825   0.480   3.249
 6485SOL     OW20353   1.627   2.363   3.819
 6485SOL    HW120354   1.632   2.449   3.768
 6485SOL    HW220355   1.644   2.287   3.757
 6486SOL     OW20356   1.433   3.665   3.548
 6486SOL    HW120357   1.360   3.703   3.605
 6486SOL    HW220358   1.395   3.598   3.485
 6487SOL     OW20359   6.209   6.678   4.408
 6487SOL    HW120360   6.269   6.670   4.488
 6487SOL    HW220361   6.120   6.714   4.436
 6488SOL     OW20362   2.869   4.984   6.182
 6488SOL    HW120363   2.813   4.972   6.099
 6488SOL    HW220364   2.963   5.006   6.155
 6489SOL     OW20365   1.338   1.927   6.140
 6489SOL    HW120366   1.366   1.886   6.053
 6489SOL    HW220367   1.259   1.986   6.126
 6490SOL     OW20368   3.552   1.654   0.388
 6490SOL    HW120369   3.490   1.636   0.311
 6490SOL    HW220370   3.502   1.644   0.474
 6491SOL     OW20371   4.717   1.407   6.171
 6491SOL    HW120372   4.792   1.357   6.127
 6491SOL    HW220373   4.680   1.475   6.108
 6492SOL     OW20374   6.117   6.321   0.387
 6492SOL    HW120375   6.105   6.236   0.438
 6492SOL    HW220376   6.206   6.322   0.342
 6493SOL     OW20377   1.707   6.678   6.034
 6493SOL    HW120378   1.622   6.680   5.981
 6493SOL    HW220379   1.687   6.644   6.126
 6494SOL     OW20380   1.090   0.420   3.623
 6494SOL    HW120381   1.036   0.442   3.704
 6494SOL    HW220382   1.182   0.457   3.634
 6495SOL     OW20383   5.621   4.838   2.927
 6495SOL    HW120384   5.530   4.879   2.933
 6495SOL    HW220385   5.669   4.874   2.847
 6496SOL     OW20386   0.966   6.456   2.342
 6496SOL    HW120387   0.882   6.465   2.289
 6496SOL    HW220388   1.041   6.431   2.282
 6497SOL     OW20389   1.691   3.685   0.642
 6497SOL    HW120390   1.690   3.778   0.606
 6497SOL    HW220391   1.765   3.633   0.598
 6498SOL     OW20392   2.144   4.113   4.184
 6498SOL    HW120393   2.206   4.111   4.105
 6498SOL    HW220394   2.196   4.090   4.267
 6499SOL     OW20395   5.068   1.214   3.873
 6499SOL    HW120396   5.077   1.156   3.792
 6499SOL    HW220397   5.145   1.278   3.878
 6500SOL     OW20398   5.146   4.312   3.585
 6500SOL    HW120399   5.146   4.335   3.488
 6500SOL    HW220400   5.198   4.381   3.635
 6501SOL     OW20401   6.150   3.742   1.053
 6501SOL    HW120402   6.226   3.750   0.988
 6501SOL    HW220403   6.138   3.646   1.079
 6502SOL     OW20404   1.014   4.853   3.107
 6502SOL    HW120405   1.002   4.764   3.064
 6502SOL    HW220406   1.014   4.924   3.037
 6503SOL     OW20407   5.093   6.940   4.870
 6503SOL    HW120408   5.022   6.875   4.843
 6503SOL    HW220409   5.109   7.004   4.795
 6504SOL     OW20410   3.638   0.876   0.780
 6504SOL    HW120411   3.596   0.823   0.854
 6504SOL    HW220412   3.578   0.875   0.700
 6505SOL     OW20413   5.945   4.962   0.910
 6505SOL    HW120414   5.904   4.984   0.821
 6505SOL    HW220415   6.000   4.879   0.902
 6506SOL     OW20416   1.537   2.886   1.143
 6506SOL    HW120417   1.447   2.850   1.118
 6506SOL    HW220418   1.577   2.932   1.064
 6507SOL     OW20419   2.391   6.468   1.379
 6507SOL    HW120420   2.348   6.408   1.312
 6507SOL    HW220421   2.331   6.478   1.458
 6508SOL     OW20422   2.324   2.117   3.257
 6508SOL    HW120423   2.330   2.021   3.230
 6508SOL    HW220424   2.410   2.146   3.298
 6509SOL     OW20425   1.030   2.915   4.376
 6509SOL    HW120426   1.055   2.861   4.296
 6509SOL    HW220427   1.077   2.879   4.457
 6510SOL     OW20428   6.157   4.769   6.795
 6510SOL    HW120429   6.119   4.832   6.727
 6510SOL    HW220430   6.253   4.751   6.774
 6511SOL     OW20431   6.357   6.310   6.006
 6511SOL    HW120432   6.399   6.358   6.083
 6511SOL    HW220433   6.264   6.343   5.992
 6512SOL     OW20434   5.326   7.014   3.248
 6512SOL    HW120435   5.392   0.063   3.222
 6512SOL    HW220436   5.268   6.992   3.169
 6513SOL     OW20437   4.016   6.503   3.102
 6513SOL    HW120438   4.109   6.537   3.112
 6513SOL    HW220439   3.991   6.503   3.005
 6514SOL     OW20440   4.175   0.424   4.253
 6514SOL    HW120441   4.216   0.359   4.318
 6514SOL    HW220442   4.236   0.435   4.175
 6515SOL     OW20443   0.537   6.612   4.960
 6515SOL    HW120444   0.637   6.610   4.948
 6515SOL    HW220445   0.502   6.519   4.962
 6516SOL     OW20446   0.772   1.911   5.651
 6516SOL    HW120447   0.852   1.931   5.595
 6516SOL    HW220448   0.734   1.996   5.688
 6517SOL     OW20449   0.708   1.290   0.340
 6517SOL    HW120450   0.800   1.316   0.371
 6517SOL    HW220451   0.640   1.344   0.389
 6518SOL     OW20452   6.993   6.470   1.056
 6518SOL    HW120453   6.914   6.431   1.010
 6518SOL    HW220454   0.041   6.495   0.988
 6519SOL     OW20455   2.039   1.980   4.779
 6519SOL    HW120456   2.051   2.000   4.681
 6519SOL    HW220457   2.050   2.064   4.831
 6520SOL     OW20458   5.906   6.005   1.770
 6520SOL    HW120459   5.984   6.008   1.708
 6520SOL    HW220460   5.911   6.083   1.833
 6521SOL     OW20461   6.977   1.927   4.867
 6521SOL    HW120462   0.002   1.977   4.940
 6521SOL    HW220463   6.915   1.989   4.819
 6522SOL     OW20464   2.419   5.469   6.585
 6522SOL    HW120465   2.447   5.374   6.572
 6522SOL    HW220466   2.462   5.526   6.516
 6523SOL     OW20467   2.069   1.579   6.443
 6523SOL    HW120468   2.143   1.563   6.378
 6523SOL    HW220469   1.981   1.569   6.395
 6524SOL     OW20470   4.033   3.551   3.268
 6524SOL    HW120471   3.982   3.532   3.184
 6524SOL    HW220472   4.029   3.471   3.328
 6525SOL     OW20473   0.364   2.705   3.286
 6525SOL    HW120474   0.368   2.772   3.212
 6525SOL    HW220475   0.312   2.625   3.256
 6526SOL     OW20476   1.749   5.807   4.783
 6526SOL    HW120477   1.678   5.876   4.769
 6526SOL    HW220478   1.722   5.745   4.856
 6527SOL     OW20479   1.415   6.863   4.570
 6527SOL    HW120480   1.515   6.860   4.573
 6527SOL    HW220481   1.384   6.958   4.572
 6528SOL     OW20482   0.191   1.603   4.392
 6528SOL    HW120483   0.225   1.516   4.428
 6528SOL    HW220484   0.195   1.672   4.465
 6529SOL     OW20485   6.480   1.301   1.606
 6529SOL    HW120486   6.382   1.317   1.616
 6529SOL    HW220487   6.531   1.377   1.647
 6530SOL     OW20488   6.547   2.183   0.659
 6530SOL    HW120489   6.514   2.190   0.753
 6530SOL    HW220490   6.500   2.108   0.612
 6531SOL     OW20491   5.252   3.412   4.005
 6531SOL    HW120492   5.170   3.377   3.960
 6531SOL    HW220493   5.249   3.512   4.007
 6532SOL     OW20494   6.785   1.240   6.185
 6532SOL    HW120495   6.846   1.206   6.256
 6532SOL    HW220496   6.838   1.288   6.115
 6533SOL     OW20497   5.003   0.072   1.166
 6533SOL    HW120498   5.101   0.060   1.149
 6533SOL    HW220499   4.960   7.005   1.183
 6534SOL     OW20500   2.570   4.302   1.064
 6534SOL    HW120501   2.569   4.397   1.093
 6534SOL    HW220502   2.649   4.255   1.103
 6535SOL     OW20503   0.376   3.745   5.748
 6535SOL    HW120504   0.305   3.761   5.679
 6535SOL    HW220505   0.357   3.800   5.829
 6536SOL     OW20506   5.848   1.765   0.078
 6536SOL    HW120507   5.936   1.780   0.123
 6536SOL    HW220508   5.842   1.822   7.018
 6537SOL     OW20509   0.596   6.533   0.103
 6537SOL    HW120510   0.562   6.555   0.011
 6537SOL    HW220511   0.691   6.565   0.111
 6538SOL     OW20512   3.018   3.750   0.165
 6538SOL    HW120513   2.931   3.736   0.118
 6538SOL    HW220514   3.082   3.677   0.139
 6539SOL     OW20515   2.528   1.844   6.840
 6539SOL    HW120516   2.552   1.938   6.862
 6539SOL    HW220517   2.586   1.781   6.892
 6540SOL     OW20518   2.790   1.163   4.245
 6540SOL    HW120519   2.724   1.104   4.293
 6540SOL    HW220520   2.854   1.202   4.312
 6541SOL     OW20521   2.688   2.303   5.907
 6541SOL    HW120522   2.759   2.259   5.853
 6541SOL    HW220523   2.641   2.234   5.963
 6542SOL     OW20524   6.327   4.674   3.536
 6542SOL    HW120525   6.426   4.683   3.552
 6542SOL    HW220526   6.302   4.731   3.457
 6543SOL     OW20527   6.266   5.949   6.864
 6543SOL    HW120528   6.356   5.942   6.909
 6543SOL    HW220529   6.275   6.001   6.779
 6544SOL     OW20530   6.797   6.311   3.891
 6544SOL    HW120531   6.807   6.365   3.808
 6544SOL    HW220532   6.820   6.216   3.872
 6545SOL     OW20533   5.034   1.686   5.619
 6545SOL    HW120534   5.034   1.588   5.600
 6545SOL    HW220535   4.940   1.717   5.633
 6546SOL     OW20536   3.144   4.598   6.329
 6546SOL    HW120537   3.119   4.571   6.422
 6546SOL    HW220538   3.062   4.625   6.279
 6547SOL     OW20539   4.682   2.419   6.833
 6547SOL    HW120540   4.672   2.437   6.931
 6547SOL    HW220541   4.591   2.407   6.792
 6548SOL     OW20542   6.631   4.058   5.884
 6548SOL    HW120543   6.637   4.051   5.784
 6548SOL    HW220544   6.636   4.154   5.911
 6549SOL     OW20545   3.401   2.212   0.585
 6549SOL    HW120546   3.344   2.230   0.666
 6549SOL    HW220547   3.467   2.286   0.575
 6550SOL     OW20548   0.467   5.386   3.735
 6550SOL    HW120549   0.494   5.290   3.731
 6550SOL    HW220550   0.400   5.405   3.662
 6551SOL     OW20551   1.836   4.622   1.759
 6551SOL    HW120552   1.770   4.625   1.834
 6551SOL    HW220553   1.850   4.527   1.730
 6552SOL     OW20554   2.411   4.513   5.649
 6552SOL    HW120555   2.432   4.606   5.681
 6552SOL    HW220556   2.496   4.462   5.637
 6553SOL     OW20557   0.489   2.961   2.696
 6553SOL    HW120558   0.398   2.935   2.666
 6553SOL    HW220559   0.554   2.888   2.673
 6554SOL     OW20560   6.099   2.308   5.312
 6554SOL    HW120561   6.094   2.322   5.213
 6554SOL    HW220562   6.111   2.396   5.358
 6555SOL     OW20563   1.351   1.220   1.469
 6555SOL    HW120564   1.345   1.288   1.395
 6555SOL    HW220565   1.386   1.134   1.432
 6556SOL     OW20566   3.593   5.786   4.420
 6556SOL    HW120567   3.625   5.777   4.514
 6556SOL    HW220568   3.514   5.847   4.418
 6557SOL     OW20569   6.111   5.523   1.161
 6557SOL    HW120570   6.183   5.504   1.094
 6557SOL    HW220571   6.083   5.619   1.153
 6558SOL     OW20572   6.274   5.774   6.639
 6558SOL    HW120573   6.256   5.782   6.737
 6558SOL    HW220574   6.313   5.684   6.619
 6559SOL     OW20575   4.338   4.290   1.247
 6559SOL    HW120576   4.406   4.253   1.310
 6559SOL    HW220577   4.356   4.257   1.155
 6560SOL     OW20578   3.679   2.540   0.360
 6560SOL    HW120579   3.772   2.524   0.327
 6560SOL    HW220580   3.669   2.500   0.452
 6561SOL     OW20581   3.946   3.492   3.011
 6561SOL    HW120582   3.963   3.424   2.940
 6561SOL    HW220583   4.001   3.574   2.992
 6562SOL     OW20584   6.283   4.754   6.101
 6562SOL    HW120585   6.215   4.681   6.097
 6562SOL    HW220586   6.241   4.840   6.074
 6563SOL     OW20587   0.651   5.636   1.646
 6563SOL    HW120588   0.734   5.612   1.595
 6563SOL    HW220589   0.637   5.570   1.719
 6564SOL     OW20590   1.434   4.286   1.673
 6564SOL    HW120591   1.449   4.279   1.772
 6564SOL    HW220592   1.369   4.216   1.644
 6565SOL     OW20593   6.747   3.184   5.317
 6565SOL    HW120594   6.648   3.178   5.329
 6565SOL    HW220595   6.775   3.120   5.246
 6566SOL     OW20596   3.267   6.588   1.009
 6566SOL    HW120597   3.283   6.581   1.107
 6566SOL    HW220598   3.252   6.496   0.971
 6567SOL     OW20599   5.213   2.900   0.853
 6567SOL    HW120600   5.240   2.993   0.828
 6567SOL    HW220601   5.201   2.846   0.770
 6568SOL     OW20602   4.547   4.386   1.688
 6568SOL    HW120603   4.558   4.311   1.753
 6568SOL    HW220604   4.453   4.387   1.653
 6569SOL     OW20605   1.710   4.371   0.141
 6569SOL    HW120606   1.773   4.391   0.216
 6569SOL    HW220607   1.625   4.421   0.154
 6570SOL     OW20608   5.687   1.777   2.213
 6570SOL    HW120609   5.744   1.721   2.153
 6570SOL    HW220610   5.647   1.852   2.161
 6571SOL     OW20611   2.723   6.591   3.563
 6571SOL    HW120612   2.647   6.528   3.571
 6571SOL    HW220613   2.697   6.680   3.601
 6572SOL     OW20614   6.800   4.348   5.985
 6572SOL    HW120615   6.868   4.323   5.916
 6572SOL    HW220616   6.815   4.295   6.068
 6573SOL     OW20617   2.624   1.293   2.384
 6573SOL    HW120618   2.540   1.294   2.439
 6573SOL    HW220619   2.614   1.355   2.306
 6574SOL     OW20620   2.593   5.086   3.049
 6574SOL    HW120621   2.681   5.115   3.086
 6574SOL    HW220622   2.596   5.090   2.949
 6575SOL     OW20623   1.415   1.641   1.967
 6575SOL    HW120624   1.361   1.721   1.941
 6575SOL    HW220625   1.381   1.604   2.053
 6576SOL     OW20626   1.654   5.868   6.325
 6576SOL    HW120627   1.663   5.770   6.305
 6576SOL    HW220628   1.643   5.918   6.239
 6577SOL     OW20629   0.221   1.793   3.985
 6577SOL    HW120630   0.214   1.775   3.887
 6577SOL    HW220631   0.213   1.892   4.002
 6578SOL     OW20632   6.465   5.419   3.796
 6578SOL    HW120633   6.540   5.436   3.860
 6578SOL    HW220634   6.477   5.477   3.715
 6579SOL     OW20635   6.670   4.289   3.188
 6579SOL    HW120636   6.742   4.322   3.127
 6579SOL    HW220637   6.595   4.252   3.134
 6580SOL     OW20638   5.685   1.430   2.096
 6580SOL    HW120639   5.750   1.486   2.043
 6580SOL    HW220640   5.650   1.357   2.038
 6581SOL     OW20641   3.672   1.659   6.461
 6581SOL    HW120642   3.758   1.662   6.411
 6581SOL    HW220643   3.662   1.570   6.505
 6582SOL     OW20644   6.205   7.014   2.413
 6582SOL    HW120645   6.300   7.005   2.382
 6582SOL    HW220646   6.203   0.032   2.504
 6583SOL     OW20647   5.335   1.318   5.965
 6583SOL    HW120648   5.342   1.417   5.956
 6583SOL    HW220649   5.380   1.289   6.049
 6584SOL     OW20650   6.098   1.604   6.836
 6584SOL    HW120651   6.103   1.506   6.858
 6584SOL    HW220652   6.175   1.651   6.880
 6585SOL     OW20653   1.116   1.826   6.666
 6585SOL    HW120654   1.129   1.732   6.695
 6585SOL    HW220655   1.172   1.845   6.585
 6586SOL     OW20656   6.209   1.912   6.036
 6586SOL    HW120657   6.295   1.861   6.031
 6586SOL    HW220658   6.142   1.869   5.975
 6587SOL     OW20659   2.299   6.179   3.153
 6587SOL    HW120660   2.228   6.248   3.140
 6587SOL    HW220661   2.265   6.090   3.120
 6588SOL     OW20662   1.877   2.832   6.630
 6588SOL    HW120663   1.906   2.870   6.542
 6588SOL    HW220664   1.835   2.742   6.616
 6589SOL     OW20665   4.602   1.599   5.620
 6589SOL    HW120666   4.695   1.636   5.624
 6589SOL    HW220667   4.605   1.502   5.597
 6590SOL     OW20668   7.016   1.074   5.291
 6590SOL    HW120669   0.088   1.102   5.313
 6590SOL    HW220670   7.009   1.056   5.192
 6591SOL     OW20671   6.227   0.495   3.115
 6591SOL    HW120672   6.171   0.538   3.045
 6591SOL    HW220673   6.291   0.562   3.153
 6592SOL     OW20674   4.958   5.921   4.166
 6592SOL    HW120675   4.924   5.829   4.144
 6592SOL    HW220676   5.058   5.920   4.166
 6593SOL     OW20677   3.584   1.841   3.129
 6593SOL    HW120678   3.571   1.784   3.048
 6593SOL    HW220679   3.533   1.802   3.206
 6594SOL     OW20680   4.785   0.601   6.774
 6594SOL    HW120681   4.876   0.560   6.767
 6594SOL    HW220682   4.755   0.597   6.869
 6595SOL     OW20683   1.748   3.825   0.902
 6595SOL    HW120684   1.743   3.769   0.820
 6595SOL    HW220685   1.667   3.810   0.958
 6596SOL     OW20686   4.486   0.162   5.153
 6596SOL    HW120687   4.491   0.063   5.157
 6596SOL    HW220688   4.540   0.195   5.075
 6597SOL     OW20689   0.257   5.952   4.895
 6597SOL    HW120690   0.180   6.016   4.889
 6597SOL    HW220691   0.231   5.865   4.853
 6598SOL     OW20692   1.804   5.928   5.112
 6598SOL    HW120693   1.754   5.842   5.119
 6598SOL    HW220694   1.870   5.923   5.036
 6599SOL     OW20695   4.612   4.948   6.031
 6599SOL    HW120696   4.552   4.880   5.989
 6599SOL    HW220697   4.557   5.012   6.085
 6600SOL     OW20698   4.658   5.568   4.041
 6600SOL    HW120699   4.735   5.630   4.052
 6600SOL    HW220700   4.687   5.475   4.062
 6601SOL     OW20701   0.437   0.487   0.275
 6601SOL    HW120702   0.373   0.535   0.214
 6601SOL    HW220703   0.530   0.515   0.253
 6602SOL     OW20704   6.683   1.334   1.429
 6602SOL    HW120705   6.753   1.263   1.428
 6602SOL    HW220706   6.622   1.320   1.506
 6603SOL     OW20707   2.012   3.508   3.023
 6603SOL    HW120708   2.006   3.606   3.044
 6603SOL    HW220709   2.053   3.496   2.933
 6604SOL     OW20710   3.001   5.277   2.871
 6604SOL    HW120711   2.997   5.371   2.907
 6604SOL    HW220712   3.096   5.247   2.868
 6605SOL     OW20713   6.131   5.699   6.870
 6605SOL    HW120714   6.171   5.778   6.917
 6605SOL    HW220715   6.032   5.711   6.862
 6606SOL     OW20716   5.283   1.098   2.364
 6606SOL    HW120717   5.341   1.141   2.433
 6606SOL    HW220718   5.191   1.137   2.369
 6607SOL     OW20719   1.647   1.422   2.179
 6607SOL    HW120720   1.618   1.432   2.274
 6607SOL    HW220721   1.648   1.325   2.155
 6608SOL     OW20722   5.844   4.039   3.597
 6608SOL    HW120723   5.745   4.027   3.608
 6608SOL    HW220724   5.892   3.986   3.666
 6609SOL     OW20725   5.158   1.148   6.252
 6609SOL    HW120726   5.127   1.053   6.259
 6609SOL    HW220727   5.243   1.151   6.200
 6610SOL     OW20728   2.466   0.629   0.154
 6610SOL    HW120729   2.406   0.624   0.234
 6610SOL    HW220730   2.467   0.540   0.108
 6611SOL     OW20731   5.925   2.135   3.062
 6611SOL    HW120732   5.887   2.078   3.135
 6611SOL    HW220733   5.852   2.159   2.997
 6612SOL     OW20734   1.219   6.382   0.113
 6612SOL    HW120735   1.294   6.381   0.047
 6612SOL    HW220736   1.245   6.329   0.194
 6613SOL     OW20737   4.592   5.144   1.998
 6613SOL    HW120738   4.592   5.062   2.054
 6613SOL    HW220739   4.687   5.172   1.981
 6614SOL     OW20740   5.262   6.036   6.259
 6614SOL    HW120741   5.322   5.971   6.304
 6614SOL    HW220742   5.242   6.111   6.322
 6615SOL     OW20743   0.617   3.560   5.251
 6615SOL    HW120744   0.711   3.536   5.274
 6615SOL    HW220745   0.559   3.548   5.331
 6616SOL     OW20746   5.206   1.281   4.764
 6616SOL    HW120747   5.111   1.303   4.740
 6616SOL    HW220748   5.257   1.366   4.776
 6617SOL     OW20749   3.481   6.863   4.882
 6617SOL    HW120750   3.486   6.777   4.830
 6617SOL    HW220751   3.433   6.932   4.827
 6618SOL     OW20752   1.509   4.443   2.084
 6618SOL    HW120753   1.423   4.492   2.099
 6618SOL    HW220754   1.492   4.364   2.024
 6619SOL     OW20755   4.658   5.713   2.715
 6619SOL    HW120756   4.572   5.691   2.668
 6619SOL    HW220757   4.659   5.810   2.738
 6620SOL     OW20758   1.114   2.563   5.633
 6620SOL    HW120759   1.169   2.506   5.694
 6620SOL    HW220760   1.054   2.622   5.687
 6621SOL     OW20761   2.650   4.196   6.616
 6621SOL    HW120762   2.615   4.288   6.633
 6621SOL    HW220763   2.577   4.129   6.629
 6622SOL     OW20764   6.509   5.935   0.316
 6622SOL    HW120765   6.460   6.004   0.263
 6622SOL    HW220766   6.558   5.979   0.391
 6623SOL     OW20767   3.514   3.371   2.102
 6623SOL    HW120768   3.574   3.291   2.108
 6623SOL    HW220769   3.428   3.345   2.059
 6624SOL     OW20770   4.465   5.331   4.373
 6624SOL    HW120771   4.488   5.335   4.470
 6624SOL    HW220772   4.384   5.388   4.357
 6625SOL     OW20773   6.540   0.648   6.901
 6625SOL    HW120774   6.499   0.732   6.866
 6625SOL    HW220775   6.627   0.669   6.945
 6626SOL     OW20776   3.452   5.289   3.335
 6626SOL    HW120777   3.527   5.233   3.369
 6626SOL    HW220778   3.381   5.231   3.296
 6627SOL     OW20779   2.078   0.713   0.165
 6627SOL    HW120780   2.075   0.621   0.203
 6627SOL    HW220781   2.023   0.717   0.082
 6628SOL     OW20782   4.098   5.581   2.725
 6628SOL    HW120783   4.016   5.548   2.772
 6628SOL    HW220784   4.096   5.551   2.630
 6629SOL     OW20785   3.865   5.538   0.865
 6629SOL    HW120786   3.901   5.629   0.890
 6629SOL    HW220787   3.863   5.480   0.946
 6630SOL     OW20788   3.099   1.977   0.728
 6630SOL    HW120789   3.144   1.888   0.736
 6630SOL    HW220790   3.102   2.007   0.633
 6631SOL     OW20791   5.112   1.119   2.636
 6631SOL    HW120792   5.168   1.121   2.719
 6631SOL    HW220793   5.139   1.040   2.580
 6632SOL     OW20794   0.129   0.469   0.644
 6632SOL    HW120795   0.122   0.527   0.725
 6632SOL    HW220796   0.224   0.468   0.613
 6633SOL     OW20797   1.845   6.219   0.986
 6633SOL    HW120798   1.855   6.280   1.064
 6633SOL    HW220799   1.770   6.250   0.928
 6634SOL     OW20800   6.516   2.653   5.935
 6634SOL    HW120801   6.447   2.669   5.864
 6634SOL    HW220802   6.470   2.634   6.022
 6635SOL     OW20803   4.687   4.497   3.599
 6635SOL    HW120804   4.704   4.479   3.502
 6635SOL    HW220805   4.760   4.556   3.635
 6636SOL     OW20806   1.927   2.397   4.170
 6636SOL    HW120807   1.928   2.448   4.256
 6636SOL    HW220808   2.020   2.393   4.132
 6637SOL     OW20809   0.652   6.973   0.954
 6637SOL    HW120810   0.637   6.938   0.861
 6637SOL    HW220811   0.749   6.964   0.977
 6638SOL     OW20812   2.388   5.625   6.009
 6638SOL    HW120813   2.298   5.639   6.050
 6638SOL    HW220814   2.424   5.536   6.036
 6639SOL     OW20815   5.917   5.108   6.948
 6639SOL    HW120816   5.990   5.170   6.978
 6639SOL    HW220817   5.921   5.099   6.848
 6640SOL     OW20818   6.645   2.284   3.713
 6640SOL    HW120819   6.591   2.263   3.794
 6640SOL    HW220820   6.589   2.334   3.647
 6641SOL     OW20821   1.912   4.037   6.139
 6641SOL    HW120822   1.831   4.079   6.097
 6641SOL    HW220823   1.993   4.059   6.084
 6642SOL     OW20824   0.837   5.802   6.498
 6642SOL    HW120825   0.888   5.716   6.497
 6642SOL    HW220826   0.789   5.814   6.411
 6643SOL     OW20827   5.142   4.480   6.440
 6643SOL    HW120828   5.183   4.399   6.398
 6643SOL    HW220829   5.088   4.530   6.372
 6644SOL     OW20830   3.009   4.840   2.088
 6644SOL    HW120831   2.979   4.746   2.071
 6644SOL    HW220832   3.043   4.847   2.182
 6645SOL     OW20833   0.155   4.830   5.759
 6645SOL    HW120834   0.101   4.746   5.763
 6645SOL    HW220835   0.094   4.909   5.759
 6646SOL     OW20836   2.665   5.659   3.914
 6646SOL    HW120837   2.582   5.682   3.863
 6646SOL    HW220838   2.651   5.680   4.011
 6647SOL     OW20839   3.081   1.342   1.829
 6647SOL    HW120840   3.066   1.331   1.927
 6647SOL    HW220841   3.117   1.257   1.791
 6648SOL     OW20842   5.166   5.807   2.700
 6648SOL    HW120843   5.115   5.826   2.616
 6648SOL    HW220844   5.163   5.887   2.760
 6649SOL     OW20845   4.544   2.184   6.114
 6649SOL    HW120846   4.508   2.094   6.137
 6649SOL    HW220847   4.633   2.196   6.158
 6650SOL     OW20848   4.075   1.924   3.896
 6650SOL    HW120849   4.081   1.826   3.914
 6650SOL    HW220850   4.147   1.951   3.831
 6651SOL     OW20851   0.660   2.719   6.837
 6651SOL    HW120852   0.607   2.777   6.899
 6651SOL    HW220853   0.735   2.773   6.798
 6652SOL     OW20854   0.236   5.460   2.174
 6652SOL    HW120855   0.188   5.542   2.141
 6652SOL    HW220856   0.283   5.481   2.259
 6653SOL     OW20857   3.939   3.997   3.879
 6653SOL    HW120858   3.890   4.019   3.963
 6653SOL    HW220859   4.013   3.932   3.899
 6654SOL     OW20860   2.216   3.309   1.717
 6654SOL    HW120861   2.122   3.339   1.705
 6654SOL    HW220862   2.264   3.372   1.779
 6655SOL     OW20863   2.583   6.517   2.103
 6655SOL    HW120864   2.595   6.444   2.036
 6655SOL    HW220865   2.625   6.490   2.190
 6656SOL     OW20866   6.239   1.714   1.571
 6656SOL    HW120867   6.321   1.661   1.552
 6656SOL    HW220868   6.167   1.690   1.505
 6657SOL     OW20869   3.239   6.452   6.689
 6657SOL    HW120870   3.319   6.480   6.636
 6657SOL    HW220871   3.182   6.391   6.635
 6658SOL     OW20872   6.001   1.412   5.018
 6658SOL    HW120873   5.984   1.429   4.921
 6658SOL    HW220874   5.917   1.427   5.070
 6659SOL     OW20875   1.980   3.412   0.285
 6659SOL    HW120876   2.028   3.333   0.246
 6659SOL    HW220877   1.885   3.389   0.302
 6660SOL     OW20878   6.694   6.774   2.777
 6660SOL    HW120879   6.759   6.819   2.838
 6660SOL    HW220880   6.606   6.820   2.781
 6661SOL     OW20881   0.493   5.734   4.095
 6661SOL    HW120882   0.587   5.718   4.127
 6661SOL    HW220883   0.460   5.821   4.131
 6662SOL     OW20884   1.719   1.838   0.020
 6662SOL    HW120885   1.809   1.808   7.009
 6662SOL    HW220886   1.710   1.818   0.118
 6663SOL     OW20887   0.405   5.816   2.308
 6663SOL    HW120888   0.441   5.854   2.223
 6663SOL    HW220889   0.391   5.890   2.374
 6664SOL     OW20890   1.442   0.590   2.348
 6664SOL    HW120891   1.377   0.517   2.326
 6664SOL    HW220892   1.534   0.562   2.320
 6665SOL     OW20893   2.050   6.291   3.152
 6665SOL    HW120894   2.026   6.194   3.160
 6665SOL    HW220895   1.974   6.347   3.186
 6666SOL     OW20896   6.386   0.894   5.971
 6666SOL    HW120897   6.398   0.952   6.052
 6666SOL    HW220898   6.470   0.844   5.953
 6667SOL     OW20899   0.066   4.949   5.235
 6667SOL    HW120900   0.078   4.866   5.288
 6667SOL    HW220901   6.992   4.956   5.203
 6668SOL     OW20902   1.023   4.234   1.757
 6668SOL    HW120903   1.048   4.143   1.725
 6668SOL    HW220904   1.019   4.297   1.679
 6669SOL     OW20905   2.186   5.694   2.888
 6669SOL    HW120906   2.270   5.748   2.902
 6669SOL    HW220907   2.189   5.612   2.945
 6670SOL     OW20908   3.017   5.086   0.299
 6670SOL    HW120909   3.042   5.150   0.227
 6670SOL    HW220910   3.026   4.992   0.265
 6671SOL     OW20911   6.954   3.469   5.663
 6671SOL    HW120912   6.911   3.384   5.634
 6671SOL    HW220913   6.958   3.472   5.763
 6672SOL     OW20914   0.922   0.596   5.782
 6672SOL    HW120915   0.981   0.617   5.860
 6672SOL    HW220916   0.913   0.676   5.724
 6673SOL     OW20917   4.543   5.037   1.567
 6673SOL    HW120918   4.521   5.098   1.643
 6673SOL    HW220919   4.478   4.961   1.565
 6674SOL     OW20920   0.927   6.388   5.118
 6674SOL    HW120921   0.939   6.290   5.104
 6674SOL    HW220922   0.902   6.406   5.214
 6675SOL     OW20923   5.933   5.250   0.280
 6675SOL    HW120924   6.016   5.194   0.280
 6675SOL    HW220925   5.913   5.280   0.373
 6676SOL     OW20926   0.736   2.489   5.927
 6676SOL    HW120927   0.646   2.446   5.920
 6676SOL    HW220928   0.725   2.589   5.926
 6677SOL     OW20929   0.830   2.928   0.145
 6677SOL    HW120930   0.799   2.916   0.239
 6677SOL    HW220931   0.827   3.025   0.120
 6678SOL     OW20932   0.960   2.749   5.789
 6678SOL    HW120933   0.862   2.741   5.806
 6678SOL    HW220934   1.010   2.733   5.875
 6679SOL     OW20935   1.416   2.846   4.881
 6679SOL    HW120936   1.476   2.836   4.802
 6679SOL    HW220937   1.403   2.757   4.925
 6680SOL     OW20938   3.422   6.541   6.524
 6680SOL    HW120939   3.456   6.628   6.487
 6680SOL    HW220940   3.492   6.500   6.582
 6681SOL     OW20941   5.156   5.340   0.771
 6681SOL    HW120942   5.142   5.436   0.798
 6681SOL    HW220943   5.161   5.334   0.671
 6682SOL     OW20944   0.592   5.501   2.577
 6682SOL    HW120945   0.689   5.492   2.599
 6682SOL    HW220946   0.546   5.413   2.592
 6683SOL     OW20947   5.383   1.832   5.229
 6683SOL    HW120948   5.306   1.894   5.245
 6683SOL    HW220949   5.378   1.796   5.135
 6684SOL     OW20950   0.930   0.074   2.305
 6684SOL    HW120951   0.899   7.013   2.257
 6684SOL    HW220952   1.029   0.071   2.316
 6685SOL     OW20953   5.275   3.176   6.377
 6685SOL    HW120954   5.207   3.198   6.447
 6685SOL    HW220955   5.238   3.199   6.287
 6686SOL     OW20956   6.171   3.944   3.115
 6686SOL    HW120957   6.217   3.858   3.094
 6686SOL    HW220958   6.130   3.939   3.206
 6687SOL     OW20959   1.322   1.609   0.854
 6687SOL    HW120960   1.396   1.675   0.863
 6687SOL    HW220961   1.254   1.624   0.926
 6688SOL     OW20962   0.804   4.163   2.668
 6688SOL    HW120963   0.895   4.131   2.641
 6688SOL    HW220964   0.735   4.108   2.622
 6689SOL     OW20965   5.253   4.567   0.149
 6689SOL    HW120966   5.234   4.659   0.185
 6689SOL    HW220967   5.336   4.531   0.193
 6690SOL     OW20968   2.046   3.280   0.850
 6690SOL    HW120969   2.061   3.376   0.876
 6690SOL    HW220970   1.998   3.233   0.924
 6691SOL     OW20971   2.241   4.869   1.530
 6691SOL    HW120972   2.222   4.959   1.491
 6691SOL    HW220973   2.320   4.875   1.590
 6692SOL     OW20974   3.130   4.128   5.108
 6692SOL    HW120975   3.132   4.202   5.175
 6692SOL    HW220976   3.217   4.079   5.111
 6693SOL     OW20977   4.247   3.446   5.554
 6693SOL    HW120978   4.284   3.458   5.646
 6693SOL    HW220979   4.292   3.368   5.510
 6694SOL     OW20980   4.289   6.285   0.782
 6694SOL    HW120981   4.306   6.380   0.807
 6694SOL    HW220982   4.280   6.277   0.683
 6695SOL     OW20983   1.246   1.587   6.697
 6695SOL    HW120984   1.342   1.592   6.672
 6695SOL    HW220985   1.235   1.524   6.774
 6696SOL     OW20986   2.048   3.136   1.917
 6696SOL    HW120987   2.012   3.073   1.848
 6696SOL    HW220988   2.073   3.223   1.874
 6697SOL     OW20989   4.498   1.560   3.150
 6697SOL    HW120990   4.593   1.530   3.149
 6697SOL    HW220991   4.438   1.480   3.146
 6698SOL     OW20992   4.085   3.390   0.125
 6698SOL    HW120993   4.115   3.465   0.067
 6698SOL    HW220994   4.151   3.315   0.120
 6699SOL     OW20995   2.131   4.761   0.440
 6699SOL    HW120996   2.151   4.849   0.483
 6699SOL    HW220997   2.046   4.766   0.389
 6700SOL     OW20998   0.187   6.144   0.799
 6700SOL    HW120999   0.235   6.079   0.740
 6700SOL    HW221000   0.182   6.107   0.892
 6701SOL     OW21001   0.529   1.591   0.762
 6701SOL    HW121002   0.471   1.664   0.799
 6701SOL    HW221003   0.582   1.626   0.685
 6702SOL     OW21004   2.251   1.465   1.410
 6702SOL    HW121005   2.207   1.554   1.420
 6702SOL    HW221006   2.185   1.400   1.373
 6703SOL     OW21007   6.749   1.352   6.674
 6703SOL    HW121008   6.737   1.424   6.605
 6703SOL    HW221009   6.665   1.299   6.683
 6704SOL     OW21010   4.673   2.307   2.410
 6704SOL    HW121011   4.742   2.351   2.352
 6704SOL    HW221012   4.699   2.316   2.506
 6705SOL     OW21013   5.740   2.436   0.447
 6705SOL    HW121014   5.835   2.431   0.415
 6705SOL    HW221015   5.713   2.531   0.456
 6706SOL     OW21016   0.720   4.459   6.195
 6706SOL    HW121017   0.742   4.362   6.206
 6706SOL    HW221018   0.760   4.510   6.271
 6707SOL     OW21019   1.058   5.573   3.173
 6707SOL    HW121020   1.050   5.568   3.273
 6707SOL    HW221021   1.032   5.485   3.133
 6708SOL     OW21022   2.497   6.241   2.317
 6708SOL    HW121023   2.459   6.299   2.390
 6708SOL    HW221024   2.425   6.215   2.254
 6709SOL     OW21025   4.209   1.102   2.356
 6709SOL    HW121026   4.179   1.099   2.261
 6709SOL    HW221027   4.153   1.040   2.411
 6710SOL     OW21028   3.102   2.519   0.072
 6710SOL    HW121029   3.184   2.561   0.109
 6710SOL    HW221030   3.027   2.527   0.138
 6711SOL     OW21031   3.829   4.008   0.265
 6711SOL    HW121032   3.823   4.063   0.183
 6711SOL    HW221033   3.855   3.914   0.241
 6712SOL     OW21034   3.726   6.157   6.881
 6712SOL    HW121035   3.823   6.176   6.866
 6712SOL    HW221036   3.686   6.229   6.937
 6713SOL     OW21037   1.784   2.374   1.695
 6713SOL    HW121038   1.838   2.406   1.773
 6713SOL    HW221039   1.839   2.313   1.639
 6714SOL     OW21040   5.684   0.515   4.650
 6714SOL    HW121041   5.741   0.573   4.591
 6714SOL    HW221042   5.588   0.528   4.626
 6715SOL     OW21043   0.201   0.757   0.780
 6715SOL    HW121044   0.197   0.833   0.716
 6715SOL    HW221045   0.239   0.788   0.867
 6716SOL     OW21046   2.106   5.548   1.432
 6716SOL    HW121047   2.021   5.517   1.390
 6716SOL    HW221048   2.092   5.561   1.530
 6717SOL     OW21049   4.217   1.873   6.743
 6717SOL    HW121050   4.168   1.924   6.672
 6717SOL    HW221051   4.315   1.877   6.723
 6718SOL     OW21052   2.911   0.457   0.693
 6718SOL    HW121053   2.897   0.546   0.736
 6718SOL    HW221054   2.832   0.398   0.713
 6719SOL     OW21055   6.474   6.403   5.296
 6719SOL    HW121056   6.377   6.397   5.317
 6719SOL    HW221057   6.505   6.498   5.307
 6720SOL     OW21058   1.792   5.262   1.280
 6720SOL    HW121059   1.871   5.201   1.287
 6720SOL    HW221060   1.710   5.208   1.261
 6721SOL     OW21061   5.472   6.630   3.715
 6721SOL    HW121062   5.475   6.628   3.615
 6721SOL    HW221063   5.388   6.586   3.746
 6722SOL     OW21064   4.700   3.050   6.549
 6722SOL    HW121065   4.644   3.020   6.626
 6722SOL    HW221066   4.691   3.149   6.537
 6723SOL     OW21067   3.792   6.412   3.253
 6723SOL    HW121068   3.789   6.326   3.202
 6723SOL    HW221069   3.859   6.472   3.212
 6724SOL     OW21070   3.473   4.701   5.252
 6724SOL    HW121071   3.414   4.623   5.272
 6724SOL    HW221072   3.419   4.775   5.212
 6725SOL     OW21073   0.282   4.960   2.591
 6725SOL    HW121074   0.237   5.049   2.590
 6725SOL    HW221075   0.287   4.925   2.497
 6726SOL     OW21076   2.509   2.057   3.557
 6726SOL    HW121077   2.471   2.142   3.593
 6726SOL    HW221078   2.543   2.072   3.464
 6727SOL     OW21079   3.846   3.484   6.270
 6727SOL    HW121080   3.889   3.422   6.335
 6727SOL    HW221081   3.791   3.551   6.320
 6728SOL     OW21082   4.064   1.453   3.734
 6728SOL    HW121083   4.077   1.359   3.701
 6728SOL    HW221084   4.121   1.515   3.681
 6729SOL     OW21085   5.609   0.941   2.605
 6729SOL    HW121086   5.705   0.932   2.578
 6729SOL    HW221087   5.585   1.038   2.609
 6730SOL     OW21088   2.215   1.259   6.671
 6730SOL    HW121089   2.260   1.339   6.632
 6730SOL    HW221090   2.116   1.271   6.667
 6731SOL     OW21091   2.691   4.671   1.568
 6731SOL    HW121092   2.725   4.580   1.590
 6731SOL    HW221093   2.742   4.739   1.620
 6732SOL     OW21094   2.603   5.869   0.912
 6732SOL    HW121095   2.629   5.926   0.990
 6732SOL    HW221096   2.637   5.776   0.927
 6733SOL     OW21097   5.194   5.983   5.272
 6733SOL    HW121098   5.264   6.045   5.305
 6733SOL    HW221099   5.214   5.957   5.178
 6734SOL     OW21100   2.379   3.572   5.401
 6734SOL    HW121101   2.388   3.474   5.387
 6734SOL    HW221102   2.283   3.598   5.389
 6735SOL     OW21103   6.752   5.584   5.509
 6735SOL    HW121104   6.738   5.501   5.564
 6735SOL    HW221105   6.672   5.643   5.518
 6736SOL     OW21106   2.110   3.417   2.134
 6736SOL    HW121107   2.095   3.318   2.143
 6736SOL    HW221108   2.148   3.437   2.044
 6737SOL     OW21109   2.104   0.752   1.735
 6737SOL    HW121110   2.158   0.672   1.762
 6737SOL    HW221111   2.088   0.811   1.815
 6738SOL     OW21112   3.374   0.760   2.494
 6738SOL    HW121113   3.356   0.797   2.585
 6738SOL    HW221114   3.301   0.789   2.432
 6739SOL     OW21115   3.922   6.627   4.862
 6739SOL    HW121116   3.961   6.653   4.773
 6739SOL    HW221117   3.833   6.585   4.848
 6740SOL     OW21118   0.811   1.721   4.137
 6740SOL    HW121119   0.893   1.755   4.092
 6740SOL    HW221120   0.730   1.766   4.097
 6741SOL     OW21121   6.311   0.114   6.199
 6741SOL    HW121122   6.320   0.157   6.110
 6741SOL    HW221123   6.233   0.051   6.199
 6742SOL     OW21124   6.136   5.441   6.054
 6742SOL    HW121125   6.061   5.472   5.995
 6742SOL    HW221126   6.134   5.341   6.061
 6743SOL     OW21127   4.608   3.389   1.142
 6743SOL    HW121128   4.629   3.336   1.059
 6743SOL    HW221129   4.524   3.354   1.183
 6744SOL     OW21130   4.834   4.501   5.571
 6744SOL    HW121131   4.814   4.527   5.477
 6744SOL    HW221132   4.756   4.527   5.630
 6745SOL     OW21133   1.003   4.459   3.988
 6745SOL    HW121134   1.057   4.479   4.069
 6745SOL    HW221135   0.906   4.452   4.013
 6746SOL     OW21136   0.164   1.485   0.779
 6746SOL    HW121137   0.099   1.513   0.850
 6746SOL    HW221138   0.233   1.557   0.767
 6747SOL     OW21139   5.382   6.065   5.586
 6747SOL    HW121140   5.420   5.999   5.650
 6747SOL    HW221141   5.284   6.072   5.600
 6748SOL     OW21142   0.857   0.221   1.885
 6748SOL    HW121143   0.909   0.175   1.813
 6748SOL    HW221144   0.803   0.154   1.935
 6749SOL     OW21145   4.332   6.171   0.518
 6749SOL    HW121146   4.243   6.126   0.523
 6749SOL    HW221147   4.402   6.103   0.497
 6750SOL     OW21148   2.735   3.083   5.350
 6750SOL    HW121149   2.701   3.035   5.431
 6750SOL    HW221150   2.667   3.077   5.277
 6751SOL     OW21151   2.817   1.687   5.202
 6751SOL    HW121152   2.880   1.655   5.273
 6751SOL    HW221153   2.727   1.645   5.216
 6752SOL     OW21154   6.054   1.937   0.310
 6752SOL    HW121155   6.124   1.979   0.367
 6752SOL    HW221156   6.085   1.848   0.279
 6753SOL     OW21157   4.769   1.938   6.696
 6753SOL    HW121158   4.827   2.015   6.722
 6753SOL    HW221159   4.678   1.972   6.669
 6754SOL     OW21160   5.927   1.181   6.943
 6754SOL    HW121161   5.835   1.221   6.948
 6754SOL    HW221162   5.929   1.095   6.993
 6755SOL     OW21163   4.932   2.108   3.691
 6755SOL    HW121164   5.024   2.132   3.662
 6755SOL    HW221165   4.866   2.129   3.618
 6756SOL     OW21166   5.337   4.811   4.473
 6756SOL    HW121167   5.249   4.779   4.438
 6756SOL    HW221168   5.328   4.835   4.570
 6757SOL     OW21169   6.076   5.593   1.826
 6757SOL    HW121170   5.983   5.629   1.826
 6757SOL    HW221171   6.132   5.644   1.760
 6758SOL     OW21172   4.708   2.204   2.121
 6758SOL    HW121173   4.659   2.286   2.151
 6758SOL    HW221174   4.741   2.218   2.027
 6759SOL     OW21175   0.145   4.565   3.074
 6759SOL    HW121176   0.211   4.577   3.149
 6759SOL    HW221177   0.053   4.586   3.108
 6760SOL     OW21178   6.625   3.832   4.729
 6760SOL    HW121179   6.548   3.796   4.676
 6760SOL    HW221180   6.596   3.854   4.821
 6761SOL     OW21181   4.906   3.224   6.238
 6761SOL    HW121182   4.862   3.259   6.321
 6761SOL    HW221183   4.887   3.126   6.230
 6762SOL     OW21184   6.140   4.703   4.309
 6762SOL    HW121185   6.076   4.641   4.264
 6762SOL    HW221186   6.102   4.734   4.395
 6763SOL     OW21187   5.850   6.532   6.013
 6763SOL    HW121188   5.827   6.434   6.006
 6763SOL    HW221189   5.810   6.581   5.936
 6764SOL     OW21190   1.620   3.991   6.384
 6764SOL    HW121191   1.708   4.037   6.388
 6764SOL    HW221192   1.623   3.920   6.313
 6765SOL     OW21193   5.813   4.817   3.120
 6765SOL    HW121194   5.786   4.885   3.188
 6765SOL    HW221195   5.751   4.820   3.042
 6766SOL     OW21196   1.717   0.905   5.512
 6766SOL    HW121197   1.787   0.866   5.572
 6766SOL    HW221198   1.628   0.902   5.558
 6767SOL     OW21199   0.211   2.700   6.700
 6767SOL    HW121200   0.293   2.754   6.716
 6767SOL    HW221201   0.152   2.747   6.634
 6768SOL     OW21202   0.283   0.364   5.096
 6768SOL    HW121203   0.218   0.433   5.065
 6768SOL    HW221204   0.240   0.274   5.093
 6769SOL     OW21205   2.008   3.148   5.983
 6769SOL    HW121206   2.073   3.133   5.909
 6769SOL    HW221207   1.946   3.223   5.958
 6770SOL     OW21208   0.900   1.695   3.241
 6770SOL    HW121209   0.865   1.610   3.203
 6770SOL    HW221210   0.842   1.724   3.317
 6771SOL     OW21211   4.177   1.707   3.097
 6771SOL    HW121212   4.179   1.638   3.169
 6771SOL    HW221213   4.263   1.706   3.046
 6772SOL     OW21214   6.973   0.900   1.540
 6772SOL    HW121215   6.943   0.886   1.634
 6772SOL    HW221216   6.924   0.838   1.479
 6773SOL     OW21217   1.427   6.362   1.221
 6773SOL    HW121218   1.436   6.264   1.236
 6773SOL    HW221219   1.425   6.382   1.123
 6774SOL     OW21220   2.567   2.551   5.743
 6774SOL    HW121221   2.634   2.557   5.669
 6774SOL    HW221222   2.595   2.478   5.806
 6775SOL     OW21223   0.624   2.569   4.587
 6775SOL    HW121224   0.642   2.524   4.675
 6775SOL    HW221225   0.665   2.516   4.513
 6776SOL     OW21226   3.748   3.884   2.857
 6776SOL    HW121227   3.829   3.851   2.807
 6776SOL    HW221228   3.766   3.880   2.955
 6777SOL     OW21229   6.522   5.938   6.608
 6777SOL    HW121230   6.583   5.872   6.565
 6777SOL    HW221231   6.428   5.905   6.603
 6778SOL     OW21232   5.942   5.918   2.168
 6778SOL    HW121233   5.931   5.880   2.076
 6778SOL    HW221234   6.027   5.969   2.173
 6779SOL     OW21235   5.003   3.850   6.231
 6779SOL    HW121236   4.976   3.942   6.202
 6779SOL    HW221237   4.954   3.782   6.175
 6780SOL     OW21238   3.615   1.952   2.822
 6780SOL    HW121239   3.648   1.863   2.790
 6780SOL    HW221240   3.686   1.997   2.875
 6781SOL     OW21241   6.480   1.937   3.253
 6781SOL    HW121242   6.559   1.882   3.281
 6781SOL    HW221243   6.438   1.979   3.333
 6782SOL     OW21244   6.881   1.521   3.163
 6782SOL    HW121245   6.858   1.560   3.074
 6782SOL    HW221246   6.958   1.459   3.153
 6783SOL     OW21247   0.818   5.193   5.642
 6783SOL    HW121248   0.818   5.283   5.599
 6783SOL    HW221249   0.856   5.200   5.734
 6784SOL     OW21250   2.404   3.914   1.776
 6784SOL    HW121251   2.399   3.979   1.851
 6784SOL    HW221252   2.312   3.895   1.742
 6785SOL     OW21253   5.572   5.012   4.426
 6785SOL    HW121254   5.658   5.043   4.384
 6785SOL    HW221255   5.556   4.916   4.402
 6786SOL     OW21256   5.721   1.916   5.894
 6786SOL    HW121257   5.654   1.928   5.821
 6786SOL    HW221258   5.673   1.894   5.979
 6787SOL     OW21259   3.024   1.968   0.299
 6787SOL    HW121260   2.959   1.897   0.325
 6787SOL    HW221261   3.108   1.958   0.353
 6788SOL     OW21262   0.188   4.057   2.464
 6788SOL    HW121263   0.208   4.044   2.367
 6788SOL    HW221264   0.210   3.974   2.514
 6789SOL     OW21265   5.253   4.859   3.159
 6789SOL    HW121266   5.200   4.903   3.087
 6789SOL    HW221267   5.191   4.815   3.224
 6790SOL     OW21268   0.716   5.257   6.499
 6790SOL    HW121269   0.784   5.190   6.528
 6790SOL    HW221270   0.741   5.295   6.410
 6791SOL     OW21271   2.556   0.045   3.020
 6791SOL    HW121272   2.629   0.095   2.973
 6791SOL    HW221273   2.580   0.033   3.116
 6792SOL     OW21274   4.193   0.383   5.477
 6792SOL    HW121275   4.112   0.333   5.445
 6792SOL    HW221276   4.242   0.328   5.544
 6793SOL     OW21277   1.876   3.795   6.277
 6793SOL    HW121278   1.950   3.803   6.344
 6793SOL    HW221279   1.882   3.871   6.211
 6794SOL     OW21280   5.869   2.137   5.233
 6794SOL    HW121281   5.952   2.176   5.273
 6794SOL    HW221282   5.789   2.168   5.284
 6795SOL     OW21283   1.509   0.518   1.514
 6795SOL    HW121284   1.456   0.497   1.596
 6795SOL    HW221285   1.574   0.444   1.496
 6796SOL     OW21286   6.316   1.916   2.823
 6796SOL    HW121287   6.273   2.004   2.844
 6796SOL    HW221288   6.394   1.902   2.884
 6797SOL     OW21289   0.525   3.273   1.214
 6797SOL    HW121290   0.466   3.205   1.258
 6797SOL    HW221291   0.610   3.228   1.185
 6798SOL     OW21292   5.261   0.479   2.043
 6798SOL    HW121293   5.277   0.515   2.135
 6798SOL    HW221294   5.208   0.394   2.049
 6799SOL     OW21295   6.528   0.506   3.574
 6799SOL    HW121296   6.547   0.604   3.563
 6799SOL    HW221297   6.614   0.455   3.579
 6800SOL     OW21298   6.176   2.812   1.327
 6800SOL    HW121299   6.266   2.857   1.325
 6800SOL    HW221300   6.148   2.798   1.422
 6801SOL     OW21301   0.698   6.884   6.238
 6801SOL    HW121302   0.708   6.912   6.142
 6801SOL    HW221303   0.784   6.846   6.271
 6802SOL     OW21304   3.343   5.134   1.869
 6802SOL    HW121305   3.324   5.133   1.967
 6802SOL    HW221306   3.311   5.048   1.829
 6803SOL     OW21307   5.201   5.325   6.258
 6803SOL    HW121308   5.144   5.244   6.265
 6803SOL    HW221309   5.174   5.379   6.178
 6804SOL     OW21310   3.542   4.904   2.799
 6804SOL    HW121311   3.562   4.871   2.707
 6804SOL    HW221312   3.624   4.946   2.837
 6805SOL     OW21313   0.179   4.660   4.759
 6805SOL    HW121314   0.081   4.668   4.779
 6805SOL    HW221315   0.201   4.565   4.737
 6806SOL     OW21316   6.374   2.671   1.573
 6806SOL    HW121317   6.366   2.734   1.650
 6806SOL    HW221318   6.447   2.702   1.511
 6807SOL     OW21319   3.208   4.061   1.874
 6807SOL    HW121320   3.268   4.064   1.954
 6807SOL    HW221321   3.135   4.129   1.884
 6808SOL     OW21322   3.166   1.163   4.071
 6808SOL    HW121323   3.175   1.098   3.996
 6808SOL    HW221324   3.191   1.254   4.040
 6809SOL     OW21325   5.798   3.270   6.920
 6809SOL    HW121326   5.763   3.359   6.891
 6809SOL    HW221327   5.771   3.200   6.853
 6810SOL     OW21328   2.846   0.895   4.766
 6810SOL    HW121329   2.885   0.806   4.790
 6810SOL    HW221330   2.906   0.941   4.701
 6811SOL     OW21331   6.117   1.460   0.321
 6811SOL    HW121332   6.182   1.385   0.312
 6811SOL    HW221333   6.038   1.443   0.262
 6812SOL     OW21334   3.628   4.164   5.490
 6812SOL    HW121335   3.694   4.124   5.554
 6812SOL    HW221336   3.676   4.198   5.410
 6813SOL     OW21337   6.671   3.292   2.372
 6813SOL    HW121338   6.763   3.253   2.370
 6813SOL    HW221339   6.639   3.306   2.278
 6814SOL     OW21340   5.664   0.989   6.950
 6814SOL    HW121341   5.748   0.956   6.992
 6814SOL    HW221342   5.657   1.088   6.964
 6815SOL     OW21343   0.916   5.131   5.986
 6815SOL    HW121344   0.857   5.084   6.052
 6815SOL    HW221345   0.977   5.065   5.942
 6816SOL     OW21346   6.892   0.351   3.395
 6816SOL    HW121347   6.942   0.271   3.428
 6816SOL    HW221348   6.905   0.428   3.458
 6817SOL     OW21349   4.265   2.195   1.385
 6817SOL    HW121350   4.244   2.230   1.476
 6817SOL    HW221351   4.188   2.141   1.351
 6818SOL     OW21352   1.168   6.645   5.314
 6818SOL    HW121353   1.220   6.611   5.393
 6818SOL    HW221354   1.071   6.630   5.329
 6819SOL     OW21355   4.732   4.456   2.020
 6819SOL    HW121356   4.795   4.379   2.033
 6819SOL    HW221357   4.644   4.421   1.987
 6820SOL     OW21358   3.127   5.258   1.512
 6820SOL    HW121359   3.154   5.195   1.439
 6820SOL    HW221360   3.028   5.269   1.510
 6821SOL     OW21361   3.916   2.581   5.320
 6821SOL    HW121362   3.897   2.483   5.324
 6821SOL    HW221363   4.005   2.596   5.276
 6822SOL     OW21364   6.378   3.284   5.787
 6822SOL    HW121365   6.279   3.273   5.772
 6822SOL    HW221366   6.401   3.381   5.783
 6823SOL     OW21367   6.796   2.538   4.953
 6823SOL    HW121368   6.818   2.442   4.971
 6823SOL    HW221369   6.807   2.591   5.037
 6824SOL     OW21370   1.216   6.923   5.472
 6824SOL    HW121371   1.214   6.950   5.568
 6824SOL    HW221372   1.259   6.995   5.418
 6825SOL     OW21373   4.337   4.574   0.564
 6825SOL    HW121374   4.258   4.632   0.582
 6825SOL    HW221375   4.362   4.524   0.648
 6826SOL     OW21376   6.478   6.386   3.788
 6826SOL    HW121377   6.423   6.313   3.828
 6826SOL    HW221378   6.571   6.383   3.827
 6827SOL     OW21379   4.801   5.853   4.906
 6827SOL    HW121380   4.827   5.940   4.949
 6827SOL    HW221381   4.710   5.826   4.937
 6828SOL     OW21382   3.070   2.079   2.431
 6828SOL    HW121383   3.000   2.139   2.392
 6828SOL    HW221384   3.083   2.102   2.527
 6829SOL     OW21385   3.821   0.046   3.135
 6829SOL    HW121386   3.828   6.974   3.170
 6829SOL    HW221387   3.904   0.097   3.158
 6830SOL     OW21388   4.880   5.009   2.749
 6830SOL    HW121389   4.791   5.012   2.705
 6830SOL    HW221390   4.936   4.939   2.706
 6831SOL     OW21391   1.680   2.261   5.933
 6831SOL    HW121392   1.613   2.219   5.994
 6831SOL    HW221393   1.675   2.218   5.843
 6832SOL     OW21394   2.857   2.295   6.332
 6832SOL    HW121395   2.837   2.388   6.299
 6832SOL    HW221396   2.777   2.259   6.379
 6833SOL     OW21397   3.562   5.263   5.832
 6833SOL    HW121398   3.647   5.222   5.865
 6833SOL    HW221399   3.484   5.216   5.872
 6834SOL     OW21400   6.539   6.340   6.822
 6834SOL    HW121401   6.573   6.434   6.826
 6834SOL    HW221402   6.606   6.282   6.777
 6835SOL     OW21403   2.635   1.008   4.911
 6835SOL    HW121404   2.555   0.996   4.970
 6835SOL    HW221405   2.658   0.921   4.868
 6836SOL     OW21406   2.012   4.516   6.672
 6836SOL    HW121407   1.966   4.605   6.669
 6836SOL    HW221408   1.945   4.445   6.694
 6837SOL     OW21409   6.930   1.030   2.140
 6837SOL    HW121410   6.946   1.109   2.081
 6837SOL    HW221411   6.863   1.054   2.210
 6838SOL     OW21412   3.177   4.147   4.793
 6838SOL    HW121413   3.166   4.050   4.813
 6838SOL    HW221414   3.118   4.200   4.854
 6839SOL     OW21415   6.501   3.380   4.674
 6839SOL    HW121416   6.470   3.302   4.727
 6839SOL    HW221417   6.487   3.362   4.576
 6840SOL     OW21418   2.626   6.715   4.952
 6840SOL    HW121419   2.644   6.679   5.044
 6840SOL    HW221420   2.696   6.680   4.889
 6841SOL     OW21421   4.935   5.811   1.328
 6841SOL    HW121422   4.928   5.891   1.387
 6841SOL    HW221423   4.848   5.796   1.281
 6842SOL     OW21424   0.480   3.625   4.516
 6842SOL    HW121425   0.389   3.632   4.475
 6842SOL    HW221426   0.491   3.535   4.559
 6843SOL     OW21427   3.851   2.374   1.652
 6843SOL    HW121428   3.857   2.275   1.634
 6843SOL    HW221429   3.772   2.392   1.711
 6844SOL     OW21430   4.152   5.717   4.195
 6844SOL    HW121431   4.139   5.816   4.196
 6844SOL    HW221432   4.239   5.695   4.151
 6845SOL     OW21433   4.071   4.577   1.046
 6845SOL    HW121434   4.053   4.498   1.105
 6845SOL    HW221435   4.136   4.638   1.092
 6846SOL     OW21436   3.232   3.025   2.907
 6846SOL    HW121437   3.258   2.966   2.830
 6846SOL    HW221438   3.283   3.111   2.902
 6847SOL     OW21439   5.723   3.126   2.336
 6847SOL    HW121440   5.738   3.080   2.248
 6847SOL    HW221441   5.810   3.156   2.374
 6848SOL     OW21442   6.751   6.897   3.200
 6848SOL    HW121443   6.672   6.854   3.158
 6848SOL    HW221444   6.721   6.957   3.275
 6849SOL     OW21445   3.694   6.499   3.850
 6849SOL    HW121446   3.595   6.488   3.841
 6849SOL    HW221447   3.718   6.594   3.831
 6850SOL     OW21448   5.600   3.134   1.827
 6850SOL    HW121449   5.587   3.035   1.825
 6850SOL    HW221450   5.517   3.179   1.792
 6851SOL     OW21451   1.857   5.665   5.490
 6851SOL    HW121452   1.765   5.692   5.518
 6851SOL    HW221453   1.911   5.641   5.571
 6852SOL     OW21454   0.087   4.754   2.218
 6852SOL    HW121455   0.133   4.679   2.266
 6852SOL    HW221456   0.003   4.778   2.267
 6853SOL     OW21457   6.658   3.482   5.584
 6853SOL    HW121458   6.746   3.521   5.556
 6853SOL    HW221459   6.646   3.393   5.540
 6854SOL     OW21460   0.262   1.877   6.406
 6854SOL    HW121461   0.346   1.824   6.395
 6854SOL    HW221462   0.183   1.816   6.404
 6855SOL     OW21463   3.578   6.089   1.118
 6855SOL    HW121464   3.613   6.075   1.026
 6855SOL    HW221465   3.651   6.122   1.177
 6856SOL     OW21466   6.868   3.849   5.626
 6856SOL    HW121467   6.801   3.917   5.596
 6856SOL    HW221468   6.887   3.785   5.551
 6857SOL     OW21469   4.447   1.773   6.032
 6857SOL    HW121470   4.528   1.715   6.039
 6857SOL    HW221471   4.451   1.824   5.946
 6858SOL     OW21472   3.580   2.973   5.090
 6858SOL    HW121473   3.619   2.975   5.182
 6858SOL    HW221474   3.653   2.959   5.023
 6859SOL     OW21475   3.782   6.958   1.120
 6859SOL    HW121476   3.728   6.878   1.093
 6859SOL    HW221477   3.836   6.936   1.201
 6860SOL     OW21478   4.658   4.497   0.225
 6860SOL    HW121479   4.706   4.556   0.290
 6860SOL    HW221480   4.561   4.495   0.245
 6861SOL     OW21481   6.194   4.859   0.549
 6861SOL    HW121482   6.291   4.832   0.550
 6861SOL    HW221483   6.140   4.786   0.509
 6862SOL     OW21484   3.724   5.854   4.180
 6862SOL    HW121485   3.677   5.832   4.266
 6862SOL    HW221486   3.785   5.779   4.155
 6863SOL     OW21487   0.149   3.160   4.536
 6863SOL    HW121488   0.071   3.134   4.478
 6863SOL    HW221489   0.212   3.218   4.483
 6864SOL     OW21490   4.242   5.887   4.802
 6864SOL    HW121491   4.331   5.865   4.843
 6864SOL    HW221492   4.170   5.871   4.869
 6865SOL     OW21493   6.584   4.241   4.129
 6865SOL    HW121494   6.618   4.241   4.223
 6865SOL    HW221495   6.655   4.274   4.068
 6866SOL     OW21496   0.318   3.621   2.232
 6866SOL    HW121497   0.357   3.608   2.323
 6866SOL    HW221498   0.224   3.588   2.230
 6867SOL     OW21499   2.389   4.296   2.495
 6867SOL    HW121500   2.292   4.303   2.474
 6867SOL    HW221501   2.416   4.200   2.497
 6868SOL     OW21502   1.903   5.533   5.244
 6868SOL    HW121503   1.895   5.568   5.337
 6868SOL    HW221504   1.867   5.440   5.240
 6869SOL     OW21505   6.032   3.177   5.230
 6869SOL    HW121506   5.938   3.153   5.209
 6869SOL    HW221507   6.033   3.260   5.286
 6870SOL     OW21508   5.065   4.129   2.846
 6870SOL    HW121509   5.077   4.059   2.776
 6870SOL    HW221510   5.148   4.136   2.902
 6871SOL     OW21511   5.347   6.457   2.124
 6871SOL    HW121512   5.383   6.365   2.136
 6871SOL    HW221513   5.348   6.505   2.212
 6872SOL     OW21514   2.841   3.166   6.213
 6872SOL    HW121515   2.941   3.172   6.215
 6872SOL    HW221516   2.804   3.252   6.180
 6873SOL     OW21517   5.000   4.473   6.210
 6873SOL    HW121518   4.901   4.478   6.214
 6873SOL    HW221519   5.031   4.491   6.116
 6874SOL     OW21520   0.840   2.392   5.479
 6874SOL    HW121521   0.934   2.415   5.453
 6874SOL    HW221522   0.783   2.474   5.473
 6875SOL     OW21523   3.142   2.015   3.686
 6875SOL    HW121524   3.114   2.100   3.730
 6875SOL    HW221525   3.064   1.974   3.640
 6876SOL     OW21526   3.326   6.195   6.465
 6876SOL    HW121527   3.260   6.240   6.405
 6876SOL    HW221528   3.412   6.180   6.416
 6877SOL     OW21529   2.434   4.020   6.578
 6877SOL    HW121530   2.377   4.033   6.497
 6877SOL    HW221531   2.488   3.936   6.567
 6878SOL     OW21532   1.257   1.743   4.972
 6878SOL    HW121533   1.316   1.695   5.037
 6878SOL    HW221534   1.235   1.682   4.896
 6879SOL     OW21535   1.432   1.841   5.893
 6879SOL    HW121536   1.445   1.820   5.796
 6879SOL    HW221537   1.522   1.849   5.938
 6880SOL     OW21538   1.991   4.568   4.884
 6880SOL    HW121539   2.019   4.552   4.790
 6880SOL    HW221540   1.915   4.633   4.886
 6881SOL     OW21541   6.731   3.864   1.204
 6881SOL    HW121542   6.784   3.791   1.247
 6881SOL    HW221543   6.779   3.951   1.215
 6882SOL     OW21544   1.843   6.816   5.469
 6882SOL    HW121545   1.846   6.740   5.405
 6882SOL    HW221546   1.878   6.787   5.558
 6883SOL     OW21547   3.641   6.130   1.911
 6883SOL    HW121548   3.593   6.168   1.990
 6883SOL    HW221549   3.579   6.121   1.834
 6884SOL     OW21550   2.837   4.757   3.130
 6884SOL    HW121551   2.800   4.698   3.202
 6884SOL    HW221552   2.803   4.725   3.041
 6885SOL     OW21553   2.807   5.242   4.388
 6885SOL    HW121554   2.888   5.218   4.335
 6885SOL    HW221555   2.820   5.215   4.483
 6886SOL     OW21556   5.675   1.854   2.914
 6886SOL    HW121557   5.747   1.785   2.924
 6886SOL    HW221558   5.708   1.942   2.950
 6887SOL     OW21559   6.023   0.645   4.712
 6887SOL    HW121560   6.102   0.594   4.678
 6887SOL    HW221561   5.972   0.590   4.777
 6888SOL     OW21562   5.696   6.423   4.019
 6888SOL    HW121563   5.730   6.496   4.078
 6888SOL    HW221564   5.769   6.357   4.002
 6889SOL     OW21565   1.350   4.464   5.918
 6889SOL    HW121566   1.307   4.491   5.832
 6889SOL    HW221567   1.347   4.365   5.928
 6890SOL     OW21568   2.276   0.557   0.406
 6890SOL    HW121569   2.182   0.542   0.378
 6890SOL    HW221570   2.281   0.564   0.506
 6891SOL     OW21571   3.263   4.888   4.150
 6891SOL    HW121572   3.341   4.863   4.208
 6891SOL    HW221573   3.295   4.898   4.055
 6892SOL     OW21574   4.100   0.948   4.276
 6892SOL    HW121575   4.150   0.861   4.276
 6892SOL    HW221576   4.018   0.938   4.219
 6893SOL     OW21577   5.069   6.341   2.170
 6893SOL    HW121578   5.145   6.316   2.110
 6893SOL    HW221579   5.068   6.281   2.250
 6894SOL     OW21580   6.342   4.742   6.365
 6894SOL    HW121581   6.417   4.676   6.375
 6894SOL    HW221582   6.317   4.748   6.268
 6895SOL     OW21583   3.917   5.730   6.658
 6895SOL    HW121584   3.923   5.638   6.620
 6895SOL    HW221585   3.862   5.728   6.742
 6896SOL     OW21586   4.128   0.170   2.750
 6896SOL    HW121587   4.071   0.156   2.669
 6896SOL    HW221588   4.215   0.211   2.722
 6897SOL     OW21589   3.165   2.374   0.428
 6897SOL    HW121590   3.146   2.324   0.344
 6897SOL    HW221591   3.262   2.364   0.451
 6898SOL     OW21592   3.889   2.117   2.383
 6898SOL    HW121593   3.950   2.101   2.306
 6898SOL    HW221594   3.794   2.124   2.351
 6899SOL     OW21595   5.265   6.120   6.829
 6899SOL    HW121596   5.288   6.079   6.740
 6899SOL    HW221597   5.214   6.054   6.884
 6900SOL     OW21598   4.193   1.045   5.459
 6900SOL    HW121599   4.168   1.056   5.555
 6900SOL    HW221600   4.246   0.961   5.448
 6901SOL     OW21601   1.463   1.139   6.950
 6901SOL    HW121602   1.417   1.051   6.938
 6901SOL    HW221603   1.502   1.143   0.021
 6902SOL     OW21604   6.442   5.734   0.643
 6902SOL    HW121605   6.504   5.754   0.718
 6902SOL    HW221606   6.495   5.702   0.564
 6903SOL     OW21607   4.988   3.529   1.105
 6903SOL    HW121608   4.985   3.530   1.005
 6903SOL    HW221609   5.082   3.513   1.135
 6904SOL     OW21610   0.556   1.065   3.466
 6904SOL    HW121611   0.528   1.010   3.387
 6904SOL    HW221612   0.480   1.123   3.495
 6905SOL     OW21613   5.219   6.209   0.538
 6905SOL    HW121614   5.146   6.253   0.590
 6905SOL    HW221615   5.187   6.121   0.503
 6906SOL     OW21616   4.585   0.239   3.786
 6906SOL    HW121617   4.623   0.319   3.833
 6906SOL    HW221618   4.511   0.200   3.841
 6907SOL     OW21619   3.712   1.972   1.463
 6907SOL    HW121620   3.698   1.875   1.482
 6907SOL    HW221621   3.708   2.025   1.548
 6908SOL     OW21622   0.871   0.134   6.405
 6908SOL    HW121623   0.843   0.207   6.342
 6908SOL    HW221624   0.921   0.064   6.355
 6909SOL     OW21625   4.034   3.734   6.702
 6909SOL    HW121626   4.002   3.754   6.610
 6909SOL    HW221627   4.042   3.819   6.754
 6910SOL     OW21628   6.916   1.574   2.436
 6910SOL    HW121629   6.869   1.611   2.516
 6910SOL    HW221630   7.000   1.529   2.465
 6911SOL     OW21631   4.030   1.155   4.803
 6911SOL    HW121632   4.032   1.161   4.903
 6911SOL    HW221633   4.075   1.234   4.763
 6912SOL     OW21634   4.641   5.299   0.891
 6912SOL    HW121635   4.597   5.349   0.817
 6912SOL    HW221636   4.738   5.287   0.870
 6913SOL     OW21637   5.482   5.241   5.500
 6913SOL    HW121638   5.552   5.308   5.474
 6913SOL    HW221639   5.525   5.151   5.508
 6914SOL     OW21640   5.721   5.552   0.857
 6914SOL    HW121641   5.803   5.609   0.849
 6914SOL    HW221642   5.716   5.490   0.779
 6915SOL     OW21643   0.793   5.393   1.439
 6915SOL    HW121644   0.861   5.446   1.489
 6915SOL    HW221645   0.799   5.416   1.342
 6916SOL     OW21646   6.915   1.359   6.944
 6916SOL    HW121647   6.874   1.410   7.020
 6916SOL    HW221648   6.859   1.371   6.862
 6917SOL     OW21649   4.506   6.093   6.175
 6917SOL    HW121650   4.450   6.149   6.236
 6917SOL    HW221651   4.562   6.153   6.118
 6918SOL     OW21652   1.883   2.818   3.687
 6918SOL    HW121653   1.816   2.889   3.710
 6918SOL    HW221654   1.943   2.802   3.766
 6919SOL     OW21655   1.819   6.341   3.279
 6919SOL    HW121656   1.761   6.262   3.258
 6919SOL    HW221657   1.763   6.424   3.277
 6920SOL     OW21658   5.276   6.012   4.741
 6920SOL    HW121659   5.360   6.065   4.729
 6920SOL    HW221660   5.200   6.073   4.761
 6921SOL     OW21661   0.679   0.008   2.938
 6921SOL    HW121662   0.586   7.015   2.907
 6921SOL    HW221663   0.707   0.102   2.918
 6922SOL     OW21664   2.186   6.398   0.477
 6922SOL    HW121665   2.177   6.498   0.481
 6922SOL    HW221666   2.096   6.357   0.465
 6923SOL     OW21667   4.814   6.934   4.261
 6923SOL    HW121668   4.857   6.897   4.179
 6923SOL    HW221669   4.771   0.000   4.240
 6924SOL     OW21670   0.187   5.997   1.033
 6924SOL    HW121671   0.158   5.988   1.128
 6924SOL    HW221672   0.228   5.911   1.003
 6925SOL     OW21673   5.283   6.360   2.484
 6925SOL    HW121674   5.259   6.274   2.528
 6925SOL    HW221675   5.382   6.362   2.467
 6926SOL     OW21676   3.040   3.398   4.731
 6926SOL    HW121677   3.045   3.336   4.653
 6926SOL    HW221678   2.994   3.352   4.807
 6927SOL     OW21679   4.413   3.782   5.902
 6927SOL    HW121680   4.512   3.787   5.890
 6927SOL    HW221681   4.388   3.819   5.992
 6928SOL     OW21682   5.581   0.609   6.592
 6928SOL    HW121683   5.567   0.515   6.623
 6928SOL    HW221684   5.562   0.672   6.667
 6929SOL     OW21685   3.346   5.009   0.355
 6929SOL    HW121686   3.310   4.958   0.433
 6929SOL    HW221687   3.444   4.994   0.347
 6930SOL     OW21688   0.655   6.551   3.294
 6930SOL    HW121689   0.738   6.592   3.333
 6930SOL    HW221690   0.671   6.531   3.197
 6931SOL     OW21691   1.830   0.980   1.202
 6931SOL    HW121692   1.840   1.021   1.112
 6931SOL    HW221693   1.914   0.995   1.255
 6932SOL     OW21694   2.609   2.934   1.033
 6932SOL    HW121695   2.519   2.932   0.988
 6932SOL    HW221696   2.599   2.903   1.128
 6933SOL     OW21697   3.725   6.600   6.416
 6933SOL    HW121698   3.721   6.673   6.484
 6933SOL    HW221699   3.739   6.513   6.461
 6934SOL     OW21700   5.293   3.709   6.581
 6934SOL    HW121701   5.315   3.742   6.672
 6934SOL    HW221702   5.291   3.609   6.582
 6935SOL     OW21703   4.341   5.022   3.753
 6935SOL    HW121704   4.280   5.077   3.809
 6935SOL    HW221705   4.436   5.047   3.773
 6936SOL     OW21706   1.576   4.294   0.824
 6936SOL    HW121707   1.510   4.300   0.898
 6936SOL    HW221708   1.571   4.205   0.780
 6937SOL     OW21709   4.237   0.054   5.345
 6937SOL    HW121710   4.223   0.099   5.434
 6937SOL    HW221711   4.335   0.039   5.331
 6938SOL     OW21712   4.648   2.426   5.205
 6938SOL    HW121713   4.715   2.485   5.161
 6938SOL    HW221714   4.655   2.435   5.304
 6939SOL     OW21715   1.025   4.068   2.562
 6939SOL    HW121716   1.021   4.081   2.463
 6939SOL    HW221717   1.085   3.991   2.583
 6940SOL     OW21718   4.710   0.813   4.709
 6940SOL    HW121719   4.620   0.854   4.690
 6940SOL    HW221720   4.704   0.714   4.701
 6941SOL     OW21721   4.000   3.043   2.831
 6941SOL    HW121722   4.071   3.058   2.900
 6941SOL    HW221723   3.911   3.035   2.876
 6942SOL     OW21724   6.741   1.859   0.326
 6942SOL    HW121725   6.814   1.854   0.395
 6942SOL    HW221726   6.782   1.858   0.235
 6943SOL     OW21727   4.906   6.473   6.183
 6943SOL    HW121728   4.817   6.457   6.227
 6943SOL    HW221729   4.899   6.551   6.121
 6944SOL     OW21730   1.782   5.953   5.792
 6944SOL    HW121731   1.733   5.967   5.706
 6944SOL    HW221732   1.867   6.006   5.791
 6945SOL     OW21733   5.573   3.057   5.726
 6945SOL    HW121734   5.597   3.009   5.642
 6945SOL    HW221735   5.490   3.111   5.711
 6946SOL     OW21736   5.430   4.623   2.884
 6946SOL    HW121737   5.497   4.633   2.810
 6946SOL    HW221738   5.465   4.666   2.967
 6947SOL     OW21739   4.003   6.507   2.796
 6947SOL    HW121740   3.973   6.601   2.810
 6947SOL    HW221741   3.954   6.468   2.718
 6948SOL     OW21742   4.219   1.807   5.639
 6948SOL    HW121743   4.266   1.749   5.572
 6948SOL    HW221744   4.176   1.884   5.593
 6949SOL     OW21745   5.144   0.539   2.747
 6949SOL    HW121746   5.094   0.456   2.775
 6949SOL    HW221747   5.242   0.526   2.762
 6950SOL     OW21748   1.919   0.314   3.182
 6950SOL    HW121749   2.017   0.300   3.167
 6950SOL    HW221750   1.890   0.397   3.136
 6951SOL     OW21751   6.358   5.213   6.040
 6951SOL    HW121752   6.458   5.220   6.033
 6951SOL    HW221753   6.333   5.190   6.134
 6952SOL     OW21754   0.370   4.841   4.658
 6952SOL    HW121755   0.310   4.921   4.651
 6952SOL    HW221756   0.315   4.760   4.678
 6953SOL     OW21757   5.177   1.395   5.069
 6953SOL    HW121758   5.271   1.430   5.076
 6953SOL    HW221759   5.159   1.367   4.975
 6954SOL     OW21760   1.000   4.007   3.128
 6954SOL    HW121761   0.979   3.968   3.217
 6954SOL    HW221762   1.014   3.934   3.061
 6955SOL     OW21763   6.898   5.623   1.934
 6955SOL    HW121764   6.998   5.623   1.940
 6955SOL    HW221765   6.868   5.710   1.894
 6956SOL     OW21766   3.473   4.960   1.629
 6956SOL    HW121767   3.375   4.976   1.637
 6956SOL    HW221768   3.520   4.998   1.709
 6957SOL     OW21769   0.507   4.623   0.723
 6957SOL    HW121770   0.529   4.631   0.820
 6957SOL    HW221771   0.431   4.684   0.700
 6958SOL     OW21772   2.539   3.768   6.527
 6958SOL    HW121773   2.500   3.676   6.526
 6958SOL    HW221774   2.584   3.784   6.615
 6959SOL     OW21775   2.442   1.006   4.066
 6959SOL    HW121776   2.419   1.103   4.055
 6959SOL    HW221777   2.429   0.979   4.162
 6960SOL     OW21778   0.246   5.091   0.027
 6960SOL    HW121779   0.173   5.145   0.069
 6960SOL    HW221780   0.331   5.145   0.025
 6961SOL     OW21781   0.240   1.073   2.642
 6961SOL    HW121782   0.280   1.157   2.680
 6961SOL    HW221783   0.184   1.097   2.563
 6962SOL     OW21784   4.386   4.178   0.972
 6962SOL    HW121785   4.450   4.101   0.971
 6962SOL    HW221786   4.294   4.146   0.949
 6963SOL     OW21787   6.685   5.324   1.514
 6963SOL    HW121788   6.704   5.392   1.443
 6963SOL    HW221789   6.698   5.366   1.604
 6964SOL     OW21790   4.085   5.908   5.254
 6964SOL    HW121791   4.028   5.982   5.288
 6964SOL    HW221792   4.058   5.822   5.297
 6965SOL     OW21793   6.962   2.497   5.765
 6965SOL    HW121794   0.009   2.498   5.838
 6965SOL    HW221795   6.873   2.473   5.803
 6966SOL     OW21796   4.704   2.702   4.155
 6966SOL    HW121797   4.730   2.717   4.250
 6966SOL    HW221798   4.619   2.650   4.151
 6967SOL     OW21799   2.265   0.600   6.157
 6967SOL    HW121800   2.295   0.689   6.122
 6967SOL    HW221801   2.186   0.612   6.217
 6968SOL     OW21802   5.043   6.618   2.220
 6968SOL    HW121803   5.140   6.627   2.242
 6968SOL    HW221804   5.025   6.525   2.186
 6969SOL     OW21805   3.235   1.963   1.107
 6969SOL    HW121806   3.265   1.987   1.014
 6969SOL    HW221807   3.276   2.026   1.173
 6970SOL     OW21808   5.142   4.907   0.208
 6970SOL    HW121809   5.060   4.915   0.151
 6970SOL    HW221810   5.118   4.930   0.303
 6971SOL     OW21811   4.993   0.484   1.507
 6971SOL    HW121812   4.893   0.478   1.505
 6971SOL    HW221813   5.033   0.398   1.477
 6972SOL     OW21814   5.830   4.986   4.665
 6972SOL    HW121815   5.808   5.000   4.569
 6972SOL    HW221816   5.777   4.910   4.701
 6973SOL     OW21817   1.961   4.810   2.934
 6973SOL    HW121818   1.989   4.769   3.021
 6973SOL    HW221819   1.902   4.747   2.885
 6974SOL     OW21820   3.402   4.089   4.392
 6974SOL    HW121821   3.395   4.134   4.303
 6974SOL    HW221822   3.319   4.037   4.410
 6975SOL     OW21823   3.471   0.870   5.614
 6975SOL    HW121824   3.373   0.881   5.627
 6975SOL    HW221825   3.516   0.863   5.703
 6976SOL     OW21826   2.064   4.717   5.806
 6976SOL    HW121827   2.107   4.790   5.858
 6976SOL    HW221828   2.056   4.744   5.710
 6977SOL     OW21829   3.503   2.118   2.577
 6977SOL    HW121830   3.525   2.159   2.489
 6977SOL    HW221831   3.586   2.076   2.616
 6978SOL     OW21832   6.241   0.631   2.350
 6978SOL    HW121833   6.228   0.683   2.434
 6978SOL    HW221834   6.240   0.533   2.370
 6979SOL     OW21835   0.183   4.796   2.885
 6979SOL    HW121836   0.177   4.887   2.927
 6979SOL    HW221837   0.133   4.730   2.942
 6980SOL     OW21838   3.380   1.014   4.479
 6980SOL    HW121839   3.436   0.979   4.404
 6980SOL    HW221840   3.327   1.092   4.447
 6981SOL     OW21841   2.519   5.690   0.372
 6981SOL    HW121842   2.536   5.591   0.374
 6981SOL    HW221843   2.490   5.717   0.280
 6982SOL     OW21844   0.547   0.185   4.797
 6982SOL    HW121845   0.520   0.281   4.803
 6982SOL    HW221846   0.637   0.173   4.838
 6983SOL     OW21847   6.562   0.461   4.435
 6983SOL    HW121848   6.627   0.536   4.445
 6983SOL    HW221849   6.516   0.444   4.522
 6984SOL     OW21850   1.561   1.028   6.281
 6984SOL    HW121851   1.552   1.123   6.250
 6984SOL    HW221852   1.475   0.998   6.322
 6985SOL     OW21853   5.043   5.993   2.026
 6985SOL    HW121854   5.112   6.062   2.002
 6985SOL    HW221855   4.960   6.038   2.057
 6986SOL     OW21856   2.251   6.686   5.566
 6986SOL    HW121857   2.165   6.718   5.526
 6986SOL    HW221858   2.232   6.611   5.629
 6987SOL     OW21859   0.459   3.433   6.289
 6987SOL    HW121860   0.442   3.519   6.241
 6987SOL    HW221861   0.507   3.450   6.375
 6988SOL     OW21862   5.095   0.894   3.974
 6988SOL    HW121863   5.006   0.849   3.984
 6988SOL    HW221864   5.100   0.972   4.036
 6989SOL     OW21865   1.507   2.454   4.047
 6989SOL    HW121866   1.544   2.421   3.960
 6989SOL    HW221867   1.512   2.381   4.115
 6990SOL     OW21868   3.683   3.325   0.056
 6990SOL    HW121869   3.735   3.320   0.141
 6990SOL    HW221870   3.712   3.251   7.016
 6991SOL     OW21871   3.458   4.399   5.299
 6991SOL    HW121872   3.437   4.302   5.309
 6991SOL    HW221873   3.461   4.442   5.389
 6992SOL     OW21874   5.361   6.578   4.351
 6992SOL    HW121875   5.293   6.507   4.369
 6992SOL    HW221876   5.372   6.636   4.432
 6993SOL     OW21877   0.275   0.263   3.284
 6993SOL    HW121878   0.274   0.192   3.355
 6993SOL    HW221879   0.182   0.277   3.249
 6994SOL     OW21880   1.332   2.782   6.149
 6994SOL    HW121881   1.313   2.712   6.217
 6994SOL    HW221882   1.427   2.774   6.119
 6995SOL     OW21883   6.919   5.494   3.237
 6995SOL    HW121884   6.827   5.453   3.230
 6995SOL    HW221885   6.963   5.491   3.148
 6996SOL     OW21886   2.356   0.093   5.526
 6996SOL    HW121887   2.409   0.021   5.481
 6996SOL    HW221888   2.295   0.051   5.594
 6997SOL     OW21889   5.217   0.620   5.303
 6997SOL    HW121890   5.179   0.711   5.289
 6997SOL    HW221891   5.143   0.553   5.310
 6998SOL     OW21892   0.803   2.595   3.388
 6998SOL    HW121893   0.733   2.552   3.445
 6998SOL    HW221894   0.830   2.533   3.314
 6999SOL     OW21895   3.033   1.460   5.532
 6999SOL    HW121896   2.981   1.438   5.614
 6999SOL    HW221897   3.017   1.556   5.507
 7000SOL     OW21898   0.190   6.039   2.737
 7000SOL    HW121899   0.139   5.975   2.795
 7000SOL    HW221900   0.144   6.128   2.738
 7001SOL     OW21901   2.223   2.724   5.659
 7001SOL    HW121902   2.145   2.704   5.719
 7001SOL    HW221903   2.308   2.707   5.709
 7002SOL     OW21904   1.833   4.935   3.283
 7002SOL    HW121905   1.854   5.019   3.232
 7002SOL    HW221906   1.749   4.894   3.248
 7003SOL     OW21907   2.400   6.074   1.046
 7003SOL    HW121908   2.326   6.031   0.994
 7003SOL    HW221909   2.440   6.149   0.994
 7004SOL     OW21910   1.625   4.027   0.751
 7004SOL    HW121911   1.660   4.000   0.661
 7004SOL    HW221912   1.664   3.967   0.821
 7005SOL     OW21913   5.141   6.190   5.653
 7005SOL    HW121914   5.175   6.250   5.580
 7005SOL    HW221915   5.180   6.217   5.740
 7006SOL     OW21916   4.406   4.712   4.777
 7006SOL    HW121917   4.426   4.659   4.694
 7006SOL    HW221918   4.412   4.653   4.857
 7007SOL     OW21919   5.095   5.149   2.831
 7007SOL    HW121920   5.019   5.096   2.792
 7007SOL    HW221921   5.101   5.130   2.929
 7008SOL     OW21922   1.110   5.423   3.822
 7008SOL    HW121923   1.102   5.352   3.893
 7008SOL    HW221924   1.075   5.387   3.735
 7009SOL     OW21925   0.679   4.401   2.084
 7009SOL    HW121926   0.651   4.472   2.148
 7009SOL    HW221927   0.735   4.441   2.011
 7010SOL     OW21928   3.653   5.066   6.209
 7010SOL    HW121929   3.572   5.010   6.225
 7010SOL    HW221930   3.669   5.124   6.289
 7011SOL     OW21931   2.985   0.919   5.097
 7011SOL    HW121932   2.918   0.845   5.102
 7011SOL    HW221933   2.936   1.007   5.093
 7012SOL     OW21934   1.113   0.926   2.246
 7012SOL    HW121935   1.151   0.969   2.164
 7012SOL    HW221936   1.142   0.830   2.249
 7013SOL     OW21937   0.830   0.837   2.239
 7013SOL    HW121938   0.924   0.865   2.222
 7013SOL    HW221939   0.800   0.872   2.327
 7014SOL     OW21940   2.448   4.385   1.686
 7014SOL    HW121941   2.542   4.393   1.652
 7014SOL    HW221942   2.394   4.463   1.655
 7015SOL     OW21943   5.519   2.541   2.657
 7015SOL    HW121944   5.554   2.514   2.747
 7015SOL    HW221945   5.456   2.618   2.668
 7016SOL     OW21946   3.950   5.145   1.436
 7016SOL    HW121947   3.938   5.063   1.381
 7016SOL    HW221948   4.012   5.209   1.390
 7017SOL     OW21949   3.209   1.413   3.617
 7017SOL    HW121950   3.118   1.442   3.587
 7017SOL    HW221951   3.228   1.321   3.583
 7018SOL     OW21952   0.479   4.954   4.416
 7018SOL    HW121953   0.428   4.889   4.472
 7018SOL    HW221954   0.577   4.948   4.438
 7019SOL     OW21955   2.056   5.852   0.239
 7019SOL    HW121956   2.138   5.832   0.185
 7019SOL    HW221957   1.994   5.909   0.185
 7020SOL     OW21958   6.351   6.194   6.336
 7020SOL    HW121959   6.313   6.102   6.348
 7020SOL    HW221960   6.277   6.261   6.338
 7021SOL     OW21961   2.636   1.389   6.295
 7021SOL    HW121962   2.714   1.425   6.245
 7021SOL    HW221963   2.553   1.403   6.241
 7022SOL     OW21964   5.407   4.901   0.304
 7022SOL    HW121965   5.447   4.927   0.216
 7022SOL    HW221966   5.308   4.890   0.294
 7023SOL     OW21967   6.517   3.892   2.740
 7023SOL    HW121968   6.425   3.866   2.769
 7023SOL    HW221969   6.554   3.823   2.678
 7024SOL     OW21970   0.920   6.034   0.796
 7024SOL    HW121971   0.827   6.001   0.809
 7024SOL    HW221972   0.923   6.132   0.813
 7025SOL     OW21973   2.651   1.903   6.358
 7025SOL    HW121974   2.562   1.940   6.332
 7025SOL    HW221975   2.640   1.811   6.395
 7026SOL     OW21976   4.248   1.877   0.723
 7026SOL    HW121977   4.162   1.889   0.674
 7026SOL    HW221978   4.295   1.795   0.688
 7027SOL     OW21979   4.423   6.757   4.328
 7027SOL    HW121980   4.344   6.781   4.272
 7027SOL    HW221981   4.401   6.769   4.424
 7028SOL     OW21982   3.874   0.667   4.741
 7028SOL    HW121983   3.931   0.749   4.741
 7028SOL    HW221984   3.778   0.693   4.733
 7029SOL     OW21985   4.033   0.518   5.713
 7029SOL    HW121986   4.004   0.596   5.657
 7029SOL    HW221987   4.133   0.515   5.714
 7030SOL     OW21988   1.530   3.384   4.330
 7030SOL    HW121989   1.513   3.483   4.325
 7030SOL    HW221990   1.625   3.365   4.304
 7031SOL     OW21991   2.480   6.004   4.093
 7031SOL    HW121992   2.580   6.003   4.095
 7031SOL    HW221993   2.447   5.935   4.029
 7032SOL     OW21994   6.137   1.598   2.309
 7032SOL    HW121995   6.065   1.535   2.337
 7032SOL    HW221996   6.107   1.649   2.228
 7033SOL     OW21997   6.859   0.935   3.961
 7033SOL    HW121998   6.877   0.973   3.871
 7033SOL    HW221999   6.930   0.965   4.025
 7034SOL     OW22000   6.225   6.471   2.572
 7034SOL    HW122001   6.317   6.452   2.607
 7034SOL    HW222002   6.180   6.384   2.551
 7035SOL     OW22003   6.395   5.865   1.567
 7035SOL    HW122004   6.458   5.803   1.613
 7035SOL    HW222005   6.436   5.899   1.482
 7036SOL     OW22006   0.068   4.821   1.883
 7036SOL    HW122007   7.002   4.773   1.888
 7036SOL    HW222008   0.065   4.888   1.809
 7037SOL     OW22009   1.349   6.410   6.399
 7037SOL    HW122010   1.363   6.484   6.464
 7037SOL    HW222011   1.251   6.398   6.383
 7038SOL     OW22012   1.003   4.256   4.283
 7038SOL    HW122013   0.958   4.343   4.301
 7038SOL    HW222014   1.018   4.208   4.370
 7039SOL     OW22015   3.736   0.952   0.206
 7039SOL    HW122016   3.739   1.049   0.181
 7039SOL    HW222017   3.760   0.896   0.127
 7040SOL     OW22018   4.960   2.497   6.247
 7040SOL    HW122019   4.953   2.425   6.316
 7040SOL    HW222020   4.986   2.457   6.160
 7041SOL     OW22021   2.250   2.349   2.225
 7041SOL    HW122022   2.249   2.250   2.241
 7041SOL    HW222023   2.157   2.385   2.231
 7042SOL     OW22024   2.689   6.623   6.786
 7042SOL    HW122025   2.676   6.699   6.722
 7042SOL    HW222026   2.738   6.656   6.867
 7043SOL     OW22027   2.455   1.692   2.896
 7043SOL    HW122028   2.428   1.664   2.804
 7043SOL    HW222029   2.458   1.792   2.902
 7044SOL     OW22030   4.475   5.346   2.677
 7044SOL    HW122031   4.471   5.276   2.748
 7044SOL    HW222032   4.456   5.436   2.718
 7045SOL     OW22033   5.484   5.782   1.210
 7045SOL    HW122034   5.498   5.705   1.148
 7045SOL    HW222035   5.402   5.767   1.265
 7046SOL     OW22036   3.950   0.729   5.026
 7046SOL    HW122037   3.865   0.776   5.050
 7046SOL    HW222038   3.957   0.722   4.926
 7047SOL     OW22039   1.626   0.982   4.781
 7047SOL    HW122040   1.711   1.024   4.812
 7047SOL    HW222041   1.633   0.959   4.684
 7048SOL     OW22042   6.622   6.207   0.051
 7048SOL    HW122043   6.537   6.165   0.084
 7048SOL    HW222044   6.609   6.240   6.979
 7049SOL     OW22045   2.627   1.368   0.490
 7049SOL    HW122046   2.560   1.303   0.527
 7049SOL    HW222047   2.634   1.356   0.391
 7050SOL     OW22048   3.923   3.573   4.658
 7050SOL    HW122049   3.850   3.514   4.623
 7050SOL    HW222050   4.006   3.519   4.671
 7051SOL     OW22051   7.008   6.310   2.290
 7051SOL    HW122052   0.003   6.284   2.195
 7051SOL    HW222053   0.070   6.353   2.328
 7052SOL     OW22054   6.885   1.875   3.168
 7052SOL    HW122055   6.923   1.935   3.097
 7052SOL    HW222056   6.837   1.798   3.125
 7053SOL     OW22057   0.727   4.803   6.546
 7053SOL    HW122058   0.646   4.861   6.538
 7053SOL    HW222059   0.805   4.858   6.576
 7054SOL     OW22060   6.911   6.767   1.794
 7054SOL    HW122061   6.965   6.814   1.725
 7054SOL    HW222062   6.968   6.698   1.840
 7055SOL     OW22063   3.626   0.143   4.574
 7055SOL    HW122064   3.553   0.118   4.638
 7055SOL    HW222065   3.710   0.162   4.625
 7056SOL     OW22066   5.379   4.832   4.122
 7056SOL    HW122067   5.344   4.807   4.212
 7056SOL    HW222068   5.477   4.815   4.117
 7057SOL     OW22069   0.447   5.722   3.478
 7057SOL    HW122070   0.390   5.738   3.398
 7057SOL    HW222071   0.532   5.774   3.470
 7058SOL     OW22072   1.158   5.277   5.481
 7058SOL    HW122073   1.077   5.241   5.434
 7058SOL    HW222074   1.133   5.356   5.537
 7059SOL     OW22075   1.272   0.332   2.320
 7059SOL    HW122076   1.175   0.334   2.344
 7059SOL    HW222077   1.313   0.247   2.354
 7060SOL     OW22078   3.361   6.243   1.145
 7060SOL    HW122079   3.299   6.254   1.068
 7060SOL    HW222080   3.448   6.206   1.112
 7061SOL     OW22081   0.574   0.781   2.696
 7061SOL    HW122082   0.642   0.708   2.698
 7061SOL    HW222083   0.593   0.841   2.618
 7062SOL     OW22084   5.702   2.004   4.410
 7062SOL    HW122085   5.719   2.048   4.322
 7062SOL    HW222086   5.607   2.021   4.438
 7063SOL     OW22087   3.966   6.699   0.971
 7063SOL    HW122088   3.998   6.750   1.051
 7063SOL    HW222089   3.939   6.607   0.999
 7064SOL     OW22090   3.922   2.645   0.873
 7064SOL    HW122091   3.849   2.678   0.814
 7064SOL    HW222092   3.883   2.598   0.952
 7065SOL     OW22093   4.512   3.866   1.037
 7065SOL    HW122094   4.519   3.877   0.938
 7065SOL    HW222095   4.596   3.827   1.073
 7066SOL     OW22096   3.414   6.711   0.801
 7066SOL    HW122097   3.384   6.664   0.884
 7066SOL    HW222098   3.338   6.763   0.762
 7067SOL     OW22099   0.168   3.789   5.579
 7067SOL    HW122100   0.083   3.754   5.619
 7067SOL    HW222101   0.149   3.832   5.491
 7068SOL     OW22102   1.900   1.213   3.943
 7068SOL    HW122103   1.822   1.160   3.977
 7068SOL    HW222104   1.954   1.157   3.881
 7069SOL     OW22105   1.220   4.743   4.571
 7069SOL    HW122106   1.248   4.667   4.512
 7069SOL    HW222107   1.282   4.749   4.650
 7070SOL     OW22108   5.761   5.405   4.686
 7070SOL    HW122109   5.790   5.407   4.782
 7070SOL    HW222110   5.839   5.379   4.629
 7071SOL     OW22111   1.558   6.268   5.697
 7071SOL    HW122112   1.615   6.194   5.663
 7071SOL    HW222113   1.462   6.241   5.695
 7072SOL     OW22114   0.817   6.492   6.630
 7072SOL    HW122115   0.786   6.493   6.725
 7072SOL    HW222116   0.861   6.405   6.610
 7073SOL     OW22117   0.850   0.330   5.734
 7073SOL    HW122118   0.878   0.425   5.742
 7073SOL    HW222119   0.769   0.324   5.675
 7074SOL     OW22120   3.209   1.924   1.473
 7074SOL    HW122121   3.219   2.018   1.442
 7074SOL    HW222122   3.202   1.863   1.394
 7075SOL     OW22123   1.867   6.070   3.116
 7075SOL    HW122124   1.925   5.996   3.150
 7075SOL    HW222125   1.885   6.083   3.018
 7076SOL     OW22126   2.907   2.466   6.648
 7076SOL    HW122127   2.988   2.479   6.705
 7076SOL    HW222128   2.904   2.535   6.577
 7077SOL     OW22129   2.747   5.529   5.536
 7077SOL    HW122130   2.792   5.479   5.462
 7077SOL    HW222131   2.816   5.576   5.591
 7078SOL     OW22132   6.113   0.792   3.174
 7078SOL    HW122133   6.036   0.741   3.214
 7078SOL    HW222134   6.178   0.815   3.246
 7079SOL     OW22135   6.043   6.035   5.868
 7079SOL    HW122136   6.058   6.100   5.794
 7079SOL    HW222137   5.946   6.034   5.893
 7080SOL     OW22138   4.586   1.613   3.961
 7080SOL    HW122139   4.615   1.661   4.044
 7080SOL    HW222140   4.503   1.655   3.925
 7081SOL     OW22141   3.601   1.540   5.122
 7081SOL    HW122142   3.503   1.527   5.138
 7081SOL    HW222143   3.642   1.455   5.089
 7082SOL     OW22144   5.100   0.885   6.212
 7082SOL    HW122145   5.030   0.836   6.264
 7082SOL    HW222146   5.191   0.862   6.248
 7083SOL     OW22147   3.250   6.902   6.808
 7083SOL    HW122148   3.256   6.886   6.709
 7083SOL    HW222149   3.259   6.814   6.856
 7084SOL     OW22150   6.655   6.519   6.001
 7084SOL    HW122151   6.615   6.501   6.091
 7084SOL    HW222152   6.700   6.437   5.968
 7085SOL     OW22153   2.487   2.447   1.648
 7085SOL    HW122154   2.577   2.454   1.692
 7085SOL    HW222155   2.451   2.354   1.662
 7086SOL     OW22156   5.945   7.013   6.709
 7086SOL    HW122157   5.890   0.072   6.735
 7086SOL    HW222158   5.977   6.967   6.791
 7087SOL     OW22159   1.259   3.359   3.623
 7087SOL    HW122160   1.277   3.377   3.719
 7087SOL    HW222161   1.330   3.401   3.566
 7088SOL     OW22162   6.126   2.908   5.283
 7088SOL    HW122163   6.214   2.940   5.318
 7088SOL    HW222164   6.088   2.978   5.222
 7089SOL     OW22165   2.912   1.667   0.298
 7089SOL    HW122166   2.892   1.569   0.303
 7089SOL    HW222167   2.869   1.713   0.376
 7090SOL     OW22168   2.605   2.166   5.217
 7090SOL    HW122169   2.604   2.219   5.302
 7090SOL    HW222170   2.699   2.140   5.196
 7091SOL     OW22171   0.014   6.617   7.009
 7091SOL    HW122172   0.071   6.536   7.003
 7091SOL    HW222173   0.053   6.681   0.053
 7092SOL     OW22174   3.428   3.807   1.100
 7092SOL    HW122175   3.329   3.813   1.110
 7092SOL    HW222176   3.461   3.723   1.143
 7093SOL     OW22177   3.448   4.124   4.718
 7093SOL    HW122178   3.348   4.132   4.724
 7093SOL    HW222179   3.476   4.128   4.622
 7094SOL     OW22180   0.622   0.280   5.593
 7094SOL    HW122181   0.552   0.296   5.663
 7094SOL    HW222182   0.578   0.251   5.508
 7095SOL     OW22183   0.539   3.170   6.610
 7095SOL    HW122184   0.622   3.176   6.555
 7095SOL    HW222185   0.470   3.118   6.561
 7096SOL     OW22186   4.519   2.240   3.243
 7096SOL    HW122187   4.538   2.315   3.306
 7096SOL    HW222188   4.584   2.166   3.259
 7097SOL     OW22189   0.227   0.944   1.448
 7097SOL    HW122190   0.293   0.871   1.464
 7097SOL    HW222191   0.138   0.917   1.483
 7098SOL     OW22192   1.866   6.416   6.081
 7098SOL    HW122193   1.908   6.336   6.125
 7098SOL    HW222194   1.905   6.499   6.119
 7099SOL     OW22195   1.148   1.019   6.250
 7099SOL    HW122196   1.168   0.949   6.318
 7099SOL    HW222197   1.076   0.987   6.188
 7100SOL     OW22198   5.749   3.552   1.053
 7100SOL    HW122199   5.799   3.529   1.137
 7100SOL    HW222200   5.814   3.583   0.983
 7101SOL     OW22201   3.156   0.772   5.385
 7101SOL    HW122202   3.196   0.681   5.377
 7101SOL    HW222203   3.066   0.774   5.341
 7102SOL     OW22204   4.292   1.647   0.609
 7102SOL    HW122205   4.205   1.633   0.561
 7102SOL    HW222206   4.317   1.564   0.658
 7103SOL     OW22207   3.251   6.639   6.913
 7103SOL    HW122208   3.250   6.560   6.853
 7103SOL    HW222209   3.227   6.611   7.006
 7104SOL     OW22210   0.962   2.007   2.900
 7104SOL    HW122211   0.994   2.010   2.995
 7104SOL    HW222212   0.992   2.089   2.852
 7105SOL     OW22213   3.471   3.573   4.864
 7105SOL    HW122214   3.375   3.548   4.870
 7105SOL    HW222215   3.486   3.629   4.782
 7106SOL     OW22216   3.238   2.924   5.237
 7106SOL    HW122217   3.254   2.969   5.150
 7106SOL    HW222218   3.270   2.829   5.233
 7107SOL     OW22219   2.592   2.351   0.294
 7107SOL    HW122220   2.585   2.257   0.261
 7107SOL    HW222221   2.585   2.352   0.394
 7108SOL     OW22222   5.396   6.916   1.623
 7108SOL    HW122223   5.439   6.982   1.685
 7108SOL    HW222224   5.389   6.828   1.669
 7109SOL     OW22225   3.776   6.932   6.340
 7109SOL    HW122226   3.709   6.971   6.277
 7109SOL    HW222227   3.856   6.992   6.345
 7110SOL     OW22228   4.665   5.056   3.660
 7110SOL    HW122229   4.674   5.009   3.572
 7110SOL    HW222230   4.674   5.154   3.647
 7111SOL     OW22231   2.435   2.665   4.187
 7111SOL    HW122232   2.492   2.725   4.131
 7111SOL    HW222233   2.379   2.720   4.249
 7112SOL     OW22234   0.844   6.736   3.365
 7112SOL    HW122235   0.816   6.803   3.297
 7112SOL    HW222236   0.941   6.749   3.386
 7113SOL     OW22237   4.061   3.195   4.604
 7113SOL    HW122238   4.069   3.284   4.648
 7113SOL    HW222239   4.086   3.204   4.507
 7114SOL     OW22240   4.104   0.849   1.334
 7114SOL    HW122241   4.015   0.878   1.371
 7114SOL    HW222242   4.171   0.844   1.408
 7115SOL     OW22243   4.939   1.622   1.180
 7115SOL    HW122244   4.926   1.532   1.222
 7115SOL    HW222245   4.893   1.691   1.236
 7116SOL     OW22246   5.309   4.160   3.057
 7116SOL    HW122247   5.312   4.237   2.993
 7116SOL    HW222248   5.294   4.194   3.149
 7117SOL     OW22249   6.270   6.623   1.849
 7117SOL    HW122250   6.220   6.562   1.911
 7117SOL    HW222251   6.349   6.661   1.897
 7118SOL     OW22252   6.407   3.495   1.009
 7118SOL    HW122253   6.459   3.570   0.968
 7118SOL    HW222254   6.363   3.527   1.093
 7119SOL     OW22255   6.835   1.562   3.432
 7119SOL    HW122256   6.923   1.572   3.477
 7119SOL    HW222257   6.848   1.554   3.333
 7120SOL     OW22258   4.716   1.297   3.399
 7120SOL    HW122259   4.750   1.334   3.313
 7120SOL    HW222260   4.633   1.346   3.426
 7121SOL     OW22261   3.152   6.550   3.477
 7121SOL    HW122262   3.236   6.499   3.497
 7121SOL    HW222263   3.123   6.530   3.384
 7122SOL     OW22264   6.392   0.838   6.791
 7122SOL    HW122265   6.363   0.934   6.789
 7122SOL    HW222266   6.341   0.786   6.722
 7123SOL     OW22267   2.828   5.301   1.157
 7123SOL    HW122268   2.879   5.386   1.168
 7123SOL    HW222269   2.751   5.316   1.095
 7124SOL     OW22270   0.444   5.013   0.780
 7124SOL    HW122271   0.517   4.964   0.827
 7124SOL    HW222272   0.482   5.092   0.732
 7125SOL     OW22273   6.245   6.304   2.253
 7125SOL    HW122274   6.173   6.370   2.274
 7125SOL    HW222275   6.306   6.341   2.183
 7126SOL     OW22276   1.107   4.715   0.536
 7126SOL    HW122277   1.140   4.664   0.456
 7126SOL    HW222278   1.087   4.652   0.611
 7127SOL     OW22279   3.837   6.138   4.461
 7127SOL    HW122280   3.850   6.122   4.363
 7127SOL    HW222281   3.851   6.053   4.511
 7128SOL     OW22282   3.208   4.055   1.345
 7128SOL    HW122283   3.167   3.998   1.274
 7128SOL    HW222284   3.288   4.009   1.383
 7129SOL     OW22285   2.250   6.970   2.048
 7129SOL    HW122286   2.311   0.010   2.098
 7129SOL    HW222287   2.302   6.919   1.980
 7130SOL     OW22288   2.328   4.188   3.550
 7130SOL    HW122289   2.305   4.105   3.601
 7130SOL    HW222290   2.375   4.252   3.611
 7131SOL     OW22291   2.637   0.763   3.217
 7131SOL    HW122292   2.586   0.691   3.169
 7131SOL    HW222293   2.626   0.850   3.168
 7132SOL     OW22294   3.820   3.979   3.103
 7132SOL    HW122295   3.869   3.917   3.164
 7132SOL    HW222296   3.885   4.041   3.059
 7133SOL     OW22297   5.072   5.171   3.131
 7133SOL    HW122298   5.101   5.148   3.223
 7133SOL    HW222299   5.078   5.270   3.118
 7134SOL     OW22300   5.870   4.785   4.434
 7134SOL    HW122301   5.797   4.736   4.482
 7134SOL    HW222302   5.932   4.826   4.501
 7135SOL     OW22303   0.918   2.108   4.736
 7135SOL    HW122304   0.949   2.025   4.783
 7135SOL    HW222305   0.948   2.188   4.787
 7136SOL     OW22306   2.130   1.244   0.318
 7136SOL    HW122307   2.033   1.220   0.308
 7136SOL    HW222308   2.175   1.236   0.229
 7137SOL     OW22309   4.756   0.529   4.599
 7137SOL    HW122310   4.802   0.515   4.687
 7137SOL    HW222311   4.660   0.505   4.608
 7138SOL     OW22312   2.409   4.096   1.166
 7138SOL    HW122313   2.462   4.174   1.133
 7138SOL    HW222314   2.439   4.072   1.258
 7139SOL     OW22315   4.228   2.874   1.382
 7139SOL    HW122316   4.282   2.835   1.457
 7139SOL    HW222317   4.265   2.841   1.295
 7140SOL     OW22318   6.019   4.207   5.377
 7140SOL    HW122319   6.090   4.158   5.427
 7140SOL    HW222320   5.984   4.281   5.433
 7141SOL     OW22321   2.761   6.680   0.729
 7141SOL    HW122322   2.861   6.680   0.733
 7141SOL    HW222323   2.731   6.662   0.635
 7142SOL     OW22324   4.236   6.329   4.101
 7142SOL    HW122325   4.295   6.353   4.178
 7142SOL    HW222326   4.154   6.387   4.102
 7143SOL     OW22327   1.433   4.223   5.653
 7143SOL    HW122328   1.419   4.138   5.602
 7143SOL    HW222329   1.484   4.287   5.595
 7144SOL     OW22330   0.842   2.123   3.405
 7144SOL    HW122331   0.915   2.155   3.465
 7144SOL    HW222332   0.755   2.128   3.454
 7145SOL     OW22333   4.647   6.917   6.786
 7145SOL    HW122334   4.706   6.904   6.706
 7145SOL    HW222335   4.636   6.830   6.834
 7146SOL     OW22336   3.331   5.266   0.504
 7146SOL    HW122337   3.377   5.217   0.430
 7146SOL    HW222338   3.267   5.205   0.550
 7147SOL     OW22339   0.380   0.510   2.973
 7147SOL    HW122340   0.321   0.447   2.923
 7147SOL    HW222341   0.357   0.507   3.070
 7148SOL     OW22342   1.162   0.788   1.718
 7148SOL    HW122343   1.208   0.734   1.789
 7148SOL    HW222344   1.174   0.743   1.630
 7149SOL     OW22345   6.511   1.365   3.461
 7149SOL    HW122346   6.590   1.409   3.502
 7149SOL    HW222347   6.506   1.389   3.364
 7150SOL     OW22348   6.439   3.030   6.943
 7150SOL    HW122349   6.435   3.017   0.021
 7150SOL    HW222350   6.521   3.082   6.919
 7151SOL     OW22351   2.922   5.997   1.843
 7151SOL    HW122352   2.901   5.899   1.838
 7151SOL    HW222353   2.978   6.014   1.924
 7152SOL     OW22354   1.371   2.632   3.882
 7152SOL    HW122355   1.447   2.675   3.833
 7152SOL    HW222356   1.404   2.552   3.932
 7153SOL     OW22357   3.617   1.604   3.973
 7153SOL    HW122358   3.687   1.550   3.925
 7153SOL    HW222359   3.658   1.647   4.053
 7154SOL     OW22360   4.509   5.188   3.932
 7154SOL    HW122361   4.561   5.102   3.936
 7154SOL    HW222362   4.459   5.200   4.017
 7155SOL     OW22363   2.169   0.194   1.154
 7155SOL    HW122364   2.152   0.284   1.114
 7155SOL    HW222365   2.221   0.203   1.238
 7156SOL     OW22366   6.892   5.587   4.773
 7156SOL    HW122367   6.822   5.538   4.721
 7156SOL    HW222368   6.981   5.574   4.729
 7157SOL     OW22369   5.019   4.860   0.727
 7157SOL    HW122370   4.985   4.772   0.693
 7157SOL    HW222371   5.093   4.845   0.792
 7158SOL     OW22372   6.446   6.880   2.949
 7158SOL    HW122373   6.352   6.858   2.925
 7158SOL    HW222374   6.493   6.798   2.981
 7159SOL     OW22375   0.790   5.441   0.636
 7159SOL    HW122376   0.793   5.399   0.545
 7159SOL    HW222377   0.763   5.537   0.627
 7160SOL     OW22378   5.951   0.274   2.079
 7160SOL    HW122379   5.862   0.234   2.056
 7160SOL    HW222380   6.000   0.213   2.140
 7161SOL     OW22381   3.656   3.327   4.181
 7161SOL    HW122382   3.708   3.409   4.205
 7161SOL    HW222383   3.702   3.278   4.107
 7162SOL     OW22384   3.515   4.965   3.658
 7162SOL    HW122385   3.491   5.057   3.629
 7162SOL    HW222386   3.560   4.917   3.583
 7163SOL     OW22387   2.768   0.054   3.265
 7163SOL    HW122388   2.813   7.003   3.318
 7163SOL    HW222389   2.833   0.091   3.199
 7164SOL     OW22390   2.031   0.746   3.266
 7164SOL    HW122391   2.102   0.803   3.306
 7164SOL    HW222392   1.949   0.750   3.323
 7165SOL     OW22393   5.066   1.185   0.909
 7165SOL    HW122394   5.071   1.276   0.866
 7165SOL    HW222395   4.987   1.181   0.970
 7166SOL     OW22396   5.177   5.098   1.199
 7166SOL    HW122397   5.121   5.063   1.124
 7166SOL    HW222398   5.270   5.116   1.166
 7167SOL     OW22399   4.898   3.309   5.140
 7167SOL    HW122400   4.851   3.395   5.118
 7167SOL    HW222401   4.898   3.250   5.059
 7168SOL     OW22402   1.247   0.391   4.038
 7168SOL    HW122403   1.188   0.364   3.963
 7168SOL    HW222404   1.223   0.339   4.120
 7169SOL     OW22405   1.495   2.521   5.186
 7169SOL    HW122406   1.400   2.545   5.169
 7169SOL    HW222407   1.526   2.453   5.120
 7170SOL     OW22408   6.155   4.991   4.294
 7170SOL    HW122409   6.074   5.020   4.243
 7170SOL    HW222410   6.148   4.893   4.313
 7171SOL     OW22411   4.405   3.258   5.403
 7171SOL    HW122412   4.476   3.327   5.415
 7171SOL    HW222413   4.348   3.281   5.324
 7172SOL     OW22414   1.417   6.968   0.284
 7172SOL    HW122415   1.463   6.916   0.212
 7172SOL    HW222416   1.394   6.907   0.360
 7173SOL     OW22417   7.001   6.342   5.675
 7173SOL    HW122418   0.074   6.321   5.651
 7173SOL    HW222419   6.975   6.430   5.635
 7174SOL     OW22420   1.413   5.389   0.326
 7174SOL    HW122421   1.434   5.323   0.254
 7174SOL    HW222422   1.498   5.425   0.364
 7175SOL     OW22423   6.236   3.799   6.596
 7175SOL    HW122424   6.191   3.710   6.596
 7175SOL    HW222425   6.311   3.798   6.529
 7176SOL     OW22426   6.060   4.238   0.876
 7176SOL    HW122427   6.132   4.178   0.841
 7176SOL    HW222428   5.977   4.185   0.891
 7177SOL     OW22429   1.010   5.257   2.345
 7177SOL    HW122430   1.102   5.224   2.368
 7177SOL    HW222431   0.953   5.179   2.319
 7178SOL     OW22432   0.876   2.642   5.184
 7178SOL    HW122433   0.963   2.627   5.230
 7178SOL    HW222434   0.877   2.732   5.139
 7179SOL     OW22435   2.921   3.931   5.766
 7179SOL    HW122436   2.966   4.020   5.766
 7179SOL    HW222437   2.929   3.890   5.675
 7180SOL     OW22438   0.704   5.927   2.274
 7180SOL    HW122439   0.644   5.915   2.196
 7180SOL    HW222440   0.747   5.840   2.298
 7181SOL     OW22441   5.270   0.476   0.960
 7181SOL    HW122442   5.242   0.384   0.933
 7181SOL    HW222443   5.190   0.526   0.994
 7182SOL     OW22444   2.847   4.095   5.437
 7182SOL    HW122445   2.793   4.160   5.384
 7182SOL    HW222446   2.853   4.126   5.532
 7183SOL     OW22447   1.438   5.116   2.730
 7183SOL    HW122448   1.414   5.212   2.717
 7183SOL    HW222449   1.448   5.097   2.828
 7184SOL     OW22450   2.389   6.495   4.248
 7184SOL    HW122451   2.311   6.537   4.202
 7184SOL    HW222452   2.444   6.446   4.181
 7185SOL     OW22453   4.647   2.551   0.049
 7185SOL    HW122454   4.737   2.581   0.079
 7185SOL    HW222455   4.585   2.546   0.127
 7186SOL     OW22456   0.032   6.122   5.314
 7186SOL    HW122457   7.016   6.175   5.238
 7186SOL    HW222458   6.999   6.040   5.327
 7187SOL     OW22459   1.983   4.191   1.763
 7187SOL    HW122460   2.061   4.219   1.707
 7187SOL    HW222461   2.004   4.105   1.809
 7188SOL     OW22462   4.972   1.677   2.110
 7188SOL    HW122463   5.035   1.636   2.175
 7188SOL    HW222464   5.005   1.769   2.086
 7189SOL     OW22465   6.806   1.207   5.745
 7189SOL    HW122466   6.803   1.302   5.713
 7189SOL    HW222467   6.827   1.146   5.669
 7190SOL     OW22468   5.531   4.414   3.202
 7190SOL    HW122469   5.484   4.491   3.159
 7190SOL    HW222470   5.622   4.405   3.164
 7191SOL     OW22471   1.646   3.611   1.981
 7191SOL    HW122472   1.691   3.538   2.032
 7191SOL    HW222473   1.715   3.673   1.943
 7192SOL     OW22474   2.464   4.022   5.845
 7192SOL    HW122475   2.398   4.015   5.771
 7192SOL    HW222476   2.526   3.944   5.843
 7193SOL     OW22477   4.176   2.210   3.557
 7193SOL    HW122478   4.152   2.210   3.460
 7193SOL    HW222479   4.094   2.197   3.612
 7194SOL     OW22480   2.615   1.536   1.955
 7194SOL    HW122481   2.696   1.497   1.911
 7194SOL    HW222482   2.559   1.583   1.886
 7195SOL     OW22483   1.177   5.649   1.175
 7195SOL    HW122484   1.098   5.646   1.115
 7195SOL    HW222485   1.161   5.716   1.248
 7196SOL     OW22486   3.034   3.555   2.451
 7196SOL    HW122487   2.992   3.467   2.428
 7196SOL    HW222488   3.052   3.607   2.367
 7197SOL     OW22489   6.822   1.805   5.708
 7197SOL    HW122490   6.870   1.883   5.668
 7197SOL    HW222491   6.797   1.741   5.635
 7198SOL     OW22492   1.127   6.373   6.656
 7198SOL    HW122493   1.105   6.277   6.674
 7198SOL    HW222494   1.086   6.400   6.569
 7199SOL     OW22495   6.294   6.765   2.602
 7199SOL    HW122496   6.343   6.803   2.523
 7199SOL    HW222497   6.278   6.667   2.586
 7200SOL     OW22498   2.065   1.033   0.957
 7200SOL    HW122499   2.119   1.010   1.038
 7200SOL    HW222500   2.126   1.052   0.880
 7201SOL     OW22501   1.967   4.218   3.584
 7201SOL    HW122502   2.005   4.308   3.605
 7201SOL    HW222503   1.920   4.181   3.664
 7202SOL     OW22504   3.815   0.934   6.632
 7202SOL    HW122505   3.727   0.926   6.585
 7202SOL    HW222506   3.868   0.851   6.618
 7203SOL     OW22507   5.438   1.185   0.223
 7203SOL    HW122508   5.368   1.114   0.216
 7203SOL    HW222509   5.439   1.223   0.315
 7204SOL     OW22510   6.034   1.446   3.625
 7204SOL    HW122511   5.965   1.488   3.683
 7204SOL    HW222512   6.053   1.354   3.657
 7205SOL     OW22513   2.451   4.864   2.348
 7205SOL    HW122514   2.513   4.870   2.427
 7205SOL    HW222515   2.452   4.950   2.298
 7206SOL     OW22516   6.282   0.812   1.454
 7206SOL    HW122517   6.278   0.894   1.397
 7206SOL    HW222518   6.253   0.834   1.547
 7207SOL     OW22519   3.534   0.219   1.711
 7207SOL    HW122520   3.581   0.305   1.690
 7207SOL    HW222521   3.499   0.222   1.804
 7208SOL     OW22522   3.172   0.132   5.979
 7208SOL    HW122523   3.192   0.128   5.881
 7208SOL    HW222524   3.093   0.074   5.999
 7209SOL     OW22525   3.821   3.528   4.267
 7209SOL    HW122526   3.904   3.563   4.310
 7209SOL    HW222527   3.749   3.597   4.272
 7210SOL     OW22528   4.956   1.472   4.183
 7210SOL    HW122529   4.858   1.481   4.200
 7210SOL    HW222530   4.973   1.473   4.084
 7211SOL     OW22531   1.872   5.196   3.492
 7211SOL    HW122532   1.914   5.105   3.489
 7211SOL    HW222533   1.785   5.194   3.443
 7212SOL     OW22534   6.134   6.387   3.939
 7212SOL    HW122535   6.154   6.428   4.028
 7212SOL    HW222536   6.098   6.457   3.877
 7213SOL     OW22537   6.119   0.896   5.490
 7213SOL    HW122538   6.081   0.804   5.501
 7213SOL    HW222539   6.218   0.893   5.507
 7214SOL     OW22540   2.159   5.178   4.438
 7214SOL    HW122541   2.120   5.181   4.530
 7214SOL    HW222542   2.238   5.239   4.433
 7215SOL     OW22543   0.960   3.745   3.767
 7215SOL    HW122544   1.027   3.693   3.713
 7215SOL    HW222545   0.960   3.840   3.737
 7216SOL     OW22546   2.548   0.493   0.527
 7216SOL    HW122547   2.594   0.457   0.445
 7216SOL    HW222548   2.469   0.547   0.499
 7217SOL     OW22549   0.554   2.855   2.346
 7217SOL    HW122550   0.624   2.898   2.403
 7217SOL    HW222551   0.548   2.758   2.368
 7218SOL     OW22552   5.045   2.993   5.621
 7218SOL    HW122553   4.971   3.055   5.649
 7218SOL    HW222554   5.014   2.899   5.628
 7219SOL     OW22555   3.678   0.915   2.761
 7219SOL    HW122556   3.608   0.845   2.774
 7219SOL    HW222557   3.645   0.984   2.696
 7220SOL     OW22558   6.743   1.068   2.640
 7220SOL    HW122559   6.831   1.068   2.686
 7220SOL    HW222560   6.691   0.986   2.665
 7221SOL     OW22561   5.084   5.037   6.383
 7221SOL    HW122562   5.040   5.044   6.472
 7221SOL    HW222563   5.153   4.965   6.385
 7222SOL     OW22564   0.216   5.781   1.520
 7222SOL    HW122565   0.133   5.772   1.466
 7222SOL    HW222566   0.293   5.804   1.460
 7223SOL     OW22567   3.486   1.138   5.517
 7223SOL    HW122568   3.464   1.042   5.499
 7223SOL    HW222569   3.432   1.169   5.596
 7224SOL     OW22570   5.362   6.944   4.925
 7224SOL    HW122571   5.376   6.943   5.024
 7224SOL    HW222572   5.265   6.956   4.905
 7225SOL     OW22573   2.289   6.430   6.933
 7225SOL    HW122574   2.240   6.385   6.858
 7225SOL    HW222575   2.226   6.444   7.010
 7226SOL     OW22576   0.137   6.396   0.574
 7226SOL    HW122577   0.074   6.369   0.500
 7226SOL    HW222578   0.182   6.315   0.610
 7227SOL     OW22579   0.161   2.585   6.927
 7227SOL    HW122580   0.084   2.520   6.931
 7227SOL    HW222581   0.158   2.635   6.841
 7228SOL     OW22582   1.057   0.830   2.571
 7228SOL    HW122583   0.985   0.898   2.558
 7228SOL    HW222584   1.020   0.738   2.559
 7229SOL     OW22585   0.640   0.463   4.059
 7229SOL    HW122586   0.585   0.546   4.069
 7229SOL    HW222587   0.584   0.391   4.018
 7230SOL     OW22588   5.208   4.212   3.314
 7230SOL    HW122589   5.150   4.132   3.303
 7230SOL    HW222590   5.268   4.200   3.393
 7231SOL     OW22591   5.895   1.162   6.505
 7231SOL    HW122592   5.904   1.236   6.572
 7231SOL    HW222593   5.799   1.135   6.497
 7232SOL     OW22594   4.186   4.657   1.809
 7232SOL    HW122595   4.259   4.651   1.877
 7232SOL    HW222596   4.223   4.695   1.724
 7233SOL     OW22597   6.736   2.255   6.526
 7233SOL    HW122598   6.835   2.264   6.513
 7233SOL    HW222599   6.695   2.346   6.533
 7234SOL     OW22600   6.325   1.741   1.928
 7234SOL    HW122601   6.247   1.792   1.891
 7234SOL    HW222602   6.292   1.663   1.981
 7235SOL     OW22603   5.698   3.522   5.297
 7235SOL    HW122604   5.750   3.466   5.362
 7235SOL    HW222605   5.603   3.527   5.327
 7236SOL     OW22606   3.407   0.418   2.955
 7236SOL    HW122607   3.353   0.420   2.871
 7236SOL    HW222608   3.504   0.424   2.933
 7237SOL     OW22609   5.971   5.600   5.761
 7237SOL    HW122610   5.883   5.646   5.749
 7237SOL    HW222611   6.031   5.657   5.817
 7238SOL     OW22612   1.917   1.665   1.030
 7238SOL    HW122613   1.878   1.651   1.121
 7238SOL    HW222614   1.848   1.647   0.960
 7239SOL     OW22615   3.646   1.710   1.475
 7239SOL    HW122616   3.571   1.712   1.541
 7239SOL    HW222617   3.703   1.629   1.491
 7240SOL     OW22618   2.485   4.452   0.540
 7240SOL    HW122619   2.483   4.372   0.480
 7240SOL    HW222620   2.435   4.527   0.497
 7241SOL     OW22621   3.817   0.096   5.303
 7241SOL    HW122622   3.796   0.176   5.248
 7241SOL    HW222623   3.887   0.041   5.257
 7242SOL     OW22624   5.172   4.723   6.838
 7242SOL    HW122625   5.223   4.716   6.923
 7242SOL    HW222626   5.188   4.641   6.782
 7243SOL     OW22627   0.405   5.589   0.519
 7243SOL    HW122628   0.370   5.656   0.585
 7243SOL    HW222629   0.437   5.636   0.437
 7244SOL     OW22630   5.998   1.110   1.618
 7244SOL    HW122631   5.920   1.090   1.559
 7244SOL    HW222632   6.052   1.026   1.630
 7245SOL     OW22633   6.970   1.912   3.691
 7245SOL    HW122634   0.005   1.848   3.743
 7245SOL    HW222635   7.003   1.917   3.597
 7246SOL     OW22636   0.125   6.433   5.920
 7246SOL    HW122637   0.094   6.398   5.832
 7246SOL    HW222638   0.194   6.373   5.959
 7247SOL     OW22639   3.265   5.175   2.885
 7247SOL    HW122640   3.265   5.101   2.817
 7247SOL    HW222641   3.338   5.240   2.864
 7248SOL     OW22642   3.467   0.641   4.584
 7248SOL    HW122643   3.465   0.650   4.484
 7248SOL    HW222644   3.385   0.682   4.623
 7249SOL     OW22645   6.377   5.481   6.992
 7249SOL    HW122646   6.318   5.561   6.994
 7249SOL    HW222647   6.464   5.501   0.015
 7250SOL     OW22648   3.060   4.557   6.596
 7250SOL    HW122649   3.061   4.463   6.629
 7250SOL    HW222650   3.062   4.619   6.674
 7251SOL     OW22651   5.774   6.982   5.019
 7251SOL    HW122652   5.753   6.975   4.921
 7251SOL    HW222653   5.840   0.034   5.034
 7252SOL     OW22654   3.793   3.369   4.964
 7252SOL    HW122655   3.802   3.310   5.044
 7252SOL    HW222656   3.787   3.313   4.881
 7253SOL     OW22657   5.228   6.274   1.430
 7253SOL    HW122658   5.289   6.303   1.355
 7253SOL    HW222659   5.146   6.331   1.429
 7254SOL     OW22660   4.342   5.986   5.222
 7254SOL    HW122661   4.268   5.953   5.281
 7254SOL    HW222662   4.426   5.935   5.241
 7255SOL     OW22663   3.507   3.783   2.364
 7255SOL    HW122664   3.429   3.722   2.356
 7255SOL    HW222665   3.585   3.743   2.316
 7256SOL     OW22666   4.562   5.018   4.301
 7256SOL    HW122667   4.602   4.929   4.323
 7256SOL    HW222668   4.479   5.031   4.354
 7257SOL     OW22669   5.960   4.089   3.091
 7257SOL    HW122670   6.059   4.071   3.098
 7257SOL    HW222671   5.928   4.061   3.001
 7258SOL     OW22672   3.725   6.877   4.604
 7258SOL    HW122673   3.734   6.940   4.527
 7258SOL    HW222674   3.804   6.887   4.665
 7259SOL     OW22675   2.175   5.254   6.133
 7259SOL    HW122676   2.178   5.340   6.184
 7259SOL    HW222677   2.261   5.205   6.145
 7260SOL     OW22678   4.095   1.705   2.131
 7260SOL    HW122679   4.171   1.770   2.131
 7260SOL    HW222680   4.010   1.754   2.152
 7261SOL     OW22681   1.493   3.814   2.098
 7261SOL    HW122682   1.436   3.857   2.028
 7261SOL    HW222683   1.521   3.723   2.067
 7262SOL     OW22684   6.707   1.908   5.170
 7262SOL    HW122685   6.637   1.966   5.210
 7262SOL    HW222686   6.689   1.894   5.073
 7263SOL     OW22687   3.644   6.316   1.585
 7263SOL    HW122688   3.595   6.402   1.575
 7263SOL    HW222689   3.602   6.261   1.658
 7264SOL     OW22690   0.695   6.757   5.698
 7264SOL    HW122691   0.608   6.717   5.728
 7264SOL    HW222692   0.678   6.847   5.658
 7265SOL     OW22693   4.422   4.767   5.924
 7265SOL    HW122694   4.341   4.778   5.867
 7265SOL    HW222695   4.407   4.692   5.989
 7266SOL     OW22696   5.563   1.207   2.310
 7266SOL    HW122697   5.619   1.263   2.249
 7266SOL    HW222698   5.569   1.111   2.280
 7267SOL     OW22699   6.975   4.125   4.086
 7267SOL    HW122700   6.950   4.206   4.032
 7267SOL    HW222701   7.008   4.053   4.025
 7268SOL     OW22702   3.095   6.854   1.589
 7268SOL    HW122703   3.047   6.811   1.513
 7268SOL    HW222704   3.193   6.836   1.582
 7269SOL     OW22705   1.393   6.573   1.405
 7269SOL    HW122706   1.389   6.510   1.327
 7269SOL    HW222707   1.305   6.620   1.415
 7270SOL     OW22708   3.141   1.108   2.682
 7270SOL    HW122709   3.081   1.124   2.760
 7270SOL    HW222710   3.216   1.048   2.710
 7271SOL     OW22711   6.851   3.774   3.445
 7271SOL    HW122712   6.765   3.777   3.394
 7271SOL    HW222713   6.921   3.727   3.391
 7272SOL     OW22714   5.561   2.239   1.312
 7272SOL    HW122715   5.552   2.139   1.319
 7272SOL    HW222716   5.480   2.276   1.267
 7273SOL     OW22717   5.501   5.024   6.832
 7273SOL    HW122718   5.532   5.025   6.737
 7273SOL    HW222719   5.412   4.980   6.837
 7274SOL     OW22720   0.145   4.715   5.326
 7274SOL    HW122721   0.188   4.751   5.409
 7274SOL    HW222722   0.200   4.639   5.290
 7275SOL     OW22723   6.202   0.056   1.022
 7275SOL    HW122724   6.177   0.119   0.948
 7275SOL    HW222725   6.280   0.001   0.994
 7276SOL     OW22726   2.903   1.796   3.532
 7276SOL    HW122727   2.850   1.874   3.564
 7276SOL    HW222728   2.879   1.715   3.586
 7277SOL     OW22729   5.553   1.387   4.604
 7277SOL    HW122730   5.566   1.440   4.687
 7277SOL    HW222731   5.478   1.427   4.551
 7278SOL     OW22732   2.471   1.470   3.053
 7278SOL    HW122733   2.480   1.550   2.994
 7278SOL    HW222734   2.552   1.413   3.045
 7279SOL     OW22735   4.696   4.437   0.812
 7279SOL    HW122736   4.694   4.403   0.906
 7279SOL    HW222737   4.780   4.489   0.797
 7280SOL     OW22738   6.096   2.147   5.567
 7280SOL    HW122739   6.090   2.172   5.470
 7280SOL    HW222740   6.179   2.093   5.583
 7281SOL     OW22741   4.356   5.559   1.941
 7281SOL    HW122742   4.276   5.540   1.884
 7281SOL    HW222743   4.395   5.647   1.915
 7282SOL     OW22744   6.557   4.175   2.560
 7282SOL    HW122745   6.562   4.082   2.595
 7282SOL    HW222746   6.558   4.239   2.637
 7283SOL     OW22747   3.976   4.936   2.909
 7283SOL    HW122748   4.011   4.849   2.945
 7283SOL    HW222749   4.029   4.962   2.828
 7284SOL     OW22750   0.165   1.757   3.009
 7284SOL    HW122751   0.117   1.837   2.974
 7284SOL    HW222752   0.117   1.674   2.981
 7285SOL     OW22753   4.802   2.977   1.690
 7285SOL    HW122754   4.726   3.008   1.748
 7285SOL    HW222755   4.886   3.024   1.718
 7286SOL     OW22756   0.261   1.345   2.977
 7286SOL    HW122757   0.359   1.324   2.973
 7286SOL    HW222758   0.240   1.389   3.065
 7287SOL     OW22759   1.754   2.339   3.407
 7287SOL    HW122760   1.670   2.302   3.366
 7287SOL    HW222761   1.735   2.430   3.444
 7288SOL     OW22762   2.772   2.039   2.747
 7288SOL    HW122763   2.844   2.107   2.757
 7288SOL    HW222764   2.726   2.025   2.835
 7289SOL     OW22765   6.512   1.607   1.133
 7289SOL    HW122766   6.530   1.511   1.111
 7289SOL    HW222767   6.424   1.634   1.094
 7290SOL     OW22768   3.472   1.367   5.331
 7290SOL    HW122769   3.442   1.445   5.385
 7290SOL    HW222770   3.471   1.284   5.387
 7291SOL     OW22771   3.677   1.417   0.663
 7291SOL    HW122772   3.691   1.321   0.687
 7291SOL    HW222773   3.766   1.463   0.658
 7292SOL     OW22774   2.733   0.623   2.634
 7292SOL    HW122775   2.778   0.679   2.564
 7292SOL    HW222776   2.757   0.527   2.621
 7293SOL     OW22777   0.541   1.734   4.036
 7293SOL    HW122778   0.578   1.791   3.963
 7293SOL    HW222779   0.442   1.726   4.027
 7294SOL     OW22780   3.479   6.568   2.495
 7294SOL    HW122781   3.488   6.643   2.560
 7294SOL    HW222782   3.445   6.602   2.408
 7295SOL     OW22783   6.294   5.357   1.855
 7295SOL    HW122784   6.230   5.385   1.783
 7295SOL    HW222785   6.349   5.435   1.884
 7296SOL     OW22786   4.957   4.641   2.144
 7296SOL    HW122787   4.947   4.740   2.135
 7296SOL    HW222788   5.054   4.617   2.147
 7297SOL     OW22789   4.288   6.890   1.411
 7297SOL    HW122790   4.378   6.921   1.442
 7297SOL    HW222791   4.248   6.959   1.351
 7298SOL     OW22792   4.047   5.142   6.763
 7298SOL    HW122793   4.036   5.074   6.836
 7298SOL    HW222794   4.094   5.100   6.685
 7299SOL     OW22795   1.173   2.448   6.029
 7299SOL    HW122796   1.159   2.544   6.006
 7299SOL    HW222797   1.084   2.405   6.046
 7300SOL     OW22798   0.570   4.962   2.238
 7300SOL    HW122799   0.528   5.019   2.168
 7300SOL    HW222800   0.501   4.937   2.306
 7301SOL     OW22801   4.742   2.041   5.745
 7301SOL    HW122802   4.799   1.994   5.813
 7301SOL    HW222803   4.651   2.056   5.783
 7302SOL     OW22804   5.584   1.837   6.136
 7302SOL    HW122805   5.545   1.746   6.145
 7302SOL    HW222806   5.581   1.884   6.225
 7303SOL     OW22807   2.807   1.668   1.634
 7303SOL    HW122808   2.834   1.737   1.567
 7303SOL    HW222809   2.874   1.665   1.708
 7304SOL     OW22810   2.766   5.517   1.399
 7304SOL    HW122811   2.722   5.574   1.468
 7304SOL    HW222812   2.706   5.508   1.320
 7305SOL     OW22813   6.327   1.197   0.496
 7305SOL    HW122814   6.251   1.152   0.541
 7305SOL    HW222815   6.413   1.158   0.527
 7306SOL     OW22816   0.326   2.676   1.109
 7306SOL    HW122817   0.349   2.619   1.189
 7306SOL    HW222818   0.232   2.709   1.117
 7307SOL     OW22819   2.502   0.051   1.083
 7307SOL    HW122820   2.463   7.003   1.143
 7307SOL    HW222821   2.601   0.054   1.094
 7308SOL     OW22822   4.811   1.367   2.920
 7308SOL    HW122823   4.806   1.439   2.850
 7308SOL    HW222824   4.808   1.277   2.876
 7309SOL     OW22825   2.554   5.083   3.438
 7309SOL    HW122826   2.476   5.118   3.385
 7309SOL    HW222827   2.611   5.026   3.379
 7310SOL     OW22828   2.225   2.902   5.965
 7310SOL    HW122829   2.251   2.934   6.056
 7310SOL    HW222830   2.299   2.847   5.927
 7311SOL     OW22831   0.202   6.288   6.840
 7311SOL    HW122832   0.255   6.204   6.826
 7311SOL    HW222833   0.248   6.364   6.794
 7312SOL     OW22834   6.675   2.018   3.973
 7312SOL    HW122835   6.732   2.065   4.041
 7312SOL    HW222836   6.722   1.936   3.942
 7313SOL     OW22837   2.527   0.849   2.769
 7313SOL    HW122838   2.587   0.785   2.721
 7313SOL    HW222839   2.472   0.899   2.702
 7314SOL     OW22840   0.238   4.131   6.156
 7314SOL    HW122841   0.154   4.114   6.105
 7314SOL    HW222842   0.221   4.120   6.254
 7315SOL     OW22843   2.032   4.934   2.376
 7315SOL    HW122844   1.980   4.938   2.291
 7315SOL    HW222845   2.098   5.009   2.379
 7316SOL     OW22846   3.149   2.421   1.133
 7316SOL    HW122847   3.101   2.497   1.089
 7316SOL    HW222848   3.207   2.375   1.065
 7317SOL     OW22849   3.779   1.534   0.425
 7317SOL    HW122850   3.754   1.461   0.489
 7317SOL    HW222851   3.701   1.595   0.411
 7318SOL     OW22852   4.393   6.432   1.096
 7318SOL    HW122853   4.433   6.352   1.051
 7318SOL    HW222854   4.391   6.418   1.195
 7319SOL     OW22855   5.858   5.433   6.671
 7319SOL    HW122856   5.826   5.510   6.615
 7319SOL    HW222857   5.815   5.440   6.762
 7320SOL     OW22858   0.144   2.317   1.407
 7320SOL    HW122859   0.149   2.217   1.408
 7320SOL    HW222860   0.126   2.348   1.313
 7321SOL     OW22861   1.236   0.904   0.182
 7321SOL    HW122862   1.328   0.943   0.186
 7321SOL    HW222863   1.241   0.805   0.194
 7322SOL     OW22864   0.918   2.740   2.707
 7322SOL    HW122865   1.010   2.779   2.699
 7322SOL    HW222866   0.897   2.724   2.804
 7323SOL     OW22867   0.822   2.892   1.265
 7323SOL    HW122868   0.743   2.887   1.327
 7323SOL    HW222869   0.906   2.876   1.317
 7324SOL     OW22870   5.799   4.544   3.177
 7324SOL    HW122871   5.735   4.558   3.252
 7324SOL    HW222872   5.811   4.630   3.127
 7325SOL     OW22873   4.671   0.818   5.961
 7325SOL    HW122874   4.661   0.906   5.915
 7325SOL    HW222875   4.755   0.773   5.929
 7326SOL     OW22876   3.320   0.384   0.025
 7326SOL    HW122877   3.362   0.310   0.078
 7326SOL    HW222878   3.221   0.370   0.022
 7327SOL     OW22879   1.403   4.387   3.205
 7327SOL    HW122880   1.342   4.465   3.218
 7327SOL    HW222881   1.451   4.367   3.290
 7328SOL     OW22882   4.515   5.283   4.674
 7328SOL    HW122883   4.594   5.222   4.663
 7328SOL    HW222884   4.542   5.364   4.726
 7329SOL     OW22885   3.519   3.552   1.172
 7329SOL    HW122886   3.429   3.509   1.177
 7329SOL    HW222887   3.571   3.510   1.097
 7330SOL     OW22888   2.813   3.300   1.729
 7330SOL    HW122889   2.715   3.316   1.731
 7330SOL    HW222890   2.848   3.317   1.637
 7331SOL     OW22891   5.665   2.433   2.384
 7331SOL    HW122892   5.594   2.470   2.444
 7331SOL    HW222893   5.747   2.413   2.438
 7332SOL     OW22894   3.484   6.083   5.923
 7332SOL    HW122895   3.402   6.080   5.867
 7332SOL    HW222896   3.559   6.038   5.874
 7333SOL     OW22897   0.890   0.922   0.664
 7333SOL    HW122898   0.973   0.902   0.715
 7333SOL    HW222899   0.852   1.009   0.694
 7334SOL     OW22900   2.931   6.722   4.286
 7334SOL    HW122901   3.019   6.718   4.238
 7334SOL    HW222902   2.887   6.633   4.284
 7335SOL     OW22903   6.277   3.300   1.827
 7335SOL    HW122904   6.320   3.387   1.805
 7335SOL    HW222905   6.266   3.293   1.927
 7336SOL     OW22906   2.085   6.691   1.760
 7336SOL    HW122907   2.021   6.635   1.813
 7336SOL    HW222908   2.053   6.786   1.758
 7337SOL     OW22909   2.313   1.836   3.274
 7337SOL    HW122910   2.373   1.758   3.255
 7337SOL    HW222911   2.305   1.848   3.373
 7338SOL     OW22912   5.152   3.185   1.720
 7338SOL    HW122913   5.083   3.203   1.650
 7338SOL    HW222914   5.109   3.140   1.798
 7339SOL     OW22915   6.840   5.707   4.367
 7339SOL    HW122916   6.816   5.780   4.431
 7339SOL    HW222917   6.938   5.692   4.369
 7340SOL     OW22918   2.558   6.694   1.150
 7340SOL    HW122919   2.507   6.771   1.190
 7340SOL    HW222920   2.650   6.724   1.126
 7341SOL     OW22921   6.494   5.357   4.502
 7341SOL    HW122922   6.541   5.423   4.444
 7341SOL    HW222923   6.413   5.323   4.453
 7342SOL     OW22924   1.142   5.298   1.631
 7342SOL    HW122925   1.213   5.367   1.616
 7342SOL    HW222926   1.144   5.231   1.558
 7343SOL     OW22927   5.352   3.060   2.666
 7343SOL    HW122928   5.294   3.118   2.723
 7343SOL    HW222929   5.422   3.115   2.622
 7344SOL     OW22930   2.200   1.303   0.032
 7344SOL    HW122931   2.129   1.260   6.998
 7344SOL    HW222932   2.242   1.378   7.001
 7345SOL     OW22933   3.702   5.416   0.223
 7345SOL    HW122934   3.647   5.364   0.158
 7345SOL    HW222935   3.667   5.510   0.229
 7346SOL     OW22936   3.918   4.632   1.785
 7346SOL    HW122937   3.899   4.560   1.718
 7346SOL    HW222938   4.016   4.634   1.805
 7347SOL     OW22939   5.743   2.462   3.225
 7347SOL    HW122940   5.702   2.530   3.287
 7347SOL    HW222941   5.753   2.502   3.134
 7348SOL     OW22942   0.707   2.311   3.956
 7348SOL    HW122943   0.767   2.374   3.907
 7348SOL    HW222944   0.710   2.332   4.054
 7349SOL     OW22945   4.064   1.360   0.598
 7349SOL    HW122946   4.083   1.369   0.696
 7349SOL    HW222947   4.072   1.449   0.554
 7350SOL     OW22948   2.314   0.751   2.968
 7350SOL    HW122949   2.357   0.777   2.881
 7350SOL    HW222950   2.320   0.828   3.031
 7351SOL     OW22951   3.725   4.729   6.918
 7351SOL    HW122952   3.788   4.807   6.912
 7351SOL    HW222953   3.730   4.691   7.010
 7352SOL     OW22954   6.507   1.189   2.901
 7352SOL    HW122955   6.583   1.231   2.849
 7352SOL    HW222956   6.519   1.090   2.903
 7353SOL     OW22957   5.138   2.608   4.661
 7353SOL    HW122958   5.235   2.626   4.670
 7353SOL    HW222959   5.112   2.614   4.564
 7354SOL     OW22960   6.182   4.271   5.762
 7354SOL    HW122961   6.171   4.175   5.789
 7354SOL    HW222962   6.252   4.278   5.691
 7355SOL     OW22963   1.645   4.658   1.972
 7355SOL    HW122964   1.568   4.720   1.952
 7355SOL    HW222965   1.610   4.567   1.995
 7356SOL     OW22966   5.963   1.860   5.562
 7356SOL    HW122967   6.054   1.820   5.549
 7356SOL    HW222968   5.973   1.955   5.591
 7357SOL     OW22969   6.776   1.524   0.109
 7357SOL    HW122970   6.816   1.571   0.188
 7357SOL    HW222971   6.677   1.517   0.120
 7358SOL     OW22972   3.014   0.795   4.401
 7358SOL    HW122973   3.033   0.840   4.314
 7358SOL    HW222974   2.935   0.735   4.390
 7359SOL     OW22975   3.780   3.366   3.305
 7359SOL    HW122976   3.794   3.343   3.401
 7359SOL    HW222977   3.757   3.463   3.296
 7360SOL     OW22978   0.378   2.551   6.044
 7360SOL    HW122979   0.330   2.556   6.131
 7360SOL    HW222980   0.326   2.600   5.974
 7361SOL     OW22981   5.272   6.928   2.707
 7361SOL    HW122982   5.346   6.862   2.720
 7361SOL    HW222983   5.218   6.935   2.791
 7362SOL     OW22984   1.634   6.292   5.996
 7362SOL    HW122985   1.643   6.324   5.902
 7362SOL    HW222986   1.696   6.343   6.055
 7363SOL     OW22987   5.003   2.765   6.315
 7363SOL    HW122988   5.009   2.666   6.304
 7363SOL    HW222989   5.094   2.802   6.335
 7364SOL     OW22990   5.238   0.220   1.831
 7364SOL    HW122991   5.209   0.308   1.793
 7364SOL    HW222992   5.158   0.162   1.845
 7365SOL     OW22993   3.459   0.668   1.964
 7365SOL    HW122994   3.377   0.660   1.909
 7365SOL    HW222995   3.495   0.762   1.957
 7366SOL     OW22996   0.686   5.698   0.637
 7366SOL    HW122997   0.606   5.726   0.691
 7366SOL    HW222998   0.660   5.689   0.541
 7367SOL     OW22999   4.788   3.834   0.261
 7367SOL    HW123000   4.839   3.760   0.306
 7367SOL    HW223001   4.692   3.808   0.252
 7368SOL     OW23002   3.350   3.707   3.700
 7368SOL    HW123003   3.332   3.688   3.603
 7368SOL    HW223004   3.447   3.725   3.713
 7369SOL     OW23005   4.228   2.198   0.042
 7369SOL    HW123006   4.199   2.269   6.999
 7369SOL    HW223007   4.230   2.109   7.016
 7370SOL     OW23008   2.011   5.877   1.569
 7370SOL    HW123009   2.013   5.839   1.476
 7370SOL    HW223010   2.031   5.975   1.565
 7371SOL     OW23011   2.540   5.300   5.183
 7371SOL    HW123012   2.610   5.269   5.119
 7371SOL    HW223013   2.469   5.229   5.191
 7372SOL     OW23014   3.404   6.646   6.075
 7372SOL    HW123015   3.416   6.551   6.046
 7372SOL    HW223016   3.346   6.648   6.157
 7373SOL     OW23017   3.575   0.641   1.396
 7373SOL    HW123018   3.643   0.617   1.327
 7373SOL    HW223019   3.602   0.725   1.442
 7374SOL     OW23020   1.303   2.975   5.885
 7374SOL    HW123021   1.228   3.041   5.888
 7374SOL    HW223022   1.351   2.976   5.972
 7375SOL     OW23023   0.713   0.331   3.412
 7375SOL    HW123024   0.685   0.236   3.405
 7375SOL    HW223025   0.808   0.340   3.382
 7376SOL     OW23026   2.857   4.206   5.724
 7376SOL    HW123027   2.898   4.295   5.744
 7376SOL    HW223028   2.823   4.165   5.809
 7377SOL     OW23029   4.429   4.545   1.134
 7377SOL    HW123030   4.406   4.627   1.186
 7377SOL    HW223031   4.406   4.464   1.188
 7378SOL     OW23032   6.667   1.262   5.290
 7378SOL    HW123033   6.655   1.217   5.202
 7378SOL    HW223034   6.581   1.263   5.340
 7379SOL     OW23035   3.157   1.601   1.866
 7379SOL    HW123036   3.152   1.634   1.772
 7379SOL    HW223037   3.143   1.502   1.867
 7380SOL     OW23038   6.919   3.641   5.463
 7380SOL    HW123039   6.947   3.595   5.548
 7380SOL    HW223040   6.887   3.573   5.398
 7381SOL     OW23041   5.641   2.666   0.685
 7381SOL    HW123042   5.633   2.700   0.779
 7381SOL    HW223043   5.591   2.580   0.676
 7382SOL     OW23044   0.334   6.043   3.448
 7382SOL    HW123045   0.410   6.081   3.395
 7382SOL    HW223046   0.369   6.002   3.533
 7383SOL     OW23047   0.068   6.103   3.522
 7383SOL    HW123048   0.157   6.093   3.477
 7383SOL    HW223049   7.019   6.125   3.454
 7384SOL     OW23050   5.921   1.111   2.441
 7384SOL    HW123051   5.920   1.016   2.470
 7384SOL    HW223052   5.893   1.169   2.518
 7385SOL     OW23053   5.005   6.665   1.520
 7385SOL    HW123054   5.021   6.686   1.423
 7385SOL    HW223055   5.003   6.750   1.572
 7386SOL     OW23056   0.495   2.562   5.575
 7386SOL    HW123057   0.483   2.507   5.492
 7386SOL    HW223058   0.406   2.582   5.615
 7387SOL     OW23059   3.984   5.810   3.411
 7387SOL    HW123060   3.942   5.820   3.501
 7387SOL    HW223061   4.029   5.896   3.385
 7388SOL     OW23062   6.725   4.741   3.944
 7388SOL    HW123063   6.699   4.823   3.892
 7388SOL    HW223064   6.811   4.758   3.992
 7389SOL     OW23065   1.116   3.928   6.056
 7389SOL    HW123066   1.046   3.862   6.084
 7389SOL    HW223067   1.179   3.884   5.992
 7390SOL     OW23068   2.263   6.541   5.318
 7390SOL    HW123069   2.312   6.493   5.391
 7390SOL    HW223070   2.282   6.639   5.324
 7391SOL     OW23071   6.275   3.233   6.899
 7391SOL    HW123072   6.341   3.158   6.908
 7391SOL    HW223073   6.307   3.297   6.830
 7392SOL     OW23074   2.584   4.653   3.718
 7392SOL    HW123075   2.486   4.636   3.701
 7392SOL    HW223076   2.634   4.645   3.631
 7393SOL     OW23077   0.057   3.804   1.833
 7393SOL    HW123078   0.106   3.881   1.873
 7393SOL    HW223079   6.984   3.830   1.813
 7394SOL     OW23080   3.133   3.658   6.413
 7394SOL    HW123081   3.049   3.677   6.362
 7394SOL    HW223082   3.192   3.599   6.359
 7395SOL     OW23083   1.730   6.460   0.499
 7395SOL    HW123084   1.799   6.506   0.442
 7395SOL    HW223085   1.639   6.491   0.472
 7396SOL     OW23086   1.167   0.057   0.011
 7396SOL    HW123087   1.078   0.021   0.039
 7396SOL    HW223088   1.173   0.058   6.933
 7397SOL     OW23089   6.121   5.258   4.663
 7397SOL    HW123090   6.214   5.248   4.698
 7397SOL    HW223091   6.055   5.234   4.734
 7398SOL     OW23092   4.027   5.042   3.442
 7398SOL    HW123093   3.994   5.100   3.368
 7398SOL    HW223094   4.122   5.065   3.463
 7399SOL     OW23095   4.798   3.934   5.243
 7399SOL    HW123096   4.829   3.916   5.149
 7399SOL    HW223097   4.759   4.026   5.247
 7400SOL     OW23098   2.146   5.021   6.392
 7400SOL    HW123099   2.076   5.084   6.427
 7400SOL    HW223100   2.121   4.927   6.415
 7401SOL     OW23101   6.317   1.706   4.259
 7401SOL    HW123102   6.356   1.740   4.173
 7401SOL    HW223103   6.386   1.653   4.308
 7402SOL     OW23104   2.699   0.092   3.790
 7402SOL    HW123105   2.782   0.142   3.766
 7402SOL    HW223106   2.639   0.151   3.844
 7403SOL     OW23107   1.725   3.153   2.098
 7403SOL    HW123108   1.798   3.084   2.102
 7403SOL    HW223109   1.678   3.146   2.010
 7404SOL     OW23110   1.218   1.088   2.038
 7404SOL    HW123111   1.184   1.173   1.997
 7404SOL    HW223112   1.299   1.058   1.989
 7405SOL     OW23113   2.483   4.764   6.238
 7405SOL    HW123114   2.574   4.801   6.259
 7405SOL    HW223115   2.493   4.670   6.203
 7406SOL     OW23116   0.321   5.056   1.540
 7406SOL    HW123117   0.305   5.101   1.452
 7406SOL    HW223118   0.234   5.029   1.580
 7407SOL     OW23119   2.132   6.835   6.409
 7407SOL    HW123120   2.079   6.871   6.332
 7407SOL    HW223121   2.071   6.785   6.471
 7408SOL     OW23122   0.802   3.763   5.480
 7408SOL    HW123123   0.743   3.693   5.521
 7408SOL    HW223124   0.863   3.721   5.413
 7409SOL     OW23125   3.268   4.801   6.005
 7409SOL    HW123126   3.183   4.775   5.959
 7409SOL    HW223127   3.324   4.719   6.019
 7410SOL     OW23128   6.121   4.742   0.827
 7410SOL    HW123129   6.170   4.796   0.759
 7410SOL    HW223130   6.186   4.684   0.877
 7411SOL     OW23131   4.600   5.900   5.235
 7411SOL    HW123132   4.665   5.860   5.300
 7411SOL    HW223133   4.586   5.837   5.159
 7412SOL     OW23134   1.089   1.843   0.216
 7412SOL    HW123135   0.990   1.858   0.220
 7412SOL    HW223136   1.134   1.903   0.283
 7413SOL     OW23137   6.807   3.114   4.847
 7413SOL    HW123138   6.779   3.047   4.778
 7413SOL    HW223139   6.871   3.179   4.806
 7414SOL     OW23140   6.670   5.401   3.157
 7414SOL    HW123141   6.641   5.399   3.061
 7414SOL    HW223142   6.592   5.381   3.216
 7415SOL     OW23143   2.134   2.251   2.883
 7415SOL    HW123144   2.091   2.331   2.924
 7415SOL    HW223145   2.222   2.234   2.928
 7416SOL     OW23146   4.679   6.706   4.355
 7416SOL    HW123147   4.581   6.721   4.343
 7416SOL    HW223148   4.728   6.791   4.340
 7417SOL     OW23149   0.924   6.373   0.666
 7417SOL    HW123150   0.901   6.427   0.747
 7417SOL    HW223151   0.843   6.326   0.633
 7418SOL     OW23152   1.467   3.391   0.861
 7418SOL    HW123153   1.542   3.338   0.820
 7418SOL    HW223154   1.450   3.473   0.805
 7419SOL     OW23155   6.456   1.082   5.001
 7419SOL    HW123156   6.542   1.031   4.994
 7419SOL    HW223157   6.381   1.019   5.018
 7420SOL     OW23158   0.130   5.597   1.769
 7420SOL    HW123159   0.185   5.668   1.726
 7420SOL    HW223160   0.189   5.519   1.794
 7421SOL     OW23161   4.166   3.221   1.026
 7421SOL    HW123162   4.071   3.203   1.054
 7421SOL    HW223163   4.170   3.309   0.979
 7422SOL     OW23164   0.720   3.259   0.606
 7422SOL    HW123165   0.735   3.338   0.665
 7422SOL    HW223166   0.808   3.225   0.572
 7423SOL     OW23167   1.983   6.184   6.972
 7423SOL    HW123168   2.017   6.213   6.883
 7423SOL    HW223169   2.029   6.236   0.023
 7424SOL     OW23170   5.694   1.313   4.111
 7424SOL    HW123171   5.613   1.272   4.154
 7424SOL    HW223172   5.724   1.255   4.035
 7425SOL     OW23173   3.703   5.780   6.012
 7425SOL    HW123174   3.665   5.807   5.924
 7425SOL    HW223175   3.694   5.856   6.077
 7426SOL     OW23176   0.935   1.298   6.722
 7426SOL    HW123177   1.022   1.275   6.765
 7426SOL    HW223178   0.860   1.266   6.781
 7427SOL     OW23179   4.303   5.225   4.163
 7427SOL    HW123180   4.352   5.275   4.233
 7427SOL    HW223181   4.297   5.128   4.188
 7428SOL     OW23182   3.363   2.026   5.710
 7428SOL    HW123183   3.311   2.108   5.687
 7428SOL    HW223184   3.408   1.991   5.628
 7429SOL     OW23185   6.093   6.893   3.559
 7429SOL    HW123186   6.112   6.897   3.657
 7429SOL    HW223187   6.066   6.983   3.526
 7430SOL     OW23188   6.500   3.973   5.007
 7430SOL    HW123189   6.599   3.981   4.992
 7430SOL    HW223190   6.483   3.916   5.088
 7431SOL     OW23191   1.110   4.053   1.987
 7431SOL    HW123192   1.094   4.120   2.060
 7431SOL    HW223193   1.023   4.027   1.946
 7432SOL     OW23194   0.604   6.209   5.183
 7432SOL    HW123195   0.560   6.261   5.109
 7432SOL    HW223196   0.554   6.123   5.197
 7433SOL     OW23197   6.143   6.029   1.088
 7433SOL    HW123198   6.231   5.998   1.051
 7433SOL    HW223199   6.086   6.065   1.013
 7434SOL     OW23200   4.474   1.045   6.325
 7434SOL    HW123201   4.416   1.018   6.248
 7434SOL    HW223202   4.478   1.145   6.329
 7435SOL     OW23203   2.413   5.987   0.355
 7435SOL    HW123204   2.498   6.029   0.324
 7435SOL    HW223205   2.403   6.002   0.454
 7436SOL     OW23206   5.125   2.774   0.600
 7436SOL    HW123207   5.095   2.837   0.528
 7436SOL    HW223208   5.212   2.732   0.575
 7437SOL     OW23209   0.306   5.588   6.235
 7437SOL    HW123210   0.398   5.556   6.210
 7437SOL    HW223211   0.306   5.688   6.240
 7438SOL     OW23212   6.454   4.758   1.762
 7438SOL    HW123213   6.503   4.745   1.676
 7438SOL    HW223214   6.399   4.676   1.782
 7439SOL     OW23215   1.139   6.827   3.391
 7439SOL    HW123216   1.155   6.731   3.370
 7439SOL    HW223217   1.186   6.884   3.323
 7440SOL     OW23218   1.711   1.978   3.901
 7440SOL    HW123219   1.718   1.975   3.802
 7440SOL    HW223220   1.747   2.065   3.934
 7441SOL     OW23221   5.356   0.413   4.137
 7441SOL    HW123222   5.262   0.437   4.113
 7441SOL    HW223223   5.357   0.365   4.225
 7442SOL     OW23224   1.881   1.513   6.911
 7442SOL    HW123225   1.819   1.539   6.837
 7442SOL    HW223226   1.956   1.459   6.874
 7443SOL     OW23227   0.339   0.680   0.546
 7443SOL    HW123228   0.257   0.682   0.602
 7443SOL    HW223229   0.413   0.635   0.597
 7444SOL     OW23230   0.264   2.617   6.290
 7444SOL    HW123231   0.256   2.714   6.312
 7444SOL    HW223232   0.173   2.579   6.272
 7445SOL     OW23233   5.517   2.571   2.027
 7445SOL    HW123234   5.568   2.561   1.942
 7445SOL    HW223235   5.490   2.481   2.060
 7446SOL     OW23236   6.803   3.168   1.257
 7446SOL    HW123237   6.744   3.206   1.329
 7446SOL    HW223238   6.746   3.121   1.190
 7447SOL     OW23239   0.760   4.314   5.849
 7447SOL    HW123240   0.674   4.343   5.890
 7447SOL    HW223241   0.759   4.215   5.837
 7448SOL     OW23242   6.954   6.672   5.865
 7448SOL    HW123243   6.971   6.644   5.770
 7448SOL    HW223244   0.001   6.740   5.892
 7449SOL     OW23245   5.366   2.164   2.308
 7449SOL    HW123246   5.349   2.226   2.385
 7449SOL    HW223247   5.428   2.091   2.337
 7450SOL     OW23248   3.708   1.044   3.006
 7450SOL    HW123249   3.694   0.980   2.931
 7450SOL    HW223250   3.700   1.138   2.972
 7451SOL     OW23251   2.243   0.373   4.311
 7451SOL    HW123252   2.280   0.465   4.324
 7451SOL    HW223253   2.318   0.308   4.306
 7452SOL     OW23254   1.741   6.532   5.412
 7452SOL    HW123255   1.693   6.449   5.383
 7452SOL    HW223256   1.830   6.536   5.367
 7453SOL     OW23257   6.025   6.138   5.106
 7453SOL    HW123258   6.068   6.160   5.018
 7453SOL    HW223259   6.012   6.039   5.112
 7454SOL     OW23260   0.446   3.662   0.931
 7454SOL    HW123261   0.428   3.607   0.849
 7454SOL    HW223262   0.440   3.759   0.908
 7455SOL     OW23263   4.886   2.718   0.202
 7455SOL    HW123264   4.871   2.673   0.291
 7455SOL    HW223265   4.983   2.733   0.188
 7456SOL     OW23266   1.958   3.773   4.683
 7456SOL    HW123267   1.998   3.780   4.592
 7456SOL    HW223268   2.025   3.801   4.752
 7457SOL     OW23269   5.904   0.773   6.118
 7457SOL    HW123270   5.913   0.676   6.139
 7457SOL    HW223271   5.954   0.826   6.187
 7458SOL     OW23272   2.864   1.407   0.203
 7458SOL    HW123273   2.932   1.346   0.162
 7458SOL    HW223274   2.779   1.358   0.217
 7459SOL     OW23275   4.692   0.944   4.421
 7459SOL    HW123276   4.752   1.022   4.441
 7459SOL    HW223277   4.629   0.930   4.498
 7460SOL     OW23278   0.523   4.650   0.016
 7460SOL    HW123279   0.555   4.608   0.101
 7460SOL    HW223280   0.475   4.735   0.037
 7461SOL     OW23281   5.165   0.790   4.316
 7461SOL    HW123282   5.208   0.717   4.262
 7461SOL    HW223283   5.147   0.869   4.257
 7462SOL     OW23284   2.390   1.710   2.139
 7462SOL    HW123285   2.463   1.775   2.117
 7462SOL    HW223286   2.363   1.661   2.056
 7463SOL     OW23287   3.511   3.456   2.605
 7463SOL    HW123288   3.592   3.479   2.550
 7463SOL    HW223289   3.500   3.525   2.677
 7464SOL     OW23290   5.452   6.095   0.621
 7464SOL    HW123291   5.385   6.153   0.575
 7464SOL    HW223292   5.404   6.030   0.681
 7465SOL     OW23293   2.797   0.486   2.021
 7465SOL    HW123294   2.774   0.487   2.118
 7465SOL    HW223295   2.879   0.541   2.005
 7466SOL     OW23296   0.777   0.512   6.675
 7466SOL    HW123297   0.754   0.416   6.694
 7466SOL    HW223298   0.738   0.570   6.747
 7467SOL     OW23299   6.578   1.318   1.125
 7467SOL    HW123300   6.560   1.244   1.190
 7467SOL    HW223301   6.677   1.321   1.106
 7468SOL     OW23302   6.382   2.929   2.881
 7468SOL    HW123303   6.312   2.878   2.831
 7468SOL    HW223304   6.415   2.873   2.958
 7469SOL     OW23305   0.492   1.544   1.640
 7469SOL    HW123306   0.584   1.579   1.627
 7469SOL    HW223307   0.443   1.601   1.706
 7470SOL     OW23308   6.886   2.724   2.259
 7470SOL    HW123309   6.891   2.823   2.266
 7470SOL    HW223310   6.927   2.695   2.172
 7471SOL     OW23311   6.037   6.157   5.631
 7471SOL    HW123312   6.097   6.137   5.554
 7471SOL    HW223313   5.959   6.212   5.600
 7472SOL     OW23314   3.368   6.984   2.992
 7472SOL    HW123315   3.402   7.008   2.901
 7472SOL    HW223316   3.420   0.013   3.062
 7473SOL     OW23317   6.808   3.740   4.540
 7473SOL    HW123318   6.749   3.766   4.617
 7473SOL    HW223319   6.903   3.745   4.567
 7474SOL     OW23320   3.902   1.072   3.205
 7474SOL    HW123321   3.869   1.078   3.111
 7474SOL    HW223322   3.981   1.011   3.209
 7475SOL     OW23323   4.015   1.218   1.040
 7475SOL    HW123324   3.925   1.259   1.057
 7475SOL    HW223325   4.003   1.124   1.009
 7476SOL     OW23326   4.162   6.934   4.926
 7476SOL    HW123327   4.129   6.869   4.995
 7476SOL    HW223328   4.180   0.001   4.969
 7477SOL     OW23329   4.488   2.108   3.914
 7477SOL    HW123330   4.528   2.200   3.919
 7477SOL    HW223331   4.546   2.050   3.857
 7478SOL     OW23332   1.315   4.711   0.874
 7478SOL    HW123333   1.325   4.719   0.973
 7478SOL    HW223334   1.379   4.642   0.840
 7479SOL     OW23335   4.547   0.519   6.695
 7479SOL    HW123336   4.466   0.560   6.654
 7479SOL    HW223337   4.626   0.579   6.682
 7480SOL     OW23338   6.726   5.418   0.958
 7480SOL    HW123339   6.653   5.453   0.898
 7480SOL    HW223340   6.801   5.484   0.961
 7481SOL     OW23341   5.645   5.355   1.079
 7481SOL    HW123342   5.687   5.393   1.162
 7481SOL    HW223343   5.632   5.428   1.012
 7482SOL     OW23344   4.967   0.464   3.756
 7482SOL    HW123345   4.988   0.455   3.659
 7482SOL    HW223346   5.051   0.451   3.809
 7483SOL     OW23347   3.546   0.583   5.733
 7483SOL    HW123348   3.578   0.533   5.652
 7483SOL    HW223349   3.623   0.627   5.778
 7484SOL     OW23350   1.699   6.925   2.469
 7484SOL    HW123351   1.685   6.871   2.552
 7484SOL    HW223352   1.631   6.898   2.400
 7485SOL     OW23353   1.713   6.350   6.524
 7485SOL    HW123354   1.665   6.302   6.450
 7485SOL    HW223355   1.797   6.390   6.488
 7486SOL     OW23356   2.507   6.674   5.516
 7486SOL    HW123357   2.408   6.687   5.528
 7486SOL    HW223358   2.538   6.601   5.577
 7487SOL     OW23359   3.599   5.974   3.952
 7487SOL    HW123360   3.543   5.895   3.928
 7487SOL    HW223361   3.669   5.946   4.018
 7488SOL     OW23362   3.999   0.890   5.831
 7488SOL    HW123363   3.908   0.854   5.807
 7488SOL    HW223364   3.990   0.985   5.861
 7489SOL     OW23365   5.354   3.853   3.496
 7489SOL    HW123366   5.281   3.921   3.500
 7489SOL    HW223367   5.384   3.842   3.401
 7490SOL     OW23368   5.549   1.351   1.701
 7490SOL    HW123369   5.501   1.305   1.626
 7490SOL    HW223370   5.487   1.361   1.779
 7491SOL     OW23371   6.973   5.538   6.568
 7491SOL    HW123372   6.952   5.546   6.470
 7491SOL    HW223373   0.024   5.603   6.591
 7492SOL     OW23374   1.653   2.812   4.362
 7492SOL    HW123375   1.697   2.892   4.401
 7492SOL    HW223376   1.557   2.808   4.392
 7493SOL     OW23377   4.902   3.489   6.657
 7493SOL    HW123378   4.953   3.566   6.695
 7493SOL    HW223379   4.809   3.518   6.636
 7494SOL     OW23380   5.343   0.937   1.884
 7494SOL    HW123381   5.383   0.965   1.797
 7494SOL    HW223382   5.321   1.018   1.939
 7495SOL     OW23383   1.343   1.853   1.274
 7495SOL    HW123384   1.313   1.801   1.354
 7495SOL    HW223385   1.264   1.893   1.229
 7496SOL     OW23386   0.764   5.057   6.204
 7496SOL    HW123387   0.694   4.992   6.174
 7496SOL    HW223388   0.825   5.012   6.270
 7497SOL     OW23389   1.758   4.354   1.751
 7497SOL    HW123390   1.842   4.300   1.742
 7497SOL    HW223391   1.679   4.295   1.736
 7498SOL     OW23392   3.814   1.826   4.254
 7498SOL    HW123393   3.724   1.782   4.258
 7498SOL    HW223394   3.815   1.894   4.182
 7499SOL     OW23395   5.144   6.420   4.384
 7499SOL    HW123396   5.102   6.400   4.296
 7499SOL    HW223397   5.161   6.334   4.433
 7500SOL     OW23398   5.168   4.918   1.395
 7500SOL    HW123399   5.229   4.916   1.474
 7500SOL    HW223400   5.208   4.976   1.324
 7501SOL     OW23401   0.260   4.175   4.113
 7501SOL    HW123402   0.264   4.093   4.055
 7501SOL    HW223403   0.197   4.241   4.072
 7502SOL     OW23404   2.053   1.398   5.016
 7502SOL    HW123405   1.986   1.472   5.001
 7502SOL    HW223406   2.145   1.435   5.010
 7503SOL     OW23407   2.564   2.126   6.830
 7503SOL    HW123408   2.591   2.207   6.883
 7503SOL    HW223409   2.570   2.147   6.733
 7504SOL     OW23410   4.133   6.156   3.087
 7504SOL    HW123411   4.107   6.158   2.990
 7504SOL    HW223412   4.233   6.160   3.094
 7505SOL     OW23413   1.781   2.288   5.231
 7505SOL    HW123414   1.828   2.353   5.172
 7505SOL    HW223415   1.808   2.304   5.326
 7506SOL     OW23416   3.600   1.402   2.855
 7506SOL    HW123417   3.671   1.454   2.902
 7506SOL    HW223418   3.536   1.364   2.922
 7507SOL     OW23419   1.313   6.082   5.912
 7507SOL    HW123420   1.312   6.151   5.984
 7507SOL    HW223421   1.248   6.009   5.933
 7508SOL     OW23422   5.362   0.249   3.357
 7508SOL    HW123423   5.423   0.268   3.435
 7508SOL    HW223424   5.330   0.154   3.363
 7509SOL     OW23425   4.600   4.067   5.923
 7509SOL    HW123426   4.593   4.043   5.827
 7509SOL    HW223427   4.621   4.164   5.932
 7510SOL     OW23428   3.643   4.197   4.897
 7510SOL    HW123429   3.619   4.289   4.926
 7510SOL    HW223430   3.563   4.153   4.856
 7511SOL     OW23431   0.731   0.856   1.960
 7511SOL    HW123432   0.775   0.943   1.940
 7511SOL    HW223433   0.689   0.859   2.050
 7512SOL     OW23434   1.905   3.012   1.693
 7512SOL    HW123435   1.959   2.928   1.703
 7512SOL    HW223436   1.811   2.988   1.667
 7513SOL     OW23437   1.229   2.429   6.919
 7513SOL    HW123438   1.270   2.494   6.983
 7513SOL    HW223439   1.276   2.434   6.831
 7514SOL     OW23440   2.435   5.797   2.901
 7514SOL    HW123441   2.466   5.744   2.979
 7514SOL    HW223442   2.478   5.887   2.902
 7515SOL     OW23443   6.345   5.453   2.207
 7515SOL    HW123444   6.393   5.509   2.139
 7515SOL    HW223445   6.252   5.437   2.176
 7516SOL     OW23446   0.335   1.037   3.747
 7516SOL    HW123447   0.281   0.972   3.800
 7516SOL    HW223448   0.421   0.995   3.718
 7517SOL     OW23449   0.579   3.654   1.575
 7517SOL    HW123450   0.580   3.701   1.486
 7517SOL    HW223451   0.540   3.715   1.644
 7518SOL     OW23452   4.941   5.338   3.712
 7518SOL    HW123453   4.854   5.314   3.669
 7518SOL    HW223454   4.997   5.388   3.646
 7519SOL     OW23455   2.461   5.921   3.792
 7519SOL    HW123456   2.384   5.983   3.774
 7519SOL    HW223457   2.544   5.976   3.807
 7520SOL     OW23458   1.784   6.469   3.898
 7520SOL    HW123459   1.698   6.464   3.949
 7520SOL    HW223460   1.770   6.522   3.815
 7521SOL     OW23461   4.668   4.187   5.559
 7521SOL    HW123462   4.634   4.277   5.589
 7521SOL    HW223463   4.603   4.116   5.588
 7522SOL     OW23464   2.180   0.925   1.200
 7522SOL    HW123465   2.259   0.977   1.233
 7522SOL    HW223466   2.129   0.889   1.278
 7523SOL     OW23467   5.499   0.359   6.701
 7523SOL    HW123468   5.452   0.294   6.761
 7523SOL    HW223469   5.552   0.308   6.633
 7524SOL     OW23470   0.168   1.217   5.039
 7524SOL    HW123471   0.265   1.231   5.018
 7524SOL    HW223472   0.128   1.157   4.970
 7525SOL     OW23473   1.271   0.271   0.630
 7525SOL    HW123474   1.174   0.264   0.657
 7525SOL    HW223475   1.287   0.359   0.586
 7526SOL     OW23476   3.349   2.904   4.839
 7526SOL    HW123477   3.420   2.912   4.909
 7526SOL    HW223478   3.388   2.863   4.757
 7527SOL     OW23479   5.436   4.856   3.524
 7527SOL    HW123480   5.499   4.902   3.587
 7527SOL    HW223481   5.350   4.836   3.570
 7528SOL     OW23482   6.077   3.329   6.623
 7528SOL    HW123483   6.144   3.269   6.579
 7528SOL    HW223484   5.985   3.293   6.609
 7529SOL     OW23485   2.969   1.311   6.260
 7529SOL    HW123486   2.930   1.401   6.242
 7529SOL    HW223487   2.908   1.240   6.224
 7530SOL     OW23488   0.700   3.816   2.358
 7530SOL    HW123489   0.752   3.875   2.297
 7530SOL    HW223490   0.608   3.854   2.370
 7531SOL     OW23491   4.073   2.175   3.300
 7531SOL    HW123492   3.974   2.173   3.316
 7531SOL    HW223493   4.099   2.097   3.243
 7532SOL     OW23494   5.372   5.597   2.275
 7532SOL    HW123495   5.274   5.579   2.269
 7532SOL    HW223496   5.389   5.668   2.344
 7533SOL     OW23497   3.699   1.094   4.408
 7533SOL    HW123498   3.627   1.116   4.473
 7533SOL    HW223499   3.736   1.178   4.368
 7534SOL     OW23500   4.935   6.077   4.580
 7534SOL    HW123501   4.986   6.157   4.611
 7534SOL    HW223502   4.864   6.106   4.516
 7535SOL     OW23503   3.156   3.010   6.014
 7535SOL    HW123504   3.248   2.979   6.037
 7535SOL    HW223505   3.156   3.052   5.923
 7536SOL     OW23506   4.681   6.345   3.962
 7536SOL    HW123507   4.697   6.441   3.987
 7536SOL    HW223508   4.760   6.290   3.989
 7537SOL     OW23509   1.516   4.787   5.598
 7537SOL    HW123510   1.535   4.700   5.643
 7537SOL    HW223511   1.593   4.812   5.540
 7538SOL     OW23512   2.895   3.327   2.408
 7538SOL    HW123513   2.810   3.287   2.374
 7538SOL    HW223514   2.918   3.288   2.497
 7539SOL     OW23515   2.130   3.136   4.680
 7539SOL    HW123516   2.042   3.169   4.712
 7539SOL    HW223517   2.183   3.101   4.758
 7540SOL     OW23518   2.202   1.718   0.150
 7540SOL    HW123519   2.274   1.716   0.081
 7540SOL    HW223520   2.201   1.632   0.201
 7541SOL     OW23521   6.653   2.568   5.649
 7541SOL    HW123522   6.710   2.614   5.717
 7541SOL    HW223523   6.662   2.469   5.658
 7542SOL     OW23524   1.358   6.489   5.908
 7542SOL    HW123525   1.280   6.511   5.850
 7542SOL    HW223526   1.394   6.399   5.884
 7543SOL     OW23527   3.904   2.838   0.070
 7543SOL    HW123528   3.963   2.874   7.019
 7543SOL    HW223529   3.906   2.738   0.068
 7544SOL     OW23530   2.027   2.295   2.640
 7544SOL    HW123531   2.100   2.336   2.585
 7544SOL    HW223532   2.061   2.276   2.732
 7545SOL     OW23533   5.426   6.405   4.144
 7545SOL    HW123534   5.520   6.403   4.112
 7545SOL    HW223535   5.415   6.481   4.209
 7546SOL     OW23536   4.507   0.833   6.937
 7546SOL    HW123537   4.473   0.755   6.991
 7546SOL    HW223538   4.437   0.904   6.935
 7547SOL     OW23539   3.237   0.300   0.375
 7547SOL    HW123540   3.150   0.251   0.387
 7547SOL    HW223541   3.276   0.278   0.286
 7548SOL     OW23542   1.874   1.952   1.369
 7548SOL    HW123543   1.830   1.893   1.437
 7548SOL    HW223544   1.818   2.034   1.354
 7549SOL     OW23545   5.419   2.309   2.522
 7549SOL    HW123546   5.447   2.391   2.570
 7549SOL    HW223547   5.426   2.230   2.583
 7550SOL     OW23548   1.673   5.628   2.195
 7550SOL    HW123549   1.596   5.590   2.144
 7550SOL    HW223550   1.678   5.583   2.285
 7551SOL     OW23551   5.090   3.263   6.568
 7551SOL    HW123552   5.100   3.215   6.655
 7551SOL    HW223553   5.020   3.334   6.577
 7552SOL     OW23554   3.193   5.170   3.925
 7552SOL    HW123555   3.262   5.241   3.916
 7552SOL    HW223556   3.235   5.088   3.964
 7553SOL     OW23557   4.012   5.476   6.105
 7553SOL    HW123558   4.016   5.495   6.204
 7553SOL    HW223559   3.960   5.392   6.090
 7554SOL     OW23560   6.516   1.041   0.628
 7554SOL    HW123561   6.581   1.080   0.693
 7554SOL    HW223562   6.565   0.985   0.561
 7555SOL     OW23563   0.964   6.103   5.679
 7555SOL    HW123564   1.047   6.140   5.637
 7555SOL    HW223565   0.959   6.004   5.664
 7556SOL     OW23566   0.870   2.865   5.024
 7556SOL    HW123567   0.823   2.953   5.018
 7556SOL    HW223568   0.948   2.864   4.963
 7557SOL     OW23569   4.541   4.004   0.348
 7557SOL    HW123570   4.627   3.971   0.387
 7557SOL    HW223571   4.548   4.103   0.331
 7558SOL     OW23572   1.531   3.179   3.306
 7558SOL    HW123573   1.494   3.119   3.377
 7558SOL    HW223574   1.566   3.124   3.230
 7559SOL     OW23575   0.423   4.189   0.795
 7559SOL    HW123576   0.355   4.221   0.861
 7559SOL    HW223577   0.447   4.094   0.816
 7560SOL     OW23578   5.157   6.710   0.280
 7560SOL    HW123579   5.087   6.715   0.208
 7560SOL    HW223580   5.247   6.705   0.239
 7561SOL     OW23581   0.286   3.206   0.904
 7561SOL    HW123582   0.289   3.259   0.820
 7561SOL    HW223583   0.196   3.162   0.913
 7562SOL     OW23584   5.532   6.100   4.720
 7562SOL    HW123585   5.572   6.146   4.800
 7562SOL    HW223586   5.603   6.047   4.673
 7563SOL     OW23587   2.633   0.814   2.407
 7563SOL    HW123588   2.652   0.718   2.387
 7563SOL    HW223589   2.630   0.866   2.322
 7564SOL     OW23590   5.223   6.745   3.555
 7564SOL    HW123591   5.208   6.669   3.619
 7564SOL    HW223592   5.146   6.749   3.491
 7565SOL     OW23593   4.935   4.573   0.740
 7565SOL    HW123594   4.988   4.555   0.823
 7565SOL    HW223595   4.947   4.498   0.676
 7566SOL     OW23596   1.427   5.794   4.143
 7566SOL    HW123597   1.423   5.705   4.098
 7566SOL    HW223598   1.521   5.828   4.143
 7567SOL     OW23599   2.816   4.485   0.354
 7567SOL    HW123600   2.893   4.509   0.295
 7567SOL    HW223601   2.734   4.472   0.298
 7568SOL     OW23602   4.456   5.015   3.370
 7568SOL    HW123603   4.472   4.937   3.430
 7568SOL    HW223604   4.543   5.058   3.346
 7569SOL     OW23605   4.027   6.921   0.812
 7569SOL    HW123606   4.011   7.005   0.863
 7569SOL    HW223607   4.008   6.842   0.871
 7570SOL     OW23608   6.197   5.390   3.771
 7570SOL    HW123609   6.140   5.457   3.820
 7570SOL    HW223610   6.293   5.418   3.775
 7571SOL     OW23611   5.443   4.429   2.285
 7571SOL    HW123612   5.507   4.459   2.357
 7571SOL    HW223613   5.489   4.432   2.197
 7572SOL     OW23614   2.648   1.233   4.726
 7572SOL    HW123615   2.744   1.259   4.718
 7572SOL    HW223616   2.640   1.160   4.794
 7573SOL     OW23617   2.333   5.729   4.244
 7573SOL    HW123618   2.321   5.824   4.273
 7573SOL    HW223619   2.293   5.717   4.154
 7574SOL     OW23620   4.958   6.089   2.887
 7574SOL    HW123621   4.944   6.141   2.972
 7574SOL    HW223622   5.053   6.061   2.880
 7575SOL     OW23623   3.463   1.978   5.091
 7575SOL    HW123624   3.465   2.029   5.177
 7575SOL    HW223625   3.556   1.954   5.064
 7576SOL     OW23626   6.628   2.696   0.599
 7576SOL    HW123627   6.594   2.622   0.657
 7576SOL    HW223628   6.609   2.784   0.644
 7577SOL     OW23629   6.048   0.398   5.040
 7577SOL    HW123630   6.116   0.347   4.987
 7577SOL    HW223631   5.980   0.437   4.978
 7578SOL     OW23632   2.267   4.838   4.319
 7578SOL    HW123633   2.349   4.886   4.286
 7578SOL    HW223634   2.249   4.866   4.413
 7579SOL     OW23635   3.935   1.940   2.689
 7579SOL    HW123636   3.934   2.040   2.699
 7579SOL    HW223637   3.914   1.915   2.595
 7580SOL     OW23638   1.905   3.816   2.235
 7580SOL    HW123639   1.927   3.772   2.148
 7580SOL    HW223640   1.812   3.791   2.262
 7581SOL     OW23641   6.073   0.743   1.013
 7581SOL    HW123642   6.144   0.807   1.043
 7581SOL    HW223643   6.034   0.697   1.092
 7582SOL     OW23644   3.041   0.901   1.044
 7582SOL    HW123645   3.132   0.874   1.012
 7582SOL    HW223646   2.973   0.874   0.976
 7583SOL     OW23647   6.019   3.513   2.730
 7583SOL    HW123648   6.041   3.429   2.779
 7583SOL    HW223649   6.025   3.590   2.793
 7584SOL     OW23650   2.645   0.291   1.695
 7584SOL    HW123651   2.579   0.241   1.638
 7584SOL    HW223652   2.736   0.283   1.655
 7585SOL     OW23653   1.808   5.004   6.002
 7585SOL    HW123654   1.851   4.960   5.923
 7585SOL    HW223655   1.728   5.056   5.972
 7586SOL     OW23656   2.800   0.935   2.591
 7586SOL    HW123657   2.734   0.878   2.541
 7586SOL    HW223658   2.809   1.023   2.545
 7587SOL     OW23659   0.608   1.435   5.757
 7587SOL    HW123660   0.643   1.386   5.677
 7587SOL    HW223661   0.575   1.369   5.825
 7588SOL     OW23662   0.332   4.375   2.278
 7588SOL    HW123663   0.233   4.383   2.290
 7588SOL    HW223664   0.372   4.467   2.272
 7589SOL     OW23665   5.942   5.718   0.801
 7589SOL    HW123666   6.022   5.675   0.842
 7589SOL    HW223667   5.957   5.817   0.794
 7590SOL     OW23668   1.997   0.725   6.323
 7590SOL    HW123669   1.983   0.656   6.394
 7590SOL    HW223670   1.941   0.806   6.343
 7591SOL     OW23671   6.681   4.508   0.351
 7591SOL    HW123672   6.734   4.540   0.430
 7591SOL    HW223673   6.584   4.529   0.365
 7592SOL     OW23674   5.509   5.816   6.886
 7592SOL    HW123675   5.463   5.747   6.941
 7592SOL    HW223676   5.601   5.785   6.863
 7593SOL     OW23677   5.932   2.383   6.592
 7593SOL    HW123678   6.008   2.421   6.540
 7593SOL    HW223679   5.847   2.394   6.540
 7594SOL     OW23680   1.085   6.218   3.775
 7594SOL    HW123681   1.041   6.153   3.712
 7594SOL    HW223682   1.145   6.168   3.837
 7595SOL     OW23683   6.704   2.661   0.093
 7595SOL    HW123684   6.699   2.704   0.003
 7595SOL    HW223685   6.739   2.728   0.160
 7596SOL     OW23686   5.515   4.039   2.125
 7596SOL    HW123687   5.587   4.087   2.074
 7596SOL    HW223688   5.505   3.946   2.090
 7597SOL     OW23689   3.658   5.267   1.652
 7597SOL    HW123690   3.664   5.343   1.587
 7597SOL    HW223691   3.567   5.227   1.648
 7598SOL     OW23692   6.991   1.062   3.745
 7598SOL    HW123693   0.040   1.059   3.816
 7598SOL    HW223694   0.013   1.049   3.655
 7599SOL     OW23695   6.505   1.783   2.658
 7599SOL    HW123696   6.423   1.817   2.703
 7599SOL    HW223697   6.480   1.712   2.592
 7600SOL     OW23698   1.930   1.356   1.578
 7600SOL    HW123699   1.936   1.361   1.478
 7600SOL    HW223700   1.854   1.298   1.604
 7601SOL     OW23701   2.057   6.515   4.571
 7601SOL    HW123702   2.153   6.503   4.593
 7601SOL    HW223703   2.047   6.593   4.509
 7602SOL     OW23704   0.609   4.135   4.340
 7602SOL    HW123705   0.580   4.045   4.373
 7602SOL    HW223706   0.598   4.203   4.413
 7603SOL     OW23707   0.987   6.492   1.199
 7603SOL    HW123708   1.010   6.411   1.253
 7603SOL    HW223709   1.003   6.474   1.102
 7604SOL     OW23710   4.796   5.883   5.415
 7604SOL    HW123711   4.820   5.801   5.362
 7604SOL    HW223712   4.871   5.949   5.408
 7605SOL     OW23713   6.728   4.266   6.911
 7605SOL    HW123714   6.710   4.321   6.993
 7605SOL    HW223715   6.791   4.192   6.934
 7606SOL     OW23716   5.735   2.129   2.595
 7606SOL    HW123717   5.766   2.042   2.559
 7606SOL    HW223718   5.787   2.203   2.552
 7607SOL     OW23719   4.543   0.076   6.981
 7607SOL    HW123720   4.443   0.071   6.970
 7607SOL    HW223721   4.587   0.026   6.907
 7608SOL     OW23722   3.572   3.353   3.630
 7608SOL    HW123723   3.503   3.309   3.572
 7608SOL    HW223724   3.526   3.398   3.707
 7609SOL     OW23725   1.400   3.293   3.874
 7609SOL    HW123726   1.413   3.270   3.970
 7609SOL    HW223727   1.472   3.356   3.845
 7610SOL     OW23728   5.618   0.287   0.959
 7610SOL    HW123729   5.596   0.348   0.882
 7610SOL    HW223730   5.560   0.206   0.955
 7611SOL     OW23731   1.360   2.358   0.373
 7611SOL    HW123732   1.456   2.378   0.350
 7611SOL    HW223733   1.320   2.303   0.300
 7612SOL     OW23734   3.608   2.120   3.123
 7612SOL    HW123735   3.629   2.022   3.125
 7612SOL    HW223736   3.560   2.142   3.039
 7613SOL     OW23737   4.964   1.136   1.815
 7613SOL    HW123738   5.011   1.161   1.731
 7613SOL    HW223739   5.025   1.081   1.873
 7614SOL     OW23740   4.258   2.202   0.742
 7614SOL    HW123741   4.276   2.108   0.715
 7614SOL    HW223742   4.195   2.204   0.820
 7615SOL     OW23743   3.841   4.808   6.192
 7615SOL    HW123744   3.746   4.781   6.175
 7615SOL    HW223745   3.884   4.831   6.105
 7616SOL     OW23746   6.456   3.284   3.447
 7616SOL    HW123747   6.374   3.277   3.505
 7616SOL    HW223748   6.475   3.380   3.430
 7617SOL     OW23749   3.387   4.865   3.026
 7617SOL    HW123750   3.292   4.851   2.998
 7617SOL    HW223751   3.447   4.863   2.946
 7618SOL     OW23752   2.030   2.881   6.430
 7618SOL    HW123753   2.018   2.786   6.401
 7618SOL    HW223754   2.007   2.943   6.355
 7619SOL     OW23755   5.643   3.778   5.533
 7619SOL    HW123756   5.676   3.871   5.547
 7619SOL    HW223757   5.705   3.713   5.577
 7620SOL     OW23758   3.367   6.583   1.772
 7620SOL    HW123759   3.377   6.490   1.807
 7620SOL    HW223760   3.322   6.641   1.840
 7621SOL     OW23761   2.052   0.794   1.451
 7621SOL    HW123762   2.075   0.796   1.548
 7621SOL    HW223763   2.028   0.701   1.424
 7622SOL     OW23764   3.932   2.477   0.371
 7622SOL    HW123765   3.970   2.387   0.348
 7622SOL    HW223766   4.002   2.532   0.416
 7623SOL     OW23767   4.713   0.755   5.669
 7623SOL    HW123768   4.657   0.722   5.594
 7623SOL    HW223769   4.729   0.853   5.660
 7624SOL     OW23770   0.462   0.697   3.664
 7624SOL    HW123771   0.498   0.703   3.571
 7624SOL    HW223772   0.519   0.751   3.725
 7625SOL     OW23773   4.857   0.768   1.245
 7625SOL    HW123774   4.933   0.726   1.294
 7625SOL    HW223775   4.794   0.809   1.311
 7626SOL     OW23776   1.787   6.123   4.778
 7626SOL    HW123777   1.819   6.033   4.749
 7626SOL    HW223778   1.865   6.182   4.796
 7627SOL     OW23779   6.641   2.276   1.036
 7627SOL    HW123780   6.685   2.333   1.105
 7627SOL    HW223781   6.609   2.191   1.079
 7628SOL     OW23782   3.187   1.728   0.808
 7628SOL    HW123783   3.103   1.707   0.859
 7628SOL    HW223784   3.260   1.667   0.838
 7629SOL     OW23785   0.331   5.648   3.237
 7629SOL    HW123786   0.359   5.656   3.141
 7629SOL    HW223787   0.291   5.558   3.252
 7630SOL     OW23788   6.050   0.697   2.683
 7630SOL    HW123789   6.058   0.670   2.779
 7630SOL    HW223790   6.140   0.725   2.649
 7631SOL     OW23791   0.321   2.310   3.428
 7631SOL    HW123792   0.374   2.350   3.353
 7631SOL    HW223793   0.312   2.377   3.501
 7632SOL     OW23794   4.798   1.777   0.272
 7632SOL    HW123795   4.745   1.721   0.209
 7632SOL    HW223796   4.834   1.857   0.224
 7633SOL     OW23797   5.334   3.794   6.844
 7633SOL    HW123798   5.344   3.894   6.843
 7633SOL    HW223799   5.375   3.758   6.928
 7634SOL     OW23800   1.709   1.191   2.012
 7634SOL    HW123801   1.739   1.273   1.964
 7634SOL    HW223802   1.783   1.159   2.072
 7635SOL     OW23803   2.954   4.495   5.853
 7635SOL    HW123804   2.996   4.447   5.930
 7635SOL    HW223805   3.026   4.523   5.789
 7636SOL     OW23806   0.987   0.036   4.350
 7636SOL    HW123807   0.972   0.022   4.252
 7636SOL    HW223808   0.904   0.013   4.400
 7637SOL     OW23809   2.041   5.917   4.279
 7637SOL    HW123810   1.982   5.998   4.277
 7637SOL    HW223811   2.136   5.945   4.288
 7638SOL     OW23812   5.045   4.758   1.801
 7638SOL    HW123813   4.995   4.828   1.750
 7638SOL    HW223814   5.133   4.795   1.830
 7639SOL     OW23815   0.525   1.894   5.180
 7639SOL    HW123816   0.512   1.865   5.274
 7639SOL    HW223817   0.605   1.954   5.175
 7640SOL     OW23818   2.556   2.068   0.302
 7640SOL    HW123819   2.596   2.073   0.394
 7640SOL    HW223820   2.625   2.036   0.238
 7641SOL     OW23821   5.870   3.876   2.168
 7641SOL    HW123822   5.846   3.951   2.107
 7641SOL    HW223823   5.967   3.854   2.158
 7642SOL     OW23824   2.559   2.094   2.590
 7642SOL    HW123825   2.657   2.083   2.606
 7642SOL    HW223826   2.540   2.083   2.492
 7643SOL     OW23827   4.954   3.018   3.614
 7643SOL    HW123828   4.890   2.956   3.569
 7643SOL    HW223829   5.032   3.035   3.554
 7644SOL     OW23830   6.873   3.090   2.592
 7644SOL    HW123831   6.789   3.130   2.631
 7644SOL    HW223832   6.929   3.053   2.666
 7645SOL     OW23833   4.219   4.212   0.184
 7645SOL    HW123834   4.296   4.205   0.247
 7645SOL    HW223835   4.227   4.298   0.132
 7646SOL     OW23836   2.344   2.227   1.688
 7646SOL    HW123837   2.427   2.172   1.682
 7646SOL    HW223838   2.264   2.167   1.688
 7647SOL     OW23839   2.648   4.112   1.694
 7647SOL    HW123840   2.592   4.087   1.773
 7647SOL    HW223841   2.736   4.066   1.700
 7648SOL     OW23842   4.132   1.022   3.986
 7648SOL    HW123843   4.174   0.931   3.992
 7648SOL    HW223844   4.055   1.019   3.923
 7649SOL     OW23845   2.760   0.651   1.781
 7649SOL    HW123846   2.754   0.586   1.856
 7649SOL    HW223847   2.852   0.689   1.776
 7650SOL     OW23848   6.516   4.397   1.828
 7650SOL    HW123849   6.516   4.427   1.923
 7650SOL    HW223850   6.426   4.413   1.788
 7651SOL     OW23851   3.567   1.042   6.183
 7651SOL    HW123852   3.598   1.102   6.256
 7651SOL    HW223853   3.588   0.947   6.206
 7652SOL     OW23854   0.755   3.528   2.321
 7652SOL    HW123855   0.688   3.561   2.388
 7652SOL    HW223856   0.793   3.440   2.352
 7653SOL     OW23857   2.477   1.989   1.633
 7653SOL    HW123858   2.556   2.047   1.655
 7653SOL    HW223859   2.491   1.947   1.544
 7654SOL     OW23860   4.950   3.761   3.517
 7654SOL    HW123861   4.970   3.697   3.591
 7654SOL    HW223862   4.907   3.843   3.554
 7655SOL     OW23863   3.964   6.509   5.209
 7655SOL    HW123864   3.990   6.430   5.153
 7655SOL    HW223865   3.965   6.591   5.153
 7656SOL     OW23866   0.271   6.412   5.653
 7656SOL    HW123867   0.358   6.443   5.690
 7656SOL    HW223868   0.286   6.331   5.597
 7657SOL     OW23869   3.389   1.483   4.095
 7657SOL    HW123870   3.473   1.521   4.059
 7657SOL    HW223871   3.330   1.454   4.020
 7658SOL     OW23872   3.829   0.653   5.564
 7658SOL    HW123873   3.860   0.741   5.529
 7658SOL    HW223874   3.792   0.599   5.489
 7659SOL     OW23875   5.973   6.675   0.786
 7659SOL    HW123876   6.012   6.668   0.694
 7659SOL    HW223877   5.876   6.652   0.783
 7660SOL     OW23878   5.864   5.326   3.726
 7660SOL    HW123879   5.772   5.298   3.698
 7660SOL    HW223880   5.866   5.425   3.738
 7661SOL     OW23881   6.360   2.968   3.693
 7661SOL    HW123882   6.333   3.058   3.729
 7661SOL    HW223883   6.282   2.927   3.645
 7662SOL     OW23884   0.435   5.106   2.018
 7662SOL    HW123885   0.479   5.196   2.014
 7662SOL    HW223886   0.431   5.067   1.926
 7663SOL     OW23887   0.104   4.960   6.288
 7663SOL    HW123888   0.079   5.041   6.341
 7663SOL    HW223889   0.067   4.968   6.195
 7664SOL     OW23890   2.585   5.351   3.511
 7664SOL    HW123891   2.571   5.254   3.495
 7664SOL    HW223892   2.626   5.393   3.429
 7665SOL     OW23893   3.077   6.782   4.982
 7665SOL    HW123894   3.077   6.729   4.896
 7665SOL    HW223895   3.057   6.878   4.962
 7666SOL     OW23896   1.386   0.702   1.178
 7666SOL    HW123897   1.307   0.749   1.139
 7666SOL    HW223898   1.392   0.610   1.140
 7667SOL     OW23899   4.024   6.503   6.744
 7667SOL    HW123900   4.072   6.591   6.744
 7667SOL    HW223901   3.947   6.507   6.808
 7668SOL     OW23902   3.441   3.957   1.456
 7668SOL    HW123903   3.499   4.038   1.453
 7668SOL    HW223904   3.498   3.875   1.446
 7669SOL     OW23905   4.985   0.084   4.404
 7669SOL    HW123906   4.949   7.019   4.370
 7669SOL    HW223907   4.927   0.159   4.372
 7670SOL     OW23908   1.411   5.484   0.652
 7670SOL    HW123909   1.324   5.532   0.655
 7670SOL    HW223910   1.395   5.388   0.629
 7671SOL     OW23911   6.295   2.971   4.393
 7671SOL    HW123912   6.218   2.962   4.456
 7671SOL    HW223913   6.342   2.883   4.384
 7672SOL     OW23914   5.612   0.613   3.165
 7672SOL    HW123915   5.640   0.534   3.218
 7672SOL    HW223916   5.513   0.609   3.149
 7673SOL     OW23917   0.876   4.503   1.061
 7673SOL    HW123918   0.826   4.423   1.094
 7673SOL    HW223919   0.934   4.477   0.984
 7674SOL     OW23920   6.251   1.462   5.091
 7674SOL    HW123921   6.318   1.484   5.020
 7674SOL    HW223922   6.159   1.467   5.052
 7675SOL     OW23923   4.424   6.439   3.003
 7675SOL    HW123924   4.511   6.424   3.051
 7675SOL    HW223925   4.372   6.510   3.051
 7676SOL     OW23926   1.545   0.920   0.586
 7676SOL    HW123927   1.469   0.979   0.558
 7676SOL    HW223928   1.550   0.919   0.686
 7677SOL     OW23929   1.298   3.101   2.490
 7677SOL    HW123930   1.324   3.102   2.393
 7677SOL    HW223931   1.354   3.166   2.540
 7678SOL     OW23932   6.449   6.638   0.717
 7678SOL    HW123933   6.533   6.680   0.752
 7678SOL    HW223934   6.460   6.539   0.715
 7679SOL     OW23935   0.932   5.208   5.324
 7679SOL    HW123936   0.999   5.218   5.250
 7679SOL    HW223937   0.905   5.112   5.331
 7680SOL     OW23938   3.490   3.030   0.337
 7680SOL    HW123939   3.449   3.111   0.379
 7680SOL    HW223940   3.418   2.974   0.295
 7681SOL     OW23941   2.661   1.754   0.057
 7681SOL    HW123942   2.647   1.851   0.077
 7681SOL    HW223943   2.759   1.736   0.050
 7682SOL     OW23944   2.715   0.202   2.392
 7682SOL    HW123945   2.621   0.232   2.371
 7682SOL    HW223946   2.765   0.189   2.307
 7683SOL     OW23947   4.857   2.096   3.430
 7683SOL    HW123948   4.904   2.014   3.462
 7683SOL    HW223949   4.774   2.070   3.381
 7684SOL     OW23950   4.071   2.232   6.036
 7684SOL    HW123951   3.977   2.232   6.070
 7684SOL    HW223952   4.080   2.297   5.961
 7685SOL     OW23953   3.307   2.776   0.601
 7685SOL    HW123954   3.281   2.703   0.539
 7685SOL    HW223955   3.257   2.859   0.577
 7686SOL     OW23956   4.455   6.156   3.949
 7686SOL    HW123957   4.531   6.219   3.934
 7686SOL    HW223958   4.377   6.206   3.986
 7687SOL     OW23959   5.259   5.192   5.668
 7687SOL    HW123960   5.357   5.206   5.653
 7687SOL    HW223961   5.212   5.280   5.659
 7688SOL     OW23962   0.434   6.241   4.681
 7688SOL    HW123963   0.483   6.158   4.705
 7688SOL    HW223964   0.498   6.310   4.648
 7689SOL     OW23965   4.522   6.442   5.044
 7689SOL    HW123966   4.596   6.492   4.999
 7689SOL    HW223967   4.555   6.352   5.071
 7690SOL     OW23968   6.582   4.682   3.625
 7690SOL    HW123969   6.575   4.772   3.666
 7690SOL    HW223970   6.676   4.666   3.596
 7691SOL     OW23971   5.333   3.039   4.584
 7691SOL    HW123972   5.268   2.982   4.533
 7691SOL    HW223973   5.285   3.119   4.620
 7692SOL     OW23974   1.766   6.757   2.082
 7692SOL    HW123975   1.738   6.702   2.003
 7692SOL    HW223976   1.686   6.784   2.135
 7693SOL     OW23977   4.504   1.374   6.373
 7693SOL    HW123978   4.569   1.405   6.303
 7693SOL    HW223979   4.552   1.360   6.460
 7694SOL     OW23980   0.107   5.513   4.615
 7694SOL    HW123981   0.072   5.534   4.524
 7694SOL    HW223982   0.104   5.414   4.630
 7695SOL     OW23983   4.069   6.832   1.186
 7695SOL    HW123984   4.022   6.861   1.269
 7695SOL    HW223985   4.150   6.889   1.173
 7696SOL     OW23986   0.043   3.043   5.695
 7696SOL    HW123987   6.983   2.994   5.728
 7696SOL    HW223988   0.125   3.000   5.732
 7697SOL     OW23989   2.976   1.379   2.722
 7697SOL    HW123990   3.033   1.305   2.687
 7697SOL    HW223991   2.905   1.400   2.655
 7698SOL     OW23992   6.724   2.481   5.900
 7698SOL    HW123993   6.726   2.423   5.981
 7698SOL    HW223994   6.658   2.556   5.914
 7699SOL     OW23995   2.548   5.213   6.585
 7699SOL    HW123996   2.598   5.215   6.672
 7699SOL    HW223997   2.457   5.174   6.599
 7700SOL     OW23998   5.024   6.551   4.827
 7700SOL    HW123999   4.967   6.624   4.866
 7700SOL    HW224000   5.049   6.575   4.733
 7701SOL     OW24001   6.975   2.073   4.499
 7701SOL    HW124002   0.046   2.044   4.524
 7701SOL    HW224003   6.976   2.171   4.476
 7702SOL     OW24004   3.324   6.162   5.705
 7702SOL    HW124005   3.245   6.131   5.652
 7702SOL    HW224006   3.408   6.142   5.655
 7703SOL     OW24007   0.836   0.924   5.794
 7703SOL    HW124008   0.813   0.935   5.697
 7703SOL    HW224009   0.752   0.912   5.847
 7704SOL     OW24010   4.168   4.713   0.010
 7704SOL    HW124011   4.132   4.645   0.074
 7704SOL    HW224012   4.255   4.680   6.994
 7705SOL     OW24013   3.429   5.139   5.260
 7705SOL    HW124014   3.385   5.223   5.225
 7705SOL    HW224015   3.448   5.150   5.357
 7706SOL     OW24016   6.843   1.052   5.495
 7706SOL    HW124017   6.915   1.061   5.425
 7706SOL    HW224018   6.764   1.006   5.456
 7707SOL     OW24019   6.950   5.296   6.090
 7707SOL    HW124020   6.939   5.387   6.130
 7707SOL    HW224021   6.889   5.231   6.137
 7708SOL     OW24022   4.542   0.046   4.736
 7708SOL    HW124023   4.476   0.081   4.669
 7708SOL    HW224024   4.634   0.049   4.698
 7709SOL     OW24025   4.096   2.066   2.182
 7709SOL    HW124026   4.020   2.079   2.118
 7709SOL    HW224027   4.149   2.151   2.188
 7710SOL     OW24028   2.210   0.902   0.358
 7710SOL    HW124029   2.143   0.927   0.289
 7710SOL    HW224030   2.211   0.802   0.369
 7711SOL     OW24031   5.278   6.681   5.463
 7711SOL    HW124032   5.341   6.651   5.391
 7711SOL    HW224033   5.233   6.601   5.503
 7712SOL     OW24034   5.860   5.437   1.286
 7712SOL    HW124035   5.941   5.485   1.251
 7712SOL    HW224036   5.888   5.354   1.333
 7713SOL     OW24037   1.555   4.244   6.346
 7713SOL    HW124038   1.458   4.267   6.354
 7713SOL    HW224039   1.566   4.145   6.347
 7714SOL     OW24040   6.015   4.266   4.018
 7714SOL    HW124041   6.002   4.363   4.039
 7714SOL    HW224042   6.057   4.220   4.096
 7715SOL     OW24043   5.068   0.191   1.416
 7715SOL    HW124044   5.112   0.103   1.436
 7715SOL    HW224045   5.004   0.179   1.340
 7716SOL     OW24046   4.278   2.007   3.732
 7716SOL    HW124047   4.267   2.055   3.645
 7716SOL    HW224048   4.338   2.061   3.792
 7717SOL     OW24049   2.774   1.259   5.689
 7717SOL    HW124050   2.733   1.247   5.599
 7717SOL    HW224051   2.785   1.357   5.708
 7718SOL     OW24052   3.165   6.756   3.783
 7718SOL    HW124053   3.167   6.780   3.686
 7718SOL    HW224054   3.070   6.749   3.814
 7719SOL     OW24055   6.646   2.189   4.336
 7719SOL    HW124056   6.706   2.189   4.256
 7719SOL    HW224057   6.665   2.108   4.392
 7720SOL     OW24058   5.860   5.796   1.940
 7720SOL    HW124059   5.860   5.873   1.876
 7720SOL    HW224060   5.803   5.722   1.903
 7721SOL     OW24061   1.987   4.489   2.429
 7721SOL    HW124062   2.055   4.486   2.502
 7721SOL    HW224063   1.933   4.574   2.438
 7722SOL     OW24064   6.743   5.211   3.788
 7722SOL    HW124065   6.794   5.144   3.734
 7722SOL    HW224066   6.646   5.186   3.790
 7723SOL     OW24067   6.654   3.209   0.844
 7723SOL    HW124068   6.605   3.206   0.758
 7723SOL    HW224069   6.698   3.298   0.855
 7724SOL     OW24070   1.354   4.301   1.360
 7724SOL    HW124071   1.311   4.323   1.272
 7724SOL    HW224072   1.349   4.381   1.420
 7725SOL     OW24073   5.471   3.239   4.105
 7725SOL    HW124074   5.396   3.276   4.050
 7725SOL    HW224075   5.435   3.206   4.192
 7726SOL     OW24076   0.241   4.640   2.677
 7726SOL    HW124077   0.249   4.717   2.741
 7726SOL    HW224078   0.181   4.570   2.716
 7727SOL     OW24079   6.485   2.169   2.576
 7727SOL    HW124080   6.404   2.113   2.555
 7727SOL    HW224081   6.493   2.242   2.508
 7728SOL     OW24082   1.966   2.750   3.204
 7728SOL    HW124083   1.998   2.662   3.237
 7728SOL    HW224084   2.038   2.819   3.219
 7729SOL     OW24085   4.836   2.463   0.746
 7729SOL    HW124086   4.908   2.409   0.703
 7729SOL    HW224087   4.857   2.561   0.736
 7730SOL     OW24088   5.298   0.724   3.018
 7730SOL    HW124089   5.256   0.634   3.005
 7730SOL    HW224090   5.260   0.788   2.950
 7731SOL     OW24091   6.133   1.350   6.850
 7731SOL    HW124092   6.227   1.342   6.883
 7731SOL    HW224093   6.072   1.296   6.907
 7732SOL     OW24094   3.981   5.801   0.915
 7732SOL    HW124095   3.981   5.845   0.826
 7732SOL    HW224096   4.070   5.812   0.958
 7733SOL     OW24097   3.504   0.168   2.233
 7733SOL    HW124098   3.576   0.232   2.259
 7733SOL    HW224099   3.487   0.104   2.308
 7734SOL     OW24100   1.818   2.341   2.977
 7734SOL    HW124101   1.791   2.315   2.884
 7734SOL    HW224102   1.876   2.422   2.972
 7735SOL     OW24103   5.011   4.369   0.091
 7735SOL    HW124104   5.070   4.438   0.133
 7735SOL    HW224105   5.030   4.364   7.015
 7736SOL     OW24106   6.082   4.465   0.060
 7736SOL    HW124107   5.982   4.458   0.062
 7736SOL    HW224108   6.109   4.557   0.090
 7737SOL     OW24109   4.518   1.390   0.395
 7737SOL    HW124110   4.606   1.360   0.430
 7737SOL    HW224111   4.452   1.396   0.470
 7738SOL     OW24112   3.053   5.295   0.108
 7738SOL    HW124113   3.073   5.282   0.011
 7738SOL    HW224114   3.100   5.378   0.140
 7739SOL     OW24115   6.098   1.973   1.162
 7739SOL    HW124116   6.175   1.917   1.192
 7739SOL    HW224117   6.107   1.993   1.064
 7740SOL     OW24118   0.383   0.093   3.109
 7740SOL    HW124119   0.343   0.161   3.171
 7740SOL    HW224120   0.435   0.026   3.163
 7741SOL     OW24121   2.128   5.744   4.496
 7741SOL    HW124122   2.210   5.795   4.521
 7741SOL    HW224123   2.071   5.801   4.436
 7742SOL     OW24124   6.694   1.805   3.777
 7742SOL    HW124125   6.778   1.807   3.722
 7742SOL    HW224126   6.665   1.711   3.791
 7743SOL     OW24127   4.490   2.467   4.432
 7743SOL    HW124128   4.455   2.383   4.476
 7743SOL    HW224129   4.475   2.461   4.333
 7744SOL     OW24130   6.570   0.272   4.210
 7744SOL    HW124131   6.558   0.180   4.250
 7744SOL    HW224132   6.561   0.341   4.282
 7745SOL     OW24133   4.157   3.247   6.172
 7745SOL    HW124134   4.067   3.216   6.203
 7745SOL    HW224135   4.153   3.344   6.148
 7746SOL     OW24136   1.234   0.984   0.507
 7746SOL    HW124137   1.194   1.065   0.549
 7746SOL    HW224138   1.290   1.010   0.429
 7747SOL     OW24139   5.063   6.213   0.975
 7747SOL    HW124140   5.033   6.299   1.016
 7747SOL    HW224141   5.064   6.141   1.044
 7748SOL     OW24142   2.926   4.304   6.645
 7748SOL    HW124143   2.990   4.227   6.643
 7748SOL    HW224144   2.843   4.279   6.595
 7749SOL     OW24145   5.380   2.790   5.682
 7749SOL    HW124146   5.341   2.843   5.607
 7749SOL    HW224147   5.405   2.850   5.757
 7750SOL     OW24148   7.009   5.435   2.531
 7750SOL    HW124149   6.912   5.462   2.528
 7750SOL    HW224150   0.043   5.507   2.490
 7751SOL     OW24151   0.737   2.780   2.155
 7751SOL    HW124152   0.680   2.820   2.227
 7751SOL    HW224153   0.782   2.852   2.103
 7752SOL     OW24154   4.385   1.948   4.114
 7752SOL    HW124155   4.295   1.955   4.157
 7752SOL    HW224156   4.396   2.023   4.048
 7753SOL     OW24157   2.996   1.574   4.790
 7753SOL    HW124158   3.014   1.639   4.864
 7753SOL    HW224159   3.081   1.530   4.763
 7754SOL     OW24160   4.609   6.248   1.807
 7754SOL    HW124161   4.525   6.260   1.860
 7754SOL    HW224162   4.634   6.334   1.762
 7755SOL     OW24163   0.242   4.568   6.045
 7755SOL    HW124164   0.254   4.652   6.098
 7755SOL    HW224165   0.239   4.591   5.948
 7756SOL     OW24166   2.710   5.646   1.714
 7756SOL    HW124167   2.674   5.697   1.636
 7756SOL    HW224168   2.636   5.596   1.758
 7757SOL     OW24169   6.965   4.114   2.400
 7757SOL    HW124170   6.953   4.070   2.311
 7757SOL    HW224171   0.040   4.110   2.426
 7758SOL     OW24172   1.386   1.516   4.752
 7758SOL    HW124173   1.450   1.554   4.819
 7758SOL    HW224174   1.418   1.426   4.723
 7759SOL     OW24175   2.685   2.586   6.870
 7759SOL    HW124176   2.724   2.585   6.778
 7759SOL    HW224177   2.754   2.617   6.935
 7760SOL     OW24178   3.952   2.575   0.112
 7760SOL    HW124179   3.931   2.536   0.202
 7760SOL    HW224180   3.924   2.510   0.040
 7761SOL     OW24181   4.841   5.342   4.010
 7761SOL    HW124182   4.926   5.353   4.061
 7761SOL    HW224183   4.858   5.356   3.913
 7762SOL     OW24184   6.046   1.878   2.939
 7762SOL    HW124185   6.138   1.886   2.901
 7762SOL    HW224186   6.030   1.953   3.003
 7763SOL     OW24187   2.519   6.964   4.266
 7763SOL    HW124188   2.514   6.980   4.365
 7763SOL    HW224189   2.592   6.899   4.247
 7764SOL     OW24190   2.569   3.805   5.562
 7764SOL    HW124191   2.585   3.778   5.467
 7764SOL    HW224192   2.491   3.867   5.566
 7765SOL     OW24193   6.607   3.185   5.642
 7765SOL    HW124194   6.529   3.239   5.676
 7765SOL    HW224195   6.692   3.228   5.671
 7766SOL     OW24196   5.819   3.939   6.237
 7766SOL    HW124197   5.812   4.036   6.213
 7766SOL    HW224198   5.910   3.921   6.274
 7767SOL     OW24199   3.568   0.572   4.014
 7767SOL    HW124200   3.517   0.488   4.034
 7767SOL    HW224201   3.648   0.578   4.075
 7768SOL     OW24202   4.128   4.791   3.208
 7768SOL    HW124203   4.192   4.725   3.168
 7768SOL    HW224204   4.160   4.884   3.192
 7769SOL     OW24205   3.683   3.047   5.343
 7769SOL    HW124206   3.588   3.056   5.372
 7769SOL    HW224207   3.727   2.974   5.395
 7770SOL     OW24208   2.171   3.337   4.495
 7770SOL    HW124209   2.195   3.416   4.552
 7770SOL    HW224210   2.125   3.268   4.551
 7771SOL     OW24211   2.551   2.791   6.201
 7771SOL    HW124212   2.612   2.819   6.275
 7771SOL    HW224213   2.459   2.775   6.237
 7772SOL     OW24214   4.971   6.405   1.460
 7772SOL    HW124215   4.967   6.353   1.545
 7772SOL    HW224216   4.963   6.503   1.480
 7773SOL     OW24217   3.046   6.301   6.888
 7773SOL    HW124218   2.998   6.345   6.811
 7773SOL    HW224219   3.144   6.296   6.867
 7774SOL     OW24220   4.480   1.328   2.307
 7774SOL    HW124221   4.406   1.351   2.370
 7774SOL    HW224222   4.568   1.357   2.346
 7775SOL     OW24223   2.564   1.332   0.215
 7775SOL    HW124224   2.483   1.277   0.235
 7775SOL    HW224225   2.540   1.410   0.159
 7776SOL     OW24226   1.432   1.252   4.706
 7776SOL    HW124227   1.417   1.224   4.612
 7776SOL    HW224228   1.497   1.189   4.750
 7777SOL     OW24229   6.378   5.155   3.755
 7777SOL    HW124230   6.280   5.163   3.775
 7777SOL    HW224231   6.422   5.243   3.772
 7778SOL     OW24232   6.849   4.871   2.958
 7778SOL    HW124233   6.796   4.866   2.873
 7778SOL    HW224234   6.939   4.909   2.939
 7779SOL     OW24235   4.298   5.997   2.721
 7779SOL    HW124236   4.204   6.032   2.721
 7779SOL    HW224237   4.324   5.971   2.628
 7780SOL     OW24238   6.132   6.372   4.649
 7780SOL    HW124239   6.080   6.338   4.571
 7780SOL    HW224240   6.094   6.460   4.678
 7781SOL     OW24241   1.292   2.802   1.082
 7781SOL    HW124242   1.232   2.729   1.115
 7781SOL    HW224243   1.255   2.891   1.108
 7782SOL     OW24244   5.675   2.865   4.416
 7782SOL    HW124245   5.760   2.874   4.365
 7782SOL    HW224246   5.599   2.849   4.352
 7783SOL     OW24247   1.507   6.535   5.131
 7783SOL    HW124248   1.529   6.598   5.206
 7783SOL    HW224249   1.562   6.559   5.051
 7784SOL     OW24250   2.087   2.180   1.809
 7784SOL    HW124251   2.113   2.126   1.889
 7784SOL    HW224252   1.994   2.154   1.780
 7785SOL     OW24253   0.339   6.967   2.871
 7785SOL    HW124254   0.363   0.017   2.936
 7785SOL    HW224255   0.373   6.879   2.905
 7786SOL     OW24256   3.922   1.278   5.597
 7786SOL    HW124257   3.883   1.369   5.610
 7786SOL    HW224258   3.854   1.217   5.557
 7787SOL     OW24259   2.271   2.619   1.632
 7787SOL    HW124260   2.185   2.574   1.656
 7787SOL    HW224261   2.346   2.554   1.639
 7788SOL     OW24262   6.784   4.740   1.323
 7788SOL    HW124263   6.867   4.768   1.275
 7788SOL    HW224264   6.706   4.747   1.260
 7789SOL     OW24265   2.872   1.516   5.747
 7789SOL    HW124266   2.886   1.568   5.831
 7789SOL    HW224267   2.833   1.576   5.677
 7790SOL     OW24268   4.398   4.590   1.978
 7790SOL    HW124269   4.398   4.490   1.978
 7790SOL    HW224270   4.492   4.623   1.970
 7791SOL     OW24271   2.671   4.951   2.051
 7791SOL    HW124272   2.718   4.881   2.106
 7791SOL    HW224273   2.700   5.042   2.081
 7792SOL     OW24274   0.643   1.807   2.578
 7792SOL    HW124275   0.558   1.848   2.610
 7792SOL    HW224276   0.710   1.804   2.653
 7793SOL     OW24277   4.542   0.785   6.370
 7793SOL    HW124278   4.611   0.784   6.443
 7793SOL    HW224279   4.495   0.873   6.371
 7794SOL     OW24280   0.537   6.909   3.269
 7794SOL    HW124281   0.555   6.853   3.189
 7794SOL    HW224282   0.467   6.867   3.326
 7795SOL     OW24283   3.012   5.647   0.229
 7795SOL    HW124284   3.000   5.612   0.322
 7795SOL    HW224285   3.102   5.620   0.195
 7796SOL     OW24286   3.651   3.708   0.132
 7796SOL    HW124287   3.592   3.680   0.056
 7796SOL    HW224288   3.745   3.675   0.115
 7797SOL     OW24289   0.623   5.989   2.993
 7797SOL    HW124290   0.525   5.998   2.976
 7797SOL    HW224291   0.669   5.954   2.912
 7798SOL     OW24292   1.062   3.397   0.946
 7798SOL    HW124293   1.094   3.310   0.910
 7798SOL    HW224294   1.113   3.420   1.029
 7799SOL     OW24295   2.389   5.579   3.376
 7799SOL    HW124296   2.421   5.565   3.470
 7799SOL    HW224297   2.300   5.535   3.364
 7800SOL     OW24298   0.828   6.162   2.377
 7800SOL    HW124299   0.841   6.124   2.469
 7800SOL    HW224300   0.779   6.096   2.320
 7801SOL     OW24301   1.449   1.967   1.610
 7801SOL    HW124302   1.516   1.909   1.564
 7801SOL    HW224303   1.490   2.056   1.631
 7802SOL     OW24304   6.817   4.098   4.707
 7802SOL    HW124305   6.752   4.050   4.648
 7802SOL    HW224306   6.908   4.095   4.665
 7803SOL     OW24307   4.009   2.893   5.600
 7803SOL    HW124308   4.023   2.794   5.592
 7803SOL    HW224309   4.062   2.928   5.677
 7804SOL     OW24310   3.237   1.852   5.347
 7804SOL    HW124311   3.298   1.849   5.268
 7804SOL    HW224312   3.287   1.826   5.429
 7805SOL     OW24313   5.133   3.235   0.544
 7805SOL    HW124314   5.075   3.236   0.626
 7805SOL    HW224315   5.212   3.295   0.559
 7806SOL     OW24316   6.217   1.494   5.740
 7806SOL    HW124317   6.221   1.448   5.652
 7806SOL    HW224318   6.310   1.506   5.776
 7807SOL     OW24319   1.747   4.627   6.014
 7807SOL    HW124320   1.840   4.636   6.049
 7807SOL    HW224321   1.708   4.540   6.044
 7808SOL     OW24322   5.868   3.692   3.112
 7808SOL    HW124323   5.897   3.742   3.193
 7808SOL    HW224324   5.781   3.728   3.078
 7809SOL     OW24325   4.718   5.381   2.550
 7809SOL    HW124326   4.635   5.368   2.604
 7809SOL    HW224327   4.693   5.392   2.453
 7810SOL     OW24328   3.801   6.353   5.555
 7810SOL    HW124329   3.817   6.258   5.581
 7810SOL    HW224330   3.878   6.386   5.500
 7811SOL     OW24331   1.704   6.241   2.928
 7811SOL    HW124332   1.662   6.278   3.011
 7811SOL    HW224333   1.801   6.261   2.928
 7812SOL     OW24334   3.090   1.973   6.257
 7812SOL    HW124335   2.994   1.987   6.235
 7812SOL    HW224336   3.146   2.002   6.179
 7813SOL     OW24337   5.876   0.619   0.632
 7813SOL    HW124338   5.815   0.678   0.684
 7813SOL    HW224339   5.821   0.551   0.583
 7814SOL     OW24340   6.722   2.729   1.660
 7814SOL    HW124341   6.812   2.687   1.646
 7814SOL    HW224342   6.651   2.659   1.654
 7815SOL     OW24343   5.841   3.979   5.598
 7815SOL    HW124344   5.892   4.064   5.608
 7815SOL    HW224345   5.878   3.909   5.659
 7816SOL     OW24346   0.717   0.687   5.545
 7816SOL    HW124347   0.669   0.633   5.476
 7816SOL    HW224348   0.656   0.703   5.622
 7817SOL     OW24349   2.913   2.938   6.767
 7817SOL    HW124350   2.853   2.955   6.689
 7817SOL    HW224351   2.869   2.971   6.850
 7818SOL     OW24352   5.656   0.683   3.831
 7818SOL    HW124353   5.666   0.714   3.925
 7818SOL    HW224354   5.741   0.699   3.781
 7819SOL     OW24355   1.693   3.720   3.934
 7819SOL    HW124356   1.623   3.653   3.912
 7819SOL    HW224357   1.745   3.743   3.851
 7820SOL     OW24358   1.460   6.966   5.926
 7820SOL    HW124359   1.474   6.878   5.880
 7820SOL    HW224360   1.464   0.019   5.858
 7821SOL     OW24361   4.940   6.292   6.754
 7821SOL    HW124362   4.959   6.205   6.710
 7821SOL    HW224363   5.002   6.305   6.831
 7822SOL     OW24364   0.500   1.449   4.696
 7822SOL    HW124365   0.563   1.405   4.632
 7822SOL    HW224366   0.536   1.538   4.724
 7823SOL     OW24367   2.175   3.358   5.272
 7823SOL    HW124368   2.117   3.282   5.241
 7823SOL    HW224369   2.267   3.324   5.293
 7824SOL     OW24370   5.547   2.937   3.340
 7824SOL    HW124371   5.474   2.874   3.314
 7824SOL    HW224372   5.536   3.023   3.291
 7825SOL     OW24373   3.709   3.663   2.253
 7825SOL    HW124374   3.706   3.564   2.243
 7825SOL    HW224375   3.752   3.703   2.172
 7826SOL     OW24376   6.301   0.204   1.282
 7826SOL    HW124377   6.230   0.243   1.341
 7826SOL    HW224378   6.263   0.186   1.192
 7827SOL     OW24379   4.851   3.923   0.875
 7827SOL    HW124380   4.766   3.872   0.864
 7827SOL    HW224381   4.916   3.895   0.804
 7828SOL     OW24382   0.949   5.753   0.762
 7828SOL    HW124383   0.869   5.738   0.704
 7828SOL    HW224384   0.989   5.842   0.741
 7829SOL     OW24385   4.095   3.232   2.363
 7829SOL    HW124386   4.166   3.186   2.311
 7829SOL    HW224387   4.067   3.175   2.440
 7830SOL     OW24388   5.853   2.957   6.851
 7830SOL    HW124389   5.874   2.918   6.761
 7830SOL    HW224390   5.928   3.015   6.881
 7831SOL     OW24391   1.772   2.549   6.591
 7831SOL    HW124392   1.733   2.587   6.508
 7831SOL    HW224393   1.865   2.517   6.573
 7832SOL     OW24394   2.815   2.420   5.257
 7832SOL    HW124395   2.834   2.328   5.223
 7832SOL    HW224396   2.899   2.459   5.295
 7833SOL     OW24397   1.396   0.034   0.672
 7833SOL    HW124398   1.348   0.121   0.655
 7833SOL    HW224399   1.493   0.053   0.687
 7834SOL     OW24400   0.118   0.332   1.320
 7834SOL    HW124401   0.144   0.285   1.236
 7834SOL    HW224402   0.020   0.350   1.318
 7835SOL     OW24403   1.949   2.699   5.048
 7835SOL    HW124404   1.938   2.710   4.949
 7835SOL    HW224405   1.954   2.601   5.070
 7836SOL     OW24406   2.461   0.098   0.173
 7836SOL    HW124407   2.472   0.008   0.130
 7836SOL    HW224408   2.418   0.087   0.262
 7837SOL     OW24409   6.106   0.241   3.763
 7837SOL    HW124410   6.161   0.241   3.680
 7837SOL    HW224411   6.010   0.229   3.740
 7838SOL     OW24412   3.844   7.019   3.607
 7838SOL    HW124413   3.883   6.964   3.534
 7838SOL    HW224414   3.902   7.015   3.688
 7839SOL     OW24415   6.660   5.180   4.256
 7839SOL    HW124416   6.730   5.178   4.185
 7839SOL    HW224417   6.576   5.137   4.222
 7840SOL     OW24418   5.141   3.345   5.863
 7840SOL    HW124419   5.053   3.321   5.822
 7840SOL    HW224420   5.136   3.333   5.962
 7841SOL     OW24421   1.203   1.850   6.386
 7841SOL    HW124422   1.154   1.786   6.327
 7841SOL    HW224423   1.282   1.887   6.338
 7842SOL     OW24424   2.966   1.118   2.907
 7842SOL    HW124425   2.872   1.148   2.894
 7842SOL    HW224426   2.985   1.109   3.005
 7843SOL     OW24427   5.542   3.543   1.335
 7843SOL    HW124428   5.486   3.588   1.265
 7843SOL    HW224429   5.623   3.599   1.353
 7844SOL     OW24430   4.674   1.482   4.260
 7844SOL    HW124431   4.654   1.576   4.289
 7844SOL    HW224432   4.645   1.418   4.331
 7845SOL     OW24433   0.679   0.981   4.263
 7845SOL    HW124434   0.766   0.934   4.251
 7845SOL    HW224435   0.690   1.078   4.243
 7846SOL     OW24436   3.820   0.219   1.923
 7846SOL    HW124437   3.855   0.308   1.954
 7846SOL    HW224438   3.826   0.154   1.999
 7847SOL     OW24439   0.203   0.651   0.316
 7847SOL    HW124440   0.241   0.704   0.240
 7847SOL    HW224441   0.266   0.655   0.394
 7848SOL     OW24442   4.749   3.997   0.514
 7848SOL    HW124443   4.712   4.082   0.552
 7848SOL    HW224444   4.827   4.018   0.455
 7849SOL     OW24445   5.576   3.834   5.283
 7849SOL    HW124446   5.615   3.798   5.368
 7849SOL    HW224447   5.630   3.913   5.253
 7850SOL     OW24448   0.558   0.938   4.778
 7850SOL    HW124449   0.646   0.985   4.785
 7850SOL    HW224450   0.556   0.883   4.695
 7851SOL     OW24451   5.222   6.836   6.874
 7851SOL    HW124452   5.173   6.792   6.949
 7851SOL    HW224453   5.157   6.887   6.818
 7852SOL     OW24454   2.572   6.056   6.484
 7852SOL    HW124455   2.590   5.971   6.434
 7852SOL    HW224456   2.500   6.106   6.437
 7853SOL     OW24457   2.257   3.186   0.532
 7853SOL    HW124458   2.249   3.091   0.504
 7853SOL    HW224459   2.179   3.211   0.589
 7854SOL     OW24460   3.326   4.007   2.688
 7854SOL    HW124461   3.363   4.054   2.608
 7854SOL    HW224462   3.339   4.064   2.769
 7855SOL     OW24463   3.749   6.735   5.833
 7855SOL    HW124464   3.706   6.779   5.912
 7855SOL    HW224465   3.798   6.653   5.862
 7856SOL     OW24466   4.857   2.950   6.176
 7856SOL    HW124467   4.929   2.888   6.209
 7856SOL    HW224468   4.770   2.901   6.174
 7857SOL     OW24469   0.757   1.315   4.908
 7857SOL    HW124470   0.688   1.387   4.907
 7857SOL    HW224471   0.846   1.355   4.888
 7858SOL     OW24472   6.355   3.888   3.563
 7858SOL    HW124473   6.270   3.863   3.608
 7858SOL    HW224474   6.345   3.979   3.521
 7859SOL     OW24475   1.197   5.717   6.543
 7859SOL    HW124476   1.176   5.630   6.499
 7859SOL    HW224477   1.151   5.721   6.632
 7860SOL     OW24478   3.293   6.955   2.322
 7860SOL    HW124479   3.296   6.987   2.227
 7860SOL    HW224480   3.358   6.880   2.334
 7861SOL     OW24481   5.651   4.115   0.563
 7861SOL    HW124482   5.712   4.115   0.484
 7861SOL    HW224483   5.646   4.207   0.601
 7862SOL     OW24484   3.092   4.686   1.739
 7862SOL    HW124485   3.086   4.629   1.658
 7862SOL    HW224486   3.021   4.659   1.804
 7863SOL     OW24487   6.874   6.012   2.116
 7863SOL    HW124488   6.909   5.950   2.186
 7863SOL    HW224489   6.783   6.044   2.142
 7864SOL     OW24490   0.852   5.438   4.464
 7864SOL    HW124491   0.904   5.369   4.514
 7864SOL    HW224492   0.801   5.394   4.390
 7865SOL     OW24493   3.197   0.027   2.666
 7865SOL    HW124494   3.295   0.044   2.672
 7865SOL    HW224495   3.161   0.069   2.582
 7866SOL     OW24496   2.800   2.320   4.202
 7866SOL    HW124497   2.719   2.269   4.231
 7866SOL    HW224498   2.774   2.388   4.133
 7867SOL     OW24499   5.527   4.835   2.437
 7867SOL    HW124500   5.440   4.846   2.388
 7867SOL    HW224501   5.568   4.925   2.449
 7868SOL     OW24502   5.697   6.908   0.645
 7868SOL    HW124503   5.793   6.894   0.621
 7868SOL    HW224504   5.691   6.937   0.741
 7869SOL     OW24505   0.432   3.182   1.838
 7869SOL    HW124506   0.523   3.221   1.822
 7869SOL    HW224507   0.422   3.098   1.785
 7870SOL     OW24508   0.183   6.144   3.769
 7870SOL    HW124509   0.200   6.060   3.820
 7870SOL    HW224510   0.150   6.121   3.677
 7871SOL     OW24511   5.186   3.258   3.448
 7871SOL    HW124512   5.176   3.292   3.541
 7871SOL    HW224513   5.097   3.233   3.411
 7872SOL     OW24514   6.561   3.039   3.488
 7872SOL    HW124515   6.494   2.984   3.537
 7872SOL    HW224516   6.535   3.136   3.492
 7873SOL     OW24517   0.391   5.006   5.018
 7873SOL    HW124518   0.310   4.950   4.999
 7873SOL    HW224519   0.431   4.979   5.105
 7874SOL     OW24520   5.536   0.680   0.189
 7874SOL    HW124521   5.571   0.752   0.250
 7874SOL    HW224522   5.480   0.722   0.118
 7875SOL     OW24523   4.392   2.941   6.534
 7875SOL    HW124524   4.362   2.989   6.452
 7875SOL    HW224525   4.430   3.007   6.599
 7876SOL     OW24526   6.859   0.580   3.940
 7876SOL    HW124527   6.784   0.513   3.941
 7876SOL    HW224528   6.866   0.624   4.030
 7877SOL     OW24529   6.699   1.984   2.016
 7877SOL    HW124530   6.686   2.040   1.935
 7877SOL    HW224531   6.735   2.039   2.090
 7878SOL     OW24532   4.826   3.792   1.576
 7878SOL    HW124533   4.896   3.731   1.539
 7878SOL    HW224534   4.750   3.737   1.610
 7879SOL     OW24535   5.407   0.749   4.688
 7879SOL    HW124536   5.315   0.780   4.710
 7879SOL    HW224537   5.473   0.799   4.743
 7880SOL     OW24538   0.766   0.015   6.608
 7880SOL    HW124539   0.809   0.071   6.537
 7880SOL    HW224540   0.718   6.960   6.566
 7881SOL     OW24541   0.124   4.925   3.789
 7881SOL    HW124542   0.153   4.884   3.704
 7881SOL    HW224543   0.166   4.877   3.866
 7882SOL     OW24544   0.432   3.884   2.258
 7882SOL    HW124545   0.403   3.789   2.255
 7882SOL    HW224546   0.359   3.943   2.223
 7883SOL     OW24547   3.804   1.410   4.332
 7883SOL    HW124548   3.808   1.461   4.419
 7883SOL    HW224549   3.817   1.473   4.256
 7884SOL     OW24550   0.617   3.814   4.366
 7884SOL    HW124551   0.618   3.804   4.266
 7884SOL    HW224552   0.544   3.758   4.405
 7885SOL     OW24553   6.132   5.319   3.531
 7885SOL    HW124554   6.160   5.363   3.616
 7885SOL    HW224555   6.164   5.373   3.453
 7886SOL     OW24556   4.864   3.250   3.381
 7886SOL    HW124557   4.885   3.319   3.312
 7886SOL    HW224558   4.880   3.159   3.343
 7887SOL     OW24559   2.371   3.500   0.634
 7887SOL    HW124560   2.313   3.574   0.599
 7887SOL    HW224561   2.331   3.412   0.609
 7888SOL     OW24562   6.212   2.312   4.395
 7888SOL    HW124563   6.155   2.360   4.328
 7888SOL    HW224564   6.240   2.375   4.466
 7889SOL     OW24565   5.485   5.299   0.281
 7889SOL    HW124566   5.575   5.338   0.301
 7889SOL    HW224567   5.468   5.223   0.344
 7890SOL     OW24568   1.474   3.663   4.314
 7890SOL    HW124569   1.444   3.743   4.262
 7890SOL    HW224570   1.551   3.687   4.372
 7891SOL     OW24571   0.038   1.703   4.198
 7891SOL    HW124572   0.110   1.758   4.155
 7891SOL    HW224573   0.078   1.646   4.270
 7892SOL     OW24574   0.170   1.792   5.839
 7892SOL    HW124575   0.199   1.717   5.898
 7892SOL    HW224576   0.091   1.763   5.786
 7893SOL     OW24577   6.118   0.306   0.197
 7893SOL    HW124578   6.052   0.375   0.168
 7893SOL    HW224579   6.211   0.339   0.179
 7894SOL     OW24580   3.029   1.625   5.960
 7894SOL    HW124581   3.064   1.686   5.889
 7894SOL    HW224582   3.079   1.538   5.958
 7895SOL     OW24583   4.534   6.212   3.264
 7895SOL    HW124584   4.590   6.295   3.274
 7895SOL    HW224585   4.478   6.199   3.346
 7896SOL     OW24586   2.864   2.480   1.054
 7896SOL    HW124587   2.881   2.538   0.975
 7896SOL    HW224588   2.783   2.513   1.103
 7897SOL     OW24589   3.389   3.287   0.481
 7897SOL    HW124590   3.319   3.268   0.412
 7897SOL    HW224591   3.456   3.351   0.443
 7898SOL     OW24592   5.900   6.691   3.553
 7898SOL    HW124593   5.813   6.729   3.582
 7898SOL    HW224594   5.963   6.765   3.528
 7899SOL     OW24595   6.252   4.863   3.350
 7899SOL    HW124596   6.178   4.928   3.334
 7899SOL    HW224597   6.313   4.861   3.271
 7900SOL     OW24598   0.743   4.375   1.486
 7900SOL    HW124599   0.831   4.388   1.532
 7900SOL    HW224600   0.695   4.298   1.526
 7901SOL     OW24601   6.634   1.465   6.214
 7901SOL    HW124602   6.682   1.378   6.227
 7901SOL    HW224603   6.589   1.464   6.125
 7902SOL     OW24604   0.888   6.906   2.830
 7902SOL    HW124605   0.801   6.929   2.873
 7902SOL    HW224606   0.922   6.986   2.780
 7903SOL     OW24607   2.865   2.197   5.092
 7903SOL    HW124608   2.957   2.218   5.058
 7903SOL    HW224609   2.805   2.178   5.014
 7904SOL     OW24610   5.009   1.330   2.095
 7904SOL    HW124611   4.994   1.231   2.103
 7904SOL    HW224612   5.018   1.355   1.999
 7905SOL     OW24613   5.686   0.985   1.112
 7905SOL    HW124614   5.650   0.966   1.021
 7905SOL    HW224615   5.676   0.903   1.169
 7906SOL     OW24616   1.650   5.461   0.421
 7906SOL    HW124617   1.731   5.509   0.389
 7906SOL    HW224618   1.664   5.430   0.515
 7907SOL     OW24619   6.202   0.284   2.724
 7907SOL    HW124620   6.254   0.207   2.686
 7907SOL    HW224621   6.253   0.326   2.798
 7908SOL     OW24622   1.068   0.432   6.639
 7908SOL    HW124623   0.978   0.476   6.640
 7908SOL    HW224624   1.125   0.471   6.710
 7909SOL     OW24625   5.808   4.798   1.772
 7909SOL    HW124626   5.825   4.855   1.692
 7909SOL    HW224627   5.895   4.778   1.818
 7910SOL     OW24628   1.387   3.778   0.163
 7910SOL    HW124629   1.345   3.774   0.073
 7910SOL    HW224630   1.479   3.815   0.155
 7911SOL     OW24631   0.998   4.435   6.991
 7911SOL    HW124632   0.927   4.369   7.016
 7911SOL    HW224633   0.962   4.528   6.997
 7912SOL     OW24634   5.865   5.651   0.533
 7912SOL    HW124635   5.865   5.721   0.462
 7912SOL    HW224636   5.859   5.694   0.623
 7913SOL     OW24637   0.815   4.098   0.939
 7913SOL    HW124638   0.721   4.067   0.934
 7913SOL    HW224639   0.876   4.027   0.905
 7914SOL     OW24640   6.114   5.653   4.751
 7914SOL    HW124641   6.141   5.743   4.784
 7914SOL    HW224642   6.194   5.595   4.741
 7915SOL     OW24643   3.625   5.862   2.689
 7915SOL    HW124644   3.706   5.806   2.706
 7915SOL    HW224645   3.556   5.842   2.759
 7916SOL     OW24646   1.794   0.462   4.704
 7916SOL    HW124647   1.718   0.416   4.750
 7916SOL    HW224648   1.782   0.561   4.710
 7917SOL     OW24649   4.526   3.924   0.780
 7917SOL    HW124650   4.541   4.019   0.752
 7917SOL    HW224651   4.480   3.875   0.706
 7918SOL     OW24652   1.804   1.877   4.836
 7918SOL    HW124653   1.904   1.882   4.834
 7918SOL    HW224654   1.767   1.964   4.866
 7919SOL     OW24655   2.274   6.147   3.665
 7919SOL    HW124656   2.309   6.223   3.720
 7919SOL    HW224657   2.325   6.141   3.579
 7920SOL     OW24658   5.106   0.711   1.351
 7920SOL    HW124659   5.204   0.732   1.347
 7920SOL    HW224660   5.079   0.702   1.447
 7921SOL     OW24661   5.088   2.111   1.742
 7921SOL    HW124662   5.078   2.168   1.823
 7921SOL    HW224663   5.102   2.016   1.769
 7922SOL     OW24664   1.369   5.467   1.273
 7922SOL    HW124665   1.366   5.441   1.369
 7922SOL    HW224666   1.286   5.519   1.250
 7923SOL     OW24667   4.989   1.261   0.209
 7923SOL    HW124668   4.919   1.220   0.152
 7923SOL    HW224669   4.983   1.224   0.302
 7924SOL     OW24670   6.272   6.634   0.961
 7924SOL    HW124671   6.209   6.556   0.964
 7924SOL    HW224672   6.318   6.636   0.872
 7925SOL     OW24673   1.713   6.449   0.103
 7925SOL    HW124674   1.773   6.377   0.136
 7925SOL    HW224675   1.676   6.424   0.014
 7926SOL     OW24676   4.310   5.405   7.005
 7926SOL    HW124677   4.383   5.403   6.937
 7926SOL    HW224678   4.221   5.405   6.960
 7927SOL     OW24679   4.695   0.512   2.863
 7927SOL    HW124680   4.787   0.487   2.893
 7927SOL    HW224681   4.627   0.474   2.926
 7928SOL     OW24682   6.679   1.788   3.380
 7928SOL    HW124683   6.751   1.819   3.318
 7928SOL    HW224684   6.712   1.709   3.432
 7929SOL     OW24685   4.129   4.396   6.038
 7929SOL    HW124686   4.192   4.473   6.051
 7929SOL    HW224687   4.180   4.316   6.007
 7930SOL     OW24688   4.559   5.839   5.557
 7930SOL    HW124689   4.583   5.765   5.620
 7930SOL    HW224690   4.636   5.860   5.498
 7931SOL     OW24691   3.673   2.107   1.049
 7931SOL    HW124692   3.663   2.187   0.990
 7931SOL    HW224693   3.649   2.132   1.143
 7932SOL     OW24694   1.438   4.989   2.494
 7932SOL    HW124695   1.377   5.050   2.444
 7932SOL    HW224696   1.448   5.022   2.588
 7933SOL     OW24697   0.883   1.370   6.454
 7933SOL    HW124698   0.894   1.325   6.543
 7933SOL    HW224699   0.956   1.437   6.442
 7934SOL     OW24700   0.943   4.684   1.564
 7934SOL    HW124701   0.853   4.690   1.607
 7934SOL    HW224702   1.007   4.744   1.612
 7935SOL     OW24703   4.821   3.103   3.846
 7935SOL    HW124704   4.846   3.043   3.922
 7935SOL    HW224705   4.857   3.064   3.761
 7936SOL     OW24706   3.967   5.909   3.802
 7936SOL    HW124707   4.060   5.935   3.826
 7936SOL    HW224708   3.942   5.948   3.713
 7937SOL     OW24709   3.333   0.568   6.657
 7937SOL    HW124710   3.303   0.595   6.565
 7937SOL    HW224711   3.257   0.526   6.706
 7938SOL     OW24712   4.073   6.633   4.570
 7938SOL    HW124713   4.025   6.634   4.483
 7938SOL    HW224714   4.119   6.544   4.581
 7939SOL     OW24715   0.736   1.856   3.457
 7939SOL    HW124716   0.642   1.873   3.490
 7939SOL    HW224717   0.768   1.936   3.406
 7940SOL     OW24718   5.266   1.458   2.907
 7940SOL    HW124719   5.213   1.380   2.940
 7940SOL    HW224720   5.209   1.515   2.848
 7941SOL     OW24721   3.361   6.822   1.532
 7941SOL    HW124722   3.390   6.728   1.513
 7941SOL    HW224723   3.423   6.863   1.599
 7942SOL     OW24724   0.986   4.662   1.266
 7942SOL    HW124725   0.964   4.623   1.356
 7942SOL    HW224726   0.932   4.616   1.196
 7943SOL     OW24727   1.283   5.445   6.182
 7943SOL    HW124728   1.374   5.404   6.185
 7943SOL    HW224729   1.252   5.464   6.275
 7944SOL     OW24730   1.887   2.707   0.654
 7944SOL    HW124731   1.799   2.740   0.687
 7944SOL    HW224732   1.878   2.612   0.623
 7945SOL     OW24733   5.957   4.375   3.029
 7945SOL    HW124734   5.965   4.283   3.067
 7945SOL    HW224735   5.893   4.429   3.084
 7946SOL     OW24736   3.656   1.183   5.852
 7946SOL    HW124737   3.696   1.228   5.931
 7946SOL    HW224738   3.563   1.217   5.837
 7947SOL     OW24739   0.867   3.534   6.176
 7947SOL    HW124740   0.830   3.625   6.192
 7947SOL    HW224741   0.883   3.520   6.079
 7948SOL     OW24742   1.349   4.122   2.238
 7948SOL    HW124743   1.291   4.167   2.306
 7948SOL    HW224744   1.436   4.096   2.280
 7949SOL     OW24745   3.905   5.828   6.402
 7949SOL    HW124746   3.809   5.847   6.380
 7949SOL    HW224747   3.914   5.809   6.499
 7950SOL     OW24748   5.442   4.792   5.558
 7950SOL    HW124749   5.376   4.770   5.486
 7950SOL    HW224750   5.394   4.813   5.643
 7951SOL     OW24751   3.075   6.029   3.013
 7951SOL    HW124752   3.121   6.024   2.925
 7951SOL    HW224753   3.026   6.116   3.020
 7952SOL     OW24754   5.677   3.824   6.649
 7952SOL    HW124755   5.584   3.833   6.613
 7952SOL    HW224756   5.736   3.781   6.581
 7953SOL     OW24757   2.498   0.707   1.211
 7953SOL    HW124758   2.495   0.796   1.165
 7953SOL    HW224759   2.404   0.673   1.224
 7954SOL     OW24760   3.964   3.763   6.419
 7954SOL    HW124761   3.895   3.706   6.464
 7954SOL    HW224762   4.049   3.712   6.410
 7955SOL     OW24763   1.641   1.402   0.038
 7955SOL    HW124764   1.716   1.445   7.009
 7955SOL    HW224765   1.610   1.463   0.111
 7956SOL     OW24766   5.931   6.222   0.215
 7956SOL    HW124767   5.957   6.127   0.225
 7956SOL    HW224768   5.984   6.279   0.278
 7957SOL     OW24769   4.524   1.156   5.466
 7957SOL    HW124770   4.493   1.237   5.415
 7957SOL    HW224771   4.471   1.148   5.550
 7958SOL     OW24772   5.777   2.876   0.056
 7958SOL    HW124773   5.860   2.846   0.102
 7958SOL    HW224774   5.800   2.914   6.987
 7959SOL     OW24775   5.736   1.621   6.383
 7959SOL    HW124776   5.818   1.677   6.371
 7959SOL    HW224777   5.694   1.641   6.472
 7960SOL     OW24778   0.450   0.595   5.895
 7960SOL    HW124779   0.455   0.642   5.807
 7960SOL    HW224780   0.538   0.605   5.942
 7961SOL     OW24781   6.391   6.315   0.330
 7961SOL    HW124782   6.426   6.406   0.309
 7961SOL    HW224783   6.452   6.270   0.396
 7962SOL     OW24784   4.994   0.018   5.588
 7962SOL    HW124785   4.948   6.956   5.560
 7962SOL    HW224786   5.084   7.018   5.626
 7963SOL     OW24787   0.327   5.653   4.449
 7963SOL    HW124788   0.421   5.685   4.435
 7963SOL    HW224789   0.327   5.574   4.510
 7964SOL     OW24790   6.754   4.744   2.248
 7964SOL    HW124791   6.788   4.730   2.341
 7964SOL    HW224792   6.660   4.712   2.242
 7965SOL     OW24793   3.403   2.277   6.403
 7965SOL    HW124794   3.469   2.344   6.435
 7965SOL    HW224795   3.452   2.198   6.364
 7966SOL     OW24796   4.920   3.858   4.984
 7966SOL    HW124797   5.003   3.860   5.039
 7966SOL    HW224798   4.879   3.767   4.988
 7967SOL     OW24799   1.849   4.707   2.148
 7967SOL    HW124800   1.798   4.695   2.233
 7967SOL    HW224801   1.784   4.724   2.073
 7968SOL     OW24802   7.001   2.360   4.468
 7968SOL    HW124803   0.062   2.365   4.412
 7968SOL    HW224804   7.015   2.414   4.552
 7969SOL     OW24805   4.643   4.968   0.166
 7969SOL    HW124806   4.577   5.018   0.110
 7969SOL    HW224807   4.700   5.033   0.217
 7970SOL     OW24808   5.857   2.721   2.580
 7970SOL    HW124809   5.777   2.766   2.539
 7970SOL    HW224810   5.920   2.790   2.614
 7971SOL     OW24811   3.124   0.856   0.271
 7971SOL    HW124812   3.087   0.833   0.181
 7971SOL    HW224813   3.150   0.953   0.272
 7972SOL     OW24814   4.045   3.736   2.956
 7972SOL    HW124815   4.030   3.775   2.866
 7972SOL    HW224816   4.140   3.747   2.983
 7973SOL     OW24817   6.338   3.757   2.461
 7973SOL    HW124818   6.354   3.723   2.368
 7973SOL    HW224819   6.260   3.708   2.501
 7974SOL     OW24820   6.603   2.342   6.134
 7974SOL    HW124821   6.647   2.268   6.185
 7974SOL    HW224822   6.513   2.361   6.174
 7975SOL     OW24823   5.427   0.698   1.346
 7975SOL    HW124824   5.416   0.599   1.342
 7975SOL    HW224825   5.524   0.722   1.339
 7976SOL     OW24826   0.917   6.989   0.049
 7976SOL    HW124827   0.874   6.953   6.987
 7976SOL    HW224828   0.864   6.960   0.129
 7977SOL     OW24829   5.955   5.334   3.234
 7977SOL    HW124830   5.945   5.428   3.201
 7977SOL    HW224831   5.925   5.328   3.329
 7978SOL     OW24832   0.233   4.571   1.662
 7978SOL    HW124833   0.140   4.546   1.689
 7978SOL    HW224834   0.299   4.522   1.720
 7979SOL     OW24835   1.820   3.378   4.320
 7979SOL    HW124836   1.880   3.303   4.293
 7979SOL    HW224837   1.844   3.409   4.412
 7980SOL     OW24838   4.126   5.467   6.805
 7980SOL    HW124839   4.109   5.375   6.769
 7980SOL    HW224840   4.152   5.528   6.730
 7981SOL     OW24841   1.370   4.800   2.906
 7981SOL    HW124842   1.295   4.737   2.886
 7981SOL    HW224843   1.440   4.753   2.959
 7982SOL     OW24844   6.761   2.202   5.325
 7982SOL    HW124845   6.826   2.232   5.395
 7982SOL    HW224846   6.789   2.239   5.236
 7983SOL     OW24847   5.317   1.560   1.499
 7983SOL    HW124848   5.413   1.532   1.504
 7983SOL    HW224849   5.266   1.518   1.574
 7984SOL     OW24850   0.998   2.125   2.509
 7984SOL    HW124851   0.915   2.177   2.528
 7984SOL    HW224852   0.978   2.027   2.512
 7985SOL     OW24853   2.633   2.305   5.468
 7985SOL    HW124854   2.728   2.333   5.473
 7985SOL    HW224855   2.574   2.386   5.464
 7986SOL     OW24856   2.741   1.076   3.749
 7986SOL    HW124857   2.677   1.051   3.676
 7986SOL    HW224858   2.755   1.175   3.748
 7987SOL     OW24859   1.221   3.403   0.108
 7987SOL    HW124860   1.259   3.449   0.188
 7987SOL    HW224861   1.164   3.468   0.057
 7988SOL     OW24862   6.681   1.610   0.802
 7988SOL    HW124863   6.715   1.551   0.729
 7988SOL    HW224864   6.757   1.663   0.840
 7989SOL     OW24865   0.304   4.731   0.252
 7989SOL    HW124866   0.359   4.809   0.221
 7989SOL    HW224867   0.294   4.735   0.351
 7990SOL     OW24868   3.841   5.154   5.655
 7990SOL    HW124869   3.835   5.230   5.719
 7990SOL    HW224870   3.796   5.074   5.694
 7991SOL     OW24871   6.377   1.201   4.752
 7991SOL    HW124872   6.404   1.180   4.846
 7991SOL    HW224873   6.459   1.213   4.696
 7992SOL     OW24874   2.753   0.163   0.215
 7992SOL    HW124875   2.662   0.122   0.207
 7992SOL    HW224876   2.760   0.210   0.303
 7993SOL     OW24877   6.726   6.061   1.342
 7993SOL    HW124878   6.715   5.991   1.412
 7993SOL    HW224879   6.717   6.152   1.383
 7994SOL     OW24880   5.554   0.317   3.553
 7994SOL    HW124881   5.647   0.283   3.567
 7994SOL    HW224882   5.514   0.344   3.640
 7995SOL     OW24883   0.320   4.582   1.395
 7995SOL    HW124884   0.258   4.640   1.343
 7995SOL    HW224885   0.297   4.587   1.493
 7996SOL     OW24886   3.299   0.851   2.732
 7996SOL    HW124887   3.319   0.866   2.828
 7996SOL    HW224888   3.203   0.825   2.721
 7997SOL     OW24889   1.317   1.880   6.945
 7997SOL    HW124890   1.297   1.977   6.957
 7997SOL    HW224891   1.234   1.832   6.917
 7998SOL     OW24892   2.779   1.187   0.666
 7998SOL    HW124893   2.868   1.154   0.636
 7998SOL    HW224894   2.738   1.243   0.594
 7999SOL     OW24895   0.838   0.892   4.882
 7999SOL    HW124896   0.935   0.871   4.895
 7999SOL    HW224897   0.794   0.816   4.833
 8000SOL     OW24898   4.544   5.456   6.830
 8000SOL    HW124899   4.625   5.413   6.871
 8000SOL    HW224900   4.546   5.441   6.731
 8001SOL     OW24901   4.207   6.597   1.752
 8001SOL    HW124902   4.228   6.688   1.716
 8001SOL    HW224903   4.275   6.532   1.721
 8002SOL     OW24904   0.803   0.151   4.900
 8002SOL    HW124905   0.866   0.086   4.857
 8002SOL    HW224906   0.769   0.112   4.986
 8003SOL     OW24907   2.105   6.445   2.351
 8003SOL    HW124908   2.132   6.539   2.371
 8003SOL    HW224909   2.092   6.434   2.252
 8004SOL     OW24910   1.348   3.016   3.433
 8004SOL    HW124911   1.270   3.021   3.371
 8004SOL    HW224912   1.317   3.029   3.527
 8005SOL     OW24913   2.722   0.395   3.487
 8005SOL    HW124914   2.662   0.315   3.494
 8005SOL    HW224915   2.717   0.431   3.394
 8006SOL     OW24916   3.601   4.862   5.480
 8006SOL    HW124917   3.535   4.810   5.426
 8006SOL    HW224918   3.665   4.908   5.419
 8007SOL     OW24919   6.404   0.487   6.729
 8007SOL    HW124920   6.468   0.543   6.782
 8007SOL    HW224921   6.348   0.547   6.671
 8008SOL     OW24922   5.159   6.858   6.466
 8008SOL    HW124923   5.122   6.920   6.396
 8008SOL    HW224924   5.149   6.763   6.435
 8009SOL     OW24925   4.956   1.847   5.963
 8009SOL    HW124926   4.972   1.749   5.957
 8009SOL    HW224927   4.982   1.880   6.054
 8010SOL     OW24928   2.700   1.657   5.590
 8010SOL    HW124929   2.679   1.580   5.529
 8010SOL    HW224930   2.688   1.743   5.542
 8011SOL     OW24931   4.065   1.705   1.847
 8011SOL    HW124932   4.054   1.682   1.944
 8011SOL    HW224933   4.103   1.797   1.839
 8012SOL     OW24934   6.854   1.363   5.453
 8012SOL    HW124935   6.926   1.303   5.489
 8012SOL    HW224936   6.788   1.308   5.401
 8013SOL     OW24937   3.031   2.207   2.784
 8013SOL    HW124938   3.025   2.195   2.883
 8013SOL    HW224939   3.121   2.179   2.752
 8014SOL     OW24940   1.971   1.063   2.475
 8014SOL    HW124941   2.014   1.120   2.544
 8014SOL    HW224942   1.971   1.110   2.387
 8015SOL     OW24943   2.877   6.887   5.350
 8015SOL    HW124944   2.908   6.800   5.388
 8015SOL    HW224945   2.783   6.904   5.379
 8016SOL     OW24946   3.660   1.802   5.006
 8016SOL    HW124947   3.646   1.726   5.069
 8016SOL    HW224948   3.744   1.788   4.954
 8017SOL     OW24949   6.320   6.501   1.219
 8017SOL    HW124950   6.320   6.548   1.131
 8017SOL    HW224951   6.226   6.497   1.255
 8018SOL     OW24952   3.831   1.824   0.107
 8018SOL    HW124953   3.829   1.882   0.025
 8018SOL    HW224954   3.770   1.745   0.093
 8019SOL     OW24955   2.427   3.790   1.350
 8019SOL    HW124956   2.391   3.796   1.257
 8019SOL    HW224957   2.497   3.719   1.355
 8020SOL     OW24958   0.121   0.789   5.615
 8020SOL    HW124959   0.051   0.728   5.578
 8020SOL    HW224960   0.090   0.827   5.702
 8021SOL     OW24961   1.111   2.273   1.349
 8021SOL    HW124962   1.086   2.230   1.262
 8021SOL    HW224963   1.195   2.326   1.336
 8022SOL     OW24964   4.972   1.529   1.843
 8022SOL    HW124965   4.874   1.536   1.821
 8022SOL    HW224966   4.989   1.572   1.932
 8023SOL     OW24967   4.964   5.476   2.617
 8023SOL    HW124968   5.012   5.395   2.586
 8023SOL    HW224969   4.865   5.460   2.614
 8024SOL     OW24970   2.391   0.585   6.654
 8024SOL    HW124971   2.363   0.571   6.749
 8024SOL    HW224972   2.317   0.629   6.603
 8025SOL     OW24973   1.357   5.737   0.969
 8025SOL    HW124974   1.284   5.715   1.034
 8025SOL    HW224975   1.320   5.741   0.876
 8026SOL     OW24976   1.114   5.460   6.441
 8026SOL    HW124977   1.046   5.388   6.426
 8026SOL    HW224978   1.146   5.457   6.536
 8027SOL     OW24979   3.490   6.912   0.086
 8027SOL    HW124980   3.420   6.848   0.118
 8027SOL    HW224981   3.519   6.887   7.015
 8028SOL     OW24982   3.044   5.563   5.276
 8028SOL    HW124983   3.081   5.591   5.187
 8028SOL    HW224984   3.119   5.561   5.343
 8029SOL     OW24985   6.830   0.071   0.151
 8029SOL    HW124986   6.786   0.160   0.144
 8029SOL    HW224987   6.761   0.002   0.172
 8030SOL     OW24988   0.938   3.937   0.728
 8030SOL    HW124989   0.896   3.850   0.701
 8030SOL    HW224990   0.933   4.002   0.651
 8031SOL     OW24991   7.018   0.905   2.983
 8031SOL    HW124992   6.948   0.962   3.026
 8031SOL    HW224993   0.030   0.838   3.049
 8032SOL     OW24994   6.053   3.046   1.183
 8032SOL    HW124995   6.016   3.109   1.251
 8032SOL    HW224996   6.125   2.990   1.225
 8033SOL     OW24997   5.002   3.510   0.799
 8033SOL    HW124998   4.937   3.453   0.748
 8033SOL    HW224999   4.999   3.604   0.764
 8034SOL     OW25000   6.104   0.073   5.550
 8034SOL    HW125001   6.163   0.018   5.609
 8034SOL    HW225002   6.160   0.139   5.499
 8035SOL     OW25003   5.903   1.495   3.158
 8035SOL    HW125004   5.897   1.595   3.159
 8035SOL    HW225005   5.996   1.467   3.183
 8036SOL     OW25006   6.107   2.609   3.827
 8036SOL    HW125007   6.099   2.575   3.733
 8036SOL    HW225008   6.024   2.658   3.852
 8037SOL     OW25009   0.899   2.395   6.132
 8037SOL    HW125010   0.867   2.301   6.139
 8037SOL    HW225011   0.867   2.436   6.047
 8038SOL     OW25012   0.012   4.844   2.633
 8038SOL    HW125013   0.110   4.838   2.651
 8038SOL    HW225014   6.997   4.930   2.671
 8039SOL     OW25015   1.079   2.480   5.363
 8039SOL    HW125016   1.099   2.528   5.448
 8039SOL    HW225017   1.160   2.480   5.304
 8040SOL     OW25018   2.245   5.503   6.281
 8040SOL    HW125019   2.211   5.566   6.211
 8040SOL    HW225020   2.333   5.534   6.315
 8041SOL     OW25021   4.109   1.197   3.609
 8041SOL    HW125022   4.061   1.202   3.521
 8041SOL    HW225023   4.207   1.188   3.592
 8042SOL     OW25024   4.062   4.204   5.795
 8042SOL    HW125025   3.974   4.194   5.749
 8042SOL    HW225026   4.058   4.161   5.885
 8043SOL     OW25027   5.356   5.220   6.480
 8043SOL    HW125028   5.340   5.258   6.389
 8043SOL    HW225029   5.415   5.282   6.532
 8044SOL     OW25030   2.839   3.556   1.791
 8044SOL    HW125031   2.740   3.568   1.789
 8044SOL    HW225032   2.862   3.464   1.760
 8045SOL     OW25033   0.610   1.503   3.177
 8045SOL    HW125034   0.529   1.561   3.167
 8045SOL    HW225035   0.641   1.473   3.087
 8046SOL     OW25036   0.057   5.042   2.090
 8046SOL    HW125037   7.013   5.014   2.160
 8046SOL    HW225038   0.096   4.961   2.046
 8047SOL     OW25039   3.640   6.485   6.839
 8047SOL    HW125040   3.564   6.434   6.800
 8047SOL    HW225041   3.664   6.561   6.779
 8048SOL     OW25042   3.775   2.563   6.844
 8048SOL    HW125043   3.686   2.605   6.864
 8048SOL    HW225044   3.834   2.630   6.800
 8049SOL     OW25045   1.481   1.480   0.268
 8049SOL    HW125046   1.452   1.491   0.363
 8049SOL    HW225047   1.416   1.421   0.220
 8050SOL     OW25048   0.255   4.414   5.583
 8050SOL    HW125049   0.171   4.466   5.594
 8050SOL    HW225050   0.303   4.446   5.501
 8051SOL     OW25051   4.250   5.972   3.816
 8051SOL    HW125052   4.342   6.002   3.790
 8051SOL    HW225053   4.241   5.874   3.801
 8052SOL     OW25054   2.334   2.713   2.506
 8052SOL    HW125055   2.379   2.669   2.584
 8052SOL    HW225056   2.400   2.724   2.431
 8053SOL     OW25057   2.260   2.763   6.285
 8053SOL    HW125058   2.193   2.691   6.272
 8053SOL    HW225059   2.244   2.809   6.372
 8054SOL     OW25060   4.627   3.401   5.360
 8054SOL    HW125061   4.658   3.454   5.282
 8054SOL    HW225062   4.702   3.346   5.395
 8055SOL     OW25063   6.417   0.206   6.651
 8055SOL    HW125064   6.328   0.165   6.634
 8055SOL    HW225065   6.405   0.301   6.682
 8056SOL     OW25066   1.999   1.538   4.629
 8056SOL    HW125067   1.955   1.514   4.543
 8056SOL    HW225068   2.096   1.558   4.612
 8057SOL     OW25069   2.721   2.121   2.037
 8057SOL    HW125070   2.780   2.057   1.988
 8057SOL    HW225071   2.772   2.205   2.056
 8058SOL     OW25072   3.612   6.121   2.631
 8058SOL    HW125073   3.667   6.166   2.561
 8058SOL    HW225074   3.645   6.027   2.644
 8059SOL     OW25075   2.552   3.289   6.284
 8059SOL    HW125076   2.645   3.278   6.317
 8059SOL    HW225077   2.491   3.228   6.333
 8060SOL     OW25078   5.941   0.137   5.142
 8060SOL    HW125079   6.039   0.157   5.149
 8060SOL    HW225080   5.889   0.210   5.187
 8061SOL     OW25081   0.032   0.578   2.203
 8061SOL    HW125082   0.014   0.492   2.154
 8061SOL    HW225083   7.001   0.580   2.288
 8062SOL     OW25084   4.412   5.688   5.965
 8062SOL    HW125085   4.385   5.782   5.942
 8062SOL    HW225086   4.449   5.644   5.884
 8063SOL     OW25087   3.714   5.582   3.406
 8063SOL    HW125088   3.776   5.613   3.333
 8063SOL    HW225089   3.719   5.646   3.483
 8064SOL     OW25090   6.041   1.573   1.049
 8064SOL    HW125091   6.050   1.514   0.969
 8064SOL    HW225092   6.002   1.661   1.023
 8065SOL     OW25093   3.624   5.496   6.160
 8065SOL    HW125094   3.570   5.554   6.220
 8065SOL    HW225095   3.660   5.551   6.084
 8066SOL     OW25096   0.538   6.821   5.174
 8066SOL    HW125097   0.482   6.899   5.143
 8066SOL    HW225098   0.523   6.743   5.113
 8067SOL     OW25099   5.051   3.268   3.859
 8067SOL    HW125100   5.126   3.233   3.803
 8067SOL    HW225101   4.965   3.226   3.829
 8068SOL     OW25102   6.411   4.104   0.934
 8068SOL    HW125103   6.396   4.171   1.007
 8068SOL    HW225104   6.476   4.035   0.965
 8069SOL     OW25105   2.645   5.041   2.564
 8069SOL    HW125106   2.689   4.957   2.532
 8069SOL    HW225107   2.697   5.078   2.641
 8070SOL     OW25108   4.823   5.101   0.353
 8070SOL    HW125109   4.747   5.134   0.409
 8070SOL    HW225110   4.878   5.179   0.323
 8071SOL     OW25111   2.943   6.644   5.470
 8071SOL    HW125112   2.968   6.686   5.557
 8071SOL    HW225113   2.872   6.576   5.485
 8072SOL     OW25114   1.382   2.127   5.585
 8072SOL    HW125115   1.325   2.178   5.520
 8072SOL    HW225116   1.328   2.107   5.667
 8073SOL     OW25117   3.823   0.243   6.532
 8073SOL    HW125118   3.782   0.311   6.594
 8073SOL    HW225119   3.782   0.252   6.441
 8074SOL     OW25120   1.458   1.232   6.608
 8074SOL    HW125121   1.422   1.267   6.695
 8074SOL    HW225122   1.386   1.235   6.539
 8075SOL     OW25123   0.816   6.841   0.772
 8075SOL    HW125124   0.862   6.912   0.719
 8075SOL    HW225125   0.880   6.798   0.835
 8076SOL     OW25126   0.331   5.997   0.608
 8076SOL    HW125127   0.245   5.956   0.576
 8076SOL    HW225128   0.348   6.082   0.558
 8077SOL     OW25129   4.678   4.866   0.918
 8077SOL    HW125130   4.622   4.784   0.926
 8077SOL    HW225131   4.635   4.941   0.968
 8078SOL     OW25132   0.322   0.513   2.326
 8078SOL    HW125133   0.263   0.532   2.248
 8078SOL    HW225134   0.379   0.593   2.345
 8079SOL     OW25135   1.321   2.300   5.306
 8079SOL    HW125136   1.285   2.220   5.258
 8079SOL    HW225137   1.378   2.353   5.245
 8080SOL     OW25138   1.497   2.825   2.938
 8080SOL    HW125139   1.401   2.851   2.950
 8080SOL    HW225140   1.511   2.733   2.973
 8081SOL     OW25141   6.467   5.808   4.318
 8081SOL    HW125142   6.531   5.802   4.241
 8081SOL    HW225143   6.412   5.891   4.308
 8082SOL     OW25144   4.175   1.938   1.882
 8082SOL    HW125145   4.093   1.978   1.923
 8082SOL    HW225146   4.238   1.909   1.955
 8083SOL     OW25147   5.896   2.455   4.815
 8083SOL    HW125148   5.896   2.355   4.804
 8083SOL    HW225149   5.824   2.495   4.758
 8084SOL     OW25150   2.813   0.849   5.959
 8084SOL    HW125151   2.813   0.898   5.872
 8084SOL    HW225152   2.793   0.753   5.944
 8085SOL     OW25153   1.476   6.101   4.217
 8085SOL    HW125154   1.481   6.009   4.256
 8085SOL    HW225155   1.541   6.108   4.141
 8086SOL     OW25156   6.733   1.166   1.840
 8086SOL    HW125157   6.810   1.216   1.799
 8086SOL    HW225158   6.684   1.227   1.902
 8087SOL     OW25159   1.131   0.853   0.744
 8087SOL    HW125160   1.155   0.758   0.722
 8087SOL    HW225161   1.171   0.914   0.677
 8088SOL     OW25162   6.452   6.940   4.962
 8088SOL    HW125163   6.378   6.886   4.922
 8088SOL    HW225164   6.476   6.901   5.051
 8089SOL     OW25165   5.324   2.714   6.173
 8089SOL    HW125166   5.395   2.680   6.112
 8089SOL    HW225167   5.349   2.806   6.206
 8090SOL     OW25168   4.145   2.026   5.476
 8090SOL    HW125169   4.195   2.033   5.389
 8090SOL    HW225170   4.047   2.018   5.457
 8091SOL     OW25171   1.746   4.600   4.534
 8091SOL    HW125172   1.840   4.623   4.558
 8091SOL    HW225173   1.692   4.685   4.525
 8092SOL     OW25174   4.901   2.284   5.301
 8092SOL    HW125175   4.849   2.222   5.242
 8092SOL    HW225176   4.852   2.296   5.387
 8093SOL     OW25177   4.299   6.541   2.134
 8093SOL    HW125178   4.378   6.552   2.074
 8093SOL    HW225179   4.317   6.468   2.200
 8094SOL     OW25180   1.660   4.021   3.562
 8094SOL    HW125181   1.667   4.060   3.653
 8094SOL    HW225182   1.730   3.949   3.551
 8095SOL     OW25183   1.067   4.610   5.782
 8095SOL    HW125184   1.135   4.581   5.715
 8095SOL    HW225185   1.058   4.541   5.853
 8096SOL     OW25186   1.134   5.726   1.920
 8096SOL    HW125187   1.093   5.774   1.998
 8096SOL    HW225188   1.145   5.790   1.844
 8097SOL     OW25189   3.703   5.514   5.157
 8097SOL    HW125190   3.658   5.534   5.244
 8097SOL    HW225191   3.710   5.415   5.144
 8098SOL     OW25192   1.541   5.370   5.004
 8098SOL    HW125193   1.587   5.452   5.039
 8098SOL    HW225194   1.606   5.315   4.952
 8099SOL     OW25195   2.551   5.731   3.619
 8099SOL    HW125196   2.513   5.645   3.653
 8099SOL    HW225197   2.491   5.807   3.646
 8100SOL     OW25198   0.264   0.465   6.685
 8100SOL    HW125199   0.234   0.448   6.778
 8100SOL    HW225200   0.360   0.437   6.675
 8101SOL     OW25201   2.587   6.009   2.078
 8101SOL    HW125202   2.642   5.926   2.081
 8101SOL    HW225203   2.524   6.009   2.157
 8102SOL     OW25204   1.338   3.267   5.078
 8102SOL    HW125205   1.411   3.335   5.076
 8102SOL    HW225206   1.345   3.208   4.997
 8103SOL     OW25207   3.126   1.328   2.105
 8103SOL    HW125208   3.200   1.270   2.137
 8103SOL    HW225209   3.091   1.383   2.181
 8104SOL     OW25210   2.486   6.436   0.193
 8104SOL    HW125211   2.420   6.365   0.218
 8104SOL    HW225212   2.469   6.464   0.098
 8105SOL     OW25213   6.977   1.038   2.759
 8105SOL    HW125214   6.994   0.970   2.830
 8105SOL    HW225215   0.011   1.119   2.778
 8106SOL     OW25216   2.650   6.214   5.248
 8106SOL    HW125217   2.617   6.220   5.154
 8106SOL    HW225218   2.678   6.120   5.267
 8107SOL     OW25219   1.924   5.571   5.749
 8107SOL    HW125220   1.853   5.622   5.798
 8107SOL    HW225221   1.925   5.476   5.781
 8108SOL     OW25222   0.494   1.350   6.559
 8108SOL    HW125223   0.491   1.256   6.524
 8108SOL    HW225224   0.541   1.409   6.493
 8109SOL     OW25225   6.815   3.076   0.529
 8109SOL    HW125226   6.861   3.150   0.577
 8109SOL    HW225227   6.755   3.114   0.458
 8110SOL     OW25228   4.212   4.864   0.879
 8110SOL    HW125229   4.193   4.777   0.836
 8110SOL    HW225230   4.191   4.858   0.977
 8111SOL     OW25231   6.116   1.546   3.362
 8111SOL    HW125232   6.168   1.466   3.335
 8111SOL    HW225233   6.054   1.522   3.437
 8112SOL     OW25234   0.906   3.488   5.918
 8112SOL    HW125235   0.903   3.389   5.926
 8112SOL    HW225236   0.978   3.514   5.854
 8113SOL     OW25237   5.603   2.830   0.259
 8113SOL    HW125238   5.587   2.921   0.298
 8113SOL    HW225239   5.688   2.830   0.206
 8114SOL     OW25240   1.972   4.379   1.447
 8114SOL    HW125241   1.891   4.320   1.449
 8114SOL    HW225242   2.050   4.327   1.413
 8115SOL     OW25243   2.053   0.979   6.632
 8115SOL    HW125244   2.093   1.013   6.718
 8115SOL    HW225245   2.077   1.042   6.558
 8116SOL     OW25246   3.042   4.242   1.439
 8116SOL    HW125247   3.100   4.172   1.397
 8116SOL    HW225248   2.950   4.205   1.454
 8117SOL     OW25249   3.000   6.850   2.740
 8117SOL    HW125250   3.047   6.928   2.699
 8117SOL    HW225251   2.916   6.882   2.784
 8118SOL     OW25252   6.672   3.170   0.273
 8118SOL    HW125253   6.602   3.114   0.228
 8118SOL    HW225254   6.629   3.253   0.309
 8119SOL     OW25255   6.002   5.824   6.585
 8119SOL    HW125256   5.957   5.913   6.581
 8119SOL    HW225257   6.099   5.836   6.604
 8120SOL     OW25258   2.278   6.074   1.458
 8120SOL    HW125259   2.274   6.121   1.370
 8120SOL    HW225260   2.282   6.141   1.532
 8121SOL     OW25261   1.063   2.724   2.411
 8121SOL    HW125262   1.119   2.765   2.483
 8121SOL    HW225263   0.968   2.753   2.423
 8122SOL     OW25264   0.923   4.255   2.160
 8122SOL    HW125265   0.824   4.253   2.176
 8122SOL    HW225266   0.948   4.342   2.117
 8123SOL     OW25267   0.205   1.975   5.492
 8123SOL    HW125268   0.283   2.026   5.457
 8123SOL    HW225269   0.172   2.018   5.576
 8124SOL     OW25270   5.501   5.007   4.688
 8124SOL    HW125271   5.520   5.021   4.591
 8124SOL    HW225272   5.553   4.928   4.721
 8125SOL     OW25273   1.035   6.762   2.640
 8125SOL    HW125274   1.081   6.832   2.584
 8125SOL    HW225275   0.967   6.806   2.699
 8126SOL     OW25276   3.945   4.927   4.546
 8126SOL    HW125277   3.977   5.015   4.511
 8126SOL    HW225278   4.023   4.869   4.569
 8127SOL     OW25279   3.326   2.863   0.214
 8127SOL    HW125280   3.290   2.863   0.121
 8127SOL    HW225281   3.251   2.878   0.279
 8128SOL     OW25282   3.358   2.692   1.838
 8128SOL    HW125283   3.327   2.777   1.879
 8128SOL    HW225284   3.286   2.653   1.781
 8129SOL     OW25285   1.184   2.874   0.787
 8129SOL    HW125286   1.259   2.862   0.852
 8129SOL    HW225287   1.108   2.814   0.812
 8130SOL     OW25288   1.456   4.906   6.813
 8130SOL    HW125289   1.401   4.954   6.745
 8130SOL    HW225290   1.489   4.971   6.881
 8131SOL     OW25291   2.310   3.855   1.081
 8131SOL    HW125292   2.265   3.862   0.992
 8131SOL    HW225293   2.356   3.942   1.102
 8132SOL     OW25294   0.336   6.783   4.874
 8132SOL    HW125295   0.402   6.729   4.927
 8132SOL    HW225296   0.386   6.844   4.812
 8133SOL     OW25297   3.350   5.275   1.059
 8133SOL    HW125298   3.274   5.275   0.993
 8133SOL    HW225299   3.363   5.368   1.094
 8134SOL     OW25300   6.043   1.032   5.249
 8134SOL    HW125301   6.135   1.019   5.214
 8134SOL    HW225302   6.029   0.976   5.330
 8135SOL     OW25303   2.465   6.847   1.552
 8135SOL    HW125304   2.479   6.748   1.553
 8135SOL    HW225305   2.553   6.893   1.550
 8136SOL     OW25306   4.492   5.266   2.222
 8136SOL    HW125307   4.494   5.221   2.133
 8136SOL    HW225308   4.517   5.362   2.212
 8137SOL     OW25309   3.709   1.947   4.517
 8137SOL    HW125310   3.764   1.896   4.451
 8137SOL    HW225311   3.643   1.885   4.560
 8138SOL     OW25312   4.984   0.995   1.418
 8138SOL    HW125313   5.063   0.937   1.398
 8138SOL    HW225314   5.014   1.076   1.469
 8139SOL     OW25315   1.069   1.635   2.794
 8139SOL    HW125316   1.038   1.592   2.709
 8139SOL    HW225317   1.137   1.705   2.774
 8140SOL     OW25318   3.578   1.116   3.519
 8140SOL    HW125319   3.600   1.171   3.599
 8140SOL    HW225320   3.601   1.020   3.536
 8141SOL     OW25321   4.245   5.220   4.640
 8141SOL    HW125322   4.324   5.279   4.655
 8141SOL    HW225323   4.275   5.125   4.634
 8142SOL     OW25324   6.267   5.511   0.479
 8142SOL    HW125325   6.284   5.591   0.421
 8142SOL    HW225326   6.288   5.535   0.574
 8143SOL     OW25327   5.929   4.259   5.649
 8143SOL    HW125328   5.891   4.350   5.663
 8143SOL    HW225329   6.023   4.257   5.683
 8144SOL     OW25330   5.687   6.587   6.523
 8144SOL    HW125331   5.655   6.499   6.557
 8144SOL    HW225332   5.625   6.659   6.552
 8145SOL     OW25333   5.948   5.900   2.433
 8145SOL    HW125334   5.934   5.912   2.335
 8145SOL    HW225335   6.042   5.923   2.456
 8146SOL     OW25336   3.318   1.278   4.949
 8146SOL    HW125337   3.386   1.210   4.978
 8146SOL    HW225338   3.322   1.357   5.010
 8147SOL     OW25339   4.869   1.902   3.891
 8147SOL    HW125340   4.818   1.823   3.857
 8147SOL    HW225341   4.832   1.986   3.850
 8148SOL     OW25342   5.692   3.489   3.180
 8148SOL    HW125343   5.692   3.410   3.119
 8148SOL    HW225344   5.748   3.562   3.139
 8149SOL     OW25345   4.162   4.789   3.494
 8149SOL    HW125346   4.169   4.772   3.395
 8149SOL    HW225347   4.078   4.841   3.513
 8150SOL     OW25348   0.455   5.220   6.453
 8150SOL    HW125349   0.430   5.203   6.357
 8150SOL    HW225350   0.554   5.232   6.460
 8151SOL     OW25351   1.212   2.112   5.158
 8151SOL    HW125352   1.229   2.070   5.068
 8151SOL    HW225353   1.218   2.041   5.228
 8152SOL     OW25354   1.609   0.644   3.129
 8152SOL    HW125355   1.682   0.702   3.166
 8152SOL    HW225356   1.649   0.572   3.072
 8153SOL     OW25357   2.461   6.343   0.583
 8153SOL    HW125358   2.367   6.348   0.548
 8153SOL    HW225359   2.467   6.272   0.653
 8154SOL     OW25360   1.699   6.696   3.745
 8154SOL    HW125361   1.717   6.792   3.723
 8154SOL    HW225362   1.725   6.639   3.667
 8155SOL     OW25363   2.912   3.314   3.113
 8155SOL    HW125364   2.900   3.404   3.154
 8155SOL    HW225365   2.929   3.246   3.185
 8156SOL     OW25366   6.345   0.217   5.966
 8156SOL    HW125367   6.369   0.296   5.909
 8156SOL    HW225368   6.395   0.137   5.934
 8157SOL     OW25369   6.095   3.944   6.783
 8157SOL    HW125370   6.143   3.871   6.735
 8157SOL    HW225371   6.063   4.012   6.717
 8158SOL     OW25372   1.430   5.322   2.344
 8158SOL    HW125373   1.361   5.389   2.316
 8158SOL    HW225374   1.486   5.297   2.264
 8159SOL     OW25375   1.726   6.326   2.433
 8159SOL    HW125376   1.791   6.331   2.509
 8159SOL    HW225377   1.749   6.394   2.364
 8160SOL     OW25378   4.153   2.214   1.642
 8160SOL    HW125379   4.106   2.296   1.611
 8160SOL    HW225380   4.086   2.146   1.673
 8161SOL     OW25381   5.182   1.103   0.428
 8161SOL    HW125382   5.164   1.185   0.482
 8161SOL    HW225383   5.099   1.046   0.425
 8162SOL     OW25384   5.647   0.571   1.534
 8162SOL    HW125385   5.664   0.543   1.629
 8162SOL    HW225386   5.598   0.498   1.487
 8163SOL     OW25387   2.314   4.117   5.314
 8163SOL    HW125388   2.338   4.042   5.252
 8163SOL    HW225389   2.358   4.102   5.402
 8164SOL     OW25390   4.411   2.354   2.026
 8164SOL    HW125391   4.450   2.445   2.016
 8164SOL    HW225392   4.392   2.316   1.935
 8165SOL     OW25393   2.249   4.555   1.639
 8165SOL    HW125394   2.156   4.534   1.608
 8165SOL    HW225395   2.248   4.574   1.737
 8166SOL     OW25396   2.701   6.939   2.018
 8166SOL    HW125397   2.748   6.934   1.930
 8166SOL    HW225398   2.755   6.994   2.081
 8167SOL     OW25399   6.145   2.397   4.109
 8167SOL    HW125400   6.229   2.450   4.125
 8167SOL    HW225401   6.093   2.440   4.035
 8168SOL     OW25402   3.441   1.271   3.039
 8168SOL    HW125403   3.480   1.254   3.130
 8168SOL    HW225404   3.374   1.200   3.017
 8169SOL     OW25405   4.447   3.856   6.686
 8169SOL    HW125406   4.441   3.935   6.625
 8169SOL    HW225407   4.432   3.885   6.780
 8170SOL     OW25408   0.848   5.475   3.994
 8170SOL    HW125409   0.945   5.465   3.974
 8170SOL    HW225410   0.796   5.472   3.909
 8171SOL     OW25411   0.703   2.128   5.789
 8171SOL    HW125412   0.746   2.217   5.804
 8171SOL    HW225413   0.715   2.071   5.870
 8172SOL     OW25414   0.372   6.557   1.190
 8172SOL    HW125415   0.401   6.593   1.102
 8172SOL    HW225416   0.303   6.486   1.176
 8173SOL     OW25417   4.514   2.037   6.605
 8173SOL    HW125418   4.496   1.970   6.532
 8173SOL    HW225419   4.464   2.121   6.585
 8174SOL     OW25420   5.803   0.659   2.311
 8174SOL    HW125421   5.704   0.673   2.317
 8174SOL    HW225422   5.825   0.601   2.233
 8175SOL     OW25423   0.855   2.800   6.171
 8175SOL    HW125424   0.761   2.801   6.139
 8175SOL    HW225425   0.868   2.725   6.237
 8176SOL     OW25426   2.740   5.647   2.407
 8176SOL    HW125427   2.695   5.631   2.495
 8176SOL    HW225428   2.834   5.679   2.422
 8177SOL     OW25429   0.225   6.503   5.368
 8177SOL    HW125430   0.272   6.415   5.375
 8177SOL    HW225431   0.212   6.540   5.460
 8178SOL     OW25432   2.340   6.500   6.335
 8178SOL    HW125433   2.298   6.578   6.289
 8178SOL    HW225434   2.432   6.485   6.298
 8179SOL     OW25435   3.222   1.888   0.470
 8179SOL    HW125436   3.224   1.802   0.420
 8179SOL    HW225437   3.301   1.892   0.532
 8180SOL     OW25438   5.966   5.940   5.358
 8180SOL    HW125439   5.938   5.908   5.268
 8180SOL    HW225440   6.017   6.025   5.349
 8181SOL     OW25441   2.614   2.403   2.987
 8181SOL    HW125442   2.590   2.406   2.890
 8181SOL    HW225443   2.700   2.352   2.998
 8182SOL     OW25444   3.677   2.717   5.413
 8182SOL    HW125445   3.690   2.728   5.511
 8182SOL    HW225446   3.761   2.683   5.371
 8183SOL     OW25447   1.188   3.481   4.721
 8183SOL    HW125448   1.271   3.525   4.754
 8183SOL    HW225449   1.201   3.449   4.627
 8184SOL     OW25450   6.209   5.775   5.377
 8184SOL    HW125451   6.116   5.795   5.409
 8184SOL    HW225452   6.275   5.817   5.439
 8185SOL     OW25453   2.359   1.396   2.473
 8185SOL    HW125454   2.415   1.448   2.408
 8185SOL    HW225455   2.280   1.358   2.426
 8186SOL     OW25456   3.431   5.009   5.901
 8186SOL    HW125457   3.380   4.936   5.946
 8186SOL    HW225458   3.408   5.011   5.804
 8187SOL     OW25459   1.379   2.024   4.947
 8187SOL    HW125460   1.439   2.024   5.027
 8187SOL    HW225461   1.333   1.935   4.940
 8188SOL     OW25462   5.436   3.160   3.077
 8188SOL    HW125463   5.441   3.193   3.171
 8188SOL    HW225464   5.416   3.236   3.016
 8189SOL     OW25465   6.306   4.024   2.410
 8189SOL    HW125466   6.321   3.925   2.413
 8189SOL    HW225467   6.381   4.071   2.456
 8190SOL     OW25468   5.033   3.691   3.049
 8190SOL    HW125469   5.129   3.718   3.045
 8190SOL    HW225470   4.980   3.742   2.981
 8191SOL     OW25471   0.969   5.003   3.476
 8191SOL    HW125472   0.934   4.924   3.426
 8191SOL    HW225473   0.894   5.050   3.521
 8192SOL     OW25474   1.807   4.593   1.386
 8192SOL    HW125475   1.877   4.522   1.399
 8192SOL    HW225476   1.745   4.565   1.313
 8193SOL     OW25477   3.931   0.020   5.714
 8193SOL    HW125478   3.862   7.003   5.653
 8193SOL    HW225479   3.887   0.062   5.793
 8194SOL     OW25480   0.877   0.222   0.392
 8194SOL    HW125481   0.958   0.280   0.395
 8194SOL    HW225482   0.831   0.234   0.304
 8195SOL     OW25483   6.821   6.405   0.558
 8195SOL    HW125484   6.869   6.336   0.613
 8195SOL    HW225485   6.859   6.406   0.465
 8196SOL     OW25486   2.472   0.088   6.394
 8196SOL    HW125487   2.472   0.123   6.301
 8196SOL    HW225488   2.464   0.164   6.459
 8197SOL     OW25489   0.414   0.031   6.540
 8197SOL    HW125490   0.383   6.965   6.503
 8197SOL    HW225491   0.487   0.016   6.606
 8198SOL     OW25492   3.682   6.205   3.082
 8198SOL    HW125493   3.630   6.191   3.167
 8198SOL    HW225494   3.619   6.224   3.007
 8199SOL     OW25495   6.508   3.796   0.277
 8199SOL    HW125496   6.419   3.809   0.319
 8199SOL    HW225497   6.506   3.833   0.184
 8200SOL     OW25498   4.918   4.073   1.212
 8200SOL    HW125499   4.955   4.128   1.137
 8200SOL    HW225500   4.954   3.980   1.206
 8201SOL     OW25501   5.925   0.567   3.957
 8201SOL    HW125502   5.948   0.650   3.906
 8201SOL    HW225503   5.872   0.591   4.039
 8202SOL     OW25504   1.828   4.228   3.117
 8202SOL    HW125505   1.832   4.321   3.155
 8202SOL    HW225506   1.734   4.195   3.119
 8203SOL     OW25507   5.597   3.185   0.725
 8203SOL    HW125508   5.563   3.125   0.798
 8203SOL    HW225509   5.616   3.275   0.762
 8204SOL     OW25510   3.039   0.051   1.960
 8204SOL    HW125511   3.017   0.137   1.914
 8204SOL    HW225512   3.010   6.995   1.903
 8205SOL     OW25513   6.016   5.011   3.299
 8205SOL    HW125514   6.050   5.062   3.220
 8205SOL    HW225515   5.920   5.033   3.314
 8206SOL     OW25516   4.632   2.377   3.951
 8206SOL    HW125517   4.713   2.392   3.895
 8206SOL    HW225518   4.659   2.336   4.038
 8207SOL     OW25519   2.658   6.180   7.003
 8207SOL    HW125520   2.630   6.259   6.949
 8207SOL    HW225521   2.627   6.096   6.957
 8208SOL     OW25522   1.248   4.493   6.589
 8208SOL    HW125523   1.337   4.510   6.546
 8208SOL    HW225524   1.224   4.397   6.579
 8209SOL     OW25525   0.421   6.894   5.395
 8209SOL    HW125526   0.456   6.876   5.302
 8209SOL    HW225527   0.331   6.938   5.389
 8210SOL     OW25528   3.079   2.030   6.928
 8210SOL    HW125529   3.072   2.067   6.835
 8210SOL    HW225530   3.034   1.941   6.932
 8211SOL     OW25531   3.001   3.269   4.438
 8211SOL    HW125532   3.080   3.327   4.424
 8211SOL    HW225533   2.937   3.279   4.362
 8212SOL     OW25534   3.318   6.976   0.683
 8212SOL    HW125535   3.292   0.044   0.719
 8212SOL    HW225536   3.413   6.956   0.707
 8213SOL     OW25537   4.340   4.048   1.635
 8213SOL    HW125538   4.248   4.076   1.608
 8213SOL    HW225539   4.373   4.107   1.709
 8214SOL     OW25540   4.256   5.523   4.389
 8214SOL    HW125541   4.238   5.540   4.486
 8214SOL    HW225542   4.248   5.609   4.338
 8215SOL     OW25543   3.604   6.629   0.062
 8215SOL    HW125544   3.509   6.647   0.088
 8215SOL    HW225545   3.608   6.553   7.018
 8216SOL     OW25546   5.887   4.551   1.593
 8216SOL    HW125547   5.869   4.621   1.662
 8216SOL    HW225548   5.886   4.593   1.502
 8217SOL     OW25549   3.016   6.335   3.941
 8217SOL    HW125550   3.002   6.252   3.887
 8217SOL    HW225551   3.017   6.414   3.880
 8218SOL     OW25552   3.071   0.021   4.758
 8218SOL    HW125553   2.994   7.017   4.699
 8218SOL    HW225554   3.038   0.075   4.835
 8219SOL     OW25555   3.944   3.047   1.076
 8219SOL    HW125556   4.000   2.966   1.060
 8219SOL    HW225557   3.878   3.029   1.149
 8220SOL     OW25558   3.971   3.886   4.241
 8220SOL    HW125559   3.989   3.812   4.175
 8220SOL    HW225560   3.963   3.973   4.192
 8221SOL     OW25561   5.533   4.075   3.217
 8221SOL    HW125562   5.558   3.980   3.198
 8221SOL    HW225563   5.459   4.103   3.157
 8222SOL     OW25564   6.877   3.112   0.103
 8222SOL    HW125565   6.803   3.112   0.171
 8222SOL    HW225566   6.915   3.020   0.096
 8223SOL     OW25567   1.715   6.052   5.539
 8223SOL    HW125568   1.673   6.118   5.477
 8223SOL    HW225569   1.784   5.999   5.490
 8224SOL     OW25570   5.402   1.824   0.507
 8224SOL    HW125571   5.478   1.760   0.504
 8224SOL    HW225572   5.402   1.881   0.424
 8225SOL     OW25573   5.127   1.879   0.246
 8225SOL    HW125574   5.039   1.902   0.288
 8225SOL    HW225575   5.115   1.806   0.179
 8226SOL     OW25576   3.923   0.104   0.349
 8226SOL    HW125577   4.019   0.095   0.375
 8226SOL    HW225578   3.917   0.142   0.257
 8227SOL     OW25579   4.750   2.367   2.680
 8227SOL    HW125580   4.701   2.284   2.709
 8227SOL    HW225581   4.804   2.402   2.757
 8228SOL     OW25582   2.218   0.086   4.571
 8228SOL    HW125583   2.316   0.087   4.554
 8228SOL    HW225584   2.172   0.145   4.505
 8229SOL     OW25585   4.653   4.268   0.593
 8229SOL    HW125586   4.676   4.314   0.679
 8229SOL    HW225587   4.572   4.310   0.554
 8230SOL     OW25588   5.757   0.793   6.513
 8230SOL    HW125589   5.725   0.878   6.555
 8230SOL    HW225590   5.695   0.718   6.536
 8231SOL     OW25591   2.363   2.085   2.761
 8231SOL    HW125592   2.417   2.080   2.677
 8231SOL    HW225593   2.420   2.118   2.836
 8232SOL     OW25594   3.468   5.564   3.277
 8232SOL    HW125595   3.564   5.583   3.296
 8232SOL    HW225596   3.447   5.469   3.300
 8233SOL     OW25597   0.407   1.251   5.846
 8233SOL    HW125598   0.336   1.212   5.787
 8233SOL    HW225599   0.370   1.264   5.938
 8234SOL     OW25600   0.790   1.898   0.720
 8234SOL    HW125601   0.808   1.934   0.629
 8234SOL    HW225602   0.692   1.899   0.738
 8235SOL     OW25603   0.743   6.585   1.322
 8235SOL    HW125604   0.681   6.636   1.261
 8235SOL    HW225605   0.819   6.548   1.268
 8236SOL     OW25606   0.681   6.467   1.552
 8236SOL    HW125607   0.691   6.528   1.474
 8236SOL    HW225608   0.606   6.499   1.610
 8237SOL     OW25609   4.434   5.152   6.464
 8237SOL    HW125610   4.490   5.083   6.510
 8237SOL    HW225611   4.337   5.135   6.483
 8238SOL     OW25612   0.596   5.056   0.265
 8238SOL    HW125613   0.555   5.091   0.350
 8238SOL    HW225614   0.684   5.101   0.250
 8239SOL     OW25615   1.546   1.763   5.153
 8239SOL    HW125616   1.546   1.691   5.083
 8239SOL    HW225617   1.577   1.849   5.112
 8240SOL     OW25618   3.215   3.517   4.917
 8240SOL    HW125619   3.144   3.510   4.847
 8240SOL    HW225620   3.172   3.523   5.007
 8241SOL     OW25621   2.068   4.062   5.426
 8241SOL    HW125622   2.152   4.051   5.372
 8241SOL    HW225623   2.019   4.143   5.394
 8242SOL     OW25624   0.454   2.762   2.948
 8242SOL    HW125625   0.465   2.861   2.945
 8242SOL    HW225626   0.525   2.722   3.005
 8243SOL     OW25627   1.719   6.118   4.072
 8243SOL    HW125628   1.776   6.135   4.152
 8243SOL    HW225629   1.770   6.138   3.989
 8244SOL     OW25630   0.272   1.480   3.987
 8244SOL    HW125631   0.272   1.454   3.891
 8244SOL    HW225632   0.237   1.574   3.996
 8245SOL     OW25633   5.306   1.675   3.153
 8245SOL    HW125634   5.291   1.708   3.060
 8245SOL    HW225635   5.288   1.577   3.157
 8246SOL     OW25636   1.727   4.760   6.635
 8246SOL    HW125637   1.734   4.855   6.606
 8246SOL    HW225638   1.662   4.753   6.711
 8247SOL     OW25639   3.088   5.751   3.121
 8247SOL    HW125640   2.989   5.737   3.117
 8247SOL    HW225641   3.109   5.847   3.105
 8248SOL     OW25642   6.873   5.307   2.879
 8248SOL    HW125643   6.950   5.339   2.936
 8248SOL    HW225644   6.896   5.220   2.837
 8249SOL     OW25645   3.331   0.988   6.698
 8249SOL    HW125646   3.264   1.059   6.677
 8249SOL    HW225647   3.298   0.932   6.774
 8250SOL     OW25648   1.123   1.658   7.015
 8250SOL    HW125649   1.073   1.572   7.016
 8250SOL    HW225650   1.110   1.706   0.081
 8251SOL     OW25651   1.108   2.654   4.901
 8251SOL    HW125652   1.016   2.638   4.865
 8251SOL    HW225653   1.121   2.751   4.918
 8252SOL     OW25654   0.981   2.383   6.509
 8252SOL    HW125655   0.952   2.288   6.500
 8252SOL    HW225656   0.945   2.437   6.432
 8253SOL     OW25657   4.431   5.919   0.429
 8253SOL    HW125658   4.347   5.874   0.458
 8253SOL    HW225659   4.453   5.890   0.336
 8254SOL     OW25660   5.426   4.935   6.484
 8254SOL    HW125661   5.522   4.935   6.454
 8254SOL    HW225662   5.392   5.029   6.486
 8255SOL     OW25663   2.113   1.043   6.008
 8255SOL    HW125664   2.114   0.953   6.053
 8255SOL    HW225665   2.204   1.085   6.016
 8256SOL     OW25666   1.572   5.052   5.070
 8256SOL    HW125667   1.632   5.031   5.147
 8256SOL    HW225668   1.531   5.143   5.084
 8257SOL     OW25669   5.306   3.846   3.063
 8257SOL    HW125670   5.294   3.945   3.073
 8257SOL    HW225671   5.387   3.827   3.008
 8258SOL     OW25672   6.858   3.513   1.775
 8258SOL    HW125673   6.904   3.477   1.695
 8258SOL    HW225674   6.920   3.513   1.853
 8259SOL     OW25675   5.557   1.566   3.903
 8259SOL    HW125676   5.571   1.473   3.868
 8259SOL    HW225677   5.628   1.588   3.969
 8260SOL     OW25678   4.113   2.089   0.993
 8260SOL    HW125679   4.193   2.030   0.984
 8260SOL    HW225680   4.039   2.039   1.037
 8261SOL     OW25681   5.748   1.188   2.734
 8261SOL    HW125682   5.664   1.234   2.706
 8261SOL    HW225683   5.767   1.208   2.831
 8262SOL     OW25684   5.859   3.815   1.647
 8262SOL    HW125685   5.839   3.910   1.671
 8262SOL    HW225686   5.784   3.756   1.676
 8263SOL     OW25687   6.635   2.077   5.841
 8263SOL    HW125688   6.542   2.044   5.823
 8263SOL    HW225689   6.648   2.085   5.940
 8264SOL     OW25690   3.059   0.154   2.875
 8264SOL    HW125691   3.086   0.081   2.939
 8264SOL    HW225692   3.111   0.144   2.790
 8265SOL     OW25693   4.755   6.535   0.333
 8265SOL    HW125694   4.751   6.634   0.317
 8265SOL    HW225695   4.671   6.505   0.379
 8266SOL     OW25696   2.964   0.888   3.680
 8266SOL    HW125697   2.889   0.924   3.736
 8266SOL    HW225698   2.957   0.788   3.678
 8267SOL     OW25699   1.819   3.471   2.397
 8267SOL    HW125700   1.836   3.375   2.374
 8267SOL    HW225701   1.905   3.521   2.401
 8268SOL     OW25702   3.233   4.836   6.450
 8268SOL    HW125703   3.248   4.809   6.545
 8268SOL    HW225704   3.176   4.767   6.405
 8269SOL     OW25705   6.604   3.473   4.389
 8269SOL    HW125706   6.557   3.385   4.379
 8269SOL    HW225707   6.603   3.521   4.301
 8270SOL     OW25708   3.672   6.701   6.691
 8270SOL    HW125709   3.593   6.753   6.725
 8270SOL    HW225710   3.754   6.757   6.698
 8271SOL     OW25711   3.723   6.034   6.139
 8271SOL    HW125712   3.740   6.104   6.070
 8271SOL    HW225713   3.625   6.020   6.149
 8272SOL     OW25714   0.470   0.327   2.159
 8272SOL    HW125715   0.428   0.371   2.239
 8272SOL    HW225716   0.494   0.398   2.092
 8273SOL     OW25717   3.761   0.604   6.788
 8273SOL    HW125718   3.836   0.637   6.730
 8273SOL    HW225719   3.798   0.569   6.874
 8274SOL     OW25720   5.216   6.401   5.424
 8274SOL    HW125721   5.121   6.385   5.399
 8274SOL    HW225722   5.276   6.357   5.357
 8275SOL     OW25723   5.437   0.348   3.897
 8275SOL    HW125724   5.399   0.414   3.962
 8275SOL    HW225725   5.407   0.256   3.922
 8276SOL     OW25726   6.716   1.670   6.878
 8276SOL    HW125727   6.755   1.686   6.969
 8276SOL    HW225728   6.766   1.724   6.811
 8277SOL     OW25729   1.557   7.010   6.928
 8277SOL    HW125730   1.501   0.010   6.847
 8277SOL    HW225731   1.568   0.072   6.983
 8278SOL     OW25732   3.042   1.123   0.597
 8278SOL    HW125733   3.105   1.165   0.661
 8278SOL    HW225734   3.056   1.024   0.597
 8279SOL     OW25735   3.776   5.962   5.044
 8279SOL    HW125736   3.727   6.027   4.987
 8279SOL    HW225737   3.810   6.008   5.126
 8280SOL     OW25738   5.570   3.759   0.286
 8280SOL    HW125739   5.478   3.779   0.321
 8280SOL    HW225740   5.564   3.741   0.187
 8281SOL     OW25741   2.905   5.503   0.449
 8281SOL    HW125742   2.848   5.426   0.418
 8281SOL    HW225743   2.849   5.584   0.459
 8282SOL     OW25744   2.795   2.939   1.495
 8282SOL    HW125745   2.830   2.853   1.532
 8282SOL    HW225746   2.870   2.991   1.454
 8283SOL     OW25747   0.440   6.534   3.870
 8283SOL    HW125748   0.493   6.593   3.932
 8283SOL    HW225749   0.455   6.438   3.894
 8284SOL     OW25750   3.310   1.558   2.251
 8284SOL    HW125751   3.222   1.530   2.290
 8284SOL    HW225752   3.304   1.553   2.151
 8285SOL     OW25753   2.339   4.742   0.120
 8285SOL    HW125754   2.395   4.787   0.051
 8285SOL    HW225755   2.303   4.656   0.082
 8286SOL     OW25756   5.477   2.211   4.991
 8286SOL    HW125757   5.453   2.265   4.911
 8286SOL    HW225758   5.474   2.269   5.073
 8287SOL     OW25759   1.716   6.825   4.002
 8287SOL    HW125760   1.696   6.856   4.095
 8287SOL    HW225761   1.667   6.740   3.984
 8288SOL     OW25762   2.022   6.952   2.926
 8288SOL    HW125763   2.083   6.885   2.884
 8288SOL    HW225764   1.997   0.001   2.859
 8289SOL     OW25765   6.339   1.301   6.179
 8289SOL    HW125766   6.345   1.401   6.177
 8289SOL    HW225767   6.259   1.274   6.233
 8290SOL     OW25768   4.518   2.681   1.761
 8290SOL    HW125769   4.421   2.685   1.739
 8290SOL    HW225770   4.564   2.763   1.727
 8291SOL     OW25771   4.201   5.557   6.554
 8291SOL    HW125772   4.280   5.507   6.520
 8291SOL    HW225773   4.174   5.626   6.487
 8292SOL     OW25774   0.464   3.383   4.650
 8292SOL    HW125775   0.520   3.300   4.654
 8292SOL    HW225776   0.417   3.395   4.737
 8293SOL     OW25777   3.271   5.116   3.521
 8293SOL    HW125778   3.220   5.075   3.597
 8293SOL    HW225779   3.318   5.198   3.553
 8294SOL     OW25780   4.227   3.759   6.231
 8294SOL    HW125781   4.284   3.841   6.243
 8294SOL    HW225782   4.146   3.783   6.178
 8295SOL     OW25783   5.304   4.904   2.271
 8295SOL    HW125784   5.224   4.964   2.262
 8295SOL    HW225785   5.281   4.813   2.237
 8296SOL     OW25786   4.024   6.880   1.832
 8296SOL    HW125787   4.058   6.912   1.920
 8296SOL    HW225788   3.967   6.799   1.846
 8297SOL     OW25789   5.699   4.528   3.672
 8297SOL    HW125790   5.635   4.491   3.605
 8297SOL    HW225791   5.787   4.480   3.664
 8298SOL     OW25792   6.943   6.785   6.814
 8298SOL    HW125793   6.959   6.709   6.876
 8298SOL    HW225794   6.946   6.871   6.865
 8299SOL     OW25795   0.834   3.637   1.070
 8299SOL    HW125796   0.818   3.541   1.049
 8299SOL    HW225797   0.835   3.690   0.985
 8300SOL     OW25798   5.762   5.115   3.569
 8300SOL    HW125799   5.856   5.092   3.593
 8300SOL    HW225800   5.699   5.064   3.628
 8301SOL     OW25801   5.466   6.768   6.952
 8301SOL    HW125802   5.379   6.802   6.915
 8301SOL    HW225803   5.541   6.797   6.893
 8302SOL     OW25804   3.494   6.899   5.733
 8302SOL    HW125805   3.487   6.985   5.681
 8302SOL    HW225806   3.402   6.861   5.746
 8303SOL     OW25807   0.410   5.128   2.978
 8303SOL    HW125808   0.434   5.194   3.049
 8303SOL    HW225809   0.474   5.051   2.982
 8304SOL     OW25810   6.097   4.686   3.105
 8304SOL    HW125811   6.112   4.628   3.185
 8304SOL    HW225812   6.008   4.732   3.114
 8305SOL     OW25813   5.078   6.304   4.689
 8305SOL    HW125814   5.035   6.364   4.756
 8305SOL    HW225815   5.173   6.332   4.675
 8306SOL     OW25816   6.835   1.789   2.601
 8306SOL    HW125817   6.760   1.803   2.665
 8306SOL    HW225818   6.837   1.865   2.535
 8307SOL     OW25819   1.563   3.250   2.508
 8307SOL    HW125820   1.588   3.291   2.420
 8307SOL    HW225821   1.604   3.303   2.582
 8308SOL     OW25822   1.229   5.166   1.377
 8308SOL    HW125823   1.251   5.218   1.294
 8308SOL    HW225824   1.312   5.124   1.413
 8309SOL     OW25825   0.068   4.798   4.309
 8309SOL    HW125826   0.065   4.828   4.404
 8309SOL    HW225827   7.008   4.745   4.289
 8310SOL     OW25828   1.844   0.327   0.571
 8310SOL    HW125829   1.816   0.380   0.491
 8310SOL    HW225830   1.933   0.359   0.603
 8311SOL     OW25831   5.470   5.914   3.363
 8311SOL    HW125832   5.501   5.849   3.432
 8311SOL    HW225833   5.455   6.004   3.405
 8312SOL     OW25834   5.747   1.418   0.454
 8312SOL    HW125835   5.740   1.424   0.354
 8312SOL    HW225836   5.739   1.509   0.493
 8313SOL     OW25837   5.806   2.691   5.473
 8313SOL    HW125838   5.856   2.762   5.523
 8313SOL    HW225839   5.868   2.643   5.412
 8314SOL     OW25840   4.509   5.896   3.950
 8314SOL    HW125841   4.480   5.992   3.957
 8314SOL    HW225842   4.456   5.841   4.014
 8315SOL     OW25843   3.292   3.567   4.472
 8315SOL    HW125844   3.201   3.607   4.481
 8315SOL    HW225845   3.288   3.486   4.413
 8316SOL     OW25846   2.107   1.908   5.645
 8316SOL    HW125847   2.066   1.988   5.689
 8316SOL    HW225848   2.190   1.882   5.693
 8317SOL     OW25849   1.033   1.994   3.761
 8317SOL    HW125850   0.983   2.066   3.809
 8317SOL    HW225851   1.094   2.035   3.693
 8318SOL     OW25852   4.415   0.023   6.663
 8318SOL    HW125853   4.510   7.014   6.669
 8318SOL    HW225854   4.381   0.009   6.570
 8319SOL     OW25855   1.965   5.909   6.250
 8319SOL    HW125856   1.914   5.838   6.201
 8319SOL    HW225857   1.913   5.936   6.332
 8320SOL     OW25858   3.309   3.298   5.237
 8320SOL    HW125859   3.304   3.221   5.174
 8320SOL    HW225860   3.233   3.360   5.220
 8321SOL     OW25861   0.394   6.622   0.914
 8321SOL    HW125862   0.462   6.557   0.879
 8321SOL    HW225863   0.306   6.605   0.868
 8322SOL     OW25864   0.598   6.769   6.927
 8322SOL    HW125865   0.528   6.804   6.990
 8322SOL    HW225866   0.558   6.700   6.867
 8323SOL     OW25867   5.689   4.485   0.882
 8323SOL    HW125868   5.787   4.503   0.868
 8323SOL    HW225869   5.649   4.560   0.936
 8324SOL     OW25870   4.883   5.899   6.457
 8324SOL    HW125871   4.907   5.871   6.364
 8324SOL    HW225872   4.786   5.923   6.460
 8325SOL     OW25873   1.497   5.722   6.096
 8325SOL    HW125874   1.397   5.726   6.097
 8325SOL    HW225875   1.529   5.654   6.163
 8326SOL     OW25876   1.423   3.204   6.650
 8326SOL    HW125877   1.409   3.123   6.706
 8326SOL    HW225878   1.353   3.208   6.579
 8327SOL     OW25879   1.372   6.168   4.922
 8327SOL    HW125880   1.454   6.223   4.913
 8327SOL    HW225881   1.305   6.195   4.853
 8328SOL     OW25882   0.716   6.288   0.132
 8328SOL    HW125883   0.796   6.345   0.118
 8328SOL    HW225884   0.633   6.344   0.129
 8329SOL     OW25885   1.658   3.131   4.734
 8329SOL    HW125886   1.735   3.194   4.727
 8329SOL    HW225887   1.663   3.079   4.819
 8330SOL     OW25888   3.257   1.098   0.233
 8330SOL    HW125889   3.269   1.122   0.137
 8330SOL    HW225890   3.240   1.181   0.286
 8331SOL     OW25891   1.740   2.497   5.592
 8331SOL    HW125892   1.641   2.500   5.598
 8331SOL    HW225893   1.780   2.519   5.681
 8332SOL     OW25894   5.960   5.085   1.649
 8332SOL    HW125895   6.029   5.018   1.679
 8332SOL    HW225896   6.006   5.162   1.605
 8333SOL     OW25897   1.920   4.130   0.470
 8333SOL    HW125898   1.833   4.179   0.476
 8333SOL    HW225899   1.947   4.124   0.374
 8334SOL     OW25900   3.103   2.046   6.532
 8334SOL    HW125901   3.198   2.034   6.561
 8334SOL    HW225902   3.096   2.030   6.434
 8335SOL     OW25903   5.191   4.778   6.433
 8335SOL    HW125904   5.179   4.691   6.481
 8335SOL    HW225905   5.273   4.824   6.466
 8336SOL     OW25906   0.930   3.981   3.625
 8336SOL    HW125907   0.998   4.055   3.626
 8336SOL    HW225908   0.930   3.938   3.535
 8337SOL     OW25909   0.310   1.360   4.485
 8337SOL    HW125910   0.404   1.391   4.467
 8337SOL    HW225911   0.291   1.279   4.429
 8338SOL     OW25912   3.219   5.434   1.314
 8338SOL    HW125913   3.302   5.488   1.329
 8338SOL    HW225914   3.182   5.406   1.403
 8339SOL     OW25915   5.736   0.401   1.322
 8339SOL    HW125916   5.716   0.309   1.355
 8339SOL    HW225917   5.662   0.432   1.263
 8340SOL     OW25918   6.110   2.098   6.534
 8340SOL    HW125919   6.048   2.174   6.515
 8340SOL    HW225920   6.080   2.017   6.483
 8341SOL     OW25921   3.581   0.945   1.140
 8341SOL    HW125922   3.594   0.860   1.090
 8341SOL    HW225923   3.539   1.014   1.080
 8342SOL     OW25924   4.368   0.766   0.416
 8342SOL    HW125925   4.326   0.686   0.459
 8342SOL    HW225926   4.334   0.774   0.322
 8343SOL     OW25927   5.590   4.137   4.076
 8343SOL    HW125928   5.655   4.071   4.038
 8343SOL    HW225929   5.588   4.218   4.018
 8344SOL     OW25930   1.060   5.477   5.622
 8344SOL    HW125931   1.000   5.445   5.549
 8344SOL    HW225932   1.006   5.502   5.702
 8345SOL     OW25933   4.886   0.802   3.644
 8345SOL    HW125934   4.978   0.779   3.612
 8345SOL    HW225935   4.885   0.898   3.674
 8346SOL     OW25936   5.929   3.675   4.377
 8346SOL    HW125937   5.836   3.660   4.410
 8346SOL    HW225938   5.993   3.677   4.454
 8347SOL     OW25939   2.240   1.537   6.898
 8347SOL    HW125940   2.310   1.588   6.947
 8347SOL    HW225941   2.157   1.592   6.892
 8348SOL     OW25942   3.541   5.883   2.036
 8348SOL    HW125943   3.445   5.873   2.009
 8348SOL    HW225944   3.600   5.861   1.958
 8349SOL     OW25945   6.578   6.288   2.406
 8349SOL    HW125946   6.487   6.324   2.389
 8349SOL    HW225947   6.647   6.354   2.376
 8350SOL     OW25948   2.128   0.980   0.120
 8350SOL    HW125949   2.152   0.884   0.132
 8350SOL    HW225950   2.166   1.013   0.034
 8351SOL     OW25951   0.040   3.592   3.310
 8351SOL    HW125952   0.015   3.555   3.221
 8351SOL    HW225953   0.118   3.654   3.300
 8352SOL     OW25954   2.812   6.029   1.072
 8352SOL    HW125955   2.810   6.058   1.168
 8352SOL    HW225956   2.821   5.929   1.068
 8353SOL     OW25957   1.317   5.049   1.768
 8353SOL    HW125958   1.288   5.062   1.863
 8353SOL    HW225959   1.311   5.136   1.719
 8354SOL     OW25960   3.594   0.548   3.267
 8354SOL    HW125961   3.586   0.449   3.280
 8354SOL    HW225962   3.502   0.588   3.262
 8355SOL     OW25963   2.744   6.565   6.460
 8355SOL    HW125964   2.693   6.479   6.470
 8355SOL    HW225965   2.832   6.557   6.507
 8356SOL     OW25966   1.594   5.190   0.785
 8356SOL    HW125967   1.545   5.214   0.868
 8356SOL    HW225968   1.532   5.194   0.707
 8357SOL     OW25969   4.685   6.726   5.648
 8357SOL    HW125970   4.656   6.762   5.737
 8357SOL    HW225971   4.763   6.779   5.615
 8358SOL     OW25972   1.074   1.171   5.090
 8358SOL    HW125973   1.073   1.271   5.090
 8358SOL    HW225974   0.985   1.136   5.062
 8359SOL     OW25975   3.742   1.967   6.083
 8359SOL    HW125976   3.691   1.938   6.163
 8359SOL    HW225977   3.827   1.914   6.076
 8360SOL     OW25978   4.872   0.490   0.903
 8360SOL    HW125979   4.930   0.547   0.962
 8360SOL    HW225980   4.926   0.455   0.827
 8361SOL     OW25981   4.117   0.891   6.719
 8361SOL    HW125982   4.125   0.877   6.818
 8361SOL    HW225983   4.207   0.905   6.680
 8362SOL     OW25984   6.738   4.447   1.422
 8362SOL    HW125985   6.824   4.399   1.405
 8362SOL    HW225986   6.756   4.526   1.481
 8363SOL     OW25987   1.710   3.077   0.652
 8363SOL    HW125988   1.788   3.075   0.590
 8363SOL    HW225989   1.664   2.988   0.650
 8364SOL     OW25990   0.244   3.897   4.387
 8364SOL    HW125991   0.179   3.850   4.328
 8364SOL    HW225992   0.284   3.975   4.339
 8365SOL     OW25993   1.094   2.392   1.807
 8365SOL    HW125994   1.037   2.313   1.785
 8365SOL    HW225995   1.040   2.460   1.857
 8366SOL     OW25996   5.531   5.153   2.182
 8366SOL    HW125997   5.454   5.204   2.143
 8366SOL    HW225998   5.497   5.070   2.226
 8367SOL     OW25999   2.910   5.534   4.205
 8367SOL    HW126000   2.845   5.557   4.277
 8367SOL    HW226001   2.861   5.508   4.122
 8368SOL     OW26002   6.108   6.409   5.972
 8368SOL    HW126003   6.109   6.392   5.874
 8368SOL    HW226004   6.016   6.439   5.999
 8369SOL     OW26005   2.659   6.524   1.329
 8369SOL    HW126006   2.625   6.585   1.258
 8369SOL    HW226007   2.583   6.469   1.366
 8370SOL     OW26008   2.848   3.918   6.729
 8370SOL    HW126009   2.930   3.886   6.682
 8370SOL    HW226010   2.851   4.018   6.737
 8371SOL     OW26011   2.250   4.442   5.044
 8371SOL    HW126012   2.151   4.454   5.035
 8371SOL    HW226013   2.295   4.531   5.041
 8372SOL     OW26014   1.783   6.480   2.207
 8372SOL    HW126015   1.821   6.568   2.179
 8372SOL    HW226016   1.712   6.452   2.142
 8373SOL     OW26017   6.776   1.784   4.220
 8373SOL    HW126018   6.876   1.772   4.223
 8373SOL    HW226019   6.736   1.710   4.166
 8374SOL     OW26020   0.582   1.456   3.966
 8374SOL    HW126021   0.620   1.544   3.992
 8374SOL    HW226022   0.482   1.459   3.974
 8375SOL     OW26023   3.531   0.898   4.914
 8375SOL    HW126024   3.491   0.963   4.979
 8375SOL    HW226025   3.616   0.935   4.879
 8376SOL     OW26026   2.065   0.490   3.358
 8376SOL    HW126027   2.147   0.461   3.407
 8376SOL    HW226028   2.082   0.577   3.311
 8377SOL     OW26029   4.924   5.540   0.412
 8377SOL    HW126030   4.885   5.617   0.363
 8377SOL    HW226031   4.923   5.459   0.354
 8378SOL     OW26032   5.212   5.956   4.195
 8378SOL    HW126033   5.200   6.024   4.268
 8378SOL    HW226034   5.287   5.894   4.219
 8379SOL     OW26035   5.618   1.495   1.297
 8379SOL    HW126036   5.698   1.434   1.290
 8379SOL    HW226037   5.632   1.560   1.372
 8380SOL     OW26038   6.685   6.088   0.826
 8380SOL    HW126039   6.777   6.111   0.794
 8380SOL    HW226040   6.677   6.109   0.924
 8381SOL     OW26041   0.339   1.489   2.673
 8381SOL    HW126042   0.327   1.583   2.706
 8381SOL    HW226043   0.433   1.460   2.688
 8382SOL     OW26044   2.099   0.761   0.816
 8382SOL    HW126045   2.119   0.858   0.809
 8382SOL    HW226046   2.032   0.746   0.889
 8383SOL     OW26047   2.911   6.843   6.637
 8383SOL    HW126048   2.992   6.871   6.586
 8383SOL    HW226049   2.846   6.919   6.641
 8384SOL     OW26050   0.727   2.986   3.012
 8384SOL    HW126051   0.777   2.940   3.085
 8384SOL    HW226052   0.717   3.083   3.034
 8385SOL     OW26053   4.326   3.120   1.432
 8385SOL    HW126054   4.277   3.038   1.402
 8385SOL    HW226055   4.386   3.097   1.509
 8386SOL     OW26056   2.324   6.089   2.186
 8386SOL    HW126057   2.263   6.069   2.109
 8386SOL    HW226058   2.297   6.035   2.265
 8387SOL     OW26059   1.743   1.023   2.709
 8387SOL    HW126060   1.773   1.092   2.644
 8387SOL    HW226061   1.643   1.023   2.715
 8388SOL     OW26062   4.350   6.375   1.658
 8388SOL    HW126063   4.308   6.312   1.722
 8388SOL    HW226064   4.383   6.325   1.578
 8389SOL     OW26065   7.001   2.393   3.532
 8389SOL    HW126066   0.039   2.464   3.570
 8389SOL    HW226067   6.986   2.322   3.602
 8390SOL     OW26068   2.992   0.045   5.521
 8390SOL    HW126069   2.952   6.989   5.473
 8390SOL    HW226070   2.975   0.129   5.469
 8391SOL     OW26071   5.021   5.680   1.068
 8391SOL    HW126072   4.991   5.749   1.135
 8391SOL    HW226073   4.940   5.638   1.026
 8392SOL     OW26074   5.972   6.577   5.611
 8392SOL    HW126075   6.037   6.535   5.673
 8392SOL    HW226076   5.897   6.617   5.663
 8393SOL     OW26077   6.770   5.835   3.206
 8393SOL    HW126078   6.687   5.864   3.252
 8393SOL    HW226079   6.790   5.740   3.229
 8394SOL     OW26080   0.792   1.942   2.388
 8394SOL    HW126081   0.768   2.039   2.395
 8394SOL    HW226082   0.723   1.888   2.434
 8395SOL     OW26083   0.501   6.117   5.671
 8395SOL    HW126084   0.492   6.177   5.751
 8395SOL    HW226085   0.564   6.157   5.606
 8396SOL     OW26086   5.242   3.280   1.386
 8396SOL    HW126087   5.240   3.337   1.304
 8396SOL    HW226088   5.326   3.298   1.437
 8397SOL     OW26089   2.116   5.181   2.988
 8397SOL    HW126090   2.160   5.099   3.026
 8397SOL    HW226091   2.093   5.165   2.892
 8398SOL     OW26092   4.648   2.118   0.612
 8398SOL    HW126093   4.632   2.019   0.617
 8398SOL    HW226094   4.745   2.135   0.594
 8399SOL     OW26095   5.520   5.997   0.286
 8399SOL    HW126096   5.582   5.985   0.209
 8399SOL    HW226097   5.522   5.915   0.343
 8400SOL     OW26098   6.119   0.530   4.163
 8400SOL    HW126099   6.039   0.553   4.107
 8400SOL    HW226100   6.202   0.563   4.119
 8401SOL     OW26101   3.083   4.569   6.881
 8401SOL    HW126102   2.989   4.544   6.904
 8401SOL    HW226103   3.144   4.496   6.911
 8402SOL     OW26104   4.037   1.652   0.502
 8402SOL    HW126105   4.055   1.614   0.411
 8402SOL    HW226106   3.939   1.648   0.521
 8403SOL     OW26107   1.343   1.677   4.391
 8403SOL    HW126108   1.258   1.636   4.358
 8403SOL    HW226109   1.345   1.774   4.367
 8404SOL     OW26110   4.568   4.694   5.681
 8404SOL    HW126111   4.548   4.701   5.779
 8404SOL    HW226112   4.640   4.759   5.658
 8405SOL     OW26113   0.055   3.071   5.192
 8405SOL    HW126114   0.151   3.092   5.172
 8405SOL    HW226115   0.050   2.997   5.259
 8406SOL     OW26116   5.376   3.324   1.803
 8406SOL    HW126117   5.414   3.363   1.719
 8406SOL    HW226118   5.301   3.263   1.781
 8407SOL     OW26119   5.336   4.099   2.589
 8407SOL    HW126120   5.415   4.123   2.532
 8407SOL    HW226121   5.257   4.152   2.559
 8408SOL     OW26122   4.468   2.547   4.139
 8408SOL    HW126123   4.404   2.603   4.085
 8408SOL    HW226124   4.495   2.467   4.085
 8409SOL     OW26125   0.373   2.686   3.853
 8409SOL    HW126126   0.339   2.619   3.919
 8409SOL    HW226127   0.384   2.641   3.764
 8410SOL     OW26128   3.826   6.731   2.279
 8410SOL    HW126129   3.840   6.731   2.378
 8410SOL    HW226130   3.915   6.735   2.233
 8411SOL     OW26131   2.123   2.890   3.553
 8411SOL    HW126132   2.028   2.861   3.556
 8411SOL    HW226133   2.129   2.990   3.555
 8412SOL     OW26134   6.072   2.514   3.058
 8412SOL    HW126135   6.132   2.473   2.989
 8412SOL    HW226136   6.126   2.571   3.120
 8413SOL     OW26137   2.961   4.323   0.768
 8413SOL    HW126138   2.895   4.386   0.727
 8413SOL    HW226139   2.945   4.231   0.734
 8414SOL     OW26140   4.368   6.270   2.794
 8414SOL    HW126141   4.360   6.322   2.880
 8414SOL    HW226142   4.362   6.172   2.814
 8415SOL     OW26143   6.419   3.610   2.237
 8415SOL    HW126144   6.454   3.561   2.316
 8415SOL    HW226145   6.351   3.554   2.190
 8416SOL     OW26146   5.193   3.872   2.724
 8416SOL    HW126147   5.107   3.830   2.693
 8416SOL    HW226148   5.232   3.926   2.649
 8417SOL     OW26149   2.663   6.116   5.827
 8417SOL    HW126150   2.620   6.093   5.914
 8417SOL    HW226151   2.631   6.053   5.756
 8418SOL     OW26152   5.805   5.880   2.903
 8418SOL    HW126153   5.756   5.941   2.965
 8418SOL    HW226154   5.806   5.787   2.940
 8419SOL     OW26155   4.424   0.276   4.301
 8419SOL    HW126156   4.483   0.336   4.248
 8419SOL    HW226157   4.454   0.274   4.396
 8420SOL     OW26158   3.875   1.361   6.358
 8420SOL    HW126159   3.795   1.313   6.396
 8420SOL    HW226160   3.922   1.301   6.293
 8421SOL     OW26161   2.574   6.699   1.909
 8421SOL    HW126162   2.549   6.634   1.980
 8421SOL    HW226163   2.650   6.755   1.940
 8422SOL     OW26164   3.301   6.924   1.267
 8422SOL    HW126165   3.382   6.885   1.222
 8422SOL    HW226166   3.307   6.907   1.365
 8423SOL     OW26167   3.094   4.522   1.511
 8423SOL    HW126168   3.099   4.427   1.482
 8423SOL    HW226169   3.060   4.579   1.436
 8424SOL     OW26170   3.167   1.872   2.622
 8424SOL    HW126171   3.150   1.818   2.704
 8424SOL    HW226172   3.136   1.821   2.541
 8425SOL     OW26173   5.397   5.207   0.048
 8425SOL    HW126174   5.427   5.223   0.143
 8425SOL    HW226175   5.464   5.148   0.002
 8426SOL     OW26176   3.977   3.309   2.773
 8426SOL    HW126177   3.953   3.214   2.792
 8426SOL    HW226178   3.992   3.321   2.675
 8427SOL     OW26179   2.249   3.865   6.143
 8427SOL    HW126180   2.344   3.838   6.157
 8427SOL    HW226181   2.203   3.874   6.231
 8428SOL     OW26182   5.942   4.274   2.197
 8428SOL    HW126183   5.930   4.374   2.194
 8428SOL    HW226184   5.923   4.241   2.289
 8429SOL     OW26185   1.660   6.473   2.737
 8429SOL    HW126186   1.606   6.400   2.696
 8429SOL    HW226187   1.757   6.462   2.713
 8430SOL     OW26188   4.891   4.721   3.235
 8430SOL    HW126189   4.887   4.807   3.184
 8430SOL    HW226190   4.968   4.723   3.298
 8431SOL     OW26191   3.461   4.213   1.207
 8431SOL    HW126192   3.361   4.212   1.201
 8431SOL    HW226193   3.498   4.136   1.155
 8432SOL     OW26194   3.981   6.249   6.886
 8432SOL    HW126195   3.922   6.312   6.936
 8432SOL    HW226196   4.057   6.300   6.846
 8433SOL     OW26197   0.688   1.386   5.342
 8433SOL    HW126198   0.698   1.481   5.315
 8433SOL    HW226199   0.714   1.327   5.265
 8434SOL     OW26200   5.334   6.254   5.219
 8434SOL    HW126201   5.385   6.319   5.164
 8434SOL    HW226202   5.252   6.225   5.170
 8435SOL     OW26203   4.556   1.895   1.279
 8435SOL    HW126204   4.569   1.943   1.192
 8435SOL    HW226205   4.477   1.933   1.327
 8436SOL     OW26206   3.664   4.702   1.537
 8436SOL    HW126207   3.717   4.658   1.465
 8436SOL    HW226208   3.577   4.734   1.500
 8437SOL     OW26209   0.225   1.031   1.187
 8437SOL    HW126210   0.243   0.988   1.276
 8437SOL    HW226211   0.263   1.123   1.187
 8438SOL     OW26212   1.827   6.730   1.589
 8438SOL    HW126213   1.857   6.820   1.620
 8438SOL    HW226214   1.784   6.738   1.499
 8439SOL     OW26215   0.122   5.959   1.992
 8439SOL    HW126216   0.035   6.005   2.009
 8439SOL    HW226217   0.174   6.009   1.923
 8440SOL     OW26218   0.707   1.448   3.446
 8440SOL    HW126219   0.664   1.493   3.367
 8440SOL    HW226220   0.662   1.479   3.530
 8441SOL     OW26221   4.295   5.829   0.020
 8441SOL    HW126222   4.294   5.915   6.989
 8441SOL    HW226223   4.225   5.832   0.091
 8442SOL     OW26224   2.152   4.203   6.883
 8442SOL    HW126225   2.185   4.115   6.849
 8442SOL    HW226226   2.228   4.267   6.888
 8443SOL     OW26227   1.963   0.782   2.524
 8443SOL    HW126228   1.936   0.877   2.506
 8443SOL    HW226229   2.047   0.781   2.577
 8444SOL     OW26230   3.889   6.806   3.239
 8444SOL    HW126231   3.980   6.769   3.221
 8444SOL    HW226232   3.854   6.765   3.324
 8445SOL     OW26233   3.947   4.791   2.046
 8445SOL    HW126234   3.847   4.791   2.040
 8445SOL    HW226235   3.985   4.757   1.960
 8446SOL     OW26236   6.436   5.257   3.403
 8446SOL    HW126237   6.493   5.186   3.361
 8446SOL    HW226238   6.391   5.220   3.484
 8447SOL     OW26239   5.110   2.848   1.570
 8447SOL    HW126240   5.013   2.825   1.556
 8447SOL    HW226241   5.144   2.898   1.490
 8448SOL     OW26242   1.185   3.068   6.526
 8448SOL    HW126243   1.169   3.019   6.612
 8448SOL    HW226244   1.109   3.049   6.463
 8449SOL     OW26245   1.916   2.615   4.765
 8449SOL    HW126246   2.012   2.603   4.790
 8449SOL    HW226247   1.906   2.696   4.708
 8450SOL     OW26248   2.242   5.157   2.307
 8450SOL    HW126249   2.256   5.146   2.208
 8450SOL    HW226250   2.327   5.187   2.350
 8451SOL     OW26251   3.575   2.826   0.542
 8451SOL    HW126252   3.638   2.903   0.548
 8451SOL    HW226253   3.481   2.860   0.549
 8452SOL     OW26254   6.756   5.829   1.061
 8452SOL    HW126255   6.721   5.778   1.140
 8452SOL    HW226256   6.836   5.783   1.023
 8453SOL     OW26257   0.037   4.496   6.229
 8453SOL    HW126258   0.081   4.467   6.144
 8453SOL    HW226259   0.106   4.504   6.301
 8454SOL     OW26260   1.775   0.102   4.560
 8454SOL    HW126261   1.789   0.198   4.536
 8454SOL    HW226262   1.732   0.055   4.483
 8455SOL     OW26263   5.521   1.948   1.626
 8455SOL    HW126264   5.600   1.999   1.658
 8455SOL    HW226265   5.505   1.968   1.529
 8456SOL     OW26266   5.107   5.586   2.871
 8456SOL    HW126267   5.095   5.520   2.797
 8456SOL    HW226268   5.105   5.679   2.834
 8457SOL     OW26269   0.545   6.276   6.772
 8457SOL    HW126270   0.459   6.251   6.727
 8457SOL    HW226271   0.622   6.241   6.719
 8458SOL     OW26272   1.275   1.152   1.040
 8458SOL    HW126273   1.299   1.238   1.083
 8458SOL    HW226274   1.183   1.159   0.999
 8459SOL     OW26275   2.490   5.511   2.419
 8459SOL    HW126276   2.410   5.557   2.458
 8459SOL    HW226277   2.554   5.580   2.384
 8460SOL     OW26278   4.396   0.995   0.572
 8460SOL    HW126279   4.349   0.912   0.541
 8460SOL    HW226280   4.401   1.061   0.497
 8461SOL     OW26281   5.716   4.460   2.434
 8461SOL    HW126282   5.761   4.407   2.505
 8461SOL    HW226283   5.778   4.470   2.356
 8462SOL     OW26284   2.315   4.980   0.269
 8462SOL    HW126285   2.397   5.036   0.276
 8462SOL    HW226286   2.336   4.895   0.220
 8463SOL     OW26287   6.354   1.279   0.223
 8463SOL    HW126288   6.320   1.222   0.298
 8463SOL    HW226289   6.339   1.233   0.136
 8464SOL     OW26290   0.917   3.566   6.930
 8464SOL    HW126291   0.855   3.636   6.893
 8464SOL    HW226292   0.945   3.593   0.001
 8465SOL     OW26293   4.589   3.210   0.867
 8465SOL    HW126294   4.613   3.245   0.777
 8465SOL    HW226295   4.496   3.172   0.865
 8466SOL     OW26296   6.199   1.388   5.501
 8466SOL    HW126297   6.127   1.384   5.432
 8466SOL    HW226298   6.282   1.427   5.460
 8467SOL     OW26299   3.099   0.876   1.325
 8467SOL    HW126300   3.090   0.892   1.227
 8467SOL    HW226301   3.068   0.783   1.347
 8468SOL     OW26302   6.245   2.954   0.521
 8468SOL    HW126303   6.295   2.868   0.504
 8468SOL    HW226304   6.232   2.966   0.619
 8469SOL     OW26305   4.641   3.034   6.002
 8469SOL    HW126306   4.598   2.945   5.987
 8469SOL    HW226307   4.638   3.057   6.099
 8470SOL     OW26308   1.685   5.235   1.786
 8470SOL    HW126309   1.731   5.147   1.775
 8470SOL    HW226310   1.635   5.236   1.872
 8471SOL     OW26311   3.359   2.110   4.440
 8471SOL    HW126312   3.418   2.172   4.388
 8471SOL    HW226313   3.360   2.135   4.536
 8472SOL     OW26314   5.883   1.012   5.948
 8472SOL    HW126315   5.915   0.924   5.982
 8472SOL    HW226316   5.798   0.999   5.897
 8473SOL     OW26317   4.382   4.588   6.958
 8473SOL    HW126318   4.395   4.502   6.910
 8473SOL    HW226319   4.419   4.663   6.903
 8474SOL     OW26320   3.181   3.921   3.095
 8474SOL    HW126321   3.253   3.852   3.090
 8474SOL    HW226322   3.093   3.878   3.072
 8475SOL     OW26323   0.165   2.357   2.071
 8475SOL    HW126324   0.168   2.329   1.975
 8475SOL    HW226325   0.215   2.443   2.082
 8476SOL     OW26326   6.438   0.139   1.939
 8476SOL    HW126327   6.467   0.193   1.860
 8476SOL    HW226328   6.436   0.197   2.020
 8477SOL     OW26329   5.470   6.716   1.981
 8477SOL    HW126330   5.386   6.709   2.036
 8477SOL    HW226331   5.533   6.781   2.024
 8478SOL     OW26332   6.570   0.163   6.341
 8478SOL    HW126333   6.538   0.205   6.426
 8478SOL    HW226334   6.497   0.107   6.302
 8479SOL     OW26335   1.228   2.399   0.784
 8479SOL    HW126336   1.202   2.422   0.690
 8479SOL    HW226337   1.192   2.308   0.807
 8480SOL     OW26338   4.449   3.732   0.289
 8480SOL    HW126339   4.356   3.698   0.300
 8480SOL    HW226340   4.447   3.829   0.265
 8481SOL     OW26341   4.481   1.810   3.224
 8481SOL    HW126342   4.497   1.711   3.219
 8481SOL    HW226343   4.420   1.830   3.301
 8482SOL     OW26344   4.348   1.123   0.821
 8482SOL    HW126345   4.279   1.072   0.872
 8482SOL    HW226346   4.374   1.072   0.739
 8483SOL     OW26347   3.147   5.464   3.315
 8483SOL    HW126348   3.225   5.415   3.275
 8483SOL    HW226349   3.181   5.535   3.377
 8484SOL     OW26350   5.219   6.089   3.955
 8484SOL    HW126351   5.153   6.045   3.895
 8484SOL    HW226352   5.218   6.045   4.045
 8485SOL     OW26353   3.047   2.903   0.358
 8485SOL    HW126354   3.071   2.941   0.447
 8485SOL    HW226355   3.037   2.804   0.365
 8486SOL     OW26356   0.726   1.418   2.934
 8486SOL    HW126357   0.683   1.477   2.865
 8486SOL    HW226358   0.815   1.387   2.900
 8487SOL     OW26359   6.007   1.503   5.924
 8487SOL    HW126360   5.957   1.418   5.908
 8487SOL    HW226361   6.085   1.508   5.861
 8488SOL     OW26362   4.370   4.775   1.581
 8488SOL    HW126363   4.435   4.721   1.635
 8488SOL    HW226364   4.381   4.753   1.484
 8489SOL     OW26365   5.375   1.373   1.905
 8489SOL    HW126366   5.340   1.298   1.960
 8489SOL    HW226367   5.370   1.458   1.958
 8490SOL     OW26368   2.587   6.972   6.739
 8490SOL    HW126369   2.637   7.007   6.819
 8490SOL    HW226370   2.645   6.979   6.658
 8491SOL     OW26371   3.303   5.494   2.130
 8491SOL    HW126372   3.403   5.495   2.131
 8491SOL    HW226373   3.271   5.400   2.146
 8492SOL     OW26374   0.054   6.189   4.250
 8492SOL    HW126375   0.134   6.162   4.304
 8492SOL    HW226376   7.012   6.241   4.306
 8493SOL     OW26377   3.951   0.697   6.614
 8493SOL    HW126378   3.984   0.626   6.552
 8493SOL    HW226379   4.029   0.736   6.664
 8494SOL     OW26380   6.588   4.993   2.334
 8494SOL    HW126381   6.573   5.057   2.409
 8494SOL    HW226382   6.529   4.913   2.346
 8495SOL     OW26383   6.835   5.733   0.462
 8495SOL    HW126384   6.739   5.719   0.437
 8495SOL    HW226385   6.881   5.783   0.389
 8496SOL     OW26386   5.317   2.711   2.202
 8496SOL    HW126387   5.339   2.793   2.255
 8496SOL    HW226388   5.393   2.690   2.140
 8497SOL     OW26389   6.796   0.735   4.134
 8497SOL    HW126390   6.805   0.806   4.065
 8497SOL    HW226391   6.701   0.706   4.141
 8498SOL     OW26392   4.552   0.512   4.197
 8498SOL    HW126393   4.478   0.483   4.136
 8498SOL    HW226394   4.538   0.606   4.225
 8499SOL     OW26395   6.228   6.666   6.101
 8499SOL    HW126396   6.152   6.680   6.164
 8499SOL    HW226397   6.197   6.612   6.023
 8500SOL     OW26398   1.444   0.575   4.824
 8500SOL    HW126399   1.427   0.514   4.746
 8500SOL    HW226400   1.506   0.530   4.889
 8501SOL     OW26401   0.832   2.117   6.184
 8501SOL    HW126402   0.841   2.047   6.113
 8501SOL    HW226403   0.916   2.120   6.238
 8502SOL     OW26404   0.861   3.107   6.735
 8502SOL    HW126405   0.825   3.163   6.661
 8502SOL    HW226406   0.857   3.011   6.709
 8503SOL     OW26407   5.618   0.914   4.743
 8503SOL    HW126408   5.569   1.001   4.733
 8503SOL    HW226409   5.712   0.925   4.709
 8504SOL     OW26410   1.304   6.102   1.862
 8504SOL    HW126411   1.264   6.039   1.796
 8504SOL    HW226412   1.403   6.107   1.848
 8505SOL     OW26413   5.156   3.168   3.101
 8505SOL    HW126414   5.249   3.137   3.120
 8505SOL    HW226415   5.154   3.268   3.096
 8506SOL     OW26416   2.201   0.030   6.565
 8506SOL    HW126417   2.186   6.986   6.492
 8506SOL    HW226418   2.264   7.013   6.632
 8507SOL     OW26419   4.021   5.618   5.263
 8507SOL    HW126420   4.074   5.539   5.232
 8507SOL    HW226421   3.927   5.609   5.230
 8508SOL     OW26422   3.541   1.206   6.703
 8508SOL    HW126423   3.549   1.244   6.795
 8508SOL    HW226424   3.469   1.137   6.701
 8509SOL     OW26425   5.965   1.814   3.401
 8509SOL    HW126426   6.006   1.742   3.344
 8509SOL    HW226427   5.870   1.790   3.421
 8510SOL     OW26428   6.728   1.939   4.432
 8510SOL    HW126429   6.754   1.882   4.354
 8510SOL    HW226430   6.811   1.969   4.480
 8511SOL     OW26431   5.700   2.655   2.214
 8511SOL    HW126432   5.663   2.614   2.298
 8511SOL    HW226433   5.634   2.643   2.140
 8512SOL     OW26434   1.996   0.033   5.356
 8512SOL    HW126435   2.067   6.997   5.315
 8512SOL    HW226436   1.916   6.998   5.378
 8513SOL     OW26437   5.107   6.291   6.168
 8513SOL    HW126438   5.114   6.256   6.262
 8513SOL    HW226439   5.051   6.374   6.168
 8514SOL     OW26440   2.638   6.114   3.790
 8514SOL    HW126441   2.581   6.173   3.848
 8514SOL    HW226442   2.734   6.143   3.798
 8515SOL     OW26443   5.537   1.812   0.848
 8515SOL    HW126444   5.536   1.743   0.920
 8515SOL    HW226445   5.628   1.815   0.807
 8516SOL     OW26446   6.870   2.249   2.437
 8516SOL    HW126447   6.799   2.305   2.479
 8516SOL    HW226448   6.940   2.309   2.397
 8517SOL     OW26449   1.696   3.840   6.877
 8517SOL    HW126450   1.656   3.920   6.832
 8517SOL    HW226451   1.723   3.774   6.808
 8518SOL     OW26452   3.406   5.591   1.064
 8518SOL    HW126453   3.417   5.689   1.081
 8518SOL    HW226454   3.471   5.562   0.994
 8519SOL     OW26455   1.305   4.748   2.406
 8519SOL    HW126456   1.334   4.827   2.461
 8519SOL    HW226457   1.380   4.718   2.348
 8520SOL     OW26458   2.937   0.538   0.220
 8520SOL    HW126459   3.016   0.535   0.281
 8520SOL    HW226460   2.912   0.633   0.202
 8521SOL     OW26461   1.008   6.951   6.308
 8521SOL    HW126462   1.107   6.936   6.306
 8521SOL    HW226463   0.962   6.868   6.342
 8522SOL     OW26464   1.783   5.714   4.524
 8522SOL    HW126465   1.807   5.794   4.469
 8522SOL    HW226466   1.748   5.744   4.612
 8523SOL     OW26467   1.574   0.427   6.919
 8523SOL    HW126468   1.549   0.369   6.997
 8523SOL    HW226469   1.573   0.373   6.835
 8524SOL     OW26470   1.323   2.526   6.294
 8524SOL    HW126471   1.415   2.490   6.310
 8524SOL    HW226472   1.272   2.461   6.238
 8525SOL     OW26473   5.421   2.754   2.931
 8525SOL    HW126474   5.368   2.753   2.846
 8525SOL    HW226475   5.373   2.699   3.000
 8526SOL     OW26476   2.128   2.723   2.002
 8526SOL    HW126477   2.194   2.698   2.073
 8526SOL    HW226478   2.176   2.768   1.927
 8527SOL     OW26479   4.212   0.120   4.326
 8527SOL    HW126480   4.252   0.094   4.414
 8527SOL    HW226481   4.279   0.171   4.273
 8528SOL     OW26482   4.995   2.475   6.974
 8528SOL    HW126483   5.011   2.439   6.882
 8528SOL    HW226484   4.951   2.565   6.967
 8529SOL     OW26485   0.303   4.458   0.166
 8529SOL    HW126486   0.278   4.553   0.184
 8529SOL    HW226487   0.300   4.442   0.067
 8530SOL     OW26488   1.487   3.399   5.389
 8530SOL    HW126489   1.409   3.428   5.333
 8530SOL    HW226490   1.560   3.365   5.329
 8531SOL     OW26491   4.185   5.014   2.752
 8531SOL    HW126492   4.264   4.991   2.809
 8531SOL    HW226493   4.183   4.953   2.673
 8532SOL     OW26494   1.337   4.177   5.889
 8532SOL    HW126495   1.288   4.090   5.897
 8532SOL    HW226496   1.352   4.198   5.793
 8533SOL     OW26497   3.656   0.300   5.591
 8533SOL    HW126498   3.666   0.376   5.527
 8533SOL    HW226499   3.733   0.299   5.655
 8534SOL     OW26500   1.898   2.603   2.933
 8534SOL    HW126501   1.880   2.668   3.007
 8534SOL    HW226502   1.887   2.648   2.845
 8535SOL     OW26503   0.166   2.491   3.928
 8535SOL    HW126504   0.084   2.536   3.893
 8535SOL    HW226505   0.179   2.516   4.024
 8536SOL     OW26506   0.419   1.276   4.937
 8536SOL    HW126507   0.407   1.354   4.999
 8536SOL    HW226508   0.433   1.309   4.844
 8537SOL     OW26509   5.722   0.529   1.809
 8537SOL    HW126510   5.725   0.544   1.908
 8537SOL    HW226511   5.811   0.549   1.770
 8538SOL     OW26512   5.937   1.368   4.745
 8538SOL    HW126513   6.008   1.307   4.710
 8538SOL    HW226514   5.875   1.393   4.670
 8539SOL     OW26515   6.869   3.002   2.337
 8539SOL    HW126516   6.878   3.017   2.435
 8539SOL    HW226517   6.960   2.990   2.296
 8540SOL     OW26518   4.580   0.327   0.233
 8540SOL    HW126519   4.482   0.312   0.247
 8540SOL    HW226520   4.596   0.361   0.141
 8541SOL     OW26521   3.506   6.782   5.389
 8541SOL    HW126522   3.414   6.762   5.356
 8541SOL    HW226523   3.564   6.702   5.379
 8542SOL     OW26524   1.247   4.772   6.538
 8542SOL    HW126525   1.252   4.675   6.563
 8542SOL    HW226526   1.229   4.780   6.440
 8543SOL     OW26527   2.422   2.057   5.908
 8543SOL    HW126528   2.433   2.088   5.813
 8543SOL    HW226529   2.511   2.031   5.945
 8544SOL     OW26530   5.685   4.705   5.556
 8544SOL    HW126531   5.695   4.622   5.502
 8544SOL    HW226532   5.588   4.730   5.560
 8545SOL     OW26533   2.858   0.774   6.239
 8545SOL    HW126534   2.940   0.717   6.243
 8545SOL    HW226535   2.835   0.792   6.143
 8546SOL     OW26536   5.064   0.981   2.012
 8546SOL    HW126537   5.004   0.952   2.087
 8546SOL    HW226538   5.107   0.900   1.971
 8547SOL     OW26539   5.858   5.813   5.133
 8547SOL    HW126540   5.792   5.789   5.204
 8547SOL    HW226541   5.852   5.746   5.059
 8548SOL     OW26542   0.859   3.318   5.622
 8548SOL    HW126543   0.842   3.286   5.715
 8548SOL    HW226544   0.922   3.256   5.576
 8549SOL     OW26545   2.190   6.882   3.686
 8549SOL    HW126546   2.249   6.810   3.723
 8549SOL    HW226547   2.221   6.971   3.721
 8550SOL     OW26548   6.682   4.398   6.290
 8550SOL    HW126549   6.650   4.457   6.365
 8550SOL    HW226550   6.678   4.449   6.205
 8551SOL     OW26551   1.841   0.964   6.303
 8551SOL    HW126552   1.755   0.969   6.354
 8551SOL    HW226553   1.828   0.999   6.210
 8552SOL     OW26554   3.393   1.707   3.339
 8552SOL    HW126555   3.313   1.767   3.345
 8552SOL    HW226556   3.397   1.648   3.419
 8553SOL     OW26557   4.960   4.382   0.561
 8553SOL    HW126558   4.901   4.325   0.504
 8553SOL    HW226559   5.041   4.330   0.588
 8554SOL     OW26560   2.557   1.373   0.791
 8554SOL    HW126561   2.457   1.361   0.788
 8554SOL    HW226562   2.578   1.471   0.794
 8555SOL     OW26563   3.800   1.444   3.826
 8555SOL    HW126564   3.899   1.453   3.811
 8555SOL    HW226565   3.783   1.383   3.902
 8556SOL     OW26566   1.779   6.183   0.371
 8556SOL    HW126567   1.716   6.156   0.298
 8556SOL    HW226568   1.734   6.249   0.431
 8557SOL     OW26569   6.997   0.796   6.531
 8557SOL    HW126570   0.006   0.703   6.552
 8557SOL    HW226571   6.996   0.810   6.432
 8558SOL     OW26572   3.287   5.929   4.330
 8558SOL    HW126573   3.234   5.997   4.279
 8558SOL    HW226574   3.244   5.839   4.322
 8559SOL     OW26575   1.538   4.792   2.695
 8559SOL    HW126576   1.482   4.839   2.763
 8559SOL    HW226577   1.552   4.851   2.616
 8560SOL     OW26578   3.045   4.625   1.033
 8560SOL    HW126579   2.982   4.547   1.034
 8560SOL    HW226580   3.061   4.656   1.127
 8561SOL     OW26581   4.862   1.173   2.298
 8561SOL    HW126582   4.807   1.172   2.214
 8561SOL    HW226583   4.854   1.084   2.343
 8562SOL     OW26584   5.148   1.890   6.631
 8562SOL    HW126585   5.061   1.929   6.602
 8562SOL    HW226586   5.146   1.873   6.729
 8563SOL     OW26587   2.379   5.049   2.078
 8563SOL    HW126588   2.379   5.146   2.053
 8563SOL    HW226589   2.462   5.006   2.044
 8564SOL     OW26590   4.157   0.072   0.114
 8564SOL    HW126591   4.057   0.063   0.115
 8564SOL    HW226592   4.193   0.029   0.031
 8565SOL     OW26593   1.748   5.005   0.918
 8565SOL    HW126594   1.689   5.050   0.851
 8565SOL    HW226595   1.831   5.060   0.932
 8566SOL     OW26596   3.334   1.206   2.205
 8566SOL    HW126597   3.360   1.123   2.254
 8566SOL    HW226598   3.363   1.286   2.256
 8567SOL     OW26599   1.595   3.070   1.851
 8567SOL    HW126600   1.498   3.077   1.877
 8567SOL    HW226601   1.609   2.988   1.797
 8568SOL     OW26602   5.814   0.397   6.791
 8568SOL    HW126603   5.804   0.466   6.862
 8568SOL    HW226604   5.904   0.408   6.747
 8569SOL     OW26605   4.083   2.287   6.486
 8569SOL    HW126606   4.023   2.350   6.438
 8569SOL    HW226607   4.164   2.270   6.431
 8570SOL     OW26608   2.002   2.454   2.242
 8570SOL    HW126609   1.935   2.428   2.312
 8570SOL    HW226610   1.956   2.461   2.154
 8571SOL     OW26611   1.729   0.880   3.325
 8571SOL    HW126612   1.640   0.923   3.338
 8571SOL    HW226613   1.798   0.951   3.314
 8572SOL     OW26614   2.490   4.300   5.940
 8572SOL    HW126615   2.424   4.226   5.946
 8572SOL    HW226616   2.533   4.301   5.850
 8573SOL     OW26617   3.796   6.290   0.204
 8573SOL    HW126618   3.814   6.381   0.242
 8573SOL    HW226619   3.701   6.286   0.173
 8574SOL     OW26620   5.693   0.686   4.990
 8574SOL    HW126621   5.595   0.666   4.984
 8574SOL    HW226622   5.707   0.785   4.995
 8575SOL     OW26623   3.089   6.017   3.611
 8575SOL    HW126624   3.133   5.928   3.615
 8575SOL    HW226625   3.062   6.037   3.517
 8576SOL     OW26626   1.566   4.848   3.277
 8576SOL    HW126627   1.489   4.911   3.269
 8576SOL    HW226628   1.575   4.794   3.194
 8577SOL     OW26629   1.676   1.830   0.301
 8577SOL    HW126630   1.583   1.797   0.283
 8577SOL    HW226631   1.674   1.929   0.313
 8578SOL     OW26632   0.070   6.534   6.409
 8578SOL    HW126633   0.025   6.593   6.341
 8578SOL    HW226634   0.089   6.588   6.491
 8579SOL     OW26635   2.698   6.498   2.352
 8579SOL    HW126636   2.677   6.507   2.450
 8579SOL    HW226637   2.787   6.454   2.341
 8580SOL     OW26638   2.052   0.432   1.084
 8580SOL    HW126639   2.028   0.416   1.180
 8580SOL    HW226640   1.995   0.506   1.048
 8581SOL     OW26641   3.326   4.906   1.385
 8581SOL    HW126642   3.425   4.914   1.387
 8581SOL    HW226643   3.287   4.980   1.330
 8582SOL     OW26644   3.582   4.657   6.134
 8582SOL    HW126645   3.514   4.595   6.172
 8582SOL    HW226646   3.648   4.605   6.079
 8583SOL     OW26647   4.302   0.754   2.677
 8583SOL    HW126648   4.287   0.658   2.697
 8583SOL    HW226649   4.387   0.765   2.626
 8584SOL     OW26650   6.777   1.516   5.083
 8584SOL    HW126651   6.817   1.438   5.035
 8584SOL    HW226652   6.802   1.600   5.036
 8585SOL     OW26653   5.347   2.779   2.686
 8585SOL    HW126654   5.292   2.740   2.612
 8585SOL    HW226655   5.367   2.875   2.666
 8586SOL     OW26656   6.620   6.092   0.531
 8586SOL    HW126657   6.717   6.100   0.508
 8586SOL    HW226658   6.610   6.068   0.627
 8587SOL     OW26659   0.832   1.729   6.957
 8587SOL    HW126660   0.766   1.773   6.896
 8587SOL    HW226661   0.903   1.684   6.902
 8588SOL     OW26662   2.897   1.699   6.433
 8588SOL    HW126663   2.814   1.643   6.436
 8588SOL    HW226664   2.881   1.786   6.479
 8589SOL     OW26665   6.732   2.480   6.899
 8589SOL    HW126666   6.712   2.510   6.992
 8589SOL    HW226667   6.677   2.399   6.878
 8590SOL     OW26668   1.367   0.837   4.863
 8590SOL    HW126669   1.384   0.739   4.851
 8590SOL    HW226670   1.454   0.886   4.858
 8591SOL     OW26671   6.865   4.130   6.289
 8591SOL    HW126672   6.829   4.039   6.273
 8591SOL    HW226673   6.828   4.167   6.374
 8592SOL     OW26674   0.283   1.532   5.372
 8592SOL    HW126675   0.225   1.456   5.343
 8592SOL    HW226676   0.228   1.599   5.422
 8593SOL     OW26677   4.117   1.208   0.109
 8593SOL    HW126678   4.099   1.131   0.171
 8593SOL    HW226679   4.043   1.275   0.118
 8594SOL     OW26680   6.503   3.054   5.882
 8594SOL    HW126681   6.440   3.124   5.849
 8594SOL    HW226682   6.548   3.011   5.804
 8595SOL     OW26683   5.955   6.810   3.133
 8595SOL    HW126684   5.987   6.727   3.088
 8595SOL    HW226685   6.027   6.879   3.131
 8596SOL     OW26686   1.086   1.133   4.270
 8596SOL    HW126687   1.069   1.136   4.172
 8596SOL    HW226688   1.016   1.077   4.315
 8597SOL     OW26689   5.219   3.680   0.174
 8597SOL    HW126690   5.238   3.742   0.251
 8597SOL    HW226691   5.299   3.675   0.116
 8598SOL     OW26692   5.817   6.499   4.602
 8598SOL    HW126693   5.863   6.587   4.590
 8598SOL    HW226694   5.864   6.428   4.550
 8599SOL     OW26695   0.162   3.307   3.965
 8599SOL    HW126696   0.249   3.357   3.965
 8599SOL    HW226697   0.131   3.296   4.059
 8600SOL     OW26698   4.569   1.688   0.565
 8600SOL    HW126699   4.471   1.673   0.573
 8600SOL    HW226700   4.588   1.738   0.480
 8601SOL     OW26701   0.487   6.410   3.423
 8601SOL    HW126702   0.542   6.479   3.376
 8601SOL    HW226703   0.507   6.320   3.385
 8602SOL     OW26704   2.881   6.315   4.848
 8602SOL    HW126705   2.806   6.269   4.897
 8602SOL    HW226706   2.910   6.258   4.771
 8603SOL     OW26707   0.157   0.074   6.794
 8603SOL    HW126708   0.062   0.108   6.793
 8603SOL    HW226709   0.214   0.138   6.844
 8604SOL     OW26710   0.082   4.559   6.543
 8604SOL    HW126711   0.067   4.488   6.612
 8604SOL    HW226712   0.158   4.617   6.571
 8605SOL     OW26713   6.378   4.866   4.558
 8605SOL    HW126714   6.450   4.935   4.548
 8605SOL    HW226715   6.417   4.775   4.547
 8606SOL     OW26716   1.636   2.806   0.591
 8606SOL    HW126717   1.677   2.784   0.502
 8606SOL    HW226718   1.558   2.746   0.607
 8607SOL     OW26719   2.833   4.014   1.405
 8607SOL    HW126720   2.853   3.923   1.370
 8607SOL    HW226721   2.843   4.014   1.505
 8608SOL     OW26722   1.835   5.074   2.582
 8608SOL    HW126723   1.860   5.111   2.493
 8608SOL    HW226724   1.910   5.089   2.647
 8609SOL     OW26725   4.193   1.664   4.290
 8609SOL    HW126726   4.216   1.591   4.226
 8609SOL    HW226727   4.132   1.730   4.245
 8610SOL     OW26728   6.836   6.220   3.328
 8610SOL    HW126729   6.813   6.317   3.340
 8610SOL    HW226730   6.929   6.212   3.292
 8611SOL     OW26731   3.323   1.520   5.102
 8611SOL    HW126732   3.306   1.612   5.068
 8611SOL    HW226733   3.255   1.497   5.172
 8612SOL     OW26734   3.572   4.109   3.912
 8612SOL    HW126735   3.524   4.072   3.832
 8612SOL    HW226736   3.507   4.160   3.969
 8613SOL     OW26737   4.040   2.822   1.774
 8613SOL    HW126738   3.949   2.803   1.812
 8613SOL    HW226739   4.060   2.919   1.785
 8614SOL     OW26740   1.730   1.587   2.875
 8614SOL    HW126741   1.796   1.517   2.850
 8614SOL    HW226742   1.757   1.675   2.836
 8615SOL     OW26743   3.893   1.584   4.155
 8615SOL    HW126744   3.932   1.603   4.065
 8615SOL    HW226745   3.888   1.670   4.208
 8616SOL     OW26746   5.293   4.390   2.896
 8616SOL    HW126747   5.204   4.391   2.942
 8616SOL    HW226748   5.333   4.482   2.900
 8617SOL     OW26749   2.992   0.372   3.478
 8617SOL    HW126750   3.034   0.282   3.486
 8617SOL    HW226751   2.894   0.364   3.494
 8618SOL     OW26752   5.177   4.716   1.093
 8618SOL    HW126753   5.190   4.737   0.996
 8618SOL    HW226754   5.258   4.744   1.144
 8619SOL     OW26755   4.799   5.476   0.638
 8619SOL    HW126756   4.710   5.521   0.645
 8619SOL    HW226757   4.839   5.493   0.548
 8620SOL     OW26758   2.609   0.629   4.592
 8620SOL    HW126759   2.669   0.589   4.661
 8620SOL    HW226760   2.540   0.685   4.637
 8621SOL     OW26761   5.839   2.967   1.726
 8621SOL    HW126762   5.835   2.920   1.638
 8621SOL    HW226763   5.842   3.066   1.711
 8622SOL     OW26764   6.567   5.101   2.888
 8622SOL    HW126765   6.628   5.088   2.965
 8622SOL    HW226766   6.620   5.108   2.804
 8623SOL     OW26767   0.879   3.515   3.938
 8623SOL    HW126768   0.917   3.595   3.892
 8623SOL    HW226769   0.846   3.450   3.869
 8624SOL     OW26770   2.938   3.663   4.938
 8624SOL    HW126771   2.927   3.760   4.957
 8624SOL    HW226772   2.847   3.621   4.926
 8625SOL     OW26773   4.047   2.655   5.909
 8625SOL    HW126774   3.957   2.657   5.954
 8625SOL    HW226775   4.080   2.749   5.899
 8626SOL     OW26776   3.452   3.887   0.841
 8626SOL    HW126777   3.459   3.870   0.940
 8626SOL    HW226778   3.538   3.862   0.797
 8627SOL     OW26779   1.936   0.529   1.620
 8627SOL    HW126780   1.894   0.451   1.666
 8627SOL    HW226781   1.867   0.599   1.602
 8628SOL     OW26782   0.729   6.540   0.950
 8628SOL    HW126783   0.807   6.602   0.959
 8628SOL    HW226784   0.663   6.560   1.022
 8629SOL     OW26785   0.567   6.457   5.780
 8629SOL    HW126786   0.557   6.524   5.854
 8629SOL    HW226787   0.661   6.458   5.747
 8630SOL     OW26788   5.088   3.439   2.585
 8630SOL    HW126789   5.058   3.424   2.679
 8630SOL    HW226790   5.009   3.441   2.524
 8631SOL     OW26791   2.377   6.691   6.910
 8631SOL    HW126792   2.391   6.718   6.815
 8631SOL    HW226793   2.354   6.594   6.914
 8632SOL     OW26794   5.602   5.415   5.839
 8632SOL    HW126795   5.541   5.353   5.888
 8632SOL    HW226796   5.662   5.362   5.779
 8633SOL     OW26797   5.458   4.531   6.066
 8633SOL    HW126798   5.408   4.584   6.134
 8633SOL    HW226799   5.519   4.466   6.112
 8634SOL     OW26800   4.128   3.067   0.451
 8634SOL    HW126801   4.062   3.088   0.378
 8634SOL    HW226802   4.088   3.090   0.540
 8635SOL     OW26803   5.466   2.306   5.517
 8635SOL    HW126804   5.392   2.268   5.573
 8635SOL    HW226805   5.474   2.404   5.533
 8636SOL     OW26806   4.652   0.301   1.868
 8636SOL    HW126807   4.698   0.386   1.841
 8636SOL    HW226808   4.650   0.296   1.968
 8637SOL     OW26809   1.625   2.085   0.340
 8637SOL    HW126810   1.601   2.162   0.281
 8637SOL    HW226811   1.585   2.100   0.431
 8638SOL     OW26812   4.989   2.206   4.007
 8638SOL    HW126813   4.970   2.145   3.931
 8638SOL    HW226814   4.912   2.207   4.070
 8639SOL     OW26815   3.508   3.842   0.343
 8639SOL    HW126816   3.522   3.937   0.315
 8639SOL    HW226817   3.542   3.780   0.272
 8640SOL     OW26818   3.030   3.133   0.807
 8640SOL    HW126819   2.982   3.206   0.759
 8640SOL    HW226820   2.966   3.086   0.868
 8641SOL     OW26821   4.671   6.356   2.132
 8641SOL    HW126822   4.587   6.326   2.087
 8641SOL    HW226823   4.733   6.395   2.064
 8642SOL     OW26824   0.751   6.231   3.641
 8642SOL    HW126825   0.653   6.236   3.623
 8642SOL    HW226826   0.780   6.135   3.643
 8643SOL     OW26827   3.956   6.445   1.119
 8643SOL    HW126828   3.967   6.348   1.143
 8643SOL    HW226829   3.987   6.501   1.195
 8644SOL     OW26830   6.500   1.793   6.321
 8644SOL    HW126831   6.562   1.813   6.397
 8644SOL    HW226832   6.519   1.855   6.245
 8645SOL     OW26833   5.882   4.098   2.781
 8645SOL    HW126834   5.960   4.072   2.724
 8645SOL    HW226835   5.876   4.198   2.785
 8646SOL     OW26836   6.941   2.011   5.572
 8646SOL    HW126837   6.896   2.100   5.565
 8646SOL    HW226838   6.969   1.981   5.480
 8647SOL     OW26839   2.219   5.475   2.133
 8647SOL    HW126840   2.127   5.496   2.165
 8647SOL    HW226841   2.214   5.413   2.054
 8648SOL     OW26842   5.260   5.087   0.639
 8648SOL    HW126843   5.212   5.154   0.695
 8648SOL    HW226844   5.195   5.042   0.578
 8649SOL     OW26845   5.270   0.101   0.724
 8649SOL    HW126846   5.180   0.117   0.685
 8649SOL    HW226847   5.332   0.174   0.698
 8650SOL     OW26848   2.334   6.451   4.839
 8650SOL    HW126849   2.416   6.453   4.781
 8650SOL    HW226850   2.362   6.440   4.934
 8651SOL     OW26851   3.208   1.747   1.243
 8651SOL    HW126852   3.147   1.678   1.204
 8651SOL    HW226853   3.220   1.822   1.177
 8652SOL     OW26854   1.131   2.743   3.449
 8652SOL    HW126855   1.229   2.763   3.451
 8652SOL    HW226856   1.114   2.670   3.383
 8653SOL     OW26857   6.723   1.818   6.468
 8653SOL    HW126858   6.774   1.796   6.385
 8653SOL    HW226859   6.786   1.822   6.545
 8654SOL     OW26860   0.311   4.750   2.019
 8654SOL    HW126861   0.225   4.783   1.980
 8654SOL    HW226862   0.303   4.744   2.118
 8655SOL     OW26863   0.256   0.385   4.610
 8655SOL    HW126864   0.161   0.396   4.639
 8655SOL    HW226865   0.316   0.435   4.673
 8656SOL     OW26866   5.451   0.040   0.958
 8656SOL    HW126867   5.529   7.001   0.947
 8656SOL    HW226868   5.392   0.035   0.877
 8657SOL     OW26869   4.359   1.303   3.172
 8657SOL    HW126870   4.417   1.253   3.236
 8657SOL    HW226871   4.389   1.286   3.078
 8658SOL     OW26872   6.331   4.335   0.719
 8658SOL    HW126873   6.385   4.254   0.742
 8658SOL    HW226874   6.390   4.403   0.676
 8659SOL     OW26875   3.936   1.056   2.766
 8659SOL    HW126876   3.840   1.028   2.766
 8659SOL    HW226877   3.946   1.138   2.822
 8660SOL     OW26878   6.627   3.605   1.580
 8660SOL    HW126879   6.552   3.602   1.646
 8660SOL    HW226880   6.706   3.556   1.618
 8661SOL     OW26881   6.690   3.959   2.933
 8661SOL    HW126882   6.692   4.059   2.930
 8661SOL    HW226883   6.630   3.924   2.860
 8662SOL     OW26884   2.220   4.224   3.095
 8662SOL    HW126885   2.191   4.265   3.182
 8662SOL    HW226886   2.282   4.287   3.048
 8663SOL     OW26887   4.067   5.568   2.450
 8663SOL    HW126888   4.131   5.569   2.373
 8663SOL    HW226889   3.987   5.625   2.428
 8664SOL     OW26890   3.469   5.721   3.889
 8664SOL    HW126891   3.427   5.686   3.805
 8664SOL    HW226892   3.557   5.676   3.903
 8665SOL     OW26893   5.111   3.233   6.894
 8665SOL    HW126894   5.095   3.135   6.881
 8665SOL    HW226895   5.195   3.260   6.848
 8666SOL     OW26896   4.715   6.994   2.396
 8666SOL    HW126897   4.679   6.910   2.435
 8666SOL    HW226898   4.813   6.999   2.412
 8667SOL     OW26899   5.263   2.135   3.061
 8667SOL    HW126900   5.240   2.059   3.122
 8667SOL    HW226901   5.334   2.191   3.104
 8668SOL     OW26902   5.415   2.622   4.711
 8668SOL    HW126903   5.441   2.652   4.619
 8668SOL    HW226904   5.467   2.541   4.736
 8669SOL     OW26905   6.428   5.835   5.864
 8669SOL    HW126906   6.419   5.857   5.961
 8669SOL    HW226907   6.503   5.770   5.851
 8670SOL     OW26908   6.482   4.198   6.373
 8670SOL    HW126909   6.444   4.230   6.460
 8670SOL    HW226910   6.547   4.265   6.338
 8671SOL     OW26911   0.345   2.554   2.769
 8671SOL    HW126912   0.337   2.467   2.818
 8671SOL    HW226913   0.365   2.627   2.834
 8672SOL     OW26914   0.728   0.783   3.161
 8672SOL    HW126915   0.678   0.853   3.110
 8672SOL    HW226916   0.794   0.739   3.100
 8673SOL     OW26917   0.639   1.862   1.553
 8673SOL    HW126918   0.669   1.768   1.571
 8673SOL    HW226919   0.548   1.877   1.593
 8674SOL     OW26920   0.036   3.944   3.906
 8674SOL    HW126921   0.014   3.847   3.915
 8674SOL    HW226922   7.019   3.979   3.821
 8675SOL     OW26923   3.442   2.316   5.380
 8675SOL    HW126924   3.482   2.226   5.363
 8675SOL    HW226925   3.393   2.346   5.298
 8676SOL     OW26926   5.555   1.196   0.718
 8676SOL    HW126927   5.484   1.181   0.787
 8676SOL    HW226928   5.638   1.229   0.764
 8677SOL     OW26929   2.521   6.518   6.144
 8677SOL    HW126930   2.534   6.617   6.149
 8677SOL    HW226931   2.581   6.480   6.074
 8678SOL     OW26932   1.767   2.262   0.967
 8678SOL    HW126933   1.801   2.218   1.051
 8678SOL    HW226934   1.731   2.352   0.990
 8679SOL     OW26935   1.355   1.888   5.292
 8679SOL    HW126936   1.273   1.834   5.273
 8679SOL    HW226937   1.436   1.837   5.264
 8680SOL     OW26938   6.672   0.919   6.990
 8680SOL    HW126939   6.704   0.867   6.911
 8680SOL    HW226940   6.692   1.016   6.976
 8681SOL     OW26941   5.300   6.379   1.691
 8681SOL    HW126942   5.370   6.310   1.709
 8681SOL    HW226943   5.283   6.385   1.593
 8682SOL     OW26944   1.551   0.541   0.772
 8682SOL    HW126945   1.597   0.598   0.840
 8682SOL    HW226946   1.570   0.444   0.791
 8683SOL     OW26947   1.656   4.189   4.649
 8683SOL    HW126948   1.754   4.198   4.629
 8683SOL    HW226949   1.613   4.135   4.576
 8684SOL     OW26950   1.232   3.730   4.022
 8684SOL    HW126951   1.136   3.738   3.995
 8684SOL    HW226952   1.247   3.643   4.068
 8685SOL     OW26953   5.062   2.179   4.783
 8685SOL    HW126954   4.971   2.216   4.800
 8685SOL    HW226955   5.059   2.118   4.704
 8686SOL     OW26956   0.994   5.765   2.960
 8686SOL    HW126957   0.995   5.679   3.012
 8686SOL    HW226958   1.012   5.842   3.022
 8687SOL     OW26959   5.014   4.247   5.970
 8687SOL    HW126960   5.075   4.171   5.993
 8687SOL    HW226961   5.065   4.333   5.969
 8688SOL     OW26962   0.658   3.820   5.745
 8688SOL    HW126963   0.575   3.782   5.705
 8688SOL    HW226964   0.721   3.846   5.672
 8689SOL     OW26965   3.853   3.410   0.288
 8689SOL    HW126966   3.880   3.373   0.377
 8689SOL    HW226967   3.929   3.400   0.224
 8690SOL     OW26968   1.552   2.566   2.990
 8690SOL    HW126969   1.621   2.511   3.039
 8690SOL    HW226970   1.485   2.505   2.948
 8691SOL     OW26971   3.335   2.680   5.284
 8691SOL    HW126972   3.315   2.582   5.275
 8691SOL    HW226973   3.433   2.695   5.272
 8692SOL     OW26974   4.587   1.933   4.988
 8692SOL    HW126975   4.620   1.866   4.921
 8692SOL    HW226976   4.538   1.884   5.061
 8693SOL     OW26977   6.540   6.784   6.353
 8693SOL    HW126978   6.458   6.832   6.386
 8693SOL    HW226979   6.579   6.731   6.428
 8694SOL     OW26980   6.008   3.434   4.874
 8694SOL    HW126981   5.995   3.533   4.884
 8694SOL    HW226982   6.088   3.405   4.927
 8695SOL     OW26983   3.972   4.308   6.280
 8695SOL    HW126984   4.013   4.355   6.201
 8695SOL    HW226985   4.038   4.243   6.318
 8696SOL     OW26986   2.678   4.736   6.022
 8696SOL    HW126987   2.621   4.668   6.067
 8696SOL    HW226988   2.632   4.768   5.938
 8697SOL     OW26989   1.531   3.746   5.573
 8697SOL    HW126990   1.590   3.741   5.654
 8697SOL    HW226991   1.586   3.735   5.490
 8698SOL     OW26992   5.448   5.586   5.268
 8698SOL    HW126993   5.450   5.565   5.170
 8698SOL    HW226994   5.360   5.628   5.291
 8699SOL     OW26995   1.408   2.841   6.586
 8699SOL    HW126996   1.346   2.765   6.607
 8699SOL    HW226997   1.355   2.920   6.555
 8700SOL     OW26998   1.295   0.374   4.678
 8700SOL    HW126999   1.196   0.367   4.689
 8700SOL    HW227000   1.330   0.292   4.633
 8701SOL     OW27001   0.419   2.447   0.493
 8701SOL    HW127002   0.321   2.450   0.477
 8701SOL    HW227003   0.466   2.420   0.409
 8702SOL     OW27004   5.299   5.262   2.055
 8702SOL    HW127005   5.320   5.229   1.963
 8702SOL    HW227006   5.279   5.360   2.050
 8703SOL     OW27007   2.216   5.280   1.093
 8703SOL    HW127008   2.251   5.359   1.043
 8703SOL    HW227009   2.243   5.288   1.189
 8704SOL     OW27010   1.181   0.625   5.060
 8704SOL    HW127011   1.183   0.650   4.963
 8704SOL    HW227012   1.251   0.676   5.109
 8705SOL     OW27013   4.321   2.258   6.601
 8705SOL    HW127014   4.342   2.331   6.666
 8705SOL    HW227015   4.223   2.259   6.581
 8706SOL     OW27016   4.584   3.151   6.248
 8706SOL    HW127017   4.638   3.172   6.329
 8706SOL    HW227018   4.552   3.236   6.206
 8707SOL     OW27019   1.562   2.066   5.204
 8707SOL    HW127020   1.624   2.144   5.216
 8707SOL    HW227021   1.507   2.054   5.287
 8708SOL     OW27022   5.950   2.745   0.796
 8708SOL    HW127023   5.878   2.684   0.763
 8708SOL    HW227024   5.911   2.836   0.814
 8709SOL     OW27025   6.043   6.953   5.845
 8709SOL    HW127026   6.013   6.897   5.767
 8709SOL    HW227027   6.138   6.981   5.831
 8710SOL     OW27028   2.416   1.124   3.281
 8710SOL    HW127029   2.485   1.196   3.290
 8710SOL    HW227030   2.336   1.160   3.234
 8711SOL     OW27031   1.425   0.971   1.363
 8711SOL    HW127032   1.411   0.976   1.264
 8711SOL    HW227033   1.513   0.927   1.382
 8712SOL     OW27034   1.830   4.076   5.696
 8712SOL    HW127035   1.846   4.163   5.651
 8712SOL    HW227036   1.732   4.058   5.702
 8713SOL     OW27037   6.996   4.480   1.725
 8713SOL    HW127038   6.911   4.532   1.724
 8713SOL    HW227039   7.009   4.438   1.815
 8714SOL     OW27040   0.547   5.676   6.500
 8714SOL    HW127041   0.487   5.599   6.480
 8714SOL    HW227042   0.603   5.697   6.420
 8715SOL     OW27043   2.100   3.404   1.428
 8715SOL    HW127044   2.192   3.366   1.419
 8715SOL    HW227045   2.035   3.329   1.443
 8716SOL     OW27046   6.611   6.940   1.953
 8716SOL    HW127047   6.555   7.021   1.940
 8716SOL    HW227048   6.567   6.861   1.911
 8717SOL     OW27049   2.686   3.964   0.409
 8717SOL    HW127050   2.628   3.947   0.488
 8717SOL    HW227051   2.763   3.901   0.409
 8718SOL     OW27052   2.182   4.617   6.094
 8718SOL    HW127053   2.260   4.558   6.112
 8718SOL    HW227054   2.212   4.695   6.038
 8719SOL     OW27055   3.599   0.512   5.358
 8719SOL    HW127056   3.682   0.458   5.342
 8719SOL    HW227057   3.619   0.609   5.344
 8720SOL     OW27058   0.005   5.240   5.011
 8720SOL    HW127059   0.068   5.202   5.079
 8720SOL    HW227060   6.994   5.330   5.041
 8721SOL     OW27061   0.529   0.293   6.537
 8721SOL    HW127062   0.602   0.285   6.605
 8721SOL    HW227063   0.479   0.207   6.532
 8722SOL     OW27064   3.079   1.103   1.487
 8722SOL    HW127065   3.089   1.020   1.432
 8722SOL    HW227066   3.088   1.183   1.429
 8723SOL     OW27067   4.026   0.434   2.453
 8723SOL    HW127068   4.120   0.423   2.483
 8723SOL    HW227069   4.017   0.400   2.359
 8724SOL     OW27070   4.097   1.342   4.394
 8724SOL    HW127071   4.012   1.378   4.356
 8724SOL    HW227072   4.077   1.260   4.447
 8725SOL     OW27073   7.004   6.605   3.711
 8725SOL    HW127074   0.056   6.536   3.722
 8725SOL    HW227075   6.921   6.560   3.681
 8726SOL     OW27076   0.122   0.561   0.994
 8726SOL    HW127077   0.116   0.655   1.028
 8726SOL    HW227078   0.202   0.551   0.935
 8727SOL     OW27079   4.676   6.262   6.033
 8727SOL    HW127080   4.713   6.277   5.941
 8727SOL    HW227081   4.746   6.219   6.090
 8728SOL     OW27082   6.642   0.228   3.662
 8728SOL    HW127083   6.608   0.165   3.732
 8728SOL    HW227084   6.741   0.219   3.654
 8729SOL     OW27085   4.297   5.889   6.421
 8729SOL    HW127086   4.271   5.879   6.517
 8729SOL    HW227087   4.279   5.982   6.391
 8730SOL     OW27088   4.659   5.378   1.491
 8730SOL    HW127089   4.734   5.440   1.513
 8730SOL    HW227090   4.695   5.285   1.477
 8731SOL     OW27091   0.115   1.625   3.517
 8731SOL    HW127092   0.103   1.670   3.428
 8731SOL    HW227093   0.202   1.577   3.518
 8732SOL     OW27094   5.812   6.853   0.326
 8732SOL    HW127095   5.905   6.854   0.290
 8732SOL    HW227096   5.768   6.767   0.303
 8733SOL     OW27097   6.202   5.112   1.939
 8733SOL    HW127098   6.233   5.201   1.908
 8733SOL    HW227099   6.187   5.114   2.038
 8734SOL     OW27100   6.872   3.836   2.708
 8734SOL    HW127101   6.877   3.783   2.793
 8734SOL    HW227102   6.933   3.796   2.640
 8735SOL     OW27103   0.371   3.578   5.412
 8735SOL    HW127104   0.320   3.642   5.471
 8735SOL    HW227105   0.318   3.494   5.402
 8736SOL     OW27106   1.290   6.147   3.958
 8736SOL    HW127107   1.230   6.092   4.016
 8736SOL    HW227108   1.374   6.097   3.940
 8737SOL     OW27109   1.875   6.521   6.884
 8737SOL    HW127110   1.958   6.573   6.902
 8737SOL    HW227111   1.813   6.528   6.963
 8738SOL     OW27112   1.404   2.725   3.571
 8738SOL    HW127113   1.461   2.649   3.602
 8738SOL    HW227114   1.435   2.809   3.615
 8739SOL     OW27115   5.034   4.049   5.749
 8739SOL    HW127116   5.096   4.063   5.671
 8739SOL    HW227117   5.027   4.134   5.801
 8740SOL     OW27118   2.896   0.675   5.352
 8740SOL    HW127119   2.853   0.723   5.276
 8740SOL    HW227120   2.833   0.607   5.389
 8741SOL     OW27121   1.014   0.542   2.550
 8741SOL    HW127122   1.004   0.508   2.457
 8741SOL    HW227123   1.067   0.476   2.604
 8742SOL     OW27124   2.778   1.474   2.170
 8742SOL    HW127125   2.805   1.545   2.235
 8742SOL    HW227126   2.736   1.516   2.090
 8743SOL     OW27127   0.389   2.099   1.554
 8743SOL    HW127128   0.352   2.164   1.621
 8743SOL    HW227129   0.473   2.135   1.515
 8744SOL     OW27130   3.266   4.510   5.956
 8744SOL    HW127131   3.307   4.484   6.044
 8744SOL    HW227132   3.243   4.428   5.904
 8745SOL     OW27133   5.621   0.882   6.282
 8745SOL    HW127134   5.658   0.961   6.234
 8745SOL    HW227135   5.677   0.863   6.363
 8746SOL     OW27136   4.720   5.494   5.039
 8746SOL    HW127137   4.685   5.487   4.946
 8746SOL    HW227138   4.730   5.402   5.078
 8747SOL     OW27139   6.994   0.549   1.798
 8747SOL    HW127140   6.911   0.516   1.842
 8747SOL    HW227141   7.017   0.640   1.832
 8748SOL     OW27142   6.478   1.943   3.701
 8748SOL    HW127143   6.425   1.994   3.769
 8748SOL    HW227144   6.572   1.933   3.733
 8749SOL     OW27145   2.801   1.328   3.775
 8749SOL    HW127146   2.836   1.353   3.865
 8749SOL    HW227147   2.707   1.361   3.766
 8750SOL     OW27148   4.222   3.595   0.032
 8750SOL    HW127149   4.224   3.693   0.052
 8750SOL    HW227150   4.314   3.557   0.041
 8751SOL     OW27151   1.674   6.297   0.746
 8751SOL    HW127152   1.717   6.209   0.722
 8751SOL    HW227153   1.669   6.355   0.665
 8752SOL     OW27154   5.973   3.365   6.073
 8752SOL    HW127155   5.878   3.397   6.068
 8752SOL    HW227156   5.979   3.275   6.029
 8753SOL     OW27157   2.367   2.684   0.988
 8753SOL    HW127158   2.295   2.621   0.958
 8753SOL    HW227159   2.330   2.746   1.057
 8754SOL     OW27160   2.129   5.047   6.828
 8754SOL    HW127161   2.122   4.948   6.819
 8754SOL    HW227162   2.120   5.072   6.924
 8755SOL     OW27163   6.971   2.632   1.663
 8755SOL    HW127164   7.016   2.706   1.713
 8755SOL    HW227165   0.002   2.547   1.675
 8756SOL     OW27166   2.111   1.826   1.860
 8756SOL    HW127167   2.089   1.845   1.764
 8756SOL    HW227168   2.167   1.744   1.866
 8757SOL     OW27169   5.588   6.208   5.442
 8757SOL    HW127170   5.659   6.138   5.457
 8757SOL    HW227171   5.498   6.169   5.463
 8758SOL     OW27172   3.339   5.330   5.115
 8758SOL    HW127173   3.288   5.298   5.036
 8758SOL    HW227174   3.377   5.420   5.096
 8759SOL     OW27175   5.868   0.484   0.168
 8759SOL    HW127176   5.801   0.436   0.225
 8759SOL    HW227177   5.909   0.558   0.222
 8760SOL     OW27178   2.828   2.349   3.906
 8760SOL    HW127179   2.904   2.391   3.856
 8760SOL    HW227180   2.746   2.353   3.849
 8761SOL     OW27181   5.817   1.552   2.729
 8761SOL    HW127182   5.751   1.600   2.671
 8761SOL    HW227183   5.782   1.462   2.753
 8762SOL     OW27184   2.393   5.183   3.232
 8762SOL    HW127185   2.308   5.136   3.209
 8762SOL    HW227186   2.465   5.154   3.170
 8763SOL     OW27187   0.824   0.912   6.904
 8763SOL    HW127188   0.838   1.009   6.882
 8763SOL    HW227189   0.911   0.863   6.896
 8764SOL     OW27190   2.842   5.031   5.241
 8764SOL    HW127191   2.910   5.100   5.265
 8764SOL    HW227192   2.750   5.070   5.249
 8765SOL     OW27193   5.033   0.371   4.354
 8765SOL    HW127194   4.934   0.378   4.368
 8765SOL    HW227195   5.076   0.459   4.376
 8766SOL     OW27196   4.735   5.984   5.728
 8766SOL    HW127197   4.686   5.968   5.814
 8766SOL    HW227198   4.677   5.956   5.651
 8767SOL     OW27199   2.150   1.584   4.300
 8767SOL    HW127200   2.069   1.640   4.280
 8767SOL    HW227201   2.220   1.642   4.342
 8768SOL     OW27202   6.338   1.686   6.602
 8768SOL    HW127203   6.263   1.641   6.554
 8768SOL    HW227204   6.425   1.647   6.572
 8769SOL     OW27205   6.654   6.903   0.168
 8769SOL    HW127206   6.653   6.874   0.264
 8769SOL    HW227207   6.560   6.925   0.140
 8770SOL     OW27208   5.327   3.405   0.588
 8770SOL    HW127209   5.315   3.417   0.686
 8770SOL    HW227210   5.397   3.469   0.555
 8771SOL     OW27211   0.481   3.138   0.357
 8771SOL    HW127212   0.548   3.203   0.321
 8771SOL    HW227213   0.526   3.076   0.421
 8772SOL     OW27214   6.583   0.002   4.289
 8772SOL    HW127215   6.521   6.955   4.250
 8772SOL    HW227216   6.677   6.991   4.279
 8773SOL     OW27217   0.042   1.056   4.126
 8773SOL    HW127218   0.065   1.152   4.140
 8773SOL    HW227219   0.116   0.998   4.159
 8774SOL     OW27220   1.530   1.851   0.610
 8774SOL    HW127221   1.523   1.808   0.520
 8774SOL    HW227222   1.530   1.950   0.600
 8775SOL     OW27223   5.623   2.356   4.051
 8775SOL    HW127224   5.526   2.380   4.050
 8775SOL    HW227225   5.635   2.268   4.097
 8776SOL     OW27226   4.187   2.644   0.457
 8776SOL    HW127227   4.115   2.695   0.506
 8776SOL    HW227228   4.240   2.590   0.523
 8777SOL     OW27229   0.087   1.733   3.268
 8777SOL    HW127230   0.032   1.672   3.211
 8777SOL    HW227231   0.143   1.792   3.209
 8778SOL     OW27232   2.940   5.019   6.982
 8778SOL    HW127233   2.890   5.055   0.040
 8778SOL    HW227234   2.874   4.992   6.912
 8779SOL     OW27235   4.414   4.815   3.563
 8779SOL    HW127236   4.415   4.878   3.640
 8779SOL    HW227237   4.320   4.805   3.529
 8780SOL     OW27238   6.322   4.769   3.945
 8780SOL    HW127239   6.230   4.729   3.947
 8780SOL    HW227240   6.380   4.712   3.887
 8781SOL     OW27241   2.931   0.293   1.879
 8781SOL    HW127242   2.903   0.302   1.783
 8781SOL    HW227243   2.881   0.359   1.934
 8782SOL     OW27244   4.615   2.204   0.870
 8782SOL    HW127245   4.701   2.224   0.916
 8782SOL    HW227246   4.635   2.162   0.781
 8783SOL     OW27247   5.156   3.826   4.793
 8783SOL    HW127248   5.086   3.756   4.778
 8783SOL    HW227249   5.126   3.888   4.866
 8784SOL     OW27250   5.432   1.240   1.474
 8784SOL    HW127251   5.347   1.289   1.455
 8784SOL    HW227252   5.442   1.165   1.409
 8785SOL     OW27253   0.402   5.356   5.741
 8785SOL    HW127254   0.483   5.323   5.693
 8785SOL    HW227255   0.379   5.448   5.710
 8786SOL     OW27256   4.600   1.982   2.890
 8786SOL    HW127257   4.625   2.031   2.807
 8786SOL    HW227258   4.530   2.033   2.939
 8787SOL     OW27259   3.711   6.429   0.725
 8787SOL    HW127260   3.656   6.479   0.657
 8787SOL    HW227261   3.650   6.374   0.782
 8788SOL     OW27262   0.649   0.112   4.084
 8788SOL    HW127263   0.630   0.189   4.145
 8788SOL    HW227264   0.583   0.039   4.101
 8789SOL     OW27265   6.996   2.547   6.218
 8789SOL    HW127266   6.920   2.607   6.195
 8789SOL    HW227267   6.992   2.464   6.162
 8790SOL     OW27268   4.844   3.432   5.777
 8790SOL    HW127269   4.780   3.389   5.713
 8790SOL    HW227270   4.814   3.413   5.871
 8791SOL     OW27271   3.786   5.699   4.965
 8791SOL    HW127272   3.768   5.638   5.042
 8791SOL    HW227273   3.783   5.794   4.995
 8792SOL     OW27274   4.781   4.769   1.572
 8792SOL    HW127275   4.708   4.752   1.638
 8792SOL    HW227276   4.742   4.783   1.481
 8793SOL     OW27277   0.067   5.591   4.364
 8793SOL    HW127278   0.161   5.620   4.382
 8793SOL    HW227279   0.065   5.536   4.281
 8794SOL     OW27280   0.169   1.065   2.251
 8794SOL    HW127281   0.211   0.974   2.251
 8794SOL    HW227282   0.074   1.058   2.220
 8795SOL     OW27283   1.032   6.066   6.416
 8795SOL    HW127284   1.082   5.989   6.376
 8795SOL    HW227285   1.065   6.082   6.509
 8796SOL     OW27286   6.610   3.517   3.429
 8796SOL    HW127287   6.621   3.553   3.337
 8796SOL    HW227288   6.696   3.472   3.458
 8797SOL     OW27289   4.783   0.160   4.147
 8797SOL    HW127290   4.752   0.206   4.064
 8797SOL    HW227291   4.764   0.217   4.227
 8798SOL     OW27292   3.288   6.751   5.783
 8798SOL    HW127293   3.197   6.791   5.775
 8798SOL    HW227294   3.280   6.655   5.810
 8799SOL     OW27295   1.027   4.416   1.971
 8799SOL    HW127296   0.993   4.502   1.935
 8799SOL    HW227297   1.025   4.346   1.900
 8800SOL     OW27298   0.236   5.274   5.160
 8800SOL    HW127299   0.250   5.366   5.195
 8800SOL    HW227300   0.237   5.209   5.237
 8801SOL     OW27301   5.635   2.973   5.479
 8801SOL    HW127302   5.642   3.038   5.403
 8801SOL    HW227303   5.634   2.880   5.443
 8802SOL     OW27304   1.252   6.870   6.339
 8802SOL    HW127305   1.226   6.796   6.401
 8802SOL    HW227306   1.349   6.892   6.353
 8803SOL     OW27307   6.407   6.484   6.510
 8803SOL    HW127308   6.427   6.388   6.529
 8803SOL    HW227309   6.311   6.493   6.483
 8804SOL     OW27310   1.309   6.641   2.728
 8804SOL    HW127311   1.350   6.571   2.788
 8804SOL    HW227312   1.335   6.732   2.761
 8805SOL     OW27313   5.593   4.976   3.743
 8805SOL    HW127314   5.600   4.878   3.761
 8805SOL    HW227315   5.624   5.027   3.823
 8806SOL     OW27316   1.984   0.194   0.913
 8806SOL    HW127317   1.994   0.259   0.838
 8806SOL    HW227318   2.059   0.205   0.978
 8807SOL     OW27319   4.845   2.816   1.463
 8807SOL    HW127320   4.811   2.726   1.489
 8807SOL    HW227321   4.794   2.887   1.511
 8808SOL     OW27322   1.945   2.850   0.042
 8808SOL    HW127323   1.863   2.794   0.033
 8808SOL    HW227324   1.995   2.852   6.977
 8809SOL     OW27325   0.006   3.733   2.975
 8809SOL    HW127326   0.038   3.740   3.070
 8809SOL    HW227327   7.016   3.825   2.937
 8810SOL     OW27328   0.943   1.112   5.522
 8810SOL    HW127329   0.974   1.194   5.473
 8810SOL    HW227330   1.014   1.082   5.585
 8811SOL     OW27331   3.887   5.416   2.103
 8811SOL    HW127332   3.897   5.380   2.010
 8811SOL    HW227333   3.816   5.365   2.151
 8812SOL     OW27334   4.236   1.241   6.314
 8812SOL    HW127335   4.317   1.299   6.327
 8812SOL    HW227336   4.189   1.230   6.402
 8813SOL     OW27337   1.991   3.797   3.107
 8813SOL    HW127338   2.029   3.796   3.199
 8813SOL    HW227339   2.050   3.852   3.047
 8814SOL     OW27340   5.232   0.818   5.934
 8814SOL    HW127341   5.267   0.726   5.950
 8814SOL    HW227342   5.185   0.851   6.017
 8815SOL     OW27343   5.650   1.440   0.208
 8815SOL    HW127344   5.632   1.468   0.114
 8815SOL    HW227345   5.564   1.426   0.256
 8816SOL     OW27346   1.237   6.108   4.573
 8816SOL    HW127347   1.246   6.206   4.591
 8816SOL    HW227348   1.328   6.070   4.556
 8817SOL     OW27349   1.803   2.626   3.437
 8817SOL    HW127350   1.877   2.569   3.401
 8817SOL    HW227351   1.811   2.719   3.402
 8818SOL     OW27352   1.235   0.620   5.395
 8818SOL    HW127353   1.294   0.681   5.343
 8818SOL    HW227354   1.139   0.647   5.382
 8819SOL     OW27355   5.177   4.246   6.266
 8819SOL    HW127356   5.202   4.194   6.185
 8819SOL    HW227357   5.091   4.293   6.251
 8820SOL     OW27358   3.098   0.654   5.110
 8820SOL    HW127359   3.028   0.652   5.182
 8820SOL    HW227360   3.189   0.646   5.151
 8821SOL     OW27361   6.705   4.296   6.658
 8821SOL    HW127362   6.701   4.280   6.756
 8821SOL    HW227363   6.732   4.391   6.641
 8822SOL     OW27364   6.662   0.396   3.936
 8822SOL    HW127365   6.649   0.370   4.032
 8822SOL    HW227366   6.612   0.332   3.878
 8823SOL     OW27367   4.113   1.553   2.666
 8823SOL    HW127368   4.182   1.623   2.650
 8823SOL    HW227369   4.131   1.508   2.753
 8824SOL     OW27370   1.672   0.672   1.683
 8824SOL    HW127371   1.600   0.740   1.699
 8824SOL    HW227372   1.649   0.617   1.603
 8825SOL     OW27373   7.005   6.336   0.357
 8825SOL    HW127374   0.064   6.380   0.315
 8825SOL    HW227375   6.928   6.341   0.293
 8826SOL     OW27376   1.492   3.836   0.993
 8826SOL    HW127377   1.415   3.844   0.929
 8826SOL    HW227378   1.523   3.928   1.018
 8827SOL     OW27379   4.604   0.436   2.610
 8827SOL    HW127380   4.593   0.499   2.533
 8827SOL    HW227381   4.655   0.481   2.683
 8828SOL     OW27382   3.229   2.586   6.241
 8828SOL    HW127383   3.220   2.626   6.332
 8828SOL    HW227384   3.212   2.488   6.245
 8829SOL     OW27385   6.316   1.084   1.886
 8829SOL    HW127386   6.394   1.128   1.842
 8829SOL    HW227387   6.240   1.079   1.822
 8830SOL     OW27388   2.898   0.693   3.248
 8830SOL    HW127389   2.901   0.598   3.217
 8830SOL    HW227390   2.805   0.728   3.240
 8831SOL     OW27391   0.239   2.952   1.925
 8831SOL    HW127392   0.207   3.046   1.933
 8831SOL    HW227393   0.327   2.943   1.972
 8832SOL     OW27394   5.888   1.041   4.730
 8832SOL    HW127395   5.880   1.130   4.686
 8832SOL    HW227396   5.927   1.053   4.822
 8833SOL     OW27397   4.735   2.555   1.409
 8833SOL    HW127398   4.828   2.520   1.399
 8833SOL    HW227399   4.681   2.529   1.329
 8834SOL     OW27400   5.514   4.212   5.625
 8834SOL    HW127401   5.447   4.286   5.620
 8834SOL    HW227402   5.482   4.135   5.569
 8835SOL     OW27403   0.322   0.410   6.398
 8835SOL    HW127404   0.323   0.510   6.396
 8835SOL    HW227405   0.397   0.377   6.455
 8836SOL     OW27406   4.855   1.973   1.066
 8836SOL    HW127407   4.845   1.937   1.158
 8836SOL    HW227408   4.890   1.901   1.006
 8837SOL     OW27409   4.398   6.881   0.388
 8837SOL    HW127410   4.454   6.922   0.317
 8837SOL    HW227411   4.397   6.782   0.377
 8838SOL     OW27412   1.307   3.896   3.203
 8838SOL    HW127413   1.229   3.834   3.209
 8838SOL    HW227414   1.367   3.883   3.283
 8839SOL     OW27415   4.842   5.352   3.304
 8839SOL    HW127416   4.792   5.352   3.217
 8839SOL    HW227417   4.863   5.447   3.330
 8840SOL     OW27418   0.063   0.807   1.218
 8840SOL    HW127419   0.093   0.902   1.225
 8840SOL    HW227420   7.008   0.791   1.281
 8841SOL     OW27421   3.487   0.370   1.154
 8841SOL    HW127422   3.587   0.365   1.157
 8841SOL    HW227423   3.453   0.325   1.072
 8842SOL     OW27424   3.657   3.505   4.520
 8842SOL    HW127425   3.682   3.600   4.540
 8842SOL    HW227426   3.560   3.500   4.497
 8843SOL     OW27427   2.692   5.760   6.697
 8843SOL    HW127428   2.763   5.689   6.691
 8843SOL    HW227429   2.602   5.716   6.695
 8844SOL     OW27430   3.723   1.967   6.361
 8844SOL    HW127431   3.707   1.930   6.452
 8844SOL    HW227432   3.820   1.954   6.337
 8845SOL     OW27433   6.721   4.581   1.786
 8845SOL    HW127434   6.665   4.498   1.792
 8845SOL    HW227435   6.664   4.657   1.754
 8846SOL     OW27436   5.786   4.028   5.321
 8846SOL    HW127437   5.805   4.125   5.311
 8846SOL    HW227438   5.829   3.995   5.406
 8847SOL     OW27439   2.557   1.435   3.793
 8847SOL    HW127440   2.457   1.429   3.791
 8847SOL    HW227441   2.585   1.529   3.808
 8848SOL     OW27442   4.099   1.439   0.844
 8848SOL    HW127443   4.060   1.365   0.899
 8848SOL    HW227444   4.167   1.489   0.899
 8849SOL     OW27445   2.798   4.842   4.372
 8849SOL    HW127446   2.788   4.902   4.293
 8849SOL    HW227447   2.882   4.866   4.422
 8850SOL     OW27448   2.999   0.710   1.638
 8850SOL    HW127449   3.087   0.696   1.684
 8850SOL    HW227450   2.987   0.640   1.568
 8851SOL     OW27451   6.926   4.954   2.305
 8851SOL    HW127452   6.853   4.887   2.294
 8851SOL    HW227453   6.891   5.034   2.355
 8852SOL     OW27454   4.210   2.269   4.873
 8852SOL    HW127455   4.119   2.234   4.852
 8852SOL    HW227456   4.205   2.327   4.955
 8853SOL     OW27457   4.070   1.635   5.793
 8853SOL    HW127458   4.097   1.709   5.731
 8853SOL    HW227459   4.112   1.649   5.882
 8854SOL     OW27460   1.068   2.074   6.754
 8854SOL    HW127461   1.062   1.976   6.737
 8854SOL    HW227462   1.114   2.118   6.677
 8855SOL     OW27463   6.383   5.752   0.088
 8855SOL    HW127464   6.461   5.706   0.129
 8855SOL    HW227465   6.405   5.848   0.071
 8856SOL     OW27466   5.664   1.029   4.384
 8856SOL    HW127467   5.618   1.098   4.329
 8856SOL    HW227468   5.596   0.974   4.433
 8857SOL     OW27469   0.189   2.895   4.381
 8857SOL    HW127470   0.238   2.878   4.467
 8857SOL    HW227471   0.118   2.964   4.396
 8858SOL     OW27472   0.093   4.054   6.395
 8858SOL    HW127473   0.086   4.076   6.492
 8858SOL    HW227474   0.010   4.084   6.348
 8859SOL     OW27475   2.901   5.177   5.503
 8859SOL    HW127476   2.952   5.206   5.422
 8859SOL    HW227477   2.805   5.163   5.479
 8860SOL     OW27478   1.375   2.428   1.617
 8860SOL    HW127479   1.374   2.407   1.519
 8860SOL    HW227480   1.284   2.412   1.655
 8861SOL     OW27481   3.209   3.551   0.138
 8861SOL    HW127482   3.235   3.579   0.230
 8861SOL    HW227483   3.260   3.468   0.113
 8862SOL     OW27484   6.369   2.521   4.153
 8862SOL    HW127485   6.350   2.581   4.231
 8862SOL    HW227486   6.464   2.493   4.155
 8863SOL     OW27487   2.212   5.178   5.266
 8863SOL    HW127488   2.296   5.125   5.251
 8863SOL    HW227489   2.228   5.273   5.240
 8864SOL     OW27490   0.867   2.564   6.319
 8864SOL    HW127491   0.890   2.494   6.251
 8864SOL    HW227492   0.788   2.533   6.372
 8865SOL     OW27493   3.161   2.341   6.268
 8865SOL    HW127494   3.248   2.309   6.306
 8865SOL    HW227495   3.087   2.317   6.331
 8866SOL     OW27496   3.891   6.580   4.341
 8866SOL    HW127497   3.841   6.653   4.294
 8866SOL    HW227498   3.849   6.492   4.320
 8867SOL     OW27499   0.494   3.247   3.468
 8867SOL    HW127500   0.484   3.343   3.494
 8867SOL    HW227501   0.411   3.197   3.494
 8868SOL     OW27502   4.024   3.347   0.526
 8868SOL    HW127503   3.992   3.300   0.608
 8868SOL    HW227504   4.049   3.441   0.549
 8869SOL     OW27505   5.678   3.156   4.394
 8869SOL    HW127506   5.648   3.189   4.305
 8869SOL    HW227507   5.641   3.064   4.409
 8870SOL     OW27508   4.515   1.471   0.978
 8870SOL    HW127509   4.601   1.497   0.934
 8870SOL    HW227510   4.517   1.373   0.998
 8871SOL     OW27511   1.784   2.375   4.763
 8871SOL    HW127512   1.862   2.313   4.771
 8871SOL    HW227513   1.816   2.469   4.758
 8872SOL     OW27514   1.819   3.316   3.864
 8872SOL    HW127515   1.829   3.225   3.904
 8872SOL    HW227516   1.811   3.384   3.937
 8873SOL     OW27517   0.047   6.173   4.746
 8873SOL    HW127518   7.000   6.232   4.704
 8873SOL    HW227519   0.021   6.077   4.734
 8874SOL     OW27520   2.460   1.000   0.203
 8874SOL    HW127521   2.538   0.947   0.237
 8874SOL    HW227522   2.383   0.991   0.265
 8875SOL     OW27523   1.596   2.404   4.549
 8875SOL    HW127524   1.561   2.318   4.514
 8875SOL    HW227525   1.659   2.386   4.624
 8876SOL     OW27526   1.587   0.023   4.352
 8876SOL    HW127527   1.544   0.051   4.266
 8876SOL    HW227528   1.587   6.944   4.358
 8877SOL     OW27529   2.710   6.986   5.069
 8877SOL    HW127530   2.708   6.887   5.055
 8877SOL    HW227531   2.741   0.010   4.986
 8878SOL     OW27532   5.794   4.629   6.932
 8878SOL    HW127533   5.772   4.595   0.002
 8878SOL    HW227534   5.852   4.710   6.939
 8879SOL     OW27535   4.717   5.920   4.315
 8879SOL    HW127536   4.790   5.941   4.250
 8879SOL    HW227537   4.715   5.990   4.386
 8880SOL     OW27538   0.542   5.271   5.415
 8880SOL    HW127539   0.498   5.324   5.342
 8880SOL    HW227540   0.634   5.306   5.431
 8881SOL     OW27541   6.391   0.595   1.705
 8881SOL    HW127542   6.446   0.553   1.633
 8881SOL    HW227543   6.395   0.694   1.697
 8882SOL     OW27544   5.538   2.040   6.858
 8882SOL    HW127545   5.578   2.127   6.889
 8882SOL    HW227546   5.556   1.969   6.926
 8883SOL     OW27547   6.689   0.976   6.164
 8883SOL    HW127548   6.716   0.941   6.074
 8883SOL    HW227549   6.720   1.071   6.174
 8884SOL     OW27550   6.551   0.359   6.133
 8884SOL    HW127551   6.451   0.355   6.134
 8884SOL    HW227552   6.587   0.307   6.211
 8885SOL     OW27553   5.193   4.422   1.657
 8885SOL    HW127554   5.174   4.477   1.576
 8885SOL    HW227555   5.115   4.427   1.720
 8886SOL     OW27556   3.014   6.965   6.945
 8886SOL    HW127557   3.049   6.992   0.014
 8886SOL    HW227558   3.089   6.930   6.889
 8887SOL     OW27559   2.663   1.163   0.993
 8887SOL    HW127560   2.632   1.229   0.926
 8887SOL    HW227561   2.763   1.155   0.988
 8888SOL     OW27562   2.804   1.472   2.532
 8888SOL    HW127563   2.720   1.425   2.505
 8888SOL    HW227564   2.781   1.562   2.569
 8889SOL     OW27565   3.835   0.404   5.272
 8889SOL    HW127566   3.903   0.403   5.345
 8889SOL    HW227567   3.879   0.426   5.185
 8890SOL     OW27568   0.974   5.160   4.498
 8890SOL    HW127569   0.892   5.134   4.548
 8890SOL    HW227570   1.012   5.080   4.452
 8891SOL     OW27571   3.824   2.054   6.753
 8891SOL    HW127572   3.779   2.142   6.737
 8891SOL    HW227573   3.765   1.980   6.720
 8892SOL     OW27574   1.158   5.972   2.533
 8892SOL    HW127575   1.154   6.033   2.611
 8892SOL    HW227576   1.142   6.025   2.449
 8893SOL     OW27577   0.790   1.193   1.123
 8893SOL    HW127578   0.873   1.208   1.069
 8893SOL    HW227579   0.748   1.106   1.097
 8894SOL     OW27580   3.937   2.684   6.438
 8894SOL    HW127581   3.905   2.591   6.419
 8894SOL    HW227582   4.032   2.681   6.469
 8895SOL     OW27583   0.392   6.369   2.700
 8895SOL    HW127584   0.334   6.421   2.763
 8895SOL    HW227585   0.379   6.403   2.607
 8896SOL     OW27586   1.434   3.677   5.195
 8896SOL    HW127587   1.348   3.654   5.148
 8896SOL    HW227588   1.510   3.653   5.135
 8897SOL     OW27589   1.686   2.206   1.339
 8897SOL    HW127590   1.718   2.290   1.296
 8897SOL    HW227591   1.586   2.203   1.335
 8898SOL     OW27592   5.566   4.650   4.455
 8898SOL    HW127593   5.485   4.709   4.456
 8898SOL    HW227594   5.545   4.567   4.403
 8899SOL     OW27595   1.896   4.166   6.831
 8899SOL    HW127596   1.990   4.173   6.866
 8899SOL    HW227597   1.832   4.167   6.907
 8900SOL     OW27598   5.694   2.100   3.724
 8900SOL    HW127599   5.606   2.141   3.747
 8900SOL    HW227600   5.721   2.130   3.632
 8901SOL     OW27601   1.741   6.732   3.062
 8901SOL    HW127602   1.686   6.760   2.983
 8901SOL    HW227603   1.754   6.810   3.124
 8902SOL     OW27604   1.797   5.405   6.264
 8902SOL    HW127605   1.788   5.410   6.364
 8902SOL    HW227606   1.846   5.321   6.240
 8903SOL     OW27607   1.643   1.549   3.122
 8903SOL    HW127608   1.662   1.553   3.024
 8903SOL    HW227609   1.637   1.642   3.158
 8904SOL     OW27610   1.546   6.312   3.128
 8904SOL    HW127611   1.483   6.388   3.146
 8904SOL    HW227612   1.494   6.226   3.128
 8905SOL     OW27613   2.808   3.829   5.324
 8905SOL    HW127614   2.826   3.919   5.363
 8905SOL    HW227615   2.710   3.808   5.331
 8906SOL     OW27616   0.591   5.620   5.835
 8906SOL    HW127617   0.508   5.587   5.791
 8906SOL    HW227618   0.649   5.665   5.767
 8907SOL     OW27619   3.253   2.714   5.541
 8907SOL    HW127620   3.258   2.705   5.441
 8907SOL    HW227621   3.332   2.765   5.574
 8908SOL     OW27622   0.599   2.585   1.054
 8908SOL    HW127623   0.509   2.619   1.080
 8908SOL    HW227624   0.641   2.538   1.131
 8909SOL     OW27625   2.731   0.261   6.602
 8909SOL    HW127626   2.646   0.292   6.559
 8909SOL    HW227627   2.736   0.161   6.598
 8910SOL     OW27628   3.594   3.892   6.902
 8910SOL    HW127629   3.690   3.885   6.930
 8910SOL    HW227630   3.550   3.803   6.910
 8911SOL     OW27631   3.689   2.141   3.574
 8911SOL    HW127632   3.618   2.203   3.609
 8911SOL    HW227633   3.647   2.053   3.551
 8912SOL     OW27634   4.994   2.919   5.947
 8912SOL    HW127635   4.925   2.979   5.987
 8912SOL    HW227636   4.977   2.909   5.849
 8913SOL     OW27637   5.402   3.944   1.209
 8913SOL    HW127638   5.357   4.033   1.206
 8913SOL    HW227639   5.486   3.952   1.263
 8914SOL     OW27640   3.971   2.152   4.809
 8914SOL    HW127641   3.885   2.153   4.758
 8914SOL    HW227642   3.954   2.177   4.904
 8915SOL     OW27643   1.386   4.802   2.042
 8915SOL    HW127644   1.403   4.829   1.947
 8915SOL    HW227645   1.315   4.733   2.046
 8916SOL     OW27646   6.527   3.290   2.087
 8916SOL    HW127647   6.515   3.217   2.020
 8916SOL    HW227648   6.439   3.332   2.108
 8917SOL     OW27649   6.348   5.260   6.807
 8917SOL    HW127650   6.257   5.294   6.782
 8917SOL    HW227651   6.389   5.321   6.874
 8918SOL     OW27652   4.702   5.426   6.253
 8918SOL    HW127653   4.656   5.337   6.251
 8918SOL    HW227654   4.714   5.456   6.348
 8919SOL     OW27655   2.059   4.796   0.817
 8919SOL    HW127656   2.063   4.697   0.829
 8919SOL    HW227657   1.999   4.818   0.740
 8920SOL     OW27658   6.394   5.885   5.559
 8920SOL    HW127659   6.399   5.985   5.558
 8920SOL    HW227660   6.438   5.850   5.642
 8921SOL     OW27661   1.765   0.261   3.765
 8921SOL    HW127662   1.848   0.257   3.821
 8921SOL    HW227663   1.706   0.184   3.788
 8922SOL     OW27664   6.792   4.070   6.559
 8922SOL    HW127665   6.843   4.017   6.626
 8922SOL    HW227666   6.754   4.151   6.602
 8923SOL     OW27667   2.625   4.307   5.682
 8923SOL    HW127668   2.663   4.400   5.685
 8923SOL    HW227669   2.699   4.241   5.700
 8924SOL     OW27670   2.852   5.031   5.733
 8924SOL    HW127671   2.781   5.065   5.795
 8924SOL    HW227672   2.883   5.105   5.673
 8925SOL     OW27673   6.770   6.423   2.251
 8925SOL    HW127674   6.860   6.388   2.276
 8925SOL    HW227675   6.777   6.476   2.167
 8926SOL     OW27676   5.650   1.625   1.029
 8926SOL    HW127677   5.625   1.573   1.111
 8926SOL    HW227678   5.680   1.561   0.958
 8927SOL     OW27679   2.296   1.770   5.025
 8927SOL    HW127680   2.302   1.818   4.937
 8927SOL    HW227681   2.360   1.811   5.089
 8928SOL     OW27682   0.139   6.777   5.601
 8928SOL    HW127683   0.105   6.855   5.654
 8928SOL    HW227684   0.234   6.758   5.625
 8929SOL     OW27685   5.855   3.868   3.351
 8929SOL    HW127686   5.861   3.925   3.433
 8929SOL    HW227687   5.759   3.852   3.328
 8930SOL     OW27688   0.554   5.027   4.797
 8930SOL    HW127689   0.533   4.949   4.737
 8930SOL    HW227690   0.491   5.028   4.874
 8931SOL     OW27691   5.085   0.805   0.809
 8931SOL    HW127692   4.994   0.836   0.783
 8931SOL    HW227693   5.152   0.875   0.787
 8932SOL     OW27694   6.991   0.568   6.831
 8932SOL    HW127695   6.996   0.557   6.732
 8932SOL    HW227696   0.023   0.496   6.876
 8933SOL     OW27697   1.358   6.601   5.554
 8933SOL    HW127698   1.415   6.648   5.486
 8933SOL    HW227699   1.366   6.503   5.542
 8934SOL     OW27700   4.024   6.202   2.819
 8934SOL    HW127701   4.035   6.295   2.785
 8934SOL    HW227702   3.938   6.195   2.870
 8935SOL     OW27703   5.235   2.234   3.324
 8935SOL    HW127704   5.157   2.287   3.290
 8935SOL    HW227705   5.317   2.256   3.271
 8936SOL     OW27706   1.538   4.618   2.315
 8936SOL    HW127707   1.491   4.560   2.381
 8936SOL    HW227708   1.559   4.566   2.233
 8937SOL     OW27709   4.866   6.772   4.916
 8937SOL    HW127710   4.874   6.774   5.016
 8937SOL    HW227711   4.774   6.802   4.890
 8938SOL     OW27712   6.017   0.283   1.403
 8938SOL    HW127713   5.987   0.213   1.339
 8938SOL    HW227714   5.967   0.367   1.387
 8939SOL     OW27715   6.987   3.309   3.765
 8939SOL    HW127716   7.016   3.370   3.691
 8939SOL    HW227717   0.032   3.311   3.839
 8940SOL     OW27718   6.253   2.308   0.512
 8940SOL    HW127719   6.274   2.211   0.517
 8940SOL    HW227720   6.222   2.340   0.602
 8941SOL     OW27721   4.279   2.713   1.710
 8941SOL    HW127722   4.264   2.629   1.659
 8941SOL    HW227723   4.191   2.745   1.747
 8942SOL     OW27724   5.772   4.102   4.556
 8942SOL    HW127725   5.728   4.140   4.474
 8942SOL    HW227726   5.777   4.173   4.627
 8943SOL     OW27727   4.805   4.271   0.248
 8943SOL    HW127728   4.744   4.344   0.279
 8943SOL    HW227729   4.879   4.310   0.193
 8944SOL     OW27730   5.686   5.670   4.597
 8944SOL    HW127731   5.702   5.572   4.596
 8944SOL    HW227732   5.588   5.688   4.586
 8945SOL     OW27733   5.586   4.195   4.349
 8945SOL    HW127734   5.594   4.163   4.255
 8945SOL    HW227735   5.507   4.257   4.356
 8946SOL     OW27736   4.869   1.190   5.249
 8946SOL    HW127737   4.828   1.142   5.171
 8946SOL    HW227738   4.966   1.205   5.231
 8947SOL     OW27739   2.169   5.436   6.735
 8947SOL    HW127740   2.199   5.462   6.826
 8947SOL    HW227741   2.249   5.413   6.679
 8948SOL     OW27742   5.815   0.885   2.844
 8948SOL    HW127743   5.783   0.977   2.818
 8948SOL    HW227744   5.887   0.857   2.780
 8949SOL     OW27745   3.506   6.561   0.594
 8949SOL    HW127746   3.482   6.620   0.671
 8949SOL    HW227747   3.425   6.511   0.563
 8950SOL     OW27748   3.622   3.476   0.611
 8950SOL    HW127749   3.543   3.461   0.671
 8950SOL    HW227750   3.701   3.504   0.666
 8951SOL     OW27751   1.931   1.787   4.363
 8951SOL    HW127752   1.974   1.878   4.361
 8951SOL    HW227753   1.896   1.769   4.455
 8952SOL     OW27754   1.724   3.699   4.404
 8952SOL    HW127755   1.812   3.654   4.421
 8952SOL    HW227756   1.735   3.769   4.334
 8953SOL     OW27757   1.182   4.230   1.111
 8953SOL    HW127758   1.163   4.133   1.097
 8953SOL    HW227759   1.102   4.284   1.086
 8954SOL     OW27760   2.032   4.977   5.331
 8954SOL    HW127761   2.105   5.044   5.315
 8954SOL    HW227762   1.980   4.963   5.247
 8955SOL     OW27763   5.825   2.534   4.379
 8955SOL    HW127764   5.802   2.502   4.471
 8955SOL    HW227765   5.900   2.600   4.384
 8956SOL     OW27766   0.711   5.738   6.878
 8956SOL    HW127767   0.688   5.662   6.816
 8956SOL    HW227768   0.649   5.736   6.956
 8957SOL     OW27769   0.061   6.153   3.195
 8957SOL    HW127770   0.137   6.212   3.169
 8957SOL    HW227771   0.096   6.062   3.219
 8958SOL     OW27772   1.675   2.991   4.994
 8958SOL    HW127773   1.577   2.971   4.994
 8958SOL    HW227774   1.712   2.978   5.086
 8959SOL     OW27775   6.687   2.413   2.592
 8959SOL    HW127776   6.669   2.436   2.687
 8959SOL    HW227777   6.657   2.488   2.533
 8960SOL     OW27778   5.466   4.673   3.166
 8960SOL    HW127779   5.402   4.749   3.156
 8960SOL    HW227780   5.525   4.689   3.245
 8961SOL     OW27781   2.018   0.958   5.425
 8961SOL    HW127782   1.951   0.984   5.356
 8961SOL    HW227783   1.980   0.885   5.483
 8962SOL     OW27784   6.740   5.859   2.351
 8962SOL    HW127785   6.668   5.793   2.333
 8962SOL    HW227786   6.824   5.829   2.305
 8963SOL     OW27787   4.960   0.023   5.217
 8963SOL    HW127788   5.057   0.036   5.238
 8963SOL    HW227789   4.950   6.964   5.158
 8964SOL     OW27790   1.451   3.157   4.176
 8964SOL    HW127791   1.422   3.075   4.225
 8964SOL    HW227792   1.465   3.231   4.242
 8965SOL     OW27793   4.136   5.713   6.291
 8965SOL    HW127794   4.199   5.790   6.303
 8965SOL    HW227795   4.042   5.744   6.307
 8966SOL     OW27796   4.130   5.401   5.142
 8966SOL    HW127797   4.065   5.332   5.172
 8966SOL    HW227798   4.162   5.379   5.049
 8967SOL     OW27799   3.036   0.012   4.127
 8967SOL    HW127800   3.070   0.092   4.079
 8967SOL    HW227801   3.095   6.955   4.108
 8968SOL     OW27802   3.693   5.270   2.222
 8968SOL    HW127803   3.636   5.330   2.279
 8968SOL    HW227804   3.645   5.249   2.137
 8969SOL     OW27805   1.164   0.781   2.824
 8969SOL    HW127806   1.130   0.793   2.730
 8969SOL    HW227807   1.240   0.844   2.840
 8970SOL     OW27808   2.014   0.420   4.153
 8970SOL    HW127809   1.957   0.340   4.169
 8970SOL    HW227810   2.079   0.431   4.228
 8971SOL     OW27811   3.544   4.658   0.344
 8971SOL    HW127812   3.520   4.598   0.420
 8971SOL    HW227813   3.554   4.752   0.377
 8972SOL     OW27814   6.160   3.573   0.246
 8972SOL    HW127815   6.082   3.610   0.194
 8972SOL    HW227816   6.191   3.640   0.312
 8973SOL     OW27817   1.303   2.422   3.437
 8973SOL    HW127818   1.305   2.504   3.494
 8973SOL    HW227819   1.352   2.348   3.483
 8974SOL     OW27820   2.236   4.319   4.581
 8974SOL    HW127821   2.237   4.291   4.677
 8974SOL    HW227822   2.329   4.343   4.552
 8975SOL     OW27823   0.013   5.265   5.685
 8975SOL    HW127824   0.001   5.276   5.587
 8975SOL    HW227825   0.010   5.355   5.730
 8976SOL     OW27826   6.055   6.467   1.985
 8976SOL    HW127827   6.098   6.468   2.076
 8976SOL    HW227828   5.965   6.511   1.990
 8977SOL     OW27829   6.761   5.100   6.172
 8977SOL    HW127830   6.811   5.015   6.154
 8977SOL    HW227831   6.679   5.079   6.224
 8978SOL     OW27832   5.894   6.027   6.412
 8978SOL    HW127833   5.870   6.120   6.384
 8978SOL    HW227834   5.849   5.961   6.352
 8979SOL     OW27835   1.317   4.759   5.399
 8979SOL    HW127836   1.382   4.758   5.476
 8979SOL    HW227837   1.297   4.853   5.374
 8980SOL     OW27838   3.541   6.918   6.827
 8980SOL    HW127839   3.442   6.932   6.829
 8980SOL    HW227840   3.586   7.000   6.790
 8981SOL     OW27841   4.400   3.348   6.681
 8981SOL    HW127842   4.428   3.297   6.762
 8981SOL    HW227843   4.345   3.427   6.709
 8982SOL     OW27844   0.379   1.858   1.658
 8982SOL    HW127845   0.324   1.802   1.597
 8982SOL    HW227846   0.385   1.951   1.622
 8983SOL     OW27847   1.437   6.602   1.946
 8983SOL    HW127848   1.378   6.650   1.881
 8983SOL    HW227849   1.382   6.542   2.004
 8984SOL     OW27850   6.994   0.710   4.423
 8984SOL    HW127851   0.060   0.685   4.382
 8984SOL    HW227852   6.925   0.640   4.401
 8985SOL     OW27853   5.106   1.839   1.125
 8985SOL    HW127854   5.089   1.888   1.039
 8985SOL    HW227855   5.040   1.765   1.135
 8986SOL     OW27856   6.842   4.527   0.600
 8986SOL    HW127857   6.931   4.559   0.567
 8986SOL    HW227858   6.855   4.441   0.650
 8987SOL     OW27859   2.077   0.041   1.868
 8987SOL    HW127860   2.092   0.139   1.855
 8987SOL    HW227861   2.150   0.003   1.925
 8988SOL     OW27862   2.027   6.112   1.940
 8988SOL    HW127863   1.965   6.152   2.008
 8988SOL    HW227864   2.096   6.178   1.914
 8989SOL     OW27865   5.414   1.838   2.814
 8989SOL    HW127866   5.410   1.910   2.744
 8989SOL    HW227867   5.504   1.840   2.858
 8990SOL     OW27868   3.425   0.959   1.957
 8990SOL    HW127869   3.481   0.959   1.874
 8990SOL    HW227870   3.329   0.945   1.932
 8991SOL     OW27871   1.769   1.383   0.921
 8991SOL    HW127872   1.809   1.463   0.874
 8991SOL    HW227873   1.733   1.319   0.853
 8992SOL     OW27874   1.233   4.052   6.663
 8992SOL    HW127875   1.176   4.130   6.637
 8992SOL    HW227876   1.307   4.084   6.723
 8993SOL     OW27877   6.046   3.858   4.053
 8993SOL    HW127878   5.985   3.879   4.129
 8993SOL    HW227879   5.993   3.833   3.973
 8994SOL     OW27880   1.275   5.203   3.104
 8994SOL    HW127881   1.235   5.158   3.183
 8994SOL    HW227882   1.358   5.153   3.076
 8995SOL     OW27883   2.187   3.909   4.754
 8995SOL    HW127884   2.230   3.947   4.836
 8995SOL    HW227885   2.174   3.982   4.686
 8996SOL     OW27886   0.888   3.743   1.940
 8996SOL    HW127887   0.814   3.751   2.007
 8996SOL    HW227888   0.962   3.688   1.979
 8997SOL     OW27889   4.118   2.335   5.563
 8997SOL    HW127890   4.209   2.324   5.604
 8997SOL    HW227891   4.087   2.247   5.528
 8998SOL     OW27892   0.833   1.625   5.988
 8998SOL    HW127893   0.809   1.708   6.039
 8998SOL    HW227894   0.896   1.649   5.913
 8999SOL     OW27895   6.104   0.857   4.884
 8999SOL    HW127896   6.023   0.908   4.910
 8999SOL    HW227897   6.082   0.792   4.811
 9000SOL     OW27898   2.769   4.453   0.627
 9000SOL    HW127899   2.672   4.439   0.644
 9000SOL    HW227900   2.786   4.458   0.528
 9001SOL     OW27901   1.774   4.490   3.212
 9001SOL    HW127902   1.681   4.467   3.184
 9001SOL    HW227903   1.773   4.527   3.305
 9002SOL     OW27904   5.141   4.854   5.955
 9002SOL    HW127905   5.118   4.930   6.016
 9002SOL    HW227906   5.061   4.794   5.946
 9003SOL     OW27907   5.607   2.604   5.637
 9003SOL    HW127908   5.669   2.638   5.567
 9003SOL    HW227909   5.529   2.666   5.647
 9004SOL     OW27910   4.387   5.648   0.965
 9004SOL    HW127911   4.434   5.665   0.879
 9004SOL    HW227912   4.355   5.734   1.004
 9005SOL     OW27913   4.670   2.004   3.239
 9005SOL    HW127914   4.733   1.986   3.164
 9005SOL    HW227915   4.609   1.925   3.250
 9006SOL     OW27916   1.874   6.531   0.824
 9006SOL    HW127917   1.820   6.456   0.785
 9006SOL    HW227918   1.945   6.493   0.882
 9007SOL     OW27919   3.015   6.676   4.716
 9007SOL    HW127920   3.106   6.635   4.726
 9007SOL    HW227921   3.017   6.742   4.641
 9008SOL     OW27922   6.502   4.748   2.393
 9008SOL    HW127923   6.435   4.774   2.463
 9008SOL    HW227924   6.502   4.648   2.383
 9009SOL     OW27925   3.764   6.260   1.256
 9009SOL    HW127926   3.804   6.222   1.339
 9009SOL    HW227927   3.771   6.360   1.258
 9010SOL     OW27928   1.320   5.987   5.186
 9010SOL    HW127929   1.247   5.922   5.164
 9010SOL    HW227930   1.353   6.029   5.101
 9011SOL     OW27931   4.148   1.921   1.400
 9011SOL    HW127932   4.081   1.983   1.362
 9011SOL    HW227933   4.108   1.871   1.477
 9012SOL     OW27934   6.672   5.735   1.306
 9012SOL    HW127935   6.724   5.649   1.309
 9012SOL    HW227936   6.708   5.797   1.376
 9013SOL     OW27937   4.800   6.483   3.625
 9013SOL    HW127938   4.804   6.384   3.633
 9013SOL    HW227939   4.868   6.524   3.686
 9014SOL     OW27940   3.369   1.057   0.713
 9014SOL    HW127941   3.429   1.087   0.640
 9014SOL    HW227942   3.302   0.992   0.677
 9015SOL     OW27943   6.625   1.196   5.953
 9015SOL    HW127944   6.679   1.223   6.033
 9015SOL    HW227945   6.687   1.165   5.881
 9016SOL     OW27946   6.939   6.499   6.091
 9016SOL    HW127947   0.011   6.463   6.085
 9016SOL    HW227948   6.916   6.549   6.008
 9017SOL     OW27949   0.190   3.668   3.716
 9017SOL    HW127950   0.285   3.684   3.740
 9017SOL    HW227951   0.130   3.695   3.792
 9018SOL     OW27952   3.558   2.481   5.556
 9018SOL    HW127953   3.615   2.544   5.503
 9018SOL    HW227954   3.511   2.419   5.493
 9019SOL     OW27955   2.195   7.013   0.617
 9019SOL    HW127956   2.217   0.051   0.695
 9019SOL    HW227957   2.208   6.917   0.644
 9020SOL     OW27958   0.549   4.990   3.221
 9020SOL    HW127959   0.586   4.969   3.131
 9020SOL    HW227960   0.536   4.905   3.272
 9021SOL     OW27961   6.664   6.053   5.192
 9021SOL    HW127962   6.716   6.127   5.235
 9021SOL    HW227963   6.566   6.072   5.201
 9022SOL     OW27964   3.137   0.895   6.395
 9022SOL    HW127965   3.141   0.905   6.295
 9022SOL    HW227966   3.099   0.979   6.435
 9023SOL     OW27967   3.459   2.888   3.275
 9023SOL    HW127968   3.474   2.859   3.181
 9023SOL    HW227969   3.370   2.932   3.282
 9024SOL     OW27970   1.667   6.777   6.848
 9024SOL    HW127971   1.608   6.848   6.886
 9024SOL    HW227972   1.616   6.692   6.840
 9025SOL     OW27973   6.327   4.081   1.294
 9025SOL    HW127974   6.236   4.059   1.259
 9025SOL    HW227975   6.319   4.142   1.373
 9026SOL     OW27976   3.456   2.884   5.635
 9026SOL    HW127977   3.533   2.826   5.662
 9026SOL    HW227978   3.488   2.958   5.577
 9027SOL     OW27979   2.343   2.791   3.062
 9027SOL    HW127980   2.410   2.834   3.001
 9027SOL    HW227981   2.251   2.822   3.037
 9028SOL     OW27982   2.548   4.687   4.788
 9028SOL    HW127983   2.565   4.753   4.714
 9028SOL    HW227984   2.628   4.685   4.849
 9029SOL     OW27985   5.284   5.431   3.332
 9029SOL    HW127986   5.346   5.509   3.335
 9029SOL    HW227987   5.289   5.388   3.242
 9030SOL     OW27988   3.151   1.813   2.035
 9030SOL    HW127989   3.112   1.730   1.995
 9030SOL    HW227990   3.248   1.800   2.052
 9031SOL     OW27991   2.162   0.268   6.738
 9031SOL    HW127992   2.141   0.296   6.832
 9031SOL    HW227993   2.216   0.184   6.739
 9032SOL     OW27994   1.373   1.307   1.863
 9032SOL    HW127995   1.418   1.346   1.943
 9032SOL    HW227996   1.440   1.296   1.790
 9033SOL     OW27997   0.553   3.181   2.537
 9033SOL    HW127998   0.522   3.163   2.444
 9033SOL    HW227999   0.536   3.101   2.594
 9034SOL     OW28000   2.940   6.990   6.047
 9034SOL    HW128001   2.843   6.966   6.046
 9034SOL    HW228002   2.971   7.002   6.142
 9035SOL     OW28003   0.028   1.145   4.496
 9035SOL    HW128004   0.011   1.240   4.471
 9035SOL    HW228005   6.985   1.085   4.448
 9036SOL     OW28006   1.375   2.270   4.820
 9036SOL    HW128007   1.457   2.318   4.852
 9036SOL    HW228008   1.367   2.182   4.868
 9037SOL     OW28009   1.942   3.803   5.689
 9037SOL    HW128010   1.989   3.808   5.777
 9037SOL    HW228011   1.909   3.894   5.664
 9038SOL     OW28012   5.475   6.599   5.233
 9038SOL    HW128013   5.432   6.611   5.144
 9038SOL    HW228014   5.549   6.532   5.226
 9039SOL     OW28015   2.305   5.325   5.789
 9039SOL    HW128016   2.358   5.353   5.709
 9039SOL    HW228017   2.356   5.348   5.872
 9040SOL     OW28018   1.788   0.931   1.786
 9040SOL    HW128019   1.784   1.009   1.724
 9040SOL    HW228020   1.781   0.846   1.733
 9041SOL     OW28021   1.530   3.256   0.058
 9041SOL    HW128022   1.448   3.313   0.054
 9041SOL    HW228023   1.610   3.311   0.034
 9042SOL     OW28024   2.801   5.354   3.718
 9042SOL    HW128025   2.800   5.366   3.817
 9042SOL    HW228026   2.707   5.355   3.683
 9043SOL     OW28027   6.600   2.046   6.735
 9043SOL    HW128028   6.647   2.099   6.665
 9043SOL    HW228029   6.508   2.023   6.704
 9044SOL     OW28030   6.516   5.121   0.181
 9044SOL    HW128031   6.557   5.121   0.089
 9044SOL    HW228032   6.554   5.197   0.234
 9045SOL     OW28033   3.677   6.227   4.027
 9045SOL    HW128034   3.624   6.143   4.018
 9045SOL    HW228035   3.651   6.291   3.954
 9046SOL     OW28036   3.168   4.093   5.473
 9046SOL    HW128037   3.136   4.143   5.392
 9046SOL    HW228038   3.121   4.005   5.479
 9047SOL     OW28039   0.950   4.731   4.599
 9047SOL    HW128040   0.922   4.803   4.662
 9047SOL    HW228041   1.047   4.740   4.578
 9048SOL     OW28042   1.282   3.367   4.485
 9048SOL    HW128043   1.236   3.431   4.423
 9048SOL    HW228044   1.380   3.366   4.464
 9049SOL     OW28045   5.136   5.911   6.027
 9049SOL    HW128046   5.151   5.985   5.963
 9049SOL    HW228047   5.178   5.934   6.115
 9050SOL     OW28048   0.218   5.435   5.915
 9050SOL    HW128049   0.242   5.396   6.004
 9050SOL    HW228050   0.269   5.388   5.843
 9051SOL     OW28051   5.240   6.521   5.725
 9051SOL    HW128052   5.312   6.456   5.699
 9051SOL    HW228053   5.265   6.566   5.811
 9052SOL     OW28054   2.462   5.454   4.510
 9052SOL    HW128055   2.484   5.365   4.549
 9052SOL    HW228056   2.385   5.446   4.447
 9053SOL     OW28057   2.742   1.577   3.458
 9053SOL    HW128058   2.711   1.593   3.365
 9053SOL    HW228059   2.675   1.613   3.523
 9054SOL     OW28060   3.322   0.212   1.535
 9054SOL    HW128061   3.404   0.178   1.581
 9054SOL    HW228062   3.333   0.207   1.436
 9055SOL     OW28063   1.291   1.485   4.044
 9055SOL    HW128064   1.266   1.443   3.957
 9055SOL    HW228065   1.245   1.438   4.119
 9056SOL     OW28066   5.511   1.298   3.110
 9056SOL    HW128067   5.419   1.336   3.100
 9056SOL    HW228068   5.506   1.203   3.140
 9057SOL     OW28069   4.742   6.249   6.363
 9057SOL    HW128070   4.704   6.208   6.447
 9057SOL    HW228071   4.768   6.176   6.300
 9058SOL     OW28072   1.423   3.022   5.215
 9058SOL    HW128073   1.400   3.114   5.183
 9058SOL    HW228074   1.497   3.028   5.281
 9059SOL     OW28075   0.077   1.036   3.511
 9059SOL    HW128076   0.173   1.008   3.507
 9059SOL    HW228077   0.025   0.990   3.439
 9060SOL     OW28078   0.813   4.935   1.543
 9060SOL    HW128079   0.769   5.010   1.592
 9060SOL    HW228080   0.843   4.967   1.453
 9061SOL     OW28081   5.861   4.208   2.464
 9061SOL    HW128082   5.854   4.110   2.446
 9061SOL    HW228083   5.863   4.224   2.563
 9062SOL     OW28084   0.769   5.521   3.217
 9062SOL    HW128085   0.794   5.599   3.161
 9062SOL    HW228086   0.838   5.450   3.209
 9063SOL     OW28087   4.181   1.509   1.694
 9063SOL    HW128088   4.146   1.589   1.742
 9063SOL    HW228089   4.176   1.429   1.754
 9064SOL     OW28090   1.243   5.311   3.529
 9064SOL    HW128091   1.337   5.276   3.526
 9064SOL    HW228092   1.245   5.410   3.521
 9065SOL     OW28093   2.662   4.290   5.422
 9065SOL    HW128094   2.587   4.268   5.360
 9065SOL    HW228095   2.629   4.292   5.516
 9066SOL     OW28096   5.050   5.093   4.954
 9066SOL    HW128097   5.111   5.049   4.887
 9066SOL    HW228098   4.957   5.094   4.917
 9067SOL     OW28099   1.270   6.275   4.233
 9067SOL    HW128100   1.335   6.204   4.205
 9067SOL    HW228101   1.179   6.234   4.245
 9068SOL     OW28102   4.898   6.808   5.494
 9068SOL    HW128103   4.893   6.817   5.395
 9068SOL    HW228104   4.913   6.712   5.518
 9069SOL     OW28105   5.261   2.018   1.254
 9069SOL    HW128106   5.203   1.939   1.234
 9069SOL    HW228107   5.349   1.986   1.292
 9070SOL     OW28108   1.154   2.146   5.761
 9070SOL    HW128109   1.130   2.056   5.724
 9070SOL    HW228110   1.075   2.207   5.754
 9071SOL     OW28111   5.008   2.098   5.897
 9071SOL    HW128112   5.000   1.999   5.910
 9071SOL    HW228113   5.062   2.116   5.815
 9072SOL     OW28114   4.860   0.920   2.418
 9072SOL    HW128115   4.908   0.848   2.469
 9072SOL    HW228116   4.781   0.881   2.372
 9073SOL     OW28117   4.629   1.579   5.980
 9073SOL    HW128118   4.556   1.523   5.941
 9073SOL    HW228119   4.710   1.574   5.921
 9074SOL     OW28120   1.447   0.301   1.784
 9074SOL    HW128121   1.496   0.365   1.844
 9074SOL    HW228122   1.513   0.241   1.739
 9075SOL     OW28123   5.880   6.292   0.704
 9075SOL    HW128124   5.784   6.314   0.685
 9075SOL    HW228125   5.939   6.360   0.659
 9076SOL     OW28126   6.636   0.552   2.154
 9076SOL    HW128127   6.549   0.601   2.160
 9076SOL    HW228128   6.665   0.547   2.059
 9077SOL     OW28129   6.379   1.592   6.175
 9077SOL    HW128130   6.419   1.626   6.260
 9077SOL    HW228131   6.401   1.655   6.101
 9078SOL     OW28132   5.110   5.816   6.710
 9078SOL    HW128133   5.160   5.736   6.743
 9078SOL    HW228134   5.065   5.861   6.786
 9079SOL     OW28135   1.812   0.872   6.637
 9079SOL    HW128136   1.909   0.896   6.631
 9079SOL    HW228137   1.760   0.950   6.670
 9080SOL     OW28138   5.602   3.653   1.734
 9080SOL    HW128139   5.538   3.712   1.684
 9080SOL    HW228140   5.569   3.640   1.827
 9081SOL     OW28141   4.590   1.780   6.939
 9081SOL    HW128142   4.557   1.875   6.937
 9081SOL    HW228143   4.540   1.727   6.870
 9082SOL     OW28144   3.335   5.779   5.766
 9082SOL    HW128145   3.282   5.807   5.846
 9082SOL    HW228146   3.326   5.680   5.753
 9083SOL     OW28147   3.886   5.290   6.437
 9083SOL    HW128148   3.792   5.266   6.417
 9083SOL    HW228149   3.948   5.243   6.374
 9084SOL     OW28150   6.979   2.313   6.078
 9084SOL    HW128151   6.991   2.240   6.146
 9084SOL    HW228152   6.937   2.274   5.995
 9085SOL     OW28153   2.060   5.015   0.173
 9085SOL    HW128154   2.047   4.945   0.103
 9085SOL    HW228155   2.157   5.019   0.197
 9086SOL     OW28156   6.900   4.489   1.196
 9086SOL    HW128157   6.871   4.514   1.288
 9086SOL    HW228158   6.994   4.456   1.199
 9087SOL     OW28159   6.173   0.935   1.703
 9087SOL    HW128160   6.255   0.905   1.753
 9087SOL    HW228161   6.094   0.885   1.736
 9088SOL     OW28162   6.546   6.380   0.717
 9088SOL    HW128163   6.515   6.287   0.732
 9088SOL    HW228164   6.639   6.379   0.678
 9089SOL     OW28165   5.134   5.627   3.786
 9089SOL    HW128166   5.138   5.538   3.740
 9089SOL    HW228167   5.150   5.699   3.719
 9090SOL     OW28168   5.641   6.175   4.964
 9090SOL    HW128169   5.617   6.197   5.058
 9090SOL    HW228170   5.713   6.236   4.932
 9091SOL     OW28171   2.132   1.708   1.458
 9091SOL    HW128172   2.183   1.784   1.498
 9091SOL    HW228173   2.139   1.712   1.358
 9092SOL     OW28174   1.574   0.416   5.962
 9092SOL    HW128175   1.652   0.479   5.953
 9092SOL    HW228176   1.594   0.348   6.033
 9093SOL     OW28177   2.463   4.862   0.664
 9093SOL    HW128178   2.455   4.811   0.750
 9093SOL    HW228179   2.473   4.798   0.588
 9094SOL     OW28180   6.832   5.102   1.607
 9094SOL    HW128181   6.742   5.136   1.581
 9094SOL    HW228182   6.848   5.118   1.704
 9095SOL     OW28183   3.408   3.165   6.858
 9095SOL    HW128184   3.431   3.227   6.784
 9095SOL    HW228185   3.492   3.133   6.902
 9096SOL     OW28186   5.466   2.307   3.154
 9096SOL    HW128187   5.544   2.290   3.214
 9096SOL    HW228188   5.495   2.363   3.076
 9097SOL     OW28189   0.836   4.575   6.419
 9097SOL    HW128190   0.819   4.661   6.468
 9097SOL    HW228191   0.872   4.507   6.483
 9098SOL     OW28192   3.823   3.834   2.476
 9098SOL    HW128193   3.884   3.856   2.399
 9098SOL    HW228194   3.756   3.766   2.446
 9099SOL     OW28195   2.540   3.761   0.954
 9099SOL    HW128196   2.460   3.814   0.983
 9099SOL    HW228197   2.560   3.780   0.858
 9100SOL     OW28198   0.627   2.839   0.789
 9100SOL    HW128199   0.564   2.880   0.855
 9100SOL    HW228200   0.719   2.835   0.829
 9101SOL     OW28201   1.824   2.069   1.785
 9101SOL    HW128202   1.750   2.045   1.721
 9101SOL    HW228203   1.805   2.028   1.874
 9102SOL     OW28204   3.311   5.323   2.518
 9102SOL    HW128205   3.275   5.307   2.610
 9102SOL    HW228206   3.383   5.257   2.498
 9103SOL     OW28207   0.701   4.226   0.418
 9103SOL    HW128208   0.665   4.289   0.487
 9103SOL    HW228209   0.785   4.184   0.451
 9104SOL     OW28210   4.286   6.961   1.140
 9104SOL    HW128211   4.329   7.014   1.067
 9104SOL    HW228212   4.344   6.883   1.163
 9105SOL     OW28213   1.348   2.153   6.369
 9105SOL    HW128214   1.432   2.181   6.415
 9105SOL    HW228215   1.370   2.083   6.301
 9106SOL     OW28216   5.913   5.007   0.628
 9106SOL    HW128217   5.827   5.052   0.602
 9106SOL    HW228218   5.990   5.054   0.586
 9107SOL     OW28219   4.412   0.153   0.929
 9107SOL    HW128220   4.330   0.209   0.936
 9107SOL    HW228221   4.493   0.212   0.930
 9108SOL     OW28222   4.514   5.116   5.347
 9108SOL    HW128223   4.425   5.133   5.391
 9108SOL    HW228224   4.582   5.093   5.417
 9109SOL     OW28225   3.487   1.741   3.737
 9109SOL    HW128226   3.539   1.746   3.822
 9109SOL    HW228227   3.393   1.769   3.755
 9110SOL     OW28228   1.902   4.082   3.358
 9110SOL    HW128229   1.889   4.132   3.444
 9110SOL    HW228230   1.886   4.143   3.281
 9111SOL     OW28231   3.636   4.148   1.898
 9111SOL    HW128232   3.626   4.139   1.997
 9111SOL    HW228233   3.557   4.107   1.853
 9112SOL     OW28234   0.017   4.481   2.145
 9112SOL    HW128235   6.989   4.559   2.106
 9112SOL    HW228236   0.024   4.491   2.244
 9113SOL     OW28237   4.804   6.801   0.338
 9113SOL    HW128238   4.824   6.897   0.320
 9113SOL    HW228239   4.787   6.788   0.435
 9114SOL     OW28240   2.466   4.860   1.680
 9114SOL    HW128241   2.521   4.936   1.714
 9114SOL    HW228242   2.522   4.777   1.678
 9115SOL     OW28243   1.414   4.758   4.779
 9115SOL    HW128244   1.410   4.837   4.840
 9115SOL    HW228245   1.439   4.676   4.831
 9116SOL     OW28246   0.107   1.341   6.308
 9116SOL    HW128247   0.104   1.313   6.404
 9116SOL    HW228248   0.103   1.441   6.303
 9117SOL     OW28249   6.877   2.898   6.825
 9117SOL    HW128250   6.952   2.953   6.788
 9117SOL    HW228251   6.854   2.826   6.760
 9118SOL     OW28252   6.820   6.560   1.491
 9118SOL    HW128253   6.758   6.628   1.451
 9118SOL    HW228254   6.911   6.571   1.452
 9119SOL     OW28255   6.561   0.306   1.725
 9119SOL    HW128256   6.574   0.389   1.672
 9119SOL    HW228257   6.538   0.230   1.664
 9120SOL     OW28258   5.777   1.360   6.272
 9120SOL    HW128259   5.754   1.429   6.341
 9120SOL    HW228260   5.819   1.405   6.193
 9121SOL     OW28261   0.539   1.695   6.041
 9121SOL    HW128262   0.453   1.648   6.057
 9121SOL    HW228263   0.607   1.631   6.005
 9122SOL     OW28264   1.888   2.726   2.683
 9122SOL    HW128265   1.891   2.826   2.690
 9122SOL    HW228266   1.938   2.696   2.602
 9123SOL     OW28267   2.392   5.738   6.669
 9123SOL    HW128268   2.362   5.824   6.627
 9123SOL    HW228269   2.383   5.664   6.603
 9124SOL     OW28270   0.010   5.638   5.289
 9124SOL    HW128271   7.003   5.734   5.293
 9124SOL    HW228272   0.105   5.630   5.319
 9125SOL     OW28273   4.966   3.901   3.945
 9125SOL    HW128274   4.901   3.911   3.871
 9125SOL    HW228275   4.972   3.804   3.972
 9126SOL     OW28276   5.897   0.550   2.045
 9126SOL    HW128277   5.916   0.453   2.053
 9126SOL    HW228278   5.977   0.597   2.006
 9127SOL     OW28279   5.162   0.327   6.433
 9127SOL    HW128280   5.219   0.378   6.369
 9127SOL    HW228281   5.177   0.229   6.420
 9128SOL     OW28282   3.458   2.047   5.375
 9128SOL    HW128283   3.359   2.051   5.380
 9128SOL    HW228284   3.490   1.962   5.418
 9129SOL     OW28285   1.771   1.971   6.267
 9129SOL    HW128286   1.784   1.929   6.357
 9129SOL    HW228287   1.816   2.060   6.266
 9130SOL     OW28288   6.144   5.143   0.452
 9130SOL    HW128289   6.175   5.052   0.479
 9130SOL    HW228290   6.194   5.172   0.370
 9131SOL     OW28291   0.485   4.395   4.254
 9131SOL    HW128292   0.505   4.417   4.349
 9131SOL    HW228293   0.441   4.305   4.249
 9132SOL     OW28294   0.055   3.349   4.242
 9132SOL    HW128295   0.151   3.371   4.259
 9132SOL    HW228296   7.019   3.390   4.313
 9133SOL     OW28297   1.942   4.054   1.240
 9133SOL    HW128298   1.996   4.115   1.183
 9133SOL    HW228299   2.001   4.008   1.306
 9134SOL     OW28300   3.345   6.689   0.210
 9134SOL    HW128301   3.264   6.631   0.221
 9134SOL    HW228302   3.371   6.728   0.298
 9135SOL     OW28303   6.555   6.660   3.059
 9135SOL    HW128304   6.533   6.634   3.153
 9135SOL    HW228305   6.614   6.591   3.018
 9136SOL     OW28306   4.935   5.582   5.695
 9136SOL    HW128307   4.916   5.484   5.706
 9136SOL    HW228308   4.956   5.600   5.599
 9137SOL     OW28309   4.548   0.940   1.641
 9137SOL    HW128310   4.463   0.926   1.692
 9137SOL    HW228311   4.602   1.011   1.686
 9138SOL     OW28312   5.702   4.663   6.452
 9138SOL    HW128313   5.758   4.660   6.535
 9138SOL    HW228314   5.686   4.758   6.426
 9139SOL     OW28315   3.343   0.639   5.891
 9139SOL    HW128316   3.419   0.631   5.827
 9139SOL    HW228317   3.291   0.721   5.871
 9140SOL     OW28318   6.654   2.548   2.830
 9140SOL    HW128319   6.572   2.551   2.888
 9140SOL    HW228320   6.682   2.641   2.809
 9141SOL     OW28321   5.338   0.300   5.960
 9141SOL    HW128322   5.375   0.255   6.042
 9141SOL    HW228323   5.239   0.306   5.968
 9142SOL     OW28324   0.688   2.747   5.852
 9142SOL    HW128325   0.621   2.776   5.782
 9142SOL    HW228326   0.650   2.764   5.943
 9143SOL     OW28327   4.290   3.386   0.438
 9143SOL    HW128328   4.347   3.337   0.372
 9143SOL    HW228329   4.197   3.349   0.436
 9144SOL     OW28330   2.106   5.228   5.556
 9144SOL    HW128331   2.138   5.280   5.635
 9144SOL    HW228332   2.180   5.220   5.489
 9145SOL     OW28333   0.636   4.453   0.203
 9145SOL    HW128334   0.603   4.371   0.156
 9145SOL    HW228335   0.733   4.441   0.226
 9146SOL     OW28336   5.558   2.564   1.130
 9146SOL    HW128337   5.584   2.497   1.061
 9146SOL    HW228338   5.476   2.533   1.178
 9147SOL     OW28339   4.491   5.550   3.779
 9147SOL    HW128340   4.525   5.612   3.850
 9147SOL    HW228341   4.541   5.566   3.694
 9148SOL     OW28342   5.007   5.938   3.282
 9148SOL    HW128343   5.019   6.015   3.219
 9148SOL    HW228344   4.910   5.931   3.307
 9149SOL     OW28345   4.873   3.006   4.480
 9149SOL    HW128346   4.967   2.972   4.480
 9149SOL    HW228347   4.860   3.068   4.558
 9150SOL     OW28348   4.791   6.944   3.391
 9150SOL    HW128349   4.840   6.868   3.433
 9150SOL    HW228350   4.835   0.009   3.415
 9151SOL     OW28351   1.455   4.210   1.941
 9151SOL    HW128352   1.385   4.187   2.009
 9151SOL    HW228353   1.485   4.127   1.894
 9152SOL     OW28354   2.395   5.853   3.324
 9152SOL    HW128355   2.386   5.755   3.345
 9152SOL    HW228356   2.467   5.865   3.256
 9153SOL     OW28357   1.374   2.435   6.708
 9153SOL    HW128358   1.320   2.500   6.654
 9153SOL    HW228359   1.371   2.345   6.664
 9154SOL     OW28360   2.777   5.612   0.059
 9154SOL    HW128361   2.862   5.624   0.111
 9154SOL    HW228362   2.733   5.701   0.047
 9155SOL     OW28363   2.139   3.891   6.440
 9155SOL    HW128364   2.117   3.981   6.479
 9155SOL    HW228365   2.209   3.847   6.496
 9156SOL     OW28366   3.351   2.106   1.308
 9156SOL    HW128367   3.438   2.145   1.279
 9156SOL    HW228368   3.316   2.157   1.387
 9157SOL     OW28369   5.687   4.402   5.202
 9157SOL    HW128370   5.659   4.402   5.298
 9157SOL    HW228371   5.612   4.435   5.145
 9158SOL     OW28372   0.216   3.883   4.656
 9158SOL    HW128373   0.227   3.889   4.557
 9158SOL    HW228374   0.296   3.921   4.701
 9159SOL     OW28375   0.531   5.339   3.093
 9159SOL    HW128376   0.481   5.400   3.032
 9159SOL    HW228377   0.596   5.392   3.148
 9160SOL     OW28378   0.967   6.757   6.082
 9160SOL    HW128379   1.037   6.812   6.127
 9160SOL    HW228380   0.997   6.735   5.989
 9161SOL     OW28381   4.895   4.049   4.805
 9161SOL    HW128382   4.900   3.974   4.870
 9161SOL    HW228383   4.818   4.108   4.829
 9162SOL     OW28384   5.185   2.905   3.056
 9162SOL    HW128385   5.127   2.985   3.039
 9162SOL    HW228386   5.184   2.847   2.975
 9163SOL     OW28387   2.598   2.403   3.773
 9163SOL    HW128388   2.599   2.409   3.673
 9163SOL    HW228389   2.532   2.468   3.809
 9164SOL     OW28390   2.681   0.614   6.496
 9164SOL    HW128391   2.589   0.618   6.535
 9164SOL    HW228392   2.732   0.695   6.524
 9165SOL     OW28393   6.025   0.416   6.590
 9165SOL    HW128394   6.086   0.366   6.528
 9165SOL    HW228395   5.999   0.503   6.547
 9166SOL     OW28396   4.430   5.842   1.256
 9166SOL    HW128397   4.332   5.838   1.239
 9166SOL    HW228398   4.449   5.811   1.349
 9167SOL     OW28399   1.504   3.635   5.945
 9167SOL    HW128400   1.481   3.540   5.967
 9167SOL    HW228401   1.562   3.638   5.864
 9168SOL     OW28402   2.259   0.313   5.710
 9168SOL    HW128403   2.335   0.285   5.769
 9168SOL    HW228404   2.192   0.240   5.706
 9169SOL     OW28405   0.276   0.925   5.205
 9169SOL    HW128406   0.256   0.989   5.279
 9169SOL    HW228407   0.357   0.956   5.155
 9170SOL     OW28408   6.890   5.030   0.093
 9170SOL    HW128409   6.851   4.947   0.052
 9170SOL    HW228410   6.906   5.098   0.021
 9171SOL     OW28411   2.824   5.421   6.888
 9171SOL    HW128412   2.820   5.482   6.967
 9171SOL    HW228413   2.919   5.413   6.857
 9172SOL     OW28414   3.586   1.299   4.631
 9172SOL    HW128415   3.630   1.374   4.680
 9172SOL    HW228416   3.520   1.336   4.565
 9173SOL     OW28417   5.939   4.599   5.000
 9173SOL    HW128418   5.939   4.517   5.057
 9173SOL    HW228419   5.853   4.605   4.950
 9174SOL     OW28420   6.156   4.069   0.320
 9174SOL    HW128421   6.193   4.136   0.384
 9174SOL    HW228422   6.178   4.097   0.226
 9175SOL     OW28423   2.580   5.890   5.650
 9175SOL    HW128424   2.585   5.849   5.559
 9175SOL    HW228425   2.493   5.938   5.659
 9176SOL     OW28426   1.955   1.145   5.654
 9176SOL    HW128427   1.977   1.236   5.618
 9176SOL    HW228428   1.982   1.076   5.587
 9177SOL     OW28429   1.173   3.920   4.451
 9177SOL    HW128430   1.078   3.910   4.420
 9177SOL    HW228431   1.218   3.831   4.449
 9178SOL     OW28432   1.947   5.217   1.011
 9178SOL    HW128433   2.046   5.221   0.996
 9178SOL    HW228434   1.929   5.221   1.109
 9179SOL     OW28435   2.591   5.080   4.083
 9179SOL    HW128436   2.685   5.046   4.090
 9179SOL    HW228437   2.586   5.147   4.009
 9180SOL     OW28438   6.044   2.466   3.597
 9180SOL    HW128439   6.071   2.375   3.568
 9180SOL    HW228440   5.965   2.460   3.659
 9181SOL     OW28441   4.259   2.321   2.631
 9181SOL    HW128442   4.294   2.390   2.568
 9181SOL    HW228443   4.308   2.328   2.718
 9182SOL     OW28444   2.201   6.707   2.331
 9182SOL    HW128445   2.128   6.740   2.272
 9182SOL    HW228446   2.198   6.755   2.418
 9183SOL     OW28447   5.410   6.463   0.588
 9183SOL    HW128448   5.356   6.413   0.521
 9183SOL    HW228449   5.369   6.553   0.603
 9184SOL     OW28450   5.393   0.287   0.581
 9184SOL    HW128451   5.365   0.381   0.597
 9184SOL    HW228452   5.398   0.270   0.483
 9185SOL     OW28453   4.306   0.612   5.359
 9185SOL    HW128454   4.391   0.580   5.317
 9185SOL    HW228455   4.273   0.545   5.425
 9186SOL     OW28456   6.377   0.268   4.589
 9186SOL    HW128457   6.457   0.213   4.567
 9186SOL    HW228458   6.330   0.229   4.668
 9187SOL     OW28459   2.259   6.529   1.619
 9187SOL    HW128460   2.199   6.605   1.646
 9187SOL    HW228461   2.354   6.555   1.636
 9188SOL     OW28462   2.395   6.897   1.238
 9188SOL    HW128463   2.410   6.896   1.337
 9188SOL    HW228464   2.305   6.859   1.218
 9189SOL     OW28465   5.377   5.635   2.696
 9189SOL    HW128466   5.346   5.544   2.723
 9189SOL    HW228467   5.319   5.704   2.739
 9190SOL     OW28468   1.709   5.794   0.371
 9190SOL    HW128469   1.706   5.893   0.356
 9190SOL    HW228470   1.658   5.748   0.297
 9191SOL     OW28471   6.540   0.458   5.331
 9191SOL    HW128472   6.490   0.524   5.276
 9191SOL    HW228473   6.634   0.490   5.344
 9192SOL     OW28474   0.515   4.385   4.533
 9192SOL    HW128475   0.558   4.317   4.592
 9192SOL    HW228476   0.517   4.475   4.578
 9193SOL     OW28477   4.184   3.663   0.336
 9193SOL    HW128478   4.149   3.604   0.263
 9193SOL    HW228479   4.108   3.690   0.396
 9194SOL     OW28480   3.471   0.812   3.870
 9194SOL    HW128481   3.413   0.780   3.795
 9194SOL    HW228482   3.482   0.739   3.937
 9195SOL     OW28483   1.779   1.995   4.554
 9195SOL    HW128484   1.719   2.050   4.611
 9195SOL    HW228485   1.783   1.901   4.590
 9196SOL     OW28486   4.443   1.573   4.984
 9196SOL    HW128487   4.435   1.474   4.977
 9196SOL    HW228488   4.537   1.601   4.966
 9197SOL     OW28489   2.151   3.963   1.403
 9197SOL    HW128490   2.156   3.864   1.392
 9197SOL    HW228491   2.243   4.003   1.394
 9198SOL     OW28492   6.627   5.340   5.284
 9198SOL    HW128493   6.536   5.355   5.322
 9198SOL    HW228494   6.632   5.247   5.247
 9199SOL     OW28495   0.498   3.704   6.147
 9199SOL    HW128496   0.554   3.658   6.078
 9199SOL    HW228497   0.420   3.748   6.102
 9200SOL     OW28498   2.488   0.319   1.192
 9200SOL    HW128499   2.499   0.232   1.143
 9200SOL    HW228500   2.488   0.394   1.126
 9201SOL     OW28501   1.180   2.921   6.751
 9201SOL    HW128502   1.165   2.978   6.832
 9201SOL    HW228503   1.125   2.838   6.759
 9202SOL     OW28504   2.159   6.505   2.977
 9202SOL    HW128505   2.109   6.429   3.019
 9202SOL    HW228506   2.095   6.571   2.939
 9203SOL     OW28507   6.900   5.469   0.334
 9203SOL    HW128508   6.924   5.396   0.397
 9203SOL    HW228509   6.872   5.550   0.385
 9204SOL     OW28510   5.033   1.645   0.043
 9204SOL    HW128511   5.072   1.571   7.010
 9204SOL    HW228512   4.933   1.637   0.043
 9205SOL     OW28513   6.790   4.359   2.663
 9205SOL    HW128514   6.767   4.370   2.566
 9205SOL    HW228515   6.800   4.262   2.683
 9206SOL     OW28516   3.303   6.177   0.711
 9206SOL    HW128517   3.208   6.165   0.680
 9206SOL    HW228518   3.323   6.111   0.783
 9207SOL     OW28519   4.518   5.281   0.100
 9207SOL    HW128520   4.494   5.253   0.193
 9207SOL    HW228521   4.443   5.332   0.060
 9208SOL     OW28522   6.081   4.212   4.308
 9208SOL    HW128523   6.098   4.189   4.404
 9208SOL    HW228524   6.168   4.230   4.262
 9209SOL     OW28525   2.829   1.550   6.986
 9209SOL    HW128526   2.828   1.483   0.039
 9209SOL    HW228527   2.809   1.503   6.900
 9210SOL     OW28528   6.330   1.412   2.886
 9210SOL    HW128529   6.383   1.328   2.880
 9210SOL    HW228530   6.289   1.432   2.798
 9211SOL     OW28531   0.117   2.888   4.108
 9211SOL    HW128532   0.146   2.904   4.203
 9211SOL    HW228533   0.195   2.902   4.047
 9212SOL     OW28534   3.828   5.364   4.145
 9212SOL    HW128535   3.772   5.283   4.162
 9212SOL    HW228536   3.899   5.371   4.215
 9213SOL     OW28537   5.959   2.953   5.534
 9213SOL    HW128538   5.932   3.022   5.602
 9213SOL    HW228539   6.030   2.990   5.475
 9214SOL     OW28540   7.013   5.519   5.822
 9214SOL    HW128541   6.954   5.467   5.884
 9214SOL    HW228542   0.087   5.506   5.847
 9215SOL     OW28543   1.249   1.323   0.323
 9215SOL    HW128544   1.167   1.270   0.303
 9215SOL    HW228545   1.227   1.397   0.386
 9216SOL     OW28546   2.682   6.881   3.634
 9216SOL    HW128547   2.602   6.907   3.580
 9216SOL    HW228548   2.714   6.960   3.686
 9217SOL     OW28549   0.699   1.148   6.390
 9217SOL    HW128550   0.715   1.120   6.485
 9217SOL    HW228551   0.771   1.211   6.361
 9218SOL     OW28552   3.263   6.502   0.465
 9218SOL    HW128553   3.208   6.525   0.545
 9218SOL    HW228554   3.259   6.403   0.448
 9219SOL     OW28555   0.952   2.728   0.566
 9219SOL    HW128556   0.985   2.703   0.657
 9219SOL    HW228557   0.932   2.646   0.514
 9220SOL     OW28558   3.365   6.498   1.251
 9220SOL    HW128559   3.327   6.518   1.341
 9220SOL    HW228560   3.359   6.400   1.233
 9221SOL     OW28561   3.206   0.249   4.007
 9221SOL    HW128562   3.256   0.309   4.069
 9221SOL    HW228563   3.270   0.184   3.966
 9222SOL     OW28564   2.459   0.904   6.365
 9222SOL    HW128565   2.488   0.985   6.415
 9222SOL    HW228566   2.366   0.879   6.392
 9223SOL     OW28567   1.368   3.127   4.849
 9223SOL    HW128568   1.437   3.135   4.777
 9223SOL    HW228569   1.361   3.032   4.879
 9224SOL     OW28570   2.777   5.419   3.969
 9224SOL    HW128571   2.770   5.514   3.941
 9224SOL    HW228572   2.693   5.391   4.016
 9225SOL     OW28573   3.184   6.662   6.293
 9225SOL    HW128574   3.243   6.685   6.370
 9225SOL    HW228575   3.104   6.723   6.293
 9226SOL     OW28576   4.645   6.378   1.461
 9226SOL    HW128577   4.589   6.395   1.381
 9226SOL    HW228578   4.662   6.280   1.470
 9227SOL     OW28579   0.948   5.308   3.176
 9227SOL    HW128580   0.877   5.269   3.117
 9227SOL    HW228581   1.010   5.235   3.205
 9228SOL     OW28582   1.442   1.298   5.961
 9228SOL    HW128583   1.378   1.372   5.979
 9228SOL    HW228584   1.436   1.271   5.864
 9229SOL     OW28585   1.766   5.419   3.864
 9229SOL    HW128586   1.827   5.349   3.828
 9229SOL    HW228587   1.726   5.471   3.789
 9230SOL     OW28588   5.720   0.314   3.086
 9230SOL    HW128589   5.661   0.234   3.092
 9230SOL    HW228590   5.719   0.350   2.993
 9231SOL     OW28591   1.633   2.987   4.077
 9231SOL    HW128592   1.547   3.035   4.097
 9231SOL    HW228593   1.668   2.946   4.161
 9232SOL     OW28594   3.805   5.148   0.602
 9232SOL    HW128595   3.884   5.099   0.638
 9232SOL    HW228596   3.729   5.141   0.667
 9233SOL     OW28597   5.710   5.419   1.525
 9233SOL    HW128598   5.746   5.399   1.434
 9233SOL    HW228599   5.785   5.425   1.590
 9234SOL     OW28600   2.736   5.658   3.405
 9234SOL    HW128601   2.719   5.568   3.366
 9234SOL    HW228602   2.671   5.676   3.478
 9235SOL     OW28603   2.019   1.864   3.358
 9235SOL    HW128604   2.005   1.885   3.261
 9235SOL    HW228605   2.112   1.829   3.371
 9236SOL     OW28606   3.390   4.183   5.616
 9236SOL    HW128607   3.484   4.178   5.582
 9236SOL    HW228608   3.327   4.154   5.544
 9237SOL     OW28609   1.662   4.158   4.280
 9237SOL    HW128610   1.593   4.146   4.352
 9237SOL    HW228611   1.645   4.245   4.233
 9238SOL     OW28612   4.832   2.394   6.517
 9238SOL    HW128613   4.760   2.425   6.455
 9238SOL    HW228614   4.850   2.465   6.585
 9239SOL     OW28615   0.170   3.845   1.189
 9239SOL    HW128616   0.087   3.876   1.235
 9239SOL    HW228617   0.171   3.745   1.188
 9240SOL     OW28618   5.337   1.470   0.740
 9240SOL    HW128619   5.292   1.547   0.694
 9240SOL    HW228620   5.276   1.391   0.739
 9241SOL     OW28621   0.006   5.296   6.687
 9241SOL    HW128622   0.051   5.307   6.775
 9241SOL    HW228623   7.018   5.385   6.643
 9242SOL     OW28624   0.055   5.998   1.280
 9242SOL    HW128625   0.016   5.907   1.265
 9242SOL    HW228626   7.003   6.065   1.286
 9243SOL     OW28627   0.220   5.899   3.940
 9243SOL    HW128628   0.170   5.815   3.961
 9243SOL    HW228629   0.287   5.916   4.012
 9244SOL     OW28630   4.384   5.678   6.811
 9244SOL    HW128631   4.436   5.595   6.828
 9244SOL    HW228632   4.349   5.714   6.897
 9245SOL     OW28633   1.353   5.377   2.688
 9245SOL    HW128634   1.369   5.428   2.773
 9245SOL    HW228635   1.360   5.439   2.610
 9246SOL     OW28636   6.906   5.015   3.680
 9246SOL    HW128637   6.978   4.966   3.729
 9246SOL    HW228638   6.863   4.953   3.614
 9247SOL     OW28639   1.045   0.378   3.037
 9247SOL    HW128640   0.995   0.368   3.123
 9247SOL    HW228641   1.116   0.448   3.047
 9248SOL     OW28642   2.823   2.588   5.948
 9248SOL    HW128643   2.785   2.498   5.929
 9248SOL    HW228644   2.815   2.645   5.866
 9249SOL     OW28645   5.711   1.788   4.875
 9249SOL    HW128646   5.717   1.887   4.862
 9249SOL    HW228647   5.800   1.753   4.905
 9250SOL     OW28648   4.910   3.989   4.187
 9250SOL    HW128649   4.811   3.998   4.203
 9250SOL    HW228650   4.926   3.972   4.090
 9251SOL     OW28651   3.895   1.290   3.401
 9251SOL    HW128652   3.811   1.303   3.454
 9251SOL    HW228653   3.879   1.220   3.331
 9252SOL     OW28654   6.942   0.129   4.804
 9252SOL    HW128655   6.904   0.167   4.720
 9252SOL    HW228656   6.967   0.033   4.789
 9253SOL     OW28657   2.722   6.274   6.244
 9253SOL    HW128658   2.713   6.325   6.159
 9253SOL    HW228659   2.678   6.324   6.318
 9254SOL     OW28660   6.064   3.973   1.208
 9254SOL    HW128661   6.050   3.905   1.136
 9254SOL    HW228662   5.996   3.961   1.280
 9255SOL     OW28663   4.820   2.959   0.442
 9255SOL    HW128664   4.831   2.883   0.378
 9255SOL    HW228665   4.849   3.044   0.399
 9256SOL     OW28666   4.088   4.848   2.296
 9256SOL    HW128667   4.036   4.926   2.331
 9256SOL    HW228668   4.072   4.839   2.198
 9257SOL     OW28669   1.005   3.955   2.308
 9257SOL    HW128670   0.925   3.985   2.256
 9257SOL    HW228671   1.087   3.962   2.251
 9258SOL     OW28672   3.830   3.471   3.713
 9258SOL    HW128673   3.900   3.400   3.705
 9258SOL    HW228674   3.741   3.435   3.685
 9259SOL     OW28675   1.009   2.495   1.082
 9259SOL    HW128676   1.004   2.486   0.983
 9259SOL    HW228677   1.041   2.409   1.122
 9260SOL     OW28678   4.568   2.877   5.621
 9260SOL    HW128679   4.506   2.821   5.676
 9260SOL    HW228680   4.514   2.930   5.555
 9261SOL     OW28681   3.884   0.088   6.776
 9261SOL    HW128682   3.820   0.123   6.845
 9261SOL    HW228683   3.861   0.125   6.687
 9262SOL     OW28684   5.719   1.743   5.535
 9262SOL    HW128685   5.663   1.823   5.513
 9262SOL    HW228686   5.816   1.767   5.525
 9263SOL     OW28687   5.495   4.286   1.305
 9263SOL    HW128688   5.572   4.257   1.248
 9263SOL    HW228689   5.410   4.256   1.264
 9264SOL     OW28690   6.678   3.478   7.019
 9264SOL    HW128691   6.657   3.503   6.925
 9264SOL    HW228692   6.596   3.444   0.043
 9265SOL     OW28693   2.790   1.827   0.478
 9265SOL    HW128694   2.792   1.898   0.549
 9265SOL    HW228695   2.696   1.796   0.465
 9266SOL     OW28696   2.808   6.403   2.891
 9266SOL    HW128697   2.773   6.490   2.855
 9266SOL    HW228698   2.802   6.334   2.819
 9267SOL     OW28699   0.173   4.219   4.371
 9267SOL    HW128700   0.173   4.317   4.389
 9267SOL    HW228701   0.191   4.203   4.274
 9268SOL     OW28702   0.382   6.611   3.190
 9268SOL    HW128703   0.360   6.683   3.256
 9268SOL    HW228704   0.444   6.545   3.233
 9269SOL     OW28705   2.770   1.988   0.138
 9269SOL    HW128706   2.862   1.979   0.176
 9269SOL    HW228707   2.772   2.051   0.061
 9270SOL     OW28708   6.549   6.844   5.195
 9270SOL    HW128709   6.593   6.911   5.255
 9270SOL    HW228710   6.573   6.752   5.225
 9271SOL     OW28711   1.509   6.452   0.966
 9271SOL    HW128712   1.564   6.528   1.000
 9271SOL    HW228713   1.564   6.395   0.906
 9272SOL     OW28714   2.686   3.801   5.809
 9272SOL    HW128715   2.762   3.866   5.821
 9272SOL    HW228716   2.661   3.797   5.713
 9273SOL     OW28717   4.586   5.600   3.512
 9273SOL    HW128718   4.549   5.574   3.423
 9273SOL    HW228719   4.680   5.634   3.501
 9274SOL     OW28720   5.345   2.277   0.263
 9274SOL    HW128721   5.410   2.341   0.222
 9274SOL    HW228722   5.259   2.324   0.281
 9275SOL     OW28723   1.156   1.259   6.883
 9275SOL    HW128724   1.127   1.291   6.974
 9275SOL    HW228725   1.241   1.306   6.857
 9276SOL     OW28726   3.265   5.287   4.846
 9276SOL    HW128727   3.349   5.251   4.804
 9276SOL    HW228728   3.225   5.356   4.786
 9277SOL     OW28729   3.504   3.526   0.370
 9277SOL    HW128730   3.555   3.535   0.285
 9277SOL    HW228731   3.568   3.516   0.446
 9278SOL     OW28732   1.069   1.815   3.966
 9278SOL    HW128733   1.090   1.875   3.889
 9278SOL    HW228734   1.154   1.776   4.002
 9279SOL     OW28735   3.991   0.341   2.205
 9279SOL    HW128736   3.984   0.242   2.193
 9279SOL    HW228737   3.942   0.388   2.131
 9280SOL     OW28738   1.226   6.815   3.654
 9280SOL    HW128739   1.185   6.734   3.697
 9280SOL    HW228740   1.215   6.810   3.555
 9281SOL     OW28741   2.290   3.056   0.833
 9281SOL    HW128742   2.212   3.005   0.797
 9281SOL    HW228743   2.268   3.089   0.925
 9282SOL     OW28744   4.823   1.961   4.542
 9282SOL    HW128745   4.827   2.060   4.535
 9282SOL    HW228746   4.898   1.920   4.489
 9283SOL     OW28747   6.417   2.253   2.821
 9283SOL    HW128748   6.462   2.231   2.734
 9283SOL    HW228749   6.479   2.230   2.896
 9284SOL     OW28750   3.759   4.591   0.588
 9284SOL    HW128751   3.754   4.503   0.635
 9284SOL    HW228752   3.735   4.664   0.652
 9285SOL     OW28753   6.677   3.198   6.894
 9285SOL    HW128754   6.754   3.143   6.860
 9285SOL    HW228755   6.711   3.278   6.942
 9286SOL     OW28756   5.656   6.733   5.437
 9286SOL    HW128757   5.615   6.821   5.461
 9286SOL    HW228758   5.586   6.673   5.399
 9287SOL     OW28759   2.966   5.737   1.372
 9287SOL    HW128760   2.990   5.831   1.394
 9287SOL    HW228761   2.975   5.680   1.454
 9288SOL     OW28762   3.868   1.535   5.630
 9288SOL    HW128763   3.780   1.544   5.676
 9288SOL    HW228764   3.942   1.551   5.696
 9289SOL     OW28765   4.997   2.614   2.581
 9289SOL    HW128766   4.978   2.669   2.500
 9289SOL    HW228767   4.948   2.527   2.575
 9290SOL     OW28768   4.051   1.896   5.056
 9290SOL    HW128769   4.145   1.864   5.045
 9290SOL    HW228770   3.987   1.822   5.034
 9291SOL     OW28771   1.797   0.361   5.072
 9291SOL    HW128772   1.782   0.460   5.066
 9291SOL    HW228773   1.789   0.332   5.167
 9292SOL     OW28774   0.190   3.088   6.136
 9292SOL    HW128775   0.113   3.123   6.082
 9292SOL    HW228776   0.268   3.071   6.076
 9293SOL     OW28777   5.389   4.052   0.884
 9293SOL    HW128778   5.460   4.117   0.859
 9293SOL    HW228779   5.428   3.980   0.941
 9294SOL     OW28780   3.851   5.984   0.115
 9294SOL    HW128781   3.816   6.072   0.149
 9294SOL    HW228782   3.933   6.000   0.061
 9295SOL     OW28783   4.855   2.012   2.997
 9295SOL    HW128784   4.762   2.019   2.961
 9295SOL    HW228785   4.919   1.994   2.922
 9296SOL     OW28786   6.416   6.502   5.777
 9296SOL    HW128787   6.468   6.552   5.846
 9296SOL    HW228788   6.443   6.406   5.777
 9297SOL     OW28789   0.166   0.601   1.401
 9297SOL    HW128790   0.136   0.506   1.397
 9297SOL    HW228791   0.124   0.653   1.326
 9298SOL     OW28792   2.282   6.010   5.553
 9298SOL    HW128793   2.240   5.919   5.562
 9298SOL    HW228794   2.215   6.074   5.515
 9299SOL     OW28795   1.621   2.771   3.934
 9299SOL    HW128796   1.674   2.714   3.997
 9299SOL    HW228797   1.591   2.854   3.982
 9300SOL     OW28798   6.723   4.964   5.216
 9300SOL    HW128799   6.770   4.908   5.147
 9300SOL    HW228800   6.655   5.022   5.171
 9301SOL     OW28801   5.006   4.637   2.979
 9301SOL    HW128802   5.051   4.558   3.022
 9301SOL    HW228803   4.907   4.631   2.995
 9302SOL     OW28804   2.531   2.538   3.442
 9302SOL    HW128805   2.469   2.613   3.464
 9302SOL    HW228806   2.539   2.529   3.342
 9303SOL     OW28807   4.087   6.713   0.646
 9303SOL    HW128808   4.077   6.805   0.684
 9303SOL    HW228809   4.045   6.646   0.708
 9304SOL     OW28810   3.694   4.312   0.498
 9304SOL    HW128811   3.739   4.367   0.428
 9304SOL    HW228812   3.603   4.285   0.466
 9305SOL     OW28813   5.519   1.940   1.346
 9305SOL    HW128814   5.617   1.934   1.327
 9305SOL    HW228815   5.474   1.855   1.318
 9306SOL     OW28816   0.242   4.814   4.023
 9306SOL    HW128817   0.150   4.776   4.036
 9306SOL    HW228818   0.263   4.876   4.099
 9307SOL     OW28819   1.436   2.248   1.065
 9307SOL    HW128820   1.438   2.324   1.000
 9307SOL    HW228821   1.523   2.199   1.062
 9308SOL     OW28822   0.427   3.535   1.177
 9308SOL    HW128823   0.440   3.583   1.090
 9308SOL    HW228824   0.449   3.438   1.165
 9309SOL     OW28825   4.248   4.614   5.593
 9309SOL    HW128826   4.202   4.681   5.650
 9309SOL    HW228827   4.239   4.523   5.633
 9310SOL     OW28828   4.330   6.566   5.982
 9310SOL    HW128829   4.258   6.628   6.014
 9310SOL    HW228830   4.290   6.479   5.955
 9311SOL     OW28831   5.641   3.843   0.552
 9311SOL    HW128832   5.627   3.939   0.576
 9311SOL    HW228833   5.661   3.835   0.455
 9312SOL     OW28834   1.771   4.555   6.907
 9312SOL    HW128835   1.746   4.648   6.933
 9312SOL    HW228836   1.831   4.516   6.976
 9313SOL     OW28837   6.683   0.765   2.373
 9313SOL    HW128838   6.779   0.778   2.397
 9313SOL    HW228839   6.676   0.702   2.295
 9314SOL     OW28840   3.848   5.459   6.647
 9314SOL    HW128841   3.836   5.395   6.723
 9314SOL    HW228842   3.848   5.408   6.561
 9315SOL     OW28843   0.003   0.522   5.612
 9315SOL    HW128844   0.068   0.513   5.536
 9315SOL    HW228845   0.026   0.456   5.684
 9316SOL     OW28846   3.974   5.780   4.395
 9316SOL    HW128847   3.885   5.759   4.354
 9316SOL    HW228848   4.047   5.743   4.339
 9317SOL     OW28849   6.111   5.179   3.073
 9317SOL    HW128850   6.180   5.249   3.058
 9317SOL    HW228851   6.036   5.217   3.127
 9318SOL     OW28852   0.351   0.670   6.384
 9318SOL    HW128853   0.446   0.696   6.402
 9318SOL    HW228854   0.312   0.731   6.315
 9319SOL     OW28855   1.154   2.966   6.232
 9319SOL    HW128856   1.216   2.891   6.209
 9319SOL    HW228857   1.191   3.052   6.196
 9320SOL     OW28858   3.632   2.404   5.938
 9320SOL    HW128859   3.564   2.332   5.952
 9320SOL    HW228860   3.586   2.487   5.906
 9321SOL     OW28861   5.954   0.120   3.112
 9321SOL    HW128862   5.930   0.217   3.114
 9321SOL    HW228863   5.893   0.069   3.174
 9322SOL     OW28864   0.296   6.262   6.086
 9322SOL    HW128865   0.377   6.240   6.031
 9322SOL    HW228866   0.324   6.290   6.177
 9323SOL     OW28867   1.315   0.893   6.030
 9323SOL    HW128868   1.337   0.956   5.955
 9323SOL    HW228869   1.259   0.941   6.098
 9324SOL     OW28870   1.255   4.973   0.714
 9324SOL    HW128871   1.308   4.900   0.671
 9324SOL    HW228872   1.229   4.946   0.807
 9325SOL     OW28873   5.341   1.643   0.982
 9325SOL    HW128874   5.293   1.729   0.968
 9325SOL    HW228875   5.391   1.619   0.898
 9326SOL     OW28876   2.716   0.147   0.498
 9326SOL    HW128877   2.648   0.216   0.524
 9326SOL    HW228878   2.686   0.057   0.531
 9327SOL     OW28879   4.872   6.802   3.610
 9327SOL    HW128880   4.772   6.803   3.620
 9327SOL    HW228881   4.912   6.865   3.677
 9328SOL     OW28882   3.848   1.376   6.868
 9328SOL    HW128883   3.910   1.416   6.800
 9328SOL    HW228884   3.877   1.283   6.890
 9329SOL     OW28885   6.679   3.280   3.243
 9329SOL    HW128886   6.760   3.312   3.293
 9329SOL    HW228887   6.630   3.212   3.299
 9330SOL     OW28888   0.154   6.584   0.809
 9330SOL    HW128889   0.127   6.513   0.745
 9330SOL    HW228890   0.165   6.671   0.761
 9331SOL     OW28891   0.058   0.856   0.174
 9331SOL    HW128892   0.073   0.784   0.241
 9331SOL    HW228893   0.046   0.815   0.083
 9332SOL     OW28894   3.127   4.041   3.618
 9332SOL    HW128895   3.112   3.943   3.624
 9332SOL    HW228896   3.135   4.068   3.522
 9333SOL     OW28897   6.124   3.741   0.707
 9333SOL    HW128898   6.160   3.658   0.750
 9333SOL    HW228899   6.099   3.721   0.612
 9334SOL     OW28900   3.117   0.144   3.550
 9334SOL    HW128901   3.085   0.055   3.518
 9334SOL    HW228902   3.214   0.154   3.530
 9335SOL     OW28903   1.531   1.652   6.661
 9335SOL    HW128904   1.617   1.607   6.637
 9335SOL    HW228905   1.526   1.667   6.760
 9336SOL     OW28906   2.899   6.607   6.057
 9336SOL    HW128907   2.943   6.646   6.138
 9336SOL    HW228908   2.938   6.517   6.038
 9337SOL     OW28909   5.070   0.745   2.486
 9337SOL    HW128910   5.166   0.760   2.509
 9337SOL    HW228911   5.052   0.646   2.485
 9338SOL     OW28912   4.132   0.684   2.067
 9338SOL    HW128913   4.202   0.723   2.127
 9338SOL    HW228914   4.076   0.618   2.117
 9339SOL     OW28915   5.712   6.953   0.923
 9339SOL    HW128916   5.758   0.008   0.970
 9339SOL    HW228917   5.719   6.871   0.979
 9340SOL     OW28918   5.240   3.616   5.828
 9340SOL    HW128919   5.197   3.526   5.836
 9340SOL    HW228920   5.170   3.687   5.842
 9341SOL     OW28921   1.466   5.732   6.666
 9341SOL    HW128922   1.404   5.753   6.591
 9341SOL    HW228923   1.490   5.816   6.715
 9342SOL     OW28924   1.853   0.089   4.949
 9342SOL    HW128925   1.840   0.177   4.993
 9342SOL    HW228926   1.949   0.080   4.919
 9343SOL     OW28927   6.503   5.635   4.990
 9343SOL    HW128928   6.515   5.540   4.962
 9343SOL    HW228929   6.408   5.662   4.975
 9344SOL     OW28930   4.665   6.482   0.729
 9344SOL    HW128931   4.727   6.404   0.741
 9344SOL    HW228932   4.686   6.553   0.796
 9345SOL     OW28933   6.621   2.733   2.078
 9345SOL    HW128934   6.531   2.724   2.035
 9345SOL    HW228935   6.620   2.810   2.141
 9346SOL     OW28936   5.951   0.587   1.205
 9346SOL    HW128937   5.882   0.519   1.229
 9346SOL    HW228938   6.029   0.579   1.267
 9347SOL     OW28939   1.650   5.822   1.251
 9347SOL    HW128940   1.608   5.733   1.231
 9347SOL    HW228941   1.674   5.826   1.348
 9348SOL     OW28942   3.818   5.832   0.482
 9348SOL    HW128943   3.812   5.877   0.393
 9348SOL    HW228944   3.873   5.749   0.474
 9349SOL     OW28945   1.007   6.769   2.332
 9349SOL    HW128946   0.982   6.708   2.407
 9349SOL    HW228947   0.925   6.815   2.297
 9350SOL     OW28948   0.376   2.378   6.368
 9350SOL    HW128949   0.395   2.384   6.466
 9350SOL    HW228950   0.370   2.471   6.330
 9351SOL     OW28951   3.282   2.277   0.000
 9351SOL    HW128952   3.219   2.351   0.024
 9351SOL    HW228953   3.245   2.190   0.031
 9352SOL     OW28954   2.660   4.326   6.988
 9352SOL    HW128955   2.737   4.269   6.959
 9352SOL    HW228956   2.682   4.369   0.054
 9353SOL     OW28957   0.740   5.724   1.986
 9353SOL    HW128958   0.824   5.767   2.019
 9353SOL    HW228959   0.757   5.628   1.965
 9354SOL     OW28960   6.351   2.690   6.974
 9354SOL    HW128961   6.315   2.783   6.968
 9354SOL    HW228962   6.415   2.674   6.899
 9355SOL     OW28963   0.645   1.611   5.168
 9355SOL    HW128964   0.591   1.554   5.105
 9355SOL    HW228965   0.587   1.682   5.207
 9356SOL     OW28966   4.427   0.150   1.972
 9356SOL    HW128967   4.464   0.176   1.883
 9356SOL    HW228968   4.501   0.116   2.030
 9357SOL     OW28969   0.802   2.134   0.018
 9357SOL    HW128970   0.851   2.079   0.085
 9357SOL    HW228971   0.777   2.077   6.961
 9358SOL     OW28972   1.147   3.207   2.191
 9358SOL    HW128973   1.197   3.289   2.216
 9358SOL    HW228974   1.079   3.228   2.121
 9359SOL     OW28975   2.232   6.606   6.018
 9359SOL    HW128976   2.307   6.671   6.004
 9359SOL    HW228977   2.226   6.544   5.940
 9360SOL     OW28978   1.599   0.371   6.621
 9360SOL    HW128979   1.671   0.439   6.609
 9360SOL    HW228980   1.511   0.410   6.592
 9361SOL     OW28981   2.396   6.204   3.928
 9361SOL    HW128982   2.323   6.252   3.976
 9361SOL    HW228983   2.426   6.126   3.983
 9362SOL     OW28984   1.986   0.342   2.704
 9362SOL    HW128985   1.910   0.375   2.647
 9362SOL    HW228986   2.031   0.420   2.748
 9363SOL     OW28987   2.934   5.390   2.592
 9363SOL    HW128988   2.936   5.376   2.691
 9363SOL    HW228989   2.862   5.454   2.568
 9364SOL     OW28990   1.845   1.658   1.549
 9364SOL    HW128991   1.936   1.693   1.572
 9364SOL    HW228992   1.852   1.601   1.466
 9365SOL     OW28993   3.366   1.898   4.096
 9365SOL    HW128994   3.299   1.880   4.169
 9365SOL    HW228995   3.383   1.997   4.091
 9366SOL     OW28996   3.373   5.851   0.607
 9366SOL    HW128997   3.422   5.765   0.620
 9366SOL    HW228998   3.354   5.892   0.696
 9367SOL     OW28999   5.688   0.720   1.200
 9367SOL    HW129000   5.756   0.667   1.251
 9367SOL    HW229001   5.711   0.720   1.103
 9368SOL     OW29002   3.590   0.669   2.950
 9368SOL    HW129003   3.677   0.639   2.990
 9368SOL    HW229004   3.515   0.626   2.999
 9369SOL     OW29005   2.021   5.203   6.532
 9369SOL    HW129006   1.961   5.278   6.504
 9369SOL    HW229007   2.096   5.240   6.587
 9370SOL     OW29008   5.244   2.217   4.157
 9370SOL    HW129009   5.292   2.158   4.093
 9370SOL    HW229010   5.150   2.230   4.126
 9371SOL     OW29011   3.833   6.146   1.525
 9371SOL    HW129012   3.823   6.053   1.561
 9371SOL    HW229013   3.760   6.204   1.561
 9372SOL     OW29014   5.036   6.952   1.652
 9372SOL    HW129015   4.948   6.985   1.617
 9372SOL    HW229016   5.101   6.942   1.577
 9373SOL     OW29017   6.750   1.042   0.842
 9373SOL    HW129018   6.786   1.101   0.769
 9373SOL    HW229019   6.813   0.966   0.857
 9374SOL     OW29020   0.825   4.969   5.446
 9374SOL    HW129021   0.904   4.919   5.482
 9374SOL    HW229022   0.791   5.032   5.516
 9375SOL     OW29023   0.687   1.797   6.744
 9375SOL    HW129024   0.606   1.744   6.719
 9375SOL    HW229025   0.766   1.764   6.692
 9376SOL     OW29026   2.146   3.742   2.004
 9376SOL    HW129027   2.197   3.751   2.090
 9376SOL    HW229028   2.158   3.650   1.967
 9377SOL     OW29029   2.397   6.440   2.853
 9377SOL    HW129030   2.310   6.469   2.893
 9377SOL    HW229031   2.433   6.514   2.796
 9378SOL     OW29032   3.243   0.423   3.405
 9378SOL    HW129033   3.272   0.504   3.354
 9378SOL    HW229034   3.150   0.437   3.440
 9379SOL     OW29035   4.299   6.801   4.588
 9379SOL    HW129036   4.234   6.727   4.605
 9379SOL    HW229037   4.367   6.803   4.660
 9380SOL     OW29038   4.821   5.745   6.891
 9380SOL    HW129039   4.789   5.706   6.977
 9380SOL    HW229040   4.862   5.673   6.835
 9381SOL     OW29041   5.887   1.999   4.617
 9381SOL    HW129042   5.947   1.922   4.597
 9381SOL    HW229043   5.850   2.036   4.532
 9382SOL     OW29044   3.314   0.179   4.469
 9382SOL    HW129045   3.243   0.158   4.402
 9382SOL    HW229046   3.276   0.235   4.542
 9383SOL     OW29047   4.746   4.134   3.463
 9383SOL    HW129048   4.660   4.087   3.440
 9383SOL    HW229049   4.783   4.177   3.381
 9384SOL     OW29050   1.669   0.537   2.180
 9384SOL    HW129051   1.710   0.446   2.166
 9384SOL    HW229052   1.740   0.600   2.212
 9385SOL     OW29053   4.117   1.452   3.194
 9385SOL    HW129054   4.041   1.416   3.248
 9385SOL    HW229055   4.194   1.387   3.198
 9386SOL     OW29056   4.222   6.250   5.998
 9386SOL    HW129057   4.131   6.231   5.961
 9386SOL    HW229058   4.232   6.205   6.087
 9387SOL     OW29059   2.850   2.186   6.966
 9387SOL    HW129060   2.844   2.191   6.866
 9387SOL    HW229061   2.930   2.131   6.991
 9388SOL     OW29062   1.994   6.321   4.762
 9388SOL    HW129063   2.088   6.293   4.779
 9388SOL    HW229064   1.993   6.406   4.708
 9389SOL     OW29065   3.037   4.901   1.472
 9389SOL    HW129066   3.018   4.899   1.571
 9389SOL    HW229067   3.135   4.889   1.457
 9390SOL     OW29068   5.092   4.984   5.393
 9390SOL    HW129069   5.037   4.961   5.313
 9390SOL    HW229070   5.144   5.068   5.376
 9391SOL     OW29071   1.996   5.956   4.684
 9391SOL    HW129072   2.044   5.883   4.636
 9391SOL    HW229073   2.018   5.952   4.782
 9392SOL     OW29074   6.037   4.551   2.583
 9392SOL    HW129075   6.135   4.555   2.563
 9392SOL    HW229076   6.023   4.548   2.682
 9393SOL     OW29077   2.581   6.494   5.715
 9393SOL    HW129078   2.567   6.577   5.769
 9393SOL    HW229079   2.677   6.467   5.721
 9394SOL     OW29080   4.271   0.031   0.705
 9394SOL    HW129081   4.207   6.980   0.731
 9394SOL    HW229082   4.313   0.069   0.788
 9395SOL     OW29083   2.075   2.170   0.967
 9395SOL    HW129084   2.070   2.085   1.019
 9395SOL    HW229085   2.059   2.247   1.029
 9396SOL     OW29086   0.868   6.717   6.374
 9396SOL    HW129087   0.879   6.684   6.468
 9396SOL    HW229088   0.888   6.644   6.310
 9397SOL     OW29089   4.121   1.124   5.693
 9397SOL    HW129090   4.055   1.190   5.656
 9397SOL    HW229091   4.115   1.125   5.793
 9398SOL     OW29092   0.551   1.366   6.836
 9398SOL    HW129093   0.489   1.308   6.889
 9398SOL    HW229094   0.533   1.354   6.738
 9399SOL     OW29095   1.646   2.615   3.694
 9399SOL    HW129096   1.683   2.665   3.773
 9399SOL    HW229097   1.712   2.619   3.619
 9400SOL     OW29098   5.781   1.323   0.838
 9400SOL    HW129099   5.805   1.304   0.933
 9400SOL    HW229100   5.864   1.336   0.784
 9401SOL     OW29101   0.409   1.720   3.102
 9401SOL    HW129102   0.476   1.741   3.031
 9401SOL    HW229103   0.318   1.714   3.061
 9402SOL     OW29104   1.314   6.064   3.334
 9402SOL    HW129105   1.270   5.976   3.353
 9402SOL    HW229106   1.366   6.093   3.414
 9403SOL     OW29107   6.347   2.649   1.997
 9403SOL    HW129108   6.269   2.616   2.050
 9403SOL    HW229109   6.315   2.714   1.928
 9404SOL     OW29110   1.999   3.516   1.020
 9404SOL    HW129111   1.909   3.487   1.053
 9404SOL    HW229112   1.988   3.569   0.936
 9405SOL     OW29113   0.817   5.413   5.456
 9405SOL    HW129114   0.835   5.349   5.382
 9405SOL    HW229115   0.847   5.505   5.429
 9406SOL     OW29116   0.208   3.144   6.927
 9406SOL    HW129117   0.272   3.104   6.992
 9406SOL    HW229118   0.138   3.196   6.976
 9407SOL     OW29119   1.311   4.944   5.715
 9407SOL    HW129120   1.397   4.922   5.669
 9407SOL    HW229121   1.320   4.924   5.812
 9408SOL     OW29122   6.854   4.773   4.697
 9408SOL    HW129123   6.916   4.829   4.642
 9408SOL    HW229124   6.761   4.809   4.688
 9409SOL     OW29125   6.732   5.259   2.191
 9409SOL    HW129126   6.830   5.280   2.180
 9409SOL    HW229127   6.678   5.333   2.151
 9410SOL     OW29128   4.028   0.619   1.258
 9410SOL    HW129129   4.051   0.707   1.299
 9410SOL    HW229130   4.106   0.585   1.206
 9411SOL     OW29131   3.113   3.006   3.592
 9411SOL    HW129132   3.068   3.019   3.680
 9411SOL    HW229133   3.088   3.080   3.530
 9412SOL     OW29134   6.069   6.369   1.499
 9412SOL    HW129135   6.094   6.308   1.423
 9412SOL    HW229136   6.033   6.455   1.463
 9413SOL     OW29137   4.256   4.654   3.017
 9413SOL    HW129138   4.216   4.674   2.928
 9413SOL    HW229139   4.337   4.596   3.006
 9414SOL     OW29140   1.574   2.265   4.218
 9414SOL    HW129141   1.591   2.177   4.264
 9414SOL    HW229142   1.653   2.288   4.161
 9415SOL     OW29143   3.881   1.538   2.502
 9415SOL    HW129144   3.868   1.623   2.452
 9415SOL    HW229145   3.955   1.549   2.568
 9416SOL     OW29146   6.260   5.174   6.311
 9416SOL    HW129147   6.272   5.270   6.335
 9416SOL    HW229148   6.294   5.117   6.386
 9417SOL     OW29149   3.983   6.051   1.927
 9417SOL    HW129150   4.031   5.971   1.892
 9417SOL    HW229151   3.888   6.049   1.896
 9418SOL     OW29152   3.090   2.135   4.405
 9418SOL    HW129153   3.188   2.118   4.416
 9418SOL    HW229154   3.048   2.152   4.494
 9419SOL     OW29155   2.261   3.224   6.088
 9419SOL    HW129156   2.173   3.217   6.040
 9419SOL    HW229157   2.332   3.249   6.023
 9420SOL     OW29158   6.494   3.909   0.022
 9420SOL    HW129159   6.561   3.892   6.971
 9420SOL    HW229160   6.407   3.938   7.003
 9421SOL     OW29161   3.611   6.138   5.330
 9421SOL    HW129162   3.530   6.193   5.307
 9421SOL    HW229163   3.606   6.050   5.282
 9422SOL     OW29164   2.584   6.026   4.581
 9422SOL    HW129165   2.582   6.123   4.558
 9422SOL    HW229166   2.598   5.972   4.497
 9423SOL     OW29167   4.889   4.683   3.701
 9423SOL    HW129168   4.939   4.766   3.674
 9423SOL    HW229169   4.837   4.702   3.784
 9424SOL     OW29170   5.925   0.342   4.523
 9424SOL    HW129171   5.968   0.335   4.433
 9424SOL    HW229172   5.906   0.438   4.543
 9425SOL     OW29173   6.994   5.179   0.812
 9425SOL    HW129174   6.933   5.157   0.888
 9425SOL    HW229175   0.063   5.204   0.848
 9426SOL     OW29176   6.874   1.867   0.041
 9426SOL    HW129177   6.945   1.828   7.003
 9426SOL    HW229178   6.876   1.967   0.036
 9427SOL     OW29179   4.372   4.929   2.932
 9427SOL    HW129180   4.433   4.851   2.948
 9427SOL    HW229181   4.319   4.947   3.015
 9428SOL     OW29182   6.634   6.630   5.346
 9428SOL    HW129183   6.727   6.633   5.309
 9428SOL    HW229184   6.633   6.669   5.438
 9429SOL     OW29185   2.351   2.238   3.901
 9429SOL    HW129186   2.283   2.265   3.832
 9429SOL    HW229187   2.440   2.274   3.875
 9430SOL     OW29188   0.442   2.314   4.492
 9430SOL    HW129189   0.431   2.294   4.590
 9430SOL    HW229190   0.533   2.354   4.477
 9431SOL     OW29191   0.772   5.008   5.106
 9431SOL    HW129192   0.736   4.951   5.180
 9431SOL    HW229193   0.847   4.960   5.061
 9432SOL     OW29194   6.666   1.086   3.814
 9432SOL    HW129195   6.758   1.053   3.790
 9432SOL    HW229196   6.605   1.073   3.736
 9433SOL     OW29197   4.826   5.678   2.510
 9433SOL    HW129198   4.740   5.670   2.559
 9433SOL    HW229199   4.883   5.598   2.529
 9434SOL     OW29200   4.977   5.023   4.557
 9434SOL    HW129201   5.055   5.005   4.617
 9434SOL    HW229202   4.994   4.982   4.467
 9435SOL     OW29203   0.175   2.749   1.763
 9435SOL    HW129204   0.257   2.709   1.724
 9435SOL    HW229205   0.200   2.815   1.834
 9436SOL     OW29206   1.822   0.720   2.845
 9436SOL    HW129207   1.794   0.751   2.755
 9436SOL    HW229208   1.896   0.779   2.879
 9437SOL     OW29209   5.907   6.065   4.714
 9437SOL    HW129210   5.921   6.014   4.799
 9437SOL    HW229211   5.826   6.029   4.667
 9438SOL     OW29212   4.631   6.271   2.742
 9438SOL    HW129213   4.534   6.272   2.766
 9438SOL    HW229214   4.647   6.331   2.663
 9439SOL     OW29215   1.103   3.132   0.905
 9439SOL    HW129216   1.054   3.062   0.853
 9439SOL    HW229217   1.108   3.104   1.001
 9440SOL     OW29218   2.240   5.297   3.459
 9440SOL    HW129219   2.283   5.285   3.370
 9440SOL    HW229220   2.246   5.212   3.511
 9441SOL     OW29221   0.603   6.017   4.753
 9441SOL    HW129222   0.664   5.939   4.743
 9441SOL    HW229223   0.625   6.066   4.838
 9442SOL     OW29224   4.330   3.206   0.666
 9442SOL    HW129225   4.310   3.111   0.691
 9442SOL    HW229226   4.328   3.215   0.566
 9443SOL     OW29227   2.024   4.564   3.160
 9443SOL    HW129228   2.047   4.552   3.064
 9443SOL    HW229229   1.934   4.524   3.178
 9444SOL     OW29230   0.964   4.926   6.360
 9444SOL    HW129231   0.986   4.925   6.457
 9444SOL    HW229232   1.039   4.886   6.308
 9445SOL     OW29233   0.392   1.198   4.137
 9445SOL    HW129234   0.315   1.260   4.129
 9445SOL    HW229235   0.390   1.152   4.226
 9446SOL     OW29236   6.405   5.306   2.952
 9446SOL    HW129237   6.338   5.300   2.878
 9446SOL    HW229238   6.484   5.249   2.930
 9447SOL     OW29239   4.904   4.225   1.905
 9447SOL    HW129240   4.878   4.194   1.814
 9447SOL    HW229241   4.998   4.258   1.904
 9448SOL     OW29242   6.157   0.471   5.273
 9448SOL    HW129243   6.111   0.448   5.187
 9448SOL    HW229244   6.090   0.511   5.336
 9449SOL     OW29245   5.703   6.881   1.480
 9449SOL    HW129246   5.638   6.821   1.527
 9449SOL    HW229247   5.791   6.835   1.471
 9450SOL     OW29248   1.618   5.214   3.387
 9450SOL    HW129249   1.633   5.254   3.296
 9450SOL    HW229250   1.595   5.287   3.451
 9451SOL     OW29251   3.351   5.883   6.428
 9451SOL    HW129252   3.257   5.891   6.463
 9451SOL    HW229253   3.354   5.915   6.333
 9452SOL     OW29254   6.786   4.026   0.258
 9452SOL    HW129255   6.714   4.079   0.213
 9452SOL    HW229256   6.786   4.047   0.356
 9453SOL     OW29257   5.090   5.588   2.257
 9453SOL    HW129258   5.016   5.561   2.196
 9453SOL    HW229259   5.122   5.680   2.233
 9454SOL     OW29260   5.597   4.237   0.866
 9454SOL    HW129261   5.689   4.199   0.866
 9454SOL    HW229262   5.602   4.337   0.870
 9455SOL     OW29263   3.473   1.944   1.721
 9455SOL    HW129264   3.516   1.854   1.714
 9455SOL    HW229265   3.419   1.961   1.638
 9456SOL     OW29266   6.407   3.195   1.548
 9456SOL    HW129267   6.434   3.231   1.637
 9456SOL    HW229268   6.465   3.118   1.523
 9457SOL     OW29269   0.160   5.886   4.521
 9457SOL    HW129270   0.199   5.793   4.520
 9457SOL    HW229271   0.224   5.948   4.566
 9458SOL     OW29272   6.931   3.357   6.784
 9458SOL    HW129273   6.867   3.304   6.729
 9458SOL    HW229274   6.968   3.432   6.730
 9459SOL     OW29275   4.762   4.601   5.336
 9459SOL    HW129276   4.694   4.547   5.287
 9459SOL    HW229277   4.828   4.638   5.271
 9460SOL     OW29278   1.499   1.963   3.069
 9460SOL    HW129279   1.474   1.887   3.010
 9460SOL    HW229280   1.579   1.939   3.123
 9461SOL     OW29281   1.421   2.300   2.426
 9461SOL    HW129282   1.453   2.290   2.332
 9461SOL    HW229283   1.424   2.397   2.452
 9462SOL     OW29284   1.243   1.357   4.285
 9462SOL    HW129285   1.324   1.321   4.333
 9462SOL    HW229286   1.173   1.285   4.281
 9463SOL     OW29287   5.335   5.262   1.577
 9463SOL    HW129288   5.244   5.258   1.538
 9463SOL    HW229289   5.346   5.349   1.626
 9464SOL     OW29290   0.828   1.066   1.844
 9464SOL    HW129291   0.925   1.080   1.824
 9464SOL    HW229292   0.774   1.127   1.786
 9465SOL     OW29293   6.497   4.467   1.276
 9465SOL    HW129294   6.562   4.490   1.349
 9465SOL    HW229295   6.414   4.430   1.317
 9466SOL     OW29296   3.930   4.814   5.837
 9466SOL    HW129297   3.833   4.838   5.837
 9466SOL    HW229298   3.940   4.715   5.854
 9467SOL     OW29299   1.960   3.885   0.701
 9467SOL    HW129300   1.934   3.965   0.647
 9467SOL    HW229301   1.909   3.885   0.788
 9468SOL     OW29302   6.355   1.804   0.061
 9468SOL    HW129303   6.399   1.743   7.017
 9468SOL    HW229304   6.396   1.791   0.152
 9469SOL     OW29305   1.133   6.277   1.725
 9469SOL    HW129306   1.115   6.349   1.793
 9469SOL    HW229307   1.203   6.215   1.761
 9470SOL     OW29308   3.812   4.275   0.761
 9470SOL    HW129309   3.767   4.222   0.832
 9470SOL    HW229310   3.757   4.274   0.678
 9471SOL     OW29311   6.051   3.612   5.271
 9471SOL    HW129312   6.026   3.520   5.302
 9471SOL    HW229313   5.983   3.644   5.206
 9472SOL     OW29314   1.596   2.794   6.083
 9472SOL    HW129315   1.622   2.878   6.036
 9472SOL    HW229316   1.628   2.715   6.030
 9473SOL     OW29317   3.132   4.601   0.729
 9473SOL    HW129318   3.144   4.648   0.817
 9473SOL    HW229319   3.087   4.513   0.745
 9474SOL     OW29320   5.814   2.996   0.713
 9474SOL    HW129321   5.739   3.061   0.708
 9474SOL    HW229322   5.857   3.001   0.803
 9475SOL     OW29323   4.609   3.887   6.309
 9475SOL    HW129324   4.645   3.951   6.377
 9475SOL    HW229325   4.682   3.858   6.248
 9476SOL     OW29326   3.869   4.044   6.565
 9476SOL    HW129327   3.892   4.028   6.469
 9476SOL    HW229328   3.949   4.026   6.622
 9477SOL     OW29329   1.860   4.348   0.785
 9477SOL    HW129330   1.763   4.339   0.764
 9477SOL    HW229331   1.913   4.350   0.700
 9478SOL     OW29332   5.577   3.117   0.463
 9478SOL    HW129333   5.664   3.150   0.427
 9478SOL    HW229334   5.572   3.135   0.561
 9479SOL     OW29335   3.980   0.806   1.860
 9479SOL    HW129336   3.954   0.734   1.797
 9479SOL    HW229337   4.065   0.782   1.906
 9480SOL     OW29338   6.811   0.530   0.290
 9480SOL    HW129339   6.733   0.580   0.328
 9480SOL    HW229340   6.830   0.562   0.197
 9481SOL     OW29341   4.242   0.365   3.613
 9481SOL    HW129342   4.177   0.374   3.538
 9481SOL    HW229343   4.194   0.332   3.694
 9482SOL     OW29344   6.541   6.578   0.258
 9482SOL    HW129345   6.444   6.591   0.280
 9482SOL    HW229346   6.596   6.641   0.313
 9483SOL     OW29347   6.816   0.033   0.470
 9483SOL    HW129348   6.842   0.069   0.380
 9483SOL    HW229349   6.745   6.984   0.458
 9484SOL     OW29350   4.044   5.851   4.980
 9484SOL    HW129351   3.949   5.880   4.969
 9484SOL    HW229352   4.067   5.849   5.077
 9485SOL     OW29353   6.687   0.971   0.399
 9485SOL    HW129354   6.673   1.067   0.376
 9485SOL    HW229355   6.649   0.914   0.326
 9486SOL     OW29356   5.247   6.010   0.267
 9486SOL    HW129357   5.344   6.001   0.247
 9486SOL    HW229358   5.224   5.961   0.350
 9487SOL     OW29359   3.197   3.011   3.170
 9487SOL    HW129360   3.197   2.983   3.074
 9487SOL    HW229361   3.121   2.967   3.218
 9488SOL     OW29362   1.858   1.082   0.557
 9488SOL    HW129363   1.890   0.990   0.582
 9488SOL    HW229364   1.924   1.150   0.586
 9489SOL     OW29365   5.275   3.911   0.662
 9489SOL    HW129366   5.253   3.830   0.715
 9489SOL    HW229367   5.333   3.972   0.717
 9490SOL     OW29368   5.337   4.093   4.147
 9490SOL    HW129369   5.328   4.179   4.196
 9490SOL    HW229370   5.433   4.077   4.123
 9491SOL     OW29371   4.994   6.272   2.668
 9491SOL    HW129372   5.091   6.297   2.660
 9491SOL    HW229373   4.977   6.237   2.760
 9492SOL     OW29374   4.839   3.009   4.102
 9492SOL    HW129375   4.775   2.945   4.143
 9492SOL    HW229376   4.924   3.011   4.155
 9493SOL     OW29377   4.078   6.689   2.134
 9493SOL    HW129378   4.134   6.769   2.117
 9493SOL    HW229379   4.136   6.607   2.136
 9494SOL     OW29380   5.525   2.327   2.172
 9494SOL    HW129381   5.580   2.365   2.247
 9494SOL    HW229382   5.450   2.274   2.209
 9495SOL     OW29383   0.761   1.832   2.138
 9495SOL    HW129384   0.776   1.873   2.228
 9495SOL    HW229385   0.668   1.853   2.108
 9496SOL     OW29386   5.082   2.174   2.289
 9496SOL    HW129387   5.045   2.119   2.214
 9496SOL    HW229388   5.176   2.200   2.268
 9497SOL     OW29389   5.055   4.732   4.933
 9497SOL    HW129390   5.005   4.762   4.852
 9497SOL    HW229391   5.151   4.714   4.909
 9498SOL     OW29392   0.734   5.483   3.702
 9498SOL    HW129393   0.801   5.409   3.705
 9498SOL    HW229394   0.643   5.447   3.717
 9499SOL     OW29395   6.630   5.845   5.394
 9499SOL    HW129396   6.639   5.905   5.314
 9499SOL    HW229397   6.538   5.853   5.432
 9500SOL     OW29398   3.883   1.577   0.729
 9500SOL    HW129399   3.975   1.553   0.758
 9500SOL    HW229400   3.869   1.676   0.740
 9501SOL     OW29401   1.765   3.241   5.272
 9501SOL    HW129402   1.844   3.271   5.326
 9501SOL    HW229403   1.719   3.165   5.319
 9502SOL     OW29404   5.504   4.779   5.195
 9502SOL    HW129405   5.529   4.875   5.185
 9502SOL    HW229406   5.431   4.770   5.262
 9503SOL     OW29407   0.643   2.593   0.197
 9503SOL    HW129408   0.725   2.640   0.164
 9503SOL    HW229409   0.629   2.510   0.143
 9504SOL     OW29410   5.886   5.088   2.348
 9504SOL    HW129411   5.844   5.003   2.379
 9504SOL    HW229412   5.822   5.163   2.361
 9505SOL     OW29413   4.240   5.045   5.572
 9505SOL    HW129414   4.209   5.012   5.483
 9505SOL    HW229415   4.187   5.126   5.598
 9506SOL     OW29416   3.101   1.362   1.254
 9506SOL    HW129417   3.033   1.321   1.193
 9506SOL    HW229418   3.054   1.423   1.319
 9507SOL     OW29419   4.961   0.428   2.194
 9507SOL    HW129420   4.978   0.402   2.099
 9507SOL    HW229421   4.992   0.354   2.254
 9508SOL     OW29422   5.187   1.844   2.967
 9508SOL    HW129423   5.269   1.852   2.910
 9508SOL    HW229424   5.195   1.905   3.046
 9509SOL     OW29425   6.219   0.260   3.291
 9509SOL    HW129426   6.298   0.208   3.259
 9509SOL    HW229427   6.183   0.317   3.216
 9510SOL     OW29428   1.215   2.093   3.489
 9510SOL    HW129429   1.233   2.096   3.390
 9510SOL    HW229430   1.291   2.136   3.538
 9511SOL     OW29431   1.959   1.487   0.647
 9511SOL    HW129432   1.887   1.450   0.589
 9511SOL    HW229433   1.974   1.583   0.624
 9512SOL     OW29434   6.303   1.693   1.024
 9512SOL    HW129435   6.233   1.622   1.034
 9512SOL    HW229436   6.327   1.702   0.927
 9513SOL     OW29437   4.535   5.163   6.217
 9513SOL    HW129438   4.522   5.191   6.312
 9513SOL    HW229439   4.454   5.187   6.163
 9514SOL     OW29440   3.607   2.935   0.012
 9514SOL    HW129441   3.567   2.942   0.104
 9514SOL    HW229442   3.707   2.938   0.019
 9515SOL     OW29443   0.844   5.155   3.890
 9515SOL    HW129444   0.875   5.081   3.951
 9515SOL    HW229445   0.918   5.180   3.828
 9516SOL     OW29446   6.844   4.217   1.029
 9516SOL    HW129447   6.850   4.309   0.989
 9516SOL    HW229448   6.812   4.224   1.124
 9517SOL     OW29449   0.791   5.049   0.514
 9517SOL    HW129450   0.822   4.969   0.564
 9517SOL    HW229451   0.827   5.047   0.421
 9518SOL     OW29452   1.064   1.380   0.091
 9518SOL    HW129453   0.967   1.404   0.098
 9518SOL    HW229454   1.107   1.385   0.181
 9519SOL     OW29455   1.173   3.095   5.332
 9519SOL    HW129456   1.268   3.065   5.322
 9519SOL    HW229457   1.132   3.109   5.242
 9520SOL     OW29458   3.325   6.798   1.954
 9520SOL    HW129459   3.411   6.836   1.988
 9520SOL    HW229460   3.253   6.868   1.958
 9521SOL     OW29461   5.655   5.126   3.984
 9521SOL    HW129462   5.635   5.146   4.079
 9521SOL    HW229463   5.749   5.091   3.975
 9522SOL     OW29464   3.665   5.800   0.769
 9522SOL    HW129465   3.623   5.716   0.805
 9522SOL    HW229466   3.718   5.780   0.687
 9523SOL     OW29467   3.654   5.770   4.677
 9523SOL    HW129468   3.579   5.747   4.739
 9523SOL    HW229469   3.686   5.862   4.697
 9524SOL     OW29470   4.586   2.802   1.036
 9524SOL    HW129471   4.640   2.719   1.018
 9524SOL    HW229472   4.632   2.881   0.996
 9525SOL     OW29473   3.833   0.460   6.089
 9525SOL    HW129474   3.808   0.556   6.079
 9525SOL    HW229475   3.932   0.451   6.087
 9526SOL     OW29476   5.631   5.346   1.895
 9526SOL    HW129477   5.711   5.288   1.885
 9526SOL    HW229478   5.548   5.293   1.876
 9527SOL     OW29479   6.605   2.017   1.476
 9527SOL    HW129480   6.655   1.934   1.503
 9527SOL    HW229481   6.670   2.092   1.461
 9528SOL     OW29482   6.422   0.876   2.426
 9528SOL    HW129483   6.514   0.841   2.415
 9528SOL    HW229484   6.417   0.970   2.391
 9529SOL     OW29485   0.626   3.551   5.554
 9529SOL    HW129486   0.615   3.456   5.581
 9529SOL    HW229487   0.558   3.575   5.485
 9530SOL     OW29488   1.034   2.287   3.890
 9530SOL    HW129489   1.093   2.238   3.954
 9530SOL    HW229490   1.048   2.385   3.901
 9531SOL     OW29491   3.354   6.099   2.534
 9531SOL    HW129492   3.361   6.061   2.442
 9531SOL    HW229493   3.446   6.114   2.571
 9532SOL     OW29494   1.886   0.681   1.955
 9532SOL    HW129495   1.910   0.710   1.863
 9532SOL    HW229496   1.839   0.755   2.003
 9533SOL     OW29497   1.946   0.637   5.287
 9533SOL    HW129498   1.975   0.733   5.291
 9533SOL    HW229499   1.873   0.627   5.220
 9534SOL     OW29500   4.558   2.393   4.764
 9534SOL    HW129501   4.648   2.368   4.799
 9534SOL    HW229502   4.510   2.311   4.733
 9535SOL     OW29503   2.268   1.576   5.567
 9535SOL    HW129504   2.352   1.596   5.516
 9535SOL    HW229505   2.200   1.536   5.505
 9536SOL     OW29506   2.282   6.442   5.724
 9536SOL    HW129507   2.214   6.378   5.687
 9536SOL    HW229508   2.372   6.417   5.690
 9537SOL     OW29509   2.747   7.009   0.805
 9537SOL    HW129510   2.745   6.916   0.842
 9537SOL    HW229511   2.655   0.013   0.776
 9538SOL     OW29512   6.417   3.211   3.835
 9538SOL    HW129513   6.503   3.213   3.783
 9538SOL    HW229514   6.423   3.274   3.912
 9539SOL     OW29515   0.404   5.294   1.091
 9539SOL    HW129516   0.487   5.252   1.054
 9539SOL    HW229517   0.427   5.383   1.130
 9540SOL     OW29518   5.032   4.412   4.510
 9540SOL    HW129519   5.018   4.320   4.473
 9540SOL    HW229520   5.094   4.407   4.589
 9541SOL     OW29521   2.033   2.087   3.999
 9541SOL    HW129522   2.045   2.072   3.901
 9541SOL    HW229523   1.949   2.139   4.015
 9542SOL     OW29524   4.937   3.687   4.500
 9542SOL    HW129525   4.932   3.620   4.426
 9542SOL    HW229526   4.935   3.640   4.588
 9543SOL     OW29527   4.892   2.386   2.307
 9543SOL    HW129528   4.905   2.448   2.230
 9543SOL    HW229529   4.942   2.301   2.291
 9544SOL     OW29530   3.416   1.557   1.970
 9544SOL    HW129531   3.419   1.465   1.932
 9544SOL    HW229532   3.335   1.605   1.938
 9545SOL     OW29533   0.018   0.018   4.129
 9545SOL    HW129534   0.055   0.089   4.188
 9545SOL    HW229535   0.093   6.981   4.096
 9546SOL     OW29536   2.931   4.820   0.891
 9546SOL    HW129537   2.842   4.805   0.849
 9546SOL    HW229538   2.969   4.733   0.923
 9547SOL     OW29539   6.793   6.505   2.949
 9547SOL    HW129540   6.758   6.471   2.862
 9547SOL    HW229541   6.792   6.431   3.017
 9548SOL     OW29542   4.876   6.577   2.865
 9548SOL    HW129543   4.872   6.555   2.767
 9548SOL    HW229544   4.793   6.547   2.910
 9549SOL     OW29545   2.418   6.114   0.742
 9549SOL    HW129546   2.333   6.063   0.753
 9549SOL    HW229547   2.494   6.051   0.729
 9550SOL     OW29548   0.935   1.701   0.623
 9550SOL    HW129549   1.030   1.722   0.647
 9550SOL    HW229550   0.873   1.761   0.674
 9551SOL     OW29551   2.356   6.135   4.940
 9551SOL    HW129552   2.333   6.097   4.850
 9551SOL    HW229553   2.304   6.089   5.011
 9552SOL     OW29554   0.996   5.747   3.488
 9552SOL    HW129555   0.936   5.738   3.567
 9552SOL    HW229556   1.083   5.701   3.506
 9553SOL     OW29557   5.993   4.818   5.155
 9553SOL    HW129558   5.979   4.748   5.085
 9553SOL    HW229559   6.041   4.896   5.115
 9554SOL     OW29560   2.284   1.548   1.922
 9554SOL    HW129561   2.228   1.512   1.996
 9554SOL    HW229562   2.263   1.499   1.837
 9555SOL     OW29563   6.680   2.491   0.304
 9555SOL    HW129564   6.585   2.460   0.314
 9555SOL    HW229565   6.691   2.536   0.215
 9556SOL     OW29566   1.012   1.746   1.516
 9556SOL    HW129567   0.999   1.825   1.456
 9556SOL    HW229568   1.109   1.735   1.536
 9557SOL     OW29569   5.304   2.522   1.678
 9557SOL    HW129570   5.375   2.548   1.744
 9557SOL    HW229571   5.320   2.428   1.647
 9558SOL     OW29572   6.258   5.124   2.444
 9558SOL    HW129573   6.246   5.218   2.476
 9558SOL    HW229574   6.182   5.099   2.385
 9559SOL     OW29575   6.670   2.636   2.431
 9559SOL    HW129576   6.576   2.662   2.456
 9559SOL    HW229577   6.715   2.713   2.385
 9560SOL     OW29578   2.963   1.466   3.963
 9560SOL    HW129579   2.908   1.450   4.045
 9560SOL    HW229580   2.934   1.552   3.920
 9561SOL     OW29581   4.138   0.157   1.255
 9561SOL    HW129582   4.159   0.176   1.351
 9561SOL    HW229583   4.191   0.078   1.224
 9562SOL     OW29584   6.219   5.712   2.826
 9562SOL    HW129585   6.138   5.742   2.776
 9562SOL    HW229586   6.301   5.749   2.783
 9563SOL     OW29587   0.157   5.713   6.582
 9563SOL    HW129588   0.227   5.695   6.652
 9563SOL    HW229589   0.191   5.684   6.493
 9564SOL     OW29590   2.416   6.781   6.652
 9564SOL    HW129591   2.392   6.774   6.555
 9564SOL    HW229592   2.471   6.863   6.667
 9565SOL     OW29593   4.229   6.419   4.634
 9565SOL    HW129594   4.301   6.393   4.569
 9565SOL    HW229595   4.260   6.399   4.727
 9566SOL     OW29596   3.035   4.863   5.112
 9566SOL    HW129597   3.005   4.773   5.080
 9566SOL    HW229598   2.958   4.910   5.156
 9567SOL     OW29599   6.285   5.290   5.767
 9567SOL    HW129600   6.352   5.287   5.841
 9567SOL    HW229601   6.235   5.377   5.770
 9568SOL     OW29602   5.042   3.676   6.765
 9568SOL    HW129603   5.133   3.692   6.726
 9568SOL    HW229604   5.051   3.618   6.847
 9569SOL     OW29605   6.441   0.310   0.755
 9569SOL    HW129606   6.364   0.356   0.711
 9569SOL    HW229607   6.508   0.283   0.686
 9570SOL     OW29608   0.732   0.261   6.747
 9570SOL    HW129609   0.789   0.295   6.822
 9570SOL    HW229610   0.746   0.163   6.737
 9571SOL     OW29611   2.283   3.996   0.338
 9571SOL    HW129612   2.256   4.080   0.385
 9571SOL    HW229613   2.226   3.983   0.256
 9572SOL     OW29614   1.285   4.350   0.539
 9572SOL    HW129615   1.267   4.296   0.621
 9572SOL    HW229616   1.247   4.303   0.459
 9573SOL     OW29617   6.837   2.129   1.379
 9573SOL    HW129618   6.906   2.077   1.431
 9573SOL    HW229619   6.864   2.133   1.283
 9574SOL     OW29620   2.481   1.919   5.227
 9574SOL    HW129621   2.526   1.993   5.177
 9574SOL    HW229622   2.407   1.956   5.283
 9575SOL     OW29623   5.114   1.168   1.598
 9575SOL    HW129624   5.182   1.121   1.541
 9575SOL    HW229625   5.148   1.259   1.621
 9576SOL     OW29626   3.325   1.518   5.581
 9576SOL    HW129627   3.229   1.489   5.584
 9576SOL    HW229628   3.354   1.548   5.672
 9577SOL     OW29629   0.202   5.933   3.234
 9577SOL    HW129630   0.185   5.834   3.234
 9577SOL    HW229631   0.243   5.960   3.321
 9578SOL     OW29632   5.681   3.432   2.129
 9578SOL    HW129633   5.617   3.467   2.060
 9578SOL    HW229634   5.736   3.359   2.088
 9579SOL     OW29635   0.664   6.477   3.046
 9579SOL    HW129636   0.673   6.523   2.958
 9579SOL    HW229637   0.599   6.401   3.037
 9580SOL     OW29638   4.419   3.946   6.128
 9580SOL    HW129639   4.472   3.961   6.045
 9580SOL    HW229640   4.479   3.910   6.200
 9581SOL     OW29641   1.562   5.175   6.591
 9581SOL    HW129642   1.637   5.117   6.559
 9581SOL    HW229643   1.478   5.121   6.596
 9582SOL     OW29644   4.343   4.985   4.536
 9582SOL    HW129645   4.314   4.890   4.542
 9582SOL    HW229646   4.309   5.025   4.451
 9583SOL     OW29647   2.366   4.549   2.136
 9583SOL    HW129648   2.279   4.598   2.130
 9583SOL    HW229649   2.417   4.560   2.051
 9584SOL     OW29650   6.420   5.852   6.164
 9584SOL    HW129651   6.425   5.752   6.163
 9584SOL    HW229652   6.346   5.880   6.225
 9585SOL     OW29653   6.820   6.904   4.246
 9585SOL    HW129654   6.851   6.813   4.271
 9585SOL    HW229655   6.897   6.958   4.211
 9586SOL     OW29656   5.258   3.625   2.812
 9586SOL    HW129657   5.250   3.724   2.798
 9586SOL    HW229658   5.256   3.578   2.724
 9587SOL     OW29659   4.860   6.744   2.563
 9587SOL    HW129660   4.807   6.794   2.632
 9587SOL    HW229661   4.843   6.646   2.572
 9588SOL     OW29662   0.073   0.649   3.107
 9588SOL    HW129663   0.149   0.688   3.158
 9588SOL    HW229664   0.102   0.563   3.065
 9589SOL     OW29665   2.123   1.359   6.213
 9589SOL    HW129666   2.062   1.405   6.150
 9589SOL    HW229667   2.075   1.283   6.257
 9590SOL     OW29668   6.577   4.523   4.954
 9590SOL    HW129669   6.530   4.575   4.882
 9590SOL    HW229670   6.674   4.516   4.932
 9591SOL     OW29671   1.779   4.307   2.039
 9591SOL    HW129672   1.779   4.337   1.944
 9591SOL    HW229673   1.728   4.373   2.095
 9592SOL     OW29674   4.794   5.292   2.241
 9592SOL    HW129675   4.694   5.305   2.243
 9592SOL    HW229676   4.826   5.293   2.146
 9593SOL     OW29677   1.791   2.583   4.439
 9593SOL    HW129678   1.720   2.515   4.458
 9593SOL    HW229679   1.751   2.659   4.389
 9594SOL     OW29680   5.759   6.587   2.000
 9594SOL    HW129681   5.710   6.637   2.072
 9594SOL    HW229682   5.768   6.646   1.920
 9595SOL     OW29683   0.611   4.158   4.624
 9595SOL    HW129684   0.707   4.149   4.652
 9595SOL    HW229685   0.553   4.102   4.684
 9596SOL     OW29686   4.648   5.699   3.076
 9596SOL    HW129687   4.674   5.622   3.017
 9596SOL    HW229688   4.580   5.668   3.142
 9597SOL     OW29689   1.886   3.803   1.158
 9597SOL    HW129690   1.891   3.902   1.166
 9597SOL    HW229691   1.848   3.778   1.069
 9598SOL     OW29692   1.174   5.705   5.825
 9598SOL    HW129693   1.239   5.631   5.804
 9598SOL    HW229694   1.082   5.668   5.830
 9599SOL     OW29695   5.036   1.783   4.398
 9599SOL    HW129696   5.102   1.772   4.324
 9599SOL    HW229697   5.005   1.693   4.428
 9600SOL     OW29698   1.622   6.046   0.201
 9600SOL    HW129699   1.567   5.965   0.183
 9600SOL    HW229700   1.660   6.081   0.116
 9601SOL     OW29701   0.724   5.706   6.274
 9601SOL    HW129702   0.691   5.763   6.199
 9601SOL    HW229703   0.777   5.629   6.238
 9602SOL     OW29704   1.158   5.811   0.489
 9602SOL    HW129705   1.244   5.810   0.438
 9602SOL    HW229706   1.109   5.896   0.470
 9603SOL     OW29707   1.219   4.917   4.008
 9603SOL    HW129708   1.152   4.846   4.026
 9603SOL    HW229709   1.273   4.933   4.091
 9604SOL     OW29710   0.200   6.832   0.743
 9604SOL    HW129711   0.168   6.905   0.683
 9604SOL    HW229712   0.168   6.849   0.836
 9605SOL     OW29713   2.283   5.856   6.430
 9605SOL    HW129714   2.269   5.887   6.336
 9605SOL    HW229715   2.217   5.784   6.451
 9606SOL     OW29716   0.028   6.773   4.478
 9606SOL    HW129717   0.007   6.786   4.575
 9606SOL    HW229718   6.976   6.719   4.435
 9607SOL     OW29719   0.357   2.979   1.626
 9607SOL    HW129720   0.260   2.996   1.606
 9607SOL    HW229721   0.414   3.039   1.570
 9608SOL     OW29722   6.785   6.233   2.826
 9608SOL    HW129723   6.703   6.177   2.812
 9608SOL    HW229724   6.800   6.246   2.924
 9609SOL     OW29725   2.008   2.258   3.485
 9609SOL    HW129726   2.089   2.308   3.454
 9609SOL    HW229727   1.927   2.294   3.438
 9610SOL     OW29728   3.131   2.263   5.977
 9610SOL    HW129729   3.155   2.296   6.068
 9610SOL    HW229730   3.176   2.175   5.961
 9611SOL     OW29731   5.812   5.956   0.745
 9611SOL    HW129732   5.774   6.004   0.666
 9611SOL    HW229733   5.801   6.013   0.827
 9612SOL     OW29734   5.645   3.414   2.885
 9612SOL    HW129735   5.643   3.481   2.811
 9612SOL    HW229736   5.663   3.323   2.847
 9613SOL     OW29737   5.455   6.341   5.700
 9613SOL    HW129738   5.518   6.415   5.678
 9613SOL    HW229739   5.495   6.254   5.674
 9614SOL     OW29740   3.094   2.996   2.266
 9614SOL    HW129741   3.100   3.030   2.173
 9614SOL    HW229742   3.007   3.023   2.307
 9615SOL     OW29743   0.809   6.086   4.239
 9615SOL    HW129744   0.775   6.179   4.221
 9615SOL    HW229745   0.842   6.046   4.153
 9616SOL     OW29746   2.420   3.274   1.402
 9616SOL    HW129747   2.418   3.174   1.412
 9616SOL    HW229748   2.433   3.298   1.306
 9617SOL     OW29749   0.913   3.530   2.624
 9617SOL    HW129750   0.828   3.507   2.672
 9617SOL    HW229751   0.909   3.625   2.593
 9618SOL     OW29752   3.926   5.000   0.807
 9618SOL    HW129753   4.024   4.987   0.822
 9618SOL    HW229754   3.883   4.912   0.790
 9619SOL     OW29755   1.751   6.959   1.044
 9619SOL    HW129756   1.813   6.913   1.107
 9619SOL    HW229757   1.804   7.013   0.978
 9620SOL     OW29758   3.714   1.586   6.990
 9620SOL    HW129759   3.650   1.548   0.036
 9620SOL    HW229760   3.767   1.512   6.949
 9621SOL     OW29761   1.065   2.075   1.957
 9621SOL    HW129762   0.978   2.078   1.908
 9621SOL    HW229763   1.140   2.080   1.891
 9622SOL     OW29764   6.932   6.594   5.577
 9622SOL    HW129765   6.849   6.650   5.583
 9622SOL    HW229766   7.010   6.652   5.555
 9623SOL     OW29767   4.627   6.501   6.222
 9623SOL    HW129768   4.636   6.403   6.235
 9623SOL    HW229769   4.611   6.520   6.125
 9624SOL     OW29770   4.916   5.322   5.368
 9624SOL    HW129771   4.854   5.275   5.305
 9624SOL    HW229772   4.965   5.394   5.319
 9625SOL     OW29773   4.585   3.572   5.597
 9625SOL    HW129774   4.594   3.498   5.529
 9625SOL    HW229775   4.501   3.559   5.649
 9626SOL     OW29776   2.258   2.220   6.021
 9626SOL    HW129777   2.216   2.264   5.941
 9626SOL    HW229778   2.323   2.151   5.990
 9627SOL     OW29779   0.719   5.492   6.650
 9627SOL    HW129780   0.640   5.545   6.621
 9627SOL    HW229781   0.725   5.408   6.596
 9628SOL     OW29782   6.138   1.532   6.508
 9628SOL    HW129783   6.118   1.602   6.440
 9628SOL    HW229784   6.053   1.492   6.542
 9629SOL     OW29785   0.794   5.804   4.761
 9629SOL    HW129786   0.745   5.719   4.740
 9629SOL    HW229787   0.887   5.799   4.724
 9630SOL     OW29788   5.862   6.841   5.591
 9630SOL    HW129789   5.810   6.926   5.597
 9630SOL    HW229790   5.880   6.820   5.495
 9631SOL     OW29791   3.459   0.243   0.911
 9631SOL    HW129792   3.368   0.216   0.881
 9631SOL    HW229793   3.522   0.166   0.899
 9632SOL     OW29794   3.103   5.481   2.388
 9632SOL    HW129795   3.066   5.421   2.458
 9632SOL    HW229796   3.199   5.502   2.409
 9633SOL     OW29797   3.481   2.904   2.970
 9633SOL    HW129798   3.437   2.871   2.887
 9633SOL    HW229799   3.463   3.002   2.982
 9634SOL     OW29800   5.948   4.682   3.423
 9634SOL    HW129801   6.002   4.600   3.403
 9634SOL    HW229802   5.995   4.737   3.491
 9635SOL     OW29803   1.454   5.545   4.064
 9635SOL    HW129804   1.431   5.457   4.021
 9635SOL    HW229805   1.533   5.532   4.124
 9636SOL     OW29806   4.955   3.611   3.982
 9636SOL    HW129807   4.914   3.528   4.021
 9636SOL    HW229808   4.970   3.598   3.884
 9637SOL     OW29809   2.219   3.464   6.842
 9637SOL    HW129810   2.304   3.422   6.874
 9637SOL    HW229811   2.153   3.393   6.818
 9638SOL     OW29812   5.934   5.524   5.109
 9638SOL    HW129813   5.893   5.540   5.020
 9638SOL    HW229814   5.917   5.429   5.137
 9639SOL     OW29815   4.212   1.878   2.419
 9639SOL    HW129816   4.285   1.945   2.437
 9639SOL    HW229817   4.148   1.916   2.352
 9640SOL     OW29818   4.596   0.403   3.100
 9640SOL    HW129819   4.586   0.496   3.133
 9640SOL    HW229820   4.553   0.340   3.165
 9641SOL     OW29821   6.780   3.585   3.149
 9641SOL    HW129822   6.800   3.544   3.060
 9641SOL    HW229823   6.794   3.684   3.144
 9642SOL     OW29824   1.322   0.632   4.490
 9642SOL    HW129825   1.291   0.557   4.548
 9642SOL    HW229826   1.325   0.716   4.543
 9643SOL     OW29827   4.597   4.968   4.622
 9643SOL    HW129828   4.654   4.944   4.543
 9643SOL    HW229829   4.506   4.994   4.591
 9644SOL     OW29830   2.077   5.359   4.182
 9644SOL    HW129831   2.082   5.405   4.093
 9644SOL    HW229832   2.133   5.277   4.180
 9645SOL     OW29833   0.547   4.867   5.957
 9645SOL    HW129834   0.614   4.813   6.008
 9645SOL    HW229835   0.457   4.859   6.001
 9646SOL     OW29836   3.752   5.276   6.057
 9646SOL    HW129837   3.728   5.187   6.096
 9646SOL    HW229838   3.703   5.348   6.106
 9647SOL     OW29839   6.975   0.034   3.469
 9647SOL    HW129840   6.892   0.012   3.418
 9647SOL    HW229841   7.011   6.972   3.512
 9648SOL     OW29842   4.168   2.552   0.929
 9648SOL    HW129843   4.089   2.613   0.929
 9648SOL    HW229844   4.152   2.476   0.992
 9649SOL     OW29845   1.058   6.103   6.713
 9649SOL    HW129846   1.060   6.136   6.807
 9649SOL    HW229847   1.010   6.015   6.710
 9650SOL     OW29848   6.830   4.400   4.429
 9650SOL    HW129849   6.779   4.486   4.421
 9650SOL    HW229850   6.769   4.323   4.410
 9651SOL     OW29851   4.058   1.693   0.191
 9651SOL    HW129852   3.978   1.747   0.218
 9651SOL    HW229853   4.127   1.753   0.150
 9652SOL     OW29854   0.043   3.902   0.280
 9652SOL    HW129855   0.023   3.809   0.311
 9652SOL    HW229856   6.989   3.936   0.224
 9653SOL     OW29857   4.300   4.600   6.102
 9653SOL    HW129858   4.281   4.657   6.182
 9653SOL    HW229859   4.377   4.539   6.123
 9654SOL     OW29860   3.134   3.552   3.112
 9654SOL    HW129861   3.085   3.551   3.025
 9654SOL    HW229862   3.069   3.550   3.188
 9655SOL     OW29863   3.965   1.189   1.375
 9655SOL    HW129864   3.870   1.219   1.371
 9655SOL    HW229865   4.025   1.269   1.368
 9656SOL     OW29866   5.941   3.624   0.117
 9656SOL    HW129867   5.885   3.542   0.129
 9656SOL    HW229868   5.936   3.655   0.022
 9657SOL     OW29869   6.274   4.404   3.536
 9657SOL    HW129870   6.276   4.394   3.636
 9657SOL    HW229871   6.286   4.500   3.512
 9658SOL     OW29872   4.860   2.439   2.907
 9658SOL    HW129873   4.921   2.379   2.959
 9658SOL    HW229874   4.842   2.521   2.960
 9659SOL     OW29875   2.812   3.219   0.212
 9659SOL    HW129876   2.859   3.301   0.242
 9659SOL    HW229877   2.859   3.182   0.132
 9660SOL     OW29878   1.716   5.899   1.880
 9660SOL    HW129879   1.649   5.851   1.824
 9660SOL    HW229880   1.750   5.979   1.830
 9661SOL     OW29881   4.693   4.329   1.054
 9661SOL    HW129882   4.661   4.408   1.108
 9661SOL    HW229883   4.713   4.253   1.116
 9662SOL     OW29884   5.487   5.435   6.176
 9662SOL    HW129885   5.420   5.371   6.138
 9662SOL    HW229886   5.566   5.385   6.208
 9663SOL     OW29887   0.870   5.474   2.910
 9663SOL    HW129888   0.862   5.379   2.940
 9663SOL    HW229889   0.953   5.485   2.856
 9664SOL     OW29890   5.097   4.547   2.506
 9664SOL    HW129891   5.140   4.470   2.554
 9664SOL    HW229892   5.016   4.515   2.458
 9665SOL     OW29893   6.694   5.929   6.188
 9665SOL    HW129894   6.596   5.913   6.176
 9665SOL    HW229895   6.710   6.027   6.203
 9666SOL     OW29896   6.285   3.792   0.400
 9666SOL    HW129897   6.214   3.862   0.385
 9666SOL    HW229898   6.325   3.805   0.491
 9667SOL     OW29899   6.213   5.941   6.330
 9667SOL    HW129900   6.193   6.003   6.254
 9667SOL    HW229901   6.166   5.854   6.315
 9668SOL     OW29902   0.859   0.461   6.147
 9668SOL    HW129903   0.917   0.402   6.091
 9668SOL    HW229904   0.790   0.405   6.194
 9669SOL     OW29905   3.775   0.455   0.271
 9669SOL    HW129906   3.719   0.538   0.275
 9669SOL    HW229907   3.717   0.375   0.284
 9670SOL     OW29908   6.944   0.189   6.788
 9670SOL    HW129909   6.893   0.209   6.872
 9670SOL    HW229910   6.886   0.206   6.709
 9671SOL     OW29911   1.032   5.269   0.041
 9671SOL    HW129912   1.036   5.360   0.083
 9671SOL    HW229913   1.001   5.277   6.968
 9672SOL     OW29914   1.057   3.581   3.449
 9672SOL    HW129915   1.073   3.511   3.518
 9672SOL    HW229916   0.969   3.565   3.405
 9673SOL     OW29917   1.903   3.563   0.520
 9673SOL    HW129918   1.958   3.618   0.457
 9673SOL    HW229919   1.913   3.466   0.498
 9674SOL     OW29920   2.778   6.301   4.094
 9674SOL    HW129921   2.782   6.346   4.183
 9674SOL    HW229922   2.865   6.315   4.046
 9675SOL     OW29923   5.444   3.092   0.215
 9675SOL    HW129924   5.352   3.055   0.215
 9675SOL    HW229925   5.466   3.125   0.307
 9676SOL     OW29926   0.412   3.007   0.066
 9676SOL    HW129927   0.447   3.086   0.117
 9676SOL    HW229928   0.431   2.924   0.118
 9677SOL     OW29929   0.414   4.818   1.186
 9677SOL    HW129930   0.422   4.880   1.109
 9677SOL    HW229931   0.481   4.841   1.256
 9678SOL     OW29932   3.483   3.692   5.190
 9678SOL    HW129933   3.397   3.675   5.141
 9678SOL    HW229934   3.469   3.677   5.288
 9679SOL     OW29935   1.746   1.726   4.614
 9679SOL    HW129936   1.764   1.736   4.712
 9679SOL    HW229937   1.709   1.634   4.597
 9680SOL     OW29938   4.994   6.227   1.670
 9680SOL    HW129939   5.084   6.203   1.705
 9680SOL    HW229940   4.946   6.285   1.737
 9681SOL     OW29941   1.539   1.278   1.655
 9681SOL    HW129942   1.563   1.375   1.658
 9681SOL    HW229943   1.456   1.266   1.600
 9682SOL     OW29944   4.307   5.679   5.602
 9682SOL    HW129945   4.383   5.739   5.575
 9682SOL    HW229946   4.305   5.671   5.701
 9683SOL     OW29947   3.252   6.770   2.574
 9683SOL    HW129948   3.250   6.746   2.477
 9683SOL    HW229949   3.172   6.732   2.620
 9684SOL     OW29950   0.195   3.445   5.610
 9684SOL    HW129951   0.245   3.468   5.694
 9684SOL    HW229952   0.097   3.457   5.626
 9685SOL     OW29953   3.822   4.094   1.479
 9685SOL    HW129954   3.737   4.145   1.463
 9685SOL    HW229955   3.847   4.101   1.576
 9686SOL     OW29956   6.443   1.860   5.756
 9686SOL    HW129957   6.504   1.813   5.693
 9686SOL    HW229958   6.378   1.916   5.705
 9687SOL     OW29959   6.021   1.720   2.697
 9687SOL    HW129960   5.953   1.646   2.698
 9687SOL    HW229961   6.027   1.760   2.789
 9688SOL     OW29962   0.159   4.701   1.196
 9688SOL    HW129963   0.231   4.765   1.170
 9688SOL    HW229964   0.168   4.617   1.142
 9689SOL     OW29965   1.962   6.025   1.280
 9689SOL    HW129966   1.926   6.009   1.189
 9689SOL    HW229967   2.039   5.963   1.297
 9690SOL     OW29968   6.370   5.538   4.708
 9690SOL    HW129969   6.425   5.618   4.683
 9690SOL    HW229970   6.382   5.466   4.640
 9691SOL     OW29971   2.997   3.806   1.846
 9691SOL    HW129972   3.068   3.839   1.784
 9691SOL    HW229973   2.960   3.720   1.811
 9692SOL     OW29974   5.061   4.372   1.332
 9692SOL    HW129975   4.964   4.349   1.339
 9692SOL    HW229976   5.075   4.468   1.355
 9693SOL     OW29977   5.398   3.422   4.708
 9693SOL    HW129978   5.400   3.491   4.780
 9693SOL    HW229979   5.489   3.414   4.667
 9694SOL     OW29980   2.959   6.716   2.441
 9694SOL    HW129981   2.941   6.712   2.343
 9694SOL    HW229982   2.986   6.625   2.474
 9695SOL     OW29983   0.823   2.381   3.181
 9695SOL    HW129984   0.891   2.355   3.250
 9695SOL    HW229985   0.742   2.324   3.190
 9696SOL     OW29986   5.107   2.525   3.089
 9696SOL    HW129987   5.079   2.430   3.073
 9696SOL    HW229988   5.100   2.576   3.004
 9697SOL     OW29989   0.969   6.726   0.963
 9697SOL    HW129990   1.065   6.707   0.984
 9697SOL    HW229991   0.940   6.809   1.011
 9698SOL     OW29992   6.152   3.422   1.610
 9698SOL    HW129993   6.197   3.363   1.676
 9698SOL    HW229994   6.219   3.454   1.543
 9699SOL     OW29995   1.251   5.685   0.727
 9699SOL    HW129996   1.249   5.737   0.641
 9699SOL    HW229997   1.161   5.688   0.769
 9700SOL     OW29998   5.460   0.282   5.182
 9700SOL    HW129999   5.547   0.236   5.200
 9700SOL    HW230000   5.403   0.279   5.264
 9701SOL     OW30001   4.511   3.436   6.451
 9701SOL    HW130002   4.482   3.532   6.460
 9701SOL    HW230003   4.467   3.381   6.522
 9702SOL     OW30004   3.840   3.707   2.001
 9702SOL    HW130005   3.879   3.651   1.928
 9702SOL    HW230006   3.914   3.756   2.049
 9703SOL     OW30007   6.418   4.197   4.857
 9703SOL    HW130008   6.434   4.127   4.927
 9703SOL    HW230009   6.496   4.259   4.853
 9704SOL     OW30010   1.820   3.994   2.748
 9704SOL    HW130011   1.785   3.914   2.699
 9704SOL    HW230012   1.802   4.076   2.693
 9705SOL     OW30013   6.117   3.206   5.643
 9705SOL    HW130014   6.114   3.283   5.580
 9705SOL    HW230015   6.025   3.187   5.677
 9706SOL     OW30016   0.653   1.402   2.420
 9706SOL    HW130017   0.658   1.309   2.384
 9706SOL    HW230018   0.716   1.461   2.369
 9707SOL     OW30019   1.146   4.540   2.399
 9707SOL    HW130020   1.049   4.561   2.397
 9707SOL    HW230021   1.197   4.622   2.428
 9708SOL     OW30022   2.140   0.307   1.851
 9708SOL    HW130023   2.062   0.351   1.894
 9708SOL    HW230024   2.215   0.299   1.917
 9709SOL     OW30025   4.952   2.232   1.532
 9709SOL    HW130026   4.978   2.192   1.620
 9709SOL    HW230027   4.874   2.183   1.495
 9710SOL     OW30028   6.978   5.521   3.543
 9710SOL    HW130029   6.980   5.428   3.580
 9710SOL    HW230030   6.949   5.518   3.447
 9711SOL     OW30031   3.887   0.756   0.848
 9711SOL    HW130032   3.848   0.707   0.926
 9711SOL    HW230033   3.813   0.796   0.794
 9712SOL     OW30034   5.680   2.014   6.600
 9712SOL    HW130035   5.646   1.995   6.692
 9712SOL    HW230036   5.760   1.956   6.581
 9713SOL     OW30037   0.813   6.980   3.191
 9713SOL    HW130038   0.822   6.958   3.093
 9713SOL    HW230039   0.717   6.997   3.213
 9714SOL     OW30040   2.394   4.524   4.087
 9714SOL    HW130041   2.478   4.571   4.116
 9714SOL    HW230042   2.348   4.486   4.167
 9715SOL     OW30043   6.543   3.472   6.481
 9715SOL    HW130044   6.479   3.534   6.436
 9715SOL    HW230045   6.630   3.472   6.433
 9716SOL     OW30046   2.380   5.191   6.887
 9716SOL    HW130047   2.296   5.175   6.835
 9716SOL    HW230048   2.366   5.265   6.953
 9717SOL     OW30049   3.881   2.016   5.366
 9717SOL    HW130050   3.819   2.080   5.320
 9717SOL    HW230051   3.875   1.926   5.322
 9718SOL     OW30052   3.703   3.008   6.641
 9718SOL    HW130053   3.609   2.984   6.666
 9718SOL    HW230054   3.764   2.932   6.664
 9719SOL     OW30055   4.588   0.038   5.550
 9719SOL    HW130056   4.653   0.072   5.617
 9719SOL    HW230057   4.631   0.035   5.460
 9720SOL     OW30058   1.898   3.434   3.252
 9720SOL    HW130059   1.919   3.443   3.155
 9720SOL    HW230060   1.800   3.450   3.266
 9721SOL     OW30061   0.825   1.219   0.109
 9721SOL    HW130062   0.774   1.262   0.183
 9721SOL    HW230063   0.891   1.154   0.147
 9722SOL     OW30064   4.066   3.038   5.358
 9722SOL    HW130065   4.057   3.070   5.453
 9722SOL    HW230066   4.030   2.945   5.352
 9723SOL     OW30067   6.686   6.478   4.981
 9723SOL    HW130068   6.599   6.478   4.930
 9723SOL    HW230069   6.762   6.477   4.917
 9724SOL     OW30070   1.453   5.326   0.049
 9724SOL    HW130071   1.391   5.400   0.025
 9724SOL    HW230072   1.518   5.312   6.996
 9725SOL     OW30073   4.208   5.438   5.878
 9725SOL    HW130074   4.157   5.509   5.925
 9725SOL    HW230075   4.184   5.348   5.915
 9726SOL     OW30076   6.790   1.223   4.146
 9726SOL    HW130077   6.761   1.281   4.070
 9726SOL    HW230078   6.865   1.164   4.116
 9727SOL     OW30079   0.085   1.261   0.602
 9727SOL    HW130080   0.096   1.351   0.643
 9727SOL    HW230081   0.133   1.258   0.514
 9728SOL     OW30082   4.552   1.855   5.257
 9728SOL    HW130083   4.554   1.932   5.322
 9728SOL    HW230084   4.634   1.800   5.268
 9729SOL     OW30085   0.515   4.930   2.750
 9729SOL    HW130086   0.587   4.934   2.681
 9729SOL    HW230087   0.427   4.915   2.706
 9730SOL     OW30088   0.320   3.988   2.973
 9730SOL    HW130089   0.326   4.034   3.061
 9730SOL    HW230090   0.225   3.985   2.943
 9731SOL     OW30091   5.417   3.483   2.015
 9731SOL    HW130092   5.386   3.429   1.936
 9731SOL    HW230093   5.359   3.462   2.094
 9732SOL     OW30094   1.892   3.052   3.066
 9732SOL    HW130095   1.952   2.998   3.125
 9732SOL    HW230096   1.939   3.136   3.039
 9733SOL     OW30097   6.252   4.712   2.064
 9733SOL    HW130098   6.235   4.676   2.156
 9733SOL    HW230099   6.319   4.786   2.070
 9734SOL     OW30100   6.174   6.111   6.096
 9734SOL    HW130101   6.130   6.078   6.012
 9734SOL    HW230102   6.251   6.170   6.072
 9735SOL     OW30103   0.800   2.743   0.994
 9735SOL    HW130104   0.717   2.693   1.021
 9735SOL    HW230105   0.833   2.797   1.071
 9736SOL     OW30106   5.236   1.606   4.570
 9736SOL    HW130107   5.300   1.636   4.499
 9736SOL    HW230108   5.166   1.548   4.530
 9737SOL     OW30109   5.826   2.914   2.992
 9737SOL    HW130110   5.845   3.012   2.999
 9737SOL    HW230111   5.738   2.900   2.948
 9738SOL     OW30112   2.312   6.167   1.756
 9738SOL    HW130113   2.354   6.081   1.785
 9738SOL    HW230114   2.281   6.218   1.837
 9739SOL     OW30115   5.766   0.158   6.913
 9739SOL    HW130116   5.788   0.254   6.897
 9739SOL    HW230117   5.783   0.136   7.009
 9740SOL     OW30118   6.001   0.433   2.633
 9740SOL    HW130119   6.004   0.532   2.646
 9740SOL    HW230120   6.085   0.392   2.669
 9741SOL     OW30121   2.613   1.528   4.477
 9741SOL    HW130122   2.564   1.564   4.557
 9741SOL    HW230123   2.561   1.452   4.438
 9742SOL     OW30124   3.845   1.693   6.032
 9742SOL    HW130125   3.869   1.663   5.940
 9742SOL    HW230126   3.746   1.685   6.046
 9743SOL     OW30127   4.907   3.524   4.292
 9743SOL    HW130128   4.966   3.444   4.302
 9743SOL    HW230129   4.928   3.570   4.206
 9744SOL     OW30130   1.568   0.595   3.833
 9744SOL    HW130131   1.554   0.681   3.882
 9744SOL    HW230132   1.601   0.614   3.741
 9745SOL     OW30133   0.116   0.324   5.750
 9745SOL    HW130134   0.149   0.260   5.681
 9745SOL    HW230135   0.087   0.274   5.832
 9746SOL     OW30136   4.449   5.445   6.466
 9746SOL    HW130137   4.440   5.487   6.375
 9746SOL    HW230138   4.403   5.357   6.467
 9747SOL     OW30139   2.625   1.993   2.971
 9747SOL    HW130140   2.669   1.952   3.050
 9747SOL    HW230141   2.544   2.044   3.000
 9748SOL     OW30142   1.805   1.453   3.788
 9748SOL    HW130143   1.795   1.361   3.827
 9748SOL    HW230144   1.881   1.452   3.722
 9749SOL     OW30145   6.607   1.333   2.039
 9749SOL    HW130146   6.511   1.361   2.037
 9749SOL    HW230147   6.664   1.412   2.059
 9750SOL     OW30148   6.704   3.236   4.249
 9750SOL    HW130149   6.741   3.322   4.213
 9750SOL    HW230150   6.614   3.219   4.208
 9751SOL     OW30151   2.891   0.319   1.615
 9751SOL    HW130152   2.904   0.392   1.548
 9751SOL    HW230153   2.953   0.243   1.594
 9752SOL     OW30154   3.444   3.290   6.619
 9752SOL    HW130155   3.499   3.282   6.536
 9752SOL    HW230156   3.356   3.330   6.597
 9753SOL     OW30157   6.972   6.235   5.072
 9753SOL    HW130158   6.898   6.303   5.066
 9753SOL    HW230159   6.960   6.167   5.000
 9754SOL     OW30160   3.309   1.093   1.680
 9754SOL    HW130161   3.353   1.007   1.654
 9754SOL    HW230162   3.275   1.140   1.599
 9755SOL     OW30163   3.099   4.572   0.322
 9755SOL    HW130164   3.031   4.617   0.380
 9755SOL    HW230165   3.159   4.640   0.281
 9756SOL     OW30166   6.023   0.253   6.115
 9756SOL    HW130167   5.965   0.177   6.085
 9756SOL    HW230168   6.117   0.237   6.085
 9757SOL     OW30169   5.261   4.308   4.313
 9757SOL    HW130170   5.200   4.346   4.244
 9757SOL    HW230171   5.210   4.245   4.371
 9758SOL     OW30172   1.863   0.301   1.738
 9758SOL    HW130173   1.778   0.248   1.747
 9758SOL    HW230174   1.883   0.347   1.825
 9759SOL     OW30175   6.924   1.147   1.337
 9759SOL    HW130176   6.957   1.240   1.351
 9759SOL    HW230177   6.945   1.092   1.418
 9760SOL     OW30178   4.330   1.049   6.934
 9760SOL    HW130179   4.285   1.087   7.015
 9760SOL    HW230180   4.306   1.103   6.853
 9761SOL     OW30181   1.348   1.954   0.873
 9761SOL    HW130182   1.297   2.026   0.920
 9761SOL    HW230183   1.374   1.985   0.782
 9762SOL     OW30184   2.546   1.645   5.821
 9762SOL    HW130185   2.607   1.646   5.742
 9762SOL    HW230186   2.529   1.550   5.849
 9763SOL     OW30187   6.284   0.877   0.571
 9763SOL    HW130188   6.260   0.808   0.640
 9763SOL    HW230189   6.371   0.920   0.596
 9764SOL     OW30190   6.744   2.491   2.093
 9764SOL    HW130191   6.711   2.585   2.098
 9764SOL    HW230192   6.804   2.482   2.014
 9765SOL     OW30193   6.346   0.471   1.953
 9765SOL    HW130194   6.342   0.546   2.020
 9765SOL    HW230195   6.394   0.503   1.871
 9766SOL     OW30196   2.371   2.200   4.863
 9766SOL    HW130197   2.398   2.239   4.950
 9766SOL    HW230198   2.435   2.127   4.838
 9767SOL     OW30199   2.093   3.141   5.745
 9767SOL    HW130200   2.153   3.078   5.695
 9767SOL    HW230201   2.143   3.225   5.765
 9768SOL     OW30202   5.796   3.034   1.424
 9768SOL    HW130203   5.796   2.936   1.402
 9768SOL    HW230204   5.733   3.081   1.362
 9769SOL     OW30205   3.034   1.948   5.182
 9769SOL    HW130206   3.101   1.951   5.257
 9769SOL    HW230207   2.990   2.037   5.172
 9770SOL     OW30208   2.926   2.672   6.451
 9770SOL    HW130209   2.885   2.601   6.393
 9770SOL    HW230210   3.024   2.679   6.431
 9771SOL     OW30211   3.073   6.252   2.679
 9771SOL    HW130212   3.129   6.294   2.751
 9771SOL    HW230213   3.079   6.307   2.596
 9772SOL     OW30214   1.397   0.361   1.320
 9772SOL    HW130215   1.456   0.414   1.381
 9772SOL    HW230216   1.324   0.319   1.373
 9773SOL     OW30217   5.231   4.593   2.255
 9773SOL    HW130218   5.175   4.589   2.338
 9773SOL    HW230219   5.312   4.536   2.266
 9774SOL     OW30220   1.268   5.415   5.046
 9774SOL    HW130221   1.215   5.339   5.084
 9774SOL    HW230222   1.365   5.391   5.043
 9775SOL     OW30223   2.267   1.553   3.700
 9775SOL    HW130224   2.181   1.513   3.668
 9775SOL    HW230225   2.250   1.643   3.739
 9776SOL     OW30226   2.250   5.365   0.023
 9776SOL    HW130227   2.179   5.348   0.091
 9776SOL    HW230228   2.279   5.461   0.028
 9777SOL     OW30229   4.583   0.897   5.406
 9777SOL    HW130230   4.501   0.849   5.438
 9777SOL    HW230231   4.580   0.992   5.437
 9778SOL     OW30232   0.294   3.565   4.248
 9778SOL    HW130233   0.329   3.531   4.160
 9778SOL    HW230234   0.223   3.632   4.230
 9779SOL     OW30235   2.027   0.841   3.978
 9779SOL    HW130236   1.989   0.749   3.979
 9779SOL    HW230237   2.054   0.867   4.071
 9780SOL     OW30238   1.085   2.477   1.555
 9780SOL    HW130239   1.072   2.394   1.501
 9780SOL    HW230240   1.074   2.456   1.652
 9781SOL     OW30241   2.076   2.564   3.363
 9781SOL    HW130242   2.125   2.477   3.352
 9781SOL    HW230243   2.136   2.629   3.411
 9782SOL     OW30244   6.696   2.380   1.274
 9782SOL    HW130245   6.776   2.328   1.304
 9782SOL    HW230246   6.717   2.478   1.277
 9783SOL     OW30247   3.620   1.201   3.272
 9783SOL    HW130248   3.685   1.139   3.228
 9783SOL    HW230249   3.598   1.168   3.364
 9784SOL     OW30250   1.615   1.289   6.177
 9784SOL    HW130251   1.564   1.286   6.091
 9784SOL    HW230252   1.709   1.261   6.161
 9785SOL     OW30253   0.503   3.290   4.976
 9785SOL    HW130254   0.412   3.274   4.936
 9785SOL    HW230255   0.494   3.312   5.073
 9786SOL     OW30256   2.103   4.205   0.816
 9786SOL    HW130257   2.192   4.242   0.845
 9786SOL    HW230258   2.033   4.232   0.881
 9787SOL     OW30259   3.297   3.712   3.415
 9787SOL    HW130260   3.283   3.769   3.334
 9787SOL    HW230261   3.345   3.628   3.388
 9788SOL     OW30262   5.168   6.481   1.906
 9788SOL    HW130263   5.236   6.469   1.978
 9788SOL    HW230264   5.202   6.440   1.821
 9789SOL     OW30265   3.814   0.888   6.084
 9789SOL    HW130266   3.767   0.869   5.998
 9789SOL    HW230267   3.876   0.813   6.106
 9790SOL     OW30268   0.370   4.507   3.997
 9790SOL    HW130269   0.283   4.468   4.026
 9790SOL    HW230270   0.435   4.505   4.074
 9791SOL     OW30271   1.273   6.632   0.883
 9791SOL    HW130272   1.244   6.616   0.789
 9791SOL    HW230273   1.361   6.587   0.900
 9792SOL     OW30274   4.161   6.495   0.315
 9792SOL    HW130275   4.145   6.398   0.298
 9792SOL    HW230276   4.090   6.531   0.376
 9793SOL     OW30277   5.552   1.052   3.216
 9793SOL    HW130278   5.627   0.992   3.241
 9793SOL    HW230279   5.470   0.998   3.199
 9794SOL     OW30280   4.455   4.946   4.881
 9794SOL    HW130281   4.504   4.983   4.803
 9794SOL    HW230282   4.403   4.866   4.853
 9795SOL     OW30283   1.694   3.860   3.088
 9795SOL    HW130284   1.671   3.809   3.005
 9795SOL    HW230285   1.792   3.874   3.092
 9796SOL     OW30286   3.613   3.765   3.684
 9796SOL    HW130287   3.627   3.788   3.587
 9796SOL    HW230288   3.694   3.718   3.719
 9797SOL     OW30289   3.087   5.860   6.811
 9797SOL    HW130290   3.124   5.933   6.754
 9797SOL    HW230291   3.136   5.856   6.897
 9798SOL     OW30292   0.989   3.911   0.256
 9798SOL    HW130293   0.893   3.935   0.241
 9798SOL    HW230294   1.045   3.950   0.183
 9799SOL     OW30295   3.009   0.137   6.710
 9799SOL    HW130296   2.991   0.048   6.752
 9799SOL    HW230297   2.961   0.208   6.762
 9800SOL     OW30298   6.328   3.606   4.756
 9800SOL    HW130299   6.369   3.514   4.761
 9800SOL    HW230300   6.371   3.657   4.682
 9801SOL     OW30301   6.371   6.161   6.713
 9801SOL    HW130302   6.412   6.244   6.751
 9801SOL    HW230303   6.443   6.099   6.684
 9802SOL     OW30304   3.932   4.688   0.339
 9802SOL    HW130305   3.907   4.642   0.424
 9802SOL    HW230306   4.020   4.736   0.352
 9803SOL     OW30307   0.741   3.864   6.932
 9803SOL    HW130308   0.721   3.800   6.858
 9803SOL    HW230309   0.677   3.941   6.928
 9804SOL     OW30310   0.091   5.679   2.466
 9804SOL    HW130311   0.188   5.667   2.442
 9804SOL    HW230312   0.051   5.749   2.407
 9805SOL     OW30313   0.864   6.453   3.902
 9805SOL    HW130314   0.816   6.401   3.832
 9805SOL    HW230315   0.898   6.391   3.972
 9806SOL     OW30316   3.301   1.820   6.347
 9806SOL    HW130317   3.324   1.722   6.351
 9806SOL    HW230318   3.207   1.830   6.313
 9807SOL     OW30319   3.301   3.603   1.958
 9807SOL    HW130320   3.258   3.678   2.008
 9807SOL    HW230321   3.393   3.630   1.929
 9808SOL     OW30322   4.119   5.819   2.859
 9808SOL    HW130323   4.209   5.843   2.822
 9808SOL    HW230324   4.076   5.752   2.798
 9809SOL     OW30325   6.977   3.130   0.978
 9809SOL    HW130326   6.890   3.114   1.024
 9809SOL    HW230327   6.961   3.184   0.896
 9810SOL     OW30328   2.350   1.500   6.616
 9810SOL    HW130329   2.305   1.516   6.704
 9810SOL    HW230330   2.367   1.587   6.570
 9811SOL     OW30331   6.546   3.899   3.809
 9811SOL    HW130332   6.501   3.928   3.894
 9811SOL    HW230333   6.479   3.895   3.735
 9812SOL     OW30334   3.322   6.146   5.129
 9812SOL    HW130335   3.268   6.226   5.155
 9812SOL    HW230336   3.366   6.162   5.041
 9813SOL     OW30337   4.943   2.421   1.261
 9813SOL    HW130338   4.944   2.520   1.253
 9813SOL    HW230339   4.998   2.394   1.341
 9814SOL     OW30340   5.866   1.199   0.536
 9814SOL    HW130341   5.810   1.119   0.515
 9814SOL    HW230342   5.819   1.282   0.505
 9815SOL     OW30343   4.472   2.200   4.994
 9815SOL    HW130344   4.394   2.186   4.933
 9815SOL    HW230345   4.525   2.116   5.001
 9816SOL     OW30346   1.782   6.745   0.206
 9816SOL    HW130347   1.685   6.726   0.193
 9816SOL    HW230348   1.820   6.786   0.122
 9817SOL     OW30349   6.957   6.750   3.289
 9817SOL    HW130350   6.881   6.797   3.244
 9817SOL    HW230351   0.017   6.756   3.233
 9818SOL     OW30352   6.928   2.462   4.209
 9818SOL    HW130353   6.959   2.490   4.299
 9818SOL    HW230354   6.949   2.365   4.195
 9819SOL     OW30355   3.662   1.351   3.620
 9819SOL    HW130356   3.599   1.429   3.619
 9819SOL    HW230357   3.736   1.369   3.685
 9820SOL     OW30358   4.653   3.751   5.816
 9820SOL    HW130359   4.684   3.833   5.768
 9820SOL    HW230360   4.654   3.674   5.753
 9821SOL     OW30361   5.994   5.519   0.179
 9821SOL    HW130362   5.920   5.578   0.147
 9821SOL    HW230363   5.961   5.426   0.189
 9822SOL     OW30364   0.649   6.629   2.806
 9822SOL    HW130365   0.566   6.660   2.759
 9822SOL    HW230366   0.700   6.568   2.745
 9823SOL     OW30367   3.166   1.017   1.880
 9823SOL    HW130368   3.228   1.043   1.806
 9823SOL    HW230369   3.076   0.997   1.841
 9824SOL     OW30370   1.460   4.526   4.906
 9824SOL    HW130371   1.467   4.485   4.815
 9824SOL    HW230372   1.366   4.520   4.938
 9825SOL     OW30373   3.951   4.663   5.340
 9825SOL    HW130374   3.968   4.720   5.421
 9825SOL    HW230375   3.854   4.642   5.333
 9826SOL     OW30376   4.185   6.974   5.712
 9826SOL    HW130377   4.090   6.992   5.687
 9826SOL    HW230378   4.232   6.933   5.634
 9827SOL     OW30379   0.832   3.822   4.671
 9827SOL    HW130380   0.876   3.739   4.705
 9827SOL    HW230381   0.733   3.813   4.680
 9828SOL     OW30382   3.862   2.156   6.993
 9828SOL    HW130383   3.770   2.161   0.010
 9828SOL    HW230384   3.863   2.091   6.917
 9829SOL     OW30385   2.129   5.925   0.500
 9829SOL    HW130386   2.099   5.862   0.571
 9829SOL    HW230387   2.118   5.882   0.410
 9830SOL     OW30388   5.977   1.482   1.868
 9830SOL    HW130389   5.896   1.488   1.810
 9830SOL    HW230390   6.022   1.395   1.853
 9831SOL     OW30391   0.299   6.937   1.916
 9831SOL    HW130392   0.307   0.015   1.908
 9831SOL    HW230393   0.389   6.895   1.902
 9832SOL     OW30394   4.481   5.200   1.763
 9832SOL    HW130395   4.508   5.296   1.760
 9832SOL    HW230396   4.500   5.162   1.853
 9833SOL     OW30397   3.612   3.923   5.265
 9833SOL    HW130398   3.564   3.845   5.224
 9833SOL    HW230399   3.588   3.930   5.362
 9834SOL     OW30400   0.960   3.742   4.997
 9834SOL    HW130401   1.050   3.721   5.035
 9834SOL    HW230402   0.948   3.695   4.910
 9835SOL     OW30403   4.945   1.523   4.462
 9835SOL    HW130404   4.982   1.512   4.370
 9835SOL    HW230405   4.853   1.562   4.457
 9836SOL     OW30406   5.278   4.574   3.584
 9836SOL    HW130407   5.366   4.526   3.581
 9836SOL    HW230408   5.281   4.644   3.655
 9837SOL     OW30409   2.447   6.797   4.574
 9837SOL    HW130410   2.351   6.787   4.598
 9837SOL    HW230411   2.490   6.865   4.634
 9838SOL     OW30412   1.117   6.356   5.999
 9838SOL    HW130413   1.168   6.407   5.930
 9838SOL    HW230414   1.178   6.330   6.074
 9839SOL     OW30415   0.007   1.383   1.379
 9839SOL    HW130416   0.096   1.353   1.414
 9839SOL    HW230417   0.015   1.405   1.282
 9840SOL     OW30418   6.933   0.352   0.995
 9840SOL    HW130419   6.900   0.330   1.086
 9840SOL    HW230420   0.000   0.399   1.001
 9841SOL     OW30421   1.448   4.086   4.804
 9841SOL    HW130422   1.412   4.179   4.818
 9841SOL    HW230423   1.522   4.090   4.737
 9842SOL     OW30424   3.045   3.166   2.611
 9842SOL    HW130425   3.074   3.070   2.616
 9842SOL    HW230426   3.022   3.198   2.703
 9843SOL     OW30427   6.797   1.853   1.206
 9843SOL    HW130428   6.741   1.935   1.218
 9843SOL    HW230429   6.755   1.776   1.255
 9844SOL     OW30430   4.742   0.257   2.479
 9844SOL    HW130431   4.696   0.171   2.459
 9844SOL    HW230432   4.679   0.319   2.526
 9845SOL     OW30433   2.282   2.060   4.095
 9845SOL    HW130434   2.334   2.111   4.028
 9845SOL    HW230435   2.186   2.056   4.067
 9846SOL     OW30436   3.145   4.028   3.337
 9846SOL    HW130437   3.153   4.000   3.241
 9846SOL    HW230438   3.053   4.009   3.370
 9847SOL     OW30439   1.964   3.747   7.021
 9847SOL    HW130440   1.918   3.827   6.981
 9847SOL    HW230441   1.908   3.710   0.074
 9848SOL     OW30442   4.584   2.793   6.970
 9848SOL    HW130443   4.538   2.821   0.033
 9848SOL    HW230444   4.613   2.698   6.978
 9849SOL     OW30445   6.313   6.884   6.420
 9849SOL    HW130446   6.249   6.890   6.497
 9849SOL    HW230447   6.274   6.930   6.340
 9850SOL     OW30448   3.949   6.958   2.453
 9850SOL    HW130449   4.036   7.007   2.441
 9850SOL    HW230450   3.969   6.862   2.477
 9851SOL     OW30451   5.018   1.722   5.318
 9851SOL    HW130452   5.047   1.704   5.412
 9851SOL    HW230453   5.048   1.814   5.291
 9852SOL     OW30454   4.637   1.963   3.727
 9852SOL    HW130455   4.673   1.896   3.662
 9852SOL    HW230456   4.625   2.051   3.681
 9853SOL     OW30457   6.068   3.993   2.609
 9853SOL    HW130458   6.140   4.029   2.550
 9853SOL    HW230459   6.008   3.933   2.556
 9854SOL     OW30460   5.453   5.453   4.417
 9854SOL    HW130461   5.421   5.370   4.373
 9854SOL    HW230462   5.520   5.499   4.358
 9855SOL     OW30463   0.747   4.244   1.253
 9855SOL    HW130464   0.807   4.165   1.254
 9855SOL    HW230465   0.762   4.298   1.336
 9856SOL     OW30466   3.724   3.823   0.778
 9856SOL    HW130467   3.763   3.874   0.855
 9856SOL    HW230468   3.773   3.737   0.767
 9857SOL     OW30469   5.327   2.814   3.276
 9857SOL    HW130470   5.335   2.719   3.248
 9857SOL    HW230471   5.287   2.868   3.202
 9858SOL     OW30472   5.290   1.148   2.067
 9858SOL    HW130473   5.334   1.182   2.150
 9858SOL    HW230474   5.212   1.091   2.092
 9859SOL     OW30475   6.162   0.578   1.375
 9859SOL    HW130476   6.235   0.647   1.378
 9859SOL    HW230477   6.155   0.534   1.465
 9860SOL     OW30478   0.211   0.815   2.541
 9860SOL    HW130479   0.224   0.886   2.611
 9860SOL    HW230480   0.210   0.725   2.584
 9861SOL     OW30481   4.398   6.291   4.434
 9861SOL    HW130482   4.411   6.366   4.369
 9861SOL    HW230483   4.403   6.204   4.385
 9862SOL     OW30484   1.632   3.124   0.261
 9862SOL    HW130485   1.568   3.048   0.277
 9862SOL    HW230486   1.594   3.186   0.193
 9863SOL     OW30487   3.264   0.194   3.201
 9863SOL    HW130488   3.297   0.233   3.115
 9863SOL    HW230489   3.280   0.259   3.276
 9864SOL     OW30490   4.263   5.158   3.488
 9864SOL    HW130491   4.329   5.110   3.429
 9864SOL    HW230492   4.292   5.150   3.583
 9865SOL     OW30493   0.282   0.145   3.541
 9865SOL    HW130494   0.373   0.181   3.562
 9865SOL    HW230495   0.241   0.109   3.625
 9866SOL     OW30496   4.869   3.962   4.539
 9866SOL    HW130497   4.881   3.864   4.522
 9866SOL    HW230498   4.880   3.980   4.637
 9867SOL     OW30499   4.380   1.398   0.680
 9867SOL    HW130500   4.335   1.308   0.683
 9867SOL    HW230501   4.401   1.428   0.773
 9868SOL     OW30502   6.985   4.412   0.307
 9868SOL    HW130503   7.013   4.346   0.238
 9868SOL    HW230504   6.890   4.395   0.333
 9869SOL     OW30505   2.223   3.976   2.993
 9869SOL    HW130506   2.216   4.063   3.043
 9869SOL    HW230507   2.318   3.948   2.990
 9870SOL     OW30508   4.742   4.865   2.457
 9870SOL    HW130509   4.687   4.795   2.411
 9870SOL    HW230510   4.830   4.874   2.411
 9871SOL     OW30511   2.230   0.590   5.625
 9871SOL    HW130512   2.229   0.668   5.689
 9871SOL    HW230513   2.245   0.506   5.676
 9872SOL     OW30514   3.102   4.841   3.070
 9872SOL    HW130515   3.012   4.805   3.093
 9872SOL    HW230516   3.160   4.839   3.151
 9873SOL     OW30517   1.892   3.070   0.216
 9873SOL    HW130518   1.906   3.004   0.142
 9873SOL    HW230519   1.797   3.102   0.215
 9874SOL     OW30520   0.490   2.455   3.234
 9874SOL    HW130521   0.554   2.479   3.161
 9874SOL    HW230522   0.462   2.539   3.282
 9875SOL     OW30523   0.164   0.589   2.692
 9875SOL    HW130524   0.205   0.621   2.777
 9875SOL    HW230525   0.190   0.494   2.676
 9876SOL     OW30526   6.222   0.360   2.412
 9876SOL    HW130527   6.270   0.339   2.497
 9876SOL    HW230528   6.123   0.359   2.428
 9877SOL     OW30529   3.213   0.228   2.459
 9877SOL    HW130530   3.254   0.317   2.443
 9877SOL    HW230531   3.255   0.161   2.397
 9878SOL     OW30532   1.518   5.278   6.191
 9878SOL    HW130533   1.573   5.292   6.273
 9878SOL    HW230534   1.534   5.186   6.154
 9879SOL     OW30535   4.836   5.458   4.588
 9879SOL    HW130536   4.820   5.420   4.497
 9879SOL    HW230537   4.895   5.538   4.581
 9880SOL     OW30538   0.922   2.063   5.466
 9880SOL    HW130539   0.894   2.156   5.444
 9880SOL    HW230540   0.884   1.999   5.398
 9881SOL     OW30541   0.858   2.639   4.770
 9881SOL    HW130542   0.789   2.604   4.833
 9881SOL    HW230543   0.879   2.569   4.701
 9882SOL     OW30544   0.868   2.630   4.306
 9882SOL    HW130545   0.909   2.540   4.320
 9882SOL    HW230546   0.892   2.663   4.214
 9883SOL     OW30547   1.765   0.574   1.269
 9883SOL    HW130548   1.823   0.498   1.298
 9883SOL    HW230549   1.681   0.539   1.227
 9884SOL     OW30550   4.219   0.760   4.029
 9884SOL    HW130551   4.124   0.732   4.039
 9884SOL    HW230552   4.263   0.705   3.958
 9885SOL     OW30553   6.009   4.339   5.119
 9885SOL    HW130554   6.039   4.283   5.196
 9885SOL    HW230555   6.052   4.305   5.035
 9886SOL     OW30556   1.031   4.815   2.759
 9886SOL    HW130557   1.104   4.758   2.796
 9886SOL    HW230558   1.038   4.907   2.797
 9887SOL     OW30559   3.576   1.254   6.960
 9887SOL    HW130560   3.673   1.248   6.940
 9887SOL    HW230561   3.559   1.333   7.020
 9888SOL     OW30562   0.345   3.753   0.335
 9888SOL    HW130563   0.272   3.695   0.298
 9888SOL    HW230564   0.413   3.770   0.264
 9889SOL     OW30565   6.571   5.066   0.860
 9889SOL    HW130566   6.518   4.981   0.871
 9889SOL    HW230567   6.509   5.141   0.839
 9890SOL     OW30568   1.786   2.417   1.203
 9890SOL    HW130569   1.743   2.498   1.163
 9890SOL    HW230570   1.886   2.426   1.199
 9891SOL     OW30571   5.762   2.716   0.439
 9891SOL    HW130572   5.706   2.754   0.364
 9891SOL    HW230573   5.716   2.733   0.526
 9892SOL     OW30574   6.884   4.966   0.376
 9892SOL    HW130575   6.904   4.869   0.363
 9892SOL    HW230576   6.889   5.013   0.288
 9893SOL     OW30577   2.319   0.653   0.659
 9893SOL    HW130578   2.412   0.662   0.695
 9893SOL    HW230579   2.257   0.711   0.712
 9894SOL     OW30580   1.575   1.724   0.844
 9894SOL    HW130581   1.569   1.789   0.920
 9894SOL    HW230582   1.570   1.773   0.757
 9895SOL     OW30583   5.437   3.723   4.852
 9895SOL    HW130584   5.488   3.777   4.785
 9895SOL    HW230585   5.342   3.756   4.856
 9896SOL     OW30586   6.692   6.833   6.734
 9896SOL    HW130587   6.791   6.828   6.750
 9896SOL    HW230588   6.667   6.769   6.662
 9897SOL     OW30589   5.498   5.457   3.560
 9897SOL    HW130590   5.415   5.408   3.532
 9897SOL    HW230591   5.542   5.407   3.634
 9898SOL     OW30592   2.702   6.394   5.988
 9898SOL    HW130593   2.709   6.297   5.964
 9898SOL    HW230594   2.773   6.446   5.940
 9899SOL     OW30595   0.446   5.797   0.757
 9899SOL    HW130596   0.402   5.876   0.716
 9899SOL    HW230597   0.390   5.762   0.832
 9900SOL     OW30598   1.597   4.228   3.408
 9900SOL    HW130599   1.652   4.167   3.465
 9900SOL    HW230600   1.569   4.179   3.324
 9901SOL     OW30601   2.937   2.002   5.534
 9901SOL    HW130602   2.952   2.097   5.509
 9901SOL    HW230603   2.871   1.961   5.471
 9902SOL     OW30604   2.198   4.747   6.786
 9902SOL    HW130605   2.173   4.651   6.771
 9902SOL    HW230606   2.277   4.771   6.730
 9903SOL     OW30607   5.034   1.538   3.571
 9903SOL    HW130608   5.106   1.556   3.638
 9903SOL    HW230609   4.961   1.485   3.613
 9904SOL     OW30610   0.777   3.203   6.464
 9904SOL    HW130611   0.820   3.288   6.434
 9904SOL    HW230612   0.840   3.127   6.452
 9905SOL     OW30613   3.747   1.323   1.043
 9905SOL    HW130614   3.741   1.236   0.994
 9905SOL    HW230615   3.762   1.397   0.978
 9906SOL     OW30616   3.668   2.870   2.525
 9906SOL    HW130617   3.728   2.846   2.449
 9906SOL    HW230618   3.573   2.867   2.494
 9907SOL     OW30619   6.567   0.748   1.370
 9907SOL    HW130620   6.554   0.695   1.286
 9907SOL    HW230621   6.478   0.765   1.412
 9908SOL     OW30622   5.371   2.558   3.189
 9908SOL    HW130623   5.415   2.469   3.192
 9908SOL    HW230624   5.276   2.547   3.159
 9909SOL     OW30625   3.969   6.470   3.816
 9909SOL    HW130626   3.881   6.452   3.861
 9909SOL    HW230627   4.028   6.390   3.825
 9910SOL     OW30628   1.293   3.863   2.273
 9910SOL    HW130629   1.286   3.962   2.270
 9910SOL    HW230630   1.363   3.833   2.208
 9911SOL     OW30631   3.966   0.024   2.187
 9911SOL    HW130632   3.944   6.994   2.271
 9911SOL    HW230633   4.065   0.026   2.174
 9912SOL     OW30634   4.235   1.760   1.203
 9912SOL    HW130635   4.206   1.814   1.282
 9912SOL    HW230636   4.278   1.820   1.135
 9913SOL     OW30637   6.284   4.073   6.966
 9913SOL    HW130638   6.192   4.041   6.947
 9913SOL    HW230639   6.280   4.152   0.007
 9914SOL     OW30640   0.292   3.461   4.844
 9914SOL    HW130641   0.250   3.374   4.819
 9914SOL    HW230642   0.222   3.521   4.885
 9915SOL     OW30643   4.538   0.921   3.118
 9915SOL    HW130644   4.584   0.972   3.190
 9915SOL    HW230645   4.531   0.978   3.036
 9916SOL     OW30646   2.145   2.508   3.014
 9916SOL    HW130647   2.166   2.497   3.111
 9916SOL    HW230648   2.055   2.551   3.004
 9917SOL     OW30649   6.330   3.560   6.892
 9917SOL    HW130650   6.231   3.553   6.899
 9917SOL    HW230651   6.372   3.513   6.971
 9918SOL     OW30652   4.294   1.787   2.675
 9918SOL    HW130653   4.286   1.852   2.750
 9918SOL    HW230654   4.238   1.818   2.598
 9919SOL     OW30655   6.415   6.241   1.225
 9919SOL    HW130656   6.392   6.338   1.225
 9919SOL    HW230657   6.355   6.193   1.289
 9920SOL     OW30658   4.761   1.194   2.068
 9920SOL    HW130659   4.749   1.290   2.045
 9920SOL    HW230660   4.812   1.148   1.995
 9921SOL     OW30661   4.618   5.646   5.731
 9921SOL    HW130662   4.716   5.653   5.751
 9921SOL    HW230663   4.587   5.553   5.750
 9922SOL     OW30664   0.780   5.431   0.331
 9922SOL    HW130665   0.727   5.493   0.273
 9922SOL    HW230666   0.862   5.478   0.363
 9923SOL     OW30667   4.497   5.080   6.936
 9923SOL    HW130668   4.518   5.163   6.987
 9923SOL    HW230669   4.420   5.033   6.979
 9924SOL     OW30670   0.084   2.626   4.582
 9924SOL    HW130671   0.137   2.704   4.615
 9924SOL    HW230672   0.070   2.634   4.484
 9925SOL     OW30673   6.762   3.742   3.724
 9925SOL    HW130674   6.761   3.756   3.625
 9925SOL    HW230675   6.675   3.773   3.762
 9926SOL     OW30676   2.184   3.977   0.099
 9926SOL    HW130677   2.152   3.895   0.051
 9926SOL    HW230678   2.282   3.987   0.085
 9927SOL     OW30679   5.789   0.164   2.341
 9927SOL    HW130680   5.839   0.088   2.301
 9927SOL    HW230681   5.760   0.227   2.269
 9928SOL     OW30682   4.729   4.804   1.302
 9928SOL    HW130683   4.772   4.725   1.258
 9928SOL    HW230684   4.773   4.888   1.271
 9929SOL     OW30685   2.127   5.425   5.166
 9929SOL    HW130686   2.046   5.473   5.200
 9929SOL    HW230687   2.164   5.474   5.087
 9930SOL     OW30688   6.355   0.212   4.886
 9930SOL    HW130689   6.256   0.209   4.871
 9930SOL    HW230690   6.389   0.120   4.904
 9931SOL     OW30691   0.956   4.641   4.873
 9931SOL    HW130692   0.857   4.643   4.890
 9931SOL    HW230693   0.973   4.653   4.776
 9932SOL     OW30694   1.445   6.636   6.572
 9932SOL    HW130695   1.456   6.559   6.634
 9932SOL    HW230696   1.531   6.688   6.567
 9933SOL     OW30697   2.219   4.720   2.429
 9933SOL    HW130698   2.312   4.748   2.405
 9933SOL    HW230699   2.155   4.794   2.406
 9934SOL     OW30700   5.820   2.180   5.918
 9934SOL    HW130701   5.784   2.088   5.905
 9934SOL    HW230702   5.855   2.189   6.011
 9935SOL     OW30703   2.752   0.726   0.515
 9935SOL    HW130704   2.724   0.630   0.507
 9935SOL    HW230705   2.755   0.768   0.424
 9936SOL     OW30706   0.141   5.293   4.773
 9936SOL    HW130707   0.079   5.285   4.852
 9936SOL    HW230708   0.233   5.312   4.806
 9937SOL     OW30709   6.374   2.436   5.658
 9937SOL    HW130710   6.430   2.518   5.650
 9937SOL    HW230711   6.432   2.355   5.644
 9938SOL     OW30712   6.732   6.302   3.110
 9938SOL    HW130713   6.778   6.257   3.187
 9938SOL    HW230714   6.633   6.304   3.126
 9939SOL     OW30715   3.184   3.032   0.576
 9939SOL    HW130716   3.228   3.103   0.521
 9939SOL    HW230717   3.132   3.075   0.650
 9940SOL     OW30718   0.334   0.781   1.080
 9940SOL    HW130719   0.332   0.704   1.143
 9940SOL    HW230720   0.285   0.859   1.120
 9941SOL     OW30721   3.185   3.781   5.142
 9941SOL    HW130722   3.256   3.832   5.094
 9941SOL    HW230723   3.096   3.821   5.123
 9942SOL     OW30724   1.973   6.223   2.873
 9942SOL    HW130725   2.055   6.170   2.853
 9942SOL    HW230726   1.951   6.281   2.794
 9943SOL     OW30727   0.591   5.845   6.039
 9943SOL    HW130728   0.583   5.791   5.955
 9943SOL    HW230729   0.540   5.930   6.028
 9944SOL     OW30730   2.032   4.374   6.021
 9944SOL    HW130731   2.082   4.460   6.036
 9944SOL    HW230732   1.991   4.345   6.107
 9945SOL     OW30733   6.581   5.107   6.925
 9945SOL    HW130734   6.659   5.160   6.891
 9945SOL    HW230735   6.511   5.102   6.853
 9946SOL     OW30736   5.437   1.236   4.980
 9946SOL    HW130737   5.420   1.333   4.995
 9946SOL    HW230738   5.447   1.190   5.069
 9947SOL     OW30739   6.872   3.866   5.914
 9947SOL    HW130740   6.796   3.930   5.925
 9947SOL    HW230741   6.893   3.856   5.816
 9948SOL     OW30742   4.802   4.717   5.061
 9948SOL    HW130743   4.732   4.702   4.991
 9948SOL    HW230744   4.892   4.705   5.021
 9949SOL     OW30745   5.374   5.128   3.690
 9949SOL    HW130746   5.299   5.093   3.746
 9949SOL    HW230747   5.456   5.073   3.707
 9950SOL     OW30748   5.646   6.371   5.224
 9950SOL    HW130749   5.746   6.369   5.218
 9950SOL    HW230750   5.616   6.309   5.297
 9951SOL     OW30751   5.921   2.111   3.879
 9951SOL    HW130752   5.848   2.102   3.811
 9951SOL    HW230753   5.956   2.205   3.880
 9952SOL     OW30754   6.390   3.739   0.896
 9952SOL    HW130755   6.453   3.808   0.933
 9952SOL    HW230756   6.413   3.721   0.800
 9953SOL     OW30757   6.473   2.187   3.910
 9953SOL    HW130758   6.439   2.207   4.002
 9953SOL    HW230759   6.543   2.116   3.915
 9954SOL     OW30760   5.637   6.546   5.622
 9954SOL    HW130761   5.691   6.574   5.702
 9954SOL    HW230762   5.644   6.615   5.551
 9955SOL     OW30763   6.642   4.904   4.814
 9955SOL    HW130764   6.591   4.867   4.891
 9955SOL    HW230765   6.677   4.995   4.837
 9956SOL     OW30766   1.637   0.139   1.665
 9956SOL    HW130767   1.646   0.073   1.740
 9956SOL    HW230768   1.587   0.097   1.590
 9957SOL     OW30769   6.326   5.581   3.058
 9957SOL    HW130770   6.392   5.513   3.026
 9957SOL    HW230771   6.271   5.613   2.982
 9958SOL     OW30772   3.614   4.973   0.364
 9958SOL    HW130773   3.640   4.996   0.270
 9958SOL    HW230774   3.677   5.017   0.427
 9959SOL     OW30775   4.192   3.829   5.681
 9959SOL    HW130776   4.260   3.807   5.751
 9959SOL    HW230777   4.233   3.816   5.590
 9960SOL     OW30778   6.911   0.582   2.860
 9960SOL    HW130779   6.829   0.594   2.916
 9960SOL    HW230780   6.976   0.655   2.880
 9961SOL     OW30781   1.940   5.778   4.041
 9961SOL    HW130782   2.001   5.812   4.113
 9961SOL    HW230783   1.877   5.711   4.080
 9962SOL     OW30784   5.446   6.291   4.491
 9962SOL    HW130785   5.508   6.227   4.445
 9962SOL    HW230786   5.444   6.377   4.440
 9963SOL     OW30787   3.297   2.317   0.938
 9963SOL    HW130788   3.328   2.223   0.925
 9963SOL    HW230789   3.377   2.377   0.946
 9964SOL     OW30790   5.049   5.582   4.222
 9964SOL    HW130791   5.123   5.520   4.199
 9964SOL    HW230792   5.033   5.579   4.321
 9965SOL     OW30793   3.836   6.810   7.013
 9965SOL    HW130794   3.888   6.748   0.052
 9965SOL    HW230795   3.739   6.788   7.018
 9966SOL     OW30796   1.265   5.259   2.015
 9966SOL    HW130797   1.354   5.301   2.030
 9966SOL    HW230798   1.200   5.329   1.986
 9967SOL     OW30799   0.855   5.833   1.685
 9967SOL    HW130800   0.875   5.876   1.773
 9967SOL    HW230801   0.763   5.794   1.687
 9968SOL     OW30802   3.419   3.975   2.019
 9968SOL    HW130803   3.475   4.039   2.070
 9968SOL    HW230804   3.475   3.900   1.985
 9969SOL     OW30805   1.495   3.899   2.768
 9969SOL    HW130806   1.576   3.845   2.794
 9969SOL    HW230807   1.524   3.991   2.743
 9970SOL     OW30808   5.201   4.490   1.982
 9970SOL    HW130809   5.215   4.527   2.074
 9970SOL    HW230810   5.112   4.520   1.947
 9971SOL     OW30811   1.376   4.408   1.011
 9971SOL    HW130812   1.317   4.331   1.036
 9971SOL    HW230813   1.336   4.492   1.046
 9972SOL     OW30814   6.076   4.880   2.738
 9972SOL    HW130815   6.120   4.802   2.693
 9972SOL    HW230816   6.145   4.935   2.785
 9973SOL     OW30817   5.681   0.937   4.036
 9973SOL    HW130818   5.728   0.948   4.124
 9973SOL    HW230819   5.741   0.966   3.962
 9974SOL     OW30820   1.536   1.011   3.718
 9974SOL    HW130821   1.636   1.020   3.721
 9974SOL    HW230822   1.512   0.923   3.677
 9975SOL     OW30823   0.158   2.797   0.157
 9975SOL    HW130824   0.145   2.876   0.218
 9975SOL    HW230825   0.255   2.787   0.136
 9976SOL     OW30826   0.861   0.108   5.469
 9976SOL    HW130827   0.871   0.178   5.399
 9976SOL    HW230828   0.922   0.129   5.546
 9977SOL     OW30829   6.365   4.639   5.202
 9977SOL    HW130830   6.320   4.585   5.273
 9977SOL    HW230831   6.323   4.619   5.114
 9978SOL     OW30832   0.640   3.150   4.688
 9978SOL    HW130833   0.633   3.053   4.664
 9978SOL    HW230834   0.733   3.182   4.670
 9979SOL     OW30835   5.983   4.005   4.837
 9979SOL    HW130836   5.953   3.988   4.931
 9979SOL    HW230837   5.933   3.945   4.775
 9980SOL     OW30838   3.579   0.175   6.757
 9980SOL    HW130839   3.570   0.272   6.733
 9980SOL    HW230840   3.591   0.121   6.674
 9981SOL     OW30841   3.225   1.380   3.899
 9981SOL    HW130842   3.138   1.424   3.923
 9981SOL    HW230843   3.232   1.372   3.800
 9982SOL     OW30844   6.831   5.968   3.936
 9982SOL    HW130845   6.889   6.020   3.998
 9982SOL    HW230846   6.871   5.970   3.844
 9983SOL     OW30847   6.946   0.843   2.537
 9983SOL    HW130848   6.934   0.910   2.611
 9983SOL    HW230849   0.022   0.833   2.517
 9984SOL     OW30850   3.159   1.588   6.510
 9984SOL    HW130851   3.088   1.639   6.462
 9984SOL    HW230852   3.167   1.621   6.604
 9985SOL     OW30853   1.958   1.052   1.422
 9985SOL    HW130854   1.878   1.057   1.482
 9985SOL    HW230855   2.010   0.968   1.443
 9986SOL     OW30856   5.583   4.265   4.814
 9986SOL    HW130857   5.680   4.273   4.794
 9986SOL    HW230858   5.536   4.226   4.735
 9987SOL     OW30859   5.743   3.494   6.130
 9987SOL    HW130860   5.693   3.557   6.190
 9987SOL    HW230861   5.677   3.435   6.083
 9988SOL     OW30862   6.327   6.437   5.036
 9988SOL    HW130863   6.424   6.422   5.053
 9988SOL    HW230864   6.300   6.526   5.074
 9989SOL     OW30865   6.906   3.741   4.945
 9989SOL    HW130866   6.982   3.724   5.007
 9989SOL    HW230867   6.937   3.726   4.851
 9990SOL     OW30868   0.833   4.648   3.006
 9990SOL    HW130869   0.820   4.609   2.914
 9990SOL    HW230870   0.873   4.579   3.066
 9991SOL     OW30871   3.149   2.192   3.886
 9991SOL    HW130872   3.242   2.200   3.921
 9991SOL    HW230873   3.084   2.192   3.962
 9992SOL     OW30874   6.006   5.545   6.375
 9992SOL    HW130875   5.925   5.581   6.421
 9992SOL    HW230876   6.040   5.611   6.309
 9993SOL     OW30877   1.579   1.778   1.169
 9993SOL    HW130878   1.615   1.855   1.115
 9993SOL    HW230879   1.486   1.799   1.199
 9994SOL     OW30880   6.119   4.488   3.309
 9994SOL    HW130881   6.064   4.417   3.266
 9994SOL    HW230882   6.188   4.447   3.368
 9995SOL     OW30883   5.506   1.176   4.224
 9995SOL    HW130884   5.429   1.225   4.264
 9995SOL    HW230885   5.472   1.108   4.159
 9996SOL     OW30886   3.754   4.599   0.145
 9996SOL    HW130887   3.686   4.601   0.218
 9996SOL    HW230888   3.845   4.611   0.185
 9997SOL     OW30889   2.977   0.733   5.634
 9997SOL    HW130890   2.900   0.793   5.653
 9997SOL    HW230891   2.978   0.710   5.537
 9998SOL     OW30892   5.739   5.549   5.385
 9998SOL    HW130893   5.681   5.629   5.369
 9998SOL    HW230894   5.817   5.551   5.323
 9999SOL     OW30895   6.158   2.536   5.513
 9999SOL    HW130896   6.119   2.600   5.578
 9999SOL    HW230897   6.236   2.489   5.555
10000SOL     OW30898   6.982   2.087   6.878
10000SOL    HW130899   6.998   2.181   6.906
10000SOL    HW230900   0.005   2.070   6.790
10001SOL     OW30901   4.808   0.642   2.269
10001SOL    HW130902   4.882   0.575   2.254
10001SOL    HW230903   4.830   0.727   2.221
10002SOL     OW30904   1.238   0.356   1.635
10002SOL    HW130905   1.166   0.401   1.689
10002SOL    HW230906   1.293   0.299   1.695
10003SOL     OW30907   3.839   2.151   2.940
10003SOL    HW130908   3.927   2.199   2.946
10003SOL    HW230909   3.777   2.186   3.010
10004SOL     OW30910   0.184   2.342   3.167
10004SOL    HW130911   0.140   2.429   3.191
10004SOL    HW230912   0.217   2.298   3.250
10005SOL     OW30913   5.042   0.463   3.500
10005SOL    HW130914   4.967   0.445   3.437
10005SOL    HW230915   5.124   0.486   3.448
10006SOL     OW30916   3.763   6.763   4.190
10006SOL    HW130917   3.828   6.801   4.124
10006SOL    HW230918   3.706   6.694   4.145
10007SOL     OW30919   0.353   3.339   4.407
10007SOL    HW130920   0.401   3.350   4.495
10007SOL    HW230921   0.366   3.422   4.352
10008SOL     OW30922   3.202   0.758   4.625
10008SOL    HW130923   3.141   0.783   4.549
10008SOL    HW230924   3.232   0.841   4.671
10009SOL     OW30925   2.217   4.033   2.315
10009SOL    HW130926   2.256   4.099   2.251
10009SOL    HW230927   2.187   4.080   2.398
10010SOL     OW30928   1.579   2.225   6.524
10010SOL    HW130929   1.679   2.227   6.531
10010SOL    HW230930   1.542   2.164   6.594
10011SOL     OW30931   6.357   6.707   5.594
10011SOL    HW130932   6.268   6.700   5.548
10011SOL    HW230933   6.361   6.640   5.668
10012SOL     OW30934   6.205   1.292   4.062
10012SOL    HW130935   6.280   1.254   4.116
10012SOL    HW230936   6.179   1.381   4.100
10013SOL     OW30937   0.364   0.750   2.841
10013SOL    HW130938   0.380   0.665   2.891
10013SOL    HW230939   0.441   0.766   2.778
10014SOL     OW30940   0.289   4.743   6.278
10014SOL    HW130941   0.332   4.770   6.192
10014SOL    HW230942   0.204   4.794   6.290
10015SOL     OW30943   2.043   4.815   7.001
10015SOL    HW130944   2.103   4.780   6.929
10015SOL    HW230945   2.000   4.738   0.027
10016SOL     OW30946   2.393   1.103   6.110
10016SOL    HW130947   2.473   1.164   6.103
10016SOL    HW230948   2.367   1.094   6.206
10017SOL     OW30949   2.052   2.238   4.866
10017SOL    HW130950   2.112   2.282   4.799
10017SOL    HW230951   2.084   2.258   4.958
10018SOL     OW30952   4.983   0.833   5.442
10018SOL    HW130953   4.944   0.920   5.472
10018SOL    HW230954   5.073   0.821   5.485
10019SOL     OW30955   1.430   0.766   3.619
10019SOL    HW130956   1.336   0.798   3.606
10019SOL    HW230957   1.470   0.744   3.530
10020SOL     OW30958   0.702   3.103   1.110
10020SOL    HW130959   0.735   3.034   1.175
10020SOL    HW230960   0.617   3.070   1.068
10021SOL     OW30961   0.384   3.818   1.379
10021SOL    HW130962   0.347   3.817   1.286
10021SOL    HW230963   0.310   3.814   1.445
10022SOL     OW30964   1.072   2.102   6.317
10022SOL    HW130965   1.087   2.015   6.365
10022SOL    HW230966   1.157   2.154   6.314
10023SOL     OW30967   6.958   3.277   0.767
10023SOL    HW130968   6.885   3.336   0.802
10023SOL    HW230969   0.002   3.331   0.714
10024SOL     OW30970   1.487   4.374   3.831
10024SOL    HW130971   1.452   4.313   3.760
10024SOL    HW230972   1.411   4.416   3.880
10025SOL     OW30973   1.672   1.182   0.749
10025SOL    HW130974   1.723   1.154   0.668
10025SOL    HW230975   1.610   1.108   0.777
10026SOL     OW30976   6.423   0.689   3.173
10026SOL    HW130977   6.402   0.686   3.270
10026SOL    HW230978   6.373   0.765   3.130
10027SOL     OW30979   5.114   3.504   5.009
10027SOL    HW130980   5.023   3.545   5.007
10027SOL    HW230981   5.152   3.510   5.102
10028SOL     OW30982   2.334   1.452   0.509
10028SOL    HW130983   2.286   1.456   0.596
10028SOL    HW230984   2.275   1.487   0.436
10029SOL     OW30985   5.799   1.151   3.898
10029SOL    HW130986   5.899   1.162   3.898
10029SOL    HW230987   5.769   1.125   3.806
10030SOL     OW30988   1.524   0.425   4.090
10030SOL    HW130989   1.581   0.451   4.012
10030SOL    HW230990   1.427   0.428   4.064
10031SOL     OW30991   6.582   4.497   3.850
10031SOL    HW130992   6.604   4.550   3.931
10031SOL    HW230993   6.585   4.556   3.769
10032SOL     OW30994   2.899   1.333   4.722
10032SOL    HW130995   2.895   1.431   4.743
10032SOL    HW230996   2.979   1.292   4.767
10033SOL     OW30997   5.766   3.306   5.065
10033SOL    HW130998   5.813   3.220   5.086
10033SOL    HW230999   5.721   3.341   5.147
10034SOL     OW31000   5.766   0.665   5.358
10034SOL    HW131001   5.756   0.708   5.268
10034SOL    HW231002   5.677   0.634   5.390
10035SOL     OW31003   0.475   5.556   1.451
10035SOL    HW131004   0.521   5.578   1.537
10035SOL    HW231005   0.529   5.488   1.401
10036SOL     OW31006   6.500   1.512   0.190
10036SOL    HW131007   6.435   1.439   0.168
10036SOL    HW231008   6.529   1.504   0.286
10037SOL     OW31009   0.922   0.317   6.964
10037SOL    HW131010   0.999   0.352   6.911
10037SOL    HW231011   0.935   0.339   0.039
10038SOL     OW31012   6.027   6.836   1.038
10038SOL    HW131013   6.089   6.913   1.052
10038SOL    HW231014   6.013   6.822   0.939
10039SOL     OW31015   3.723   0.440   3.773
10039SOL    HW131016   3.642   0.461   3.828
10039SOL    HW231017   3.740   0.514   3.708
10040SOL     OW31018   6.942   2.898   1.321
10040SOL    HW131019   6.908   2.973   1.263
10040SOL    HW231020   7.008   2.934   1.387
10041SOL     OW31021   2.142   6.385   0.133
10041SOL    HW131022   2.106   6.449   0.201
10041SOL    HW231023   2.221   6.337   0.172
10042SOL     OW31024   6.244   2.811   2.693
10042SOL    HW131025   6.152   2.844   2.712
10042SOL    HW231026   6.241   2.717   2.662
10043SOL     OW31027   0.035   1.594   6.079
10043SOL    HW131028   7.020   1.633   6.163
10043SOL    HW231029   0.134   1.605   6.077
10044SOL     OW31030   3.287   2.270   5.610
10044SOL    HW131031   3.247   2.353   5.650
10044SOL    HW231032   3.305   2.286   5.513
10045SOL     OW31033   3.505   0.815   0.549
10045SOL    HW131034   3.504   0.883   0.476
10045SOL    HW231035   3.425   0.756   0.542
10046SOL     OW31036   1.970   5.073   1.295
10046SOL    HW131037   1.989   5.026   1.208
10046SOL    HW231038   1.896   5.026   1.343
10047SOL     OW31039   0.663   3.548   0.599
10047SOL    HW131040   0.565   3.559   0.616
10047SOL    HW231041   0.683   3.564   0.503
10048SOL     OW31042   5.780   5.721   3.208
10048SOL    HW131043   5.740   5.631   3.191
10048SOL    HW231044   5.871   5.710   3.246
10049SOL     OW31045   6.886   0.897   5.942
10049SOL    HW131046   6.954   0.829   5.970
10049SOL    HW231047   6.850   0.872   5.852
10050SOL     OW31048   6.361   3.208   6.499
10050SOL    HW131049   6.409   3.257   6.426
10050SOL    HW231050   6.376   3.254   6.586
10051SOL     OW31051   2.056   3.405   3.616
10051SOL    HW131052   1.958   3.389   3.609
10051SOL    HW231053   2.073   3.487   3.671
10052SOL     OW31054   1.178   6.642   3.026
10052SOL    HW131055   1.266   6.613   2.990
10052SOL    HW231056   1.113   6.654   2.951
10053SOL     OW31057   5.568   5.590   4.983
10053SOL    HW131058   5.514   5.572   4.901
10053SOL    HW231059   5.569   5.688   5.003
10054SOL     OW31060   5.934   3.947   5.088
10054SOL    HW131061   5.877   3.990   5.158
10054SOL    HW231062   5.915   3.849   5.086
10055SOL     OW31063   0.542   2.074   6.438
10055SOL    HW131064   0.524   1.976   6.448
10055SOL    HW231065   0.577   2.092   6.346
10056SOL     OW31066   6.385   2.614   3.870
10056SOL    HW131067   6.397   2.599   3.968
10056SOL    HW231068   6.289   2.601   3.846
10057SOL     OW31069   6.085   4.944   5.717
10057SOL    HW131070   6.139   4.929   5.634
10057SOL    HW231071   5.992   4.910   5.703
10058SOL     OW31072   6.655   3.987   5.465
10058SOL    HW131073   6.634   3.921   5.393
10058SOL    HW231074   6.614   4.075   5.443
10059SOL     OW31075   6.572   0.826   0.203
10059SOL    HW131076   6.497   0.760   0.207
10059SOL    HW231077   6.590   0.851   0.108
10060SOL     OW31078   2.596   2.150   2.301
10060SOL    HW131079   2.612   2.145   2.202
10060SOL    HW231080   2.540   2.229   2.322
10061SOL     OW31081   3.594   0.268   3.323
10061SOL    HW131082   3.606   0.174   3.290
10061SOL    HW231083   3.635   0.277   3.414
10062SOL     OW31084   6.567   0.056   4.556
10062SOL    HW131085   6.541   0.033   4.462
10062SOL    HW231086   6.504   0.013   4.620
10063SOL     OW31087   1.844   2.828   5.279
10063SOL    HW131088   1.902   2.803   5.201
10063SOL    HW231089   1.789   2.749   5.306
10064SOL     OW31090   3.013   0.124   0.478
10064SOL    HW131091   2.918   0.126   0.511
10064SOL    HW231092   3.026   0.043   0.421
10065SOL     OW31093   1.074   1.723   1.805
10065SOL    HW131094   1.141   1.690   1.739
10065SOL    HW231095   1.048   1.817   1.783
10066SOL     OW31096   6.592   3.447   3.887
10066SOL    HW131097   6.651   3.380   3.842
10066SOL    HW231098   6.548   3.505   3.819
10067SOL     OW31099   6.903   2.823   5.731
10067SOL    HW131100   6.819   2.872   5.712
10067SOL    HW231101   6.915   2.815   5.830
10068SOL     OW31102   2.027   3.236   2.941
10068SOL    HW131103   2.106   3.208   2.886
10068SOL    HW231104   2.046   3.324   2.984
10069SOL     OW31105   2.809   5.202   0.705
10069SOL    HW131106   2.870   5.277   0.680
10069SOL    HW231107   2.845   5.155   0.786
10070SOL     OW31108   4.045   6.386   6.202
10070SOL    HW131109   4.026   6.483   6.187
10070SOL    HW231110   4.087   6.374   6.292
10071SOL     OW31111   5.852   6.753   3.963
10071SOL    HW131112   5.883   6.848   3.975
10071SOL    HW231113   5.796   6.747   3.880
10072SOL     OW31114   6.341   2.831   1.799
10072SOL    HW131115   6.249   2.869   1.793
10072SOL    HW231116   6.399   2.893   1.852
10073SOL     OW31117   6.682   4.631   4.383
10073SOL    HW131118   6.663   4.707   4.322
10073SOL    HW231119   6.597   4.603   4.428
10074SOL     OW31120   1.002   4.907   0.392
10074SOL    HW131121   0.916   4.872   0.357
10074SOL    HW231122   1.046   4.838   0.448
10075SOL     OW31123   1.546   3.496   1.767
10075SOL    HW131124   1.530   3.564   1.696
10075SOL    HW231125   1.598   3.538   1.842
10076SOL     OW31126   5.207   5.405   4.111
10076SOL    HW131127   5.245   5.413   4.019
10076SOL    HW231128   5.177   5.312   4.127
10077SOL     OW31129   5.080   3.516   6.993
10077SOL    HW131130   5.101   3.420   7.013
10077SOL    HW231131   5.113   3.574   0.046
10078SOL     OW31132   6.254   5.900   4.854
10078SOL    HW131133   6.320   5.973   4.870
10078SOL    HW231134   6.197   5.887   4.936
10079SOL     OW31135   4.762   2.816   3.888
10079SOL    HW131136   4.735   2.911   3.872
10079SOL    HW231137   4.734   2.788   3.980
10080SOL     OW31138   4.891   1.462   5.546
10080SOL    HW131139   4.845   1.430   5.463
10080SOL    HW231140   4.970   1.403   5.564
10081SOL     OW31141   1.699   3.921   0.507
10081SOL    HW131142   1.788   3.959   0.483
10081SOL    HW231143   1.629   3.957   0.445
10082SOL     OW31144   1.093   4.910   0.953
10082SOL    HW131145   1.182   4.905   0.997
10082SOL    HW231146   1.023   4.933   1.021
10083SOL     OW31147   3.593   5.180   3.058
10083SOL    HW131148   3.628   5.133   3.140
10083SOL    HW231149   3.504   5.140   3.034
10084SOL     OW31150   1.028   1.322   5.377
10084SOL    HW131151   0.999   1.370   5.294
10084SOL    HW231152   1.128   1.311   5.376
10085SOL     OW31153   5.313   6.964   0.279
10085SOL    HW131154   5.385   6.912   0.324
10085SOL    HW231155   5.225   6.946   0.324
10086SOL     OW31156   6.093   6.439   3.229
10086SOL    HW131157   6.116   6.406   3.320
10086SOL    HW231158   6.000   6.410   3.206
10087SOL     OW31159   1.050   6.346   5.502
10087SOL    HW131160   1.086   6.266   5.454
10087SOL    HW231161   0.950   6.341   5.506
10088SOL     OW31162   0.033   2.614   0.859
10088SOL    HW131163   6.977   2.568   0.815
10088SOL    HW231164   0.074   2.680   0.796
10089SOL     OW31165   3.545   1.418   1.640
10089SOL    HW131166   3.504   1.380   1.723
10089SOL    HW231167   3.642   1.394   1.636
10090SOL     OW31168   2.952   6.260   3.070
10090SOL    HW131169   2.968   6.329   3.140
10090SOL    HW231170   2.870   6.283   3.017
10091SOL     OW31171   6.577   4.227   5.427
10091SOL    HW131172   6.664   4.263   5.461
10091SOL    HW231173   6.556   4.268   5.338
10092SOL     OW31174   0.619   2.158   3.578
10092SOL    HW131175   0.539   2.153   3.637
10092SOL    HW231176   0.697   2.195   3.629
10093SOL     OW31177   4.781   4.537   6.459
10093SOL    HW131178   4.683   4.547   6.444
10093SOL    HW231179   4.817   4.619   6.504
10094SOL     OW31180   3.237   1.426   0.988
10094SOL    HW131181   3.319   1.425   1.044
10094SOL    HW231182   3.167   1.483   1.031
10095SOL     OW31183   4.306   2.761   5.622
10095SOL    HW131184   4.217   2.716   5.615
10095SOL    HW231185   4.308   2.841   5.561
10096SOL     OW31186   6.101   2.497   2.053
10096SOL    HW131187   6.014   2.485   2.101
10096SOL    HW231188   6.163   2.423   2.078
10097SOL     OW31189   0.421   1.194   7.015
10097SOL    HW131190   0.396   1.153   0.081
10097SOL    HW231191   0.382   1.140   6.940
10098SOL     OW31192   2.737   5.411   3.283
10098SOL    HW131193   2.810   5.342   3.282
10098SOL    HW231194   2.685   5.405   3.198
10099SOL     OW31195   0.281   5.184   2.235
10099SOL    HW131196   0.254   5.279   2.219
10099SOL    HW231197   0.312   5.143   2.149
10100SOL     OW31198   4.818   5.110   4.167
10100SOL    HW131199   4.725   5.081   4.188
10100SOL    HW231200   4.823   5.144   4.073
10101SOL     OW31201   0.153   2.971   1.108
10101SOL    HW131202   0.082   3.024   1.060
10101SOL    HW231203   0.112   2.890   1.150
10102SOL     OW31204   0.055   5.469   3.011
10102SOL    HW131205   0.094   5.555   3.042
10102SOL    HW231206   0.113   5.430   2.939
10103SOL     OW31207   0.011   5.963   6.030
10103SOL    HW131208   0.000   6.009   5.942
10103SOL    HW231209   0.058   5.876   6.016
10104SOL     OW31210   2.185   0.794   4.644
10104SOL    HW131211   2.141   0.705   4.659
10104SOL    HW231212   2.158   0.829   4.555
10105SOL     OW31213   3.503   1.088   5.140
10105SOL    HW131214   3.573   1.160   5.139
10105SOL    HW231215   3.494   1.052   5.232
10106SOL     OW31216   5.522   4.721   1.473
10106SOL    HW131217   5.454   4.707   1.401
10106SOL    HW231218   5.502   4.806   1.522
10107SOL     OW31219   5.620   4.954   0.082
10107SOL    HW131220   5.672   5.034   0.110
10107SOL    HW231221   5.602   4.957   7.005
10108SOL     OW31222   2.068   2.570   6.618
10108SOL    HW131223   2.162   2.579   6.653
10108SOL    HW231224   2.069   2.582   6.519
10109SOL     OW31225   0.783   2.483   1.226
10109SOL    HW131226   0.803   2.522   1.315
10109SOL    HW231227   0.858   2.504   1.163
10110SOL     OW31228   5.738   5.734   2.527
10110SOL    HW131229   5.814   5.768   2.472
10110SOL    HW231230   5.734   5.635   2.520
10111SOL     OW31231   1.148   2.645   1.288
10111SOL    HW131232   1.215   2.588   1.336
10111SOL    HW231233   1.106   2.592   1.214
10112SOL     OW31234   0.357   2.163   2.235
10112SOL    HW131235   0.337   2.210   2.321
10112SOL    HW231236   0.271   2.144   2.187
10113SOL     OW31237   6.960   0.902   6.274
10113SOL    HW131238   0.021   0.945   6.238
10113SOL    HW231239   6.901   0.876   6.197
10114SOL     OW31240   5.650   2.333   1.561
10114SOL    HW131241   5.603   2.306   1.477
10114SOL    HW231242   5.747   2.347   1.543
10115SOL     OW31243   3.520   2.779   6.337
10115SOL    HW131244   3.617   2.794   6.322
10115SOL    HW231245   3.475   2.764   6.249
10116SOL     OW31246   6.773   0.593   5.492
10116SOL    HW131247   6.828   0.646   5.428
10116SOL    HW231248   6.831   0.524   5.537
10117SOL     OW31249   6.025   5.059   3.558
10117SOL    HW131250   6.019   5.032   3.462
10117SOL    HW231251   6.056   5.154   3.565
10118SOL     OW31252   4.361   5.328   3.754
10118SOL    HW131253   4.431   5.263   3.783
10118SOL    HW231254   4.399   5.420   3.754
10119SOL     OW31255   6.765   6.207   5.600
10119SOL    HW131256   6.710   6.189   5.682
10119SOL    HW231257   6.843   6.264   5.624
10120SOL     OW31258   2.187   3.171   3.603
10120SOL    HW131259   2.228   3.182   3.513
10120SOL    HW231260   2.133   3.252   3.625
10121SOL     OW31261   6.105   5.209   1.049
10121SOL    HW131262   6.137   5.293   1.005
10121SOL    HW231263   6.007   5.197   1.031
10122SOL     OW31264   1.744   0.474   3.609
10122SOL    HW131265   1.686   0.457   3.529
10122SOL    HW231266   1.742   0.395   3.670
10123SOL     OW31267   6.840   5.106   6.763
10123SOL    HW131268   6.912   5.157   6.718
10123SOL    HW231269   6.852   5.008   6.747
10124SOL     OW31270   2.042   5.025   2.747
10124SOL    HW131271   2.128   5.012   2.697
10124SOL    HW231272   2.021   4.943   2.799
10125SOL     OW31273   2.069   0.523   4.728
10125SOL    HW131274   2.072   0.489   4.823
10125SOL    HW231275   1.997   0.475   4.678
10126SOL     OW31276   6.555   6.233   5.819
10126SOL    HW131277   6.493   6.226   5.898
10126SOL    HW231278   6.634   6.173   5.834
10127SOL     OW31279   2.635   6.923   5.479
10127SOL    HW131280   2.649   6.959   5.572
10127SOL    HW231281   2.580   6.840   5.484
10128SOL     OW31282   2.836   2.896   0.167
10128SOL    HW131283   2.754   2.938   0.206
10128SOL    HW231284   2.911   2.902   0.233
10129SOL     OW31285   6.445   1.506   4.394
10129SOL    HW131286   6.374   1.480   4.459
10129SOL    HW231287   6.479   1.424   4.347
10130SOL     OW31288   0.725   1.238   4.119
10130SOL    HW131289   0.651   1.212   4.057
10130SOL    HW231290   0.749   1.334   4.105
10131SOL     OW31291   2.184   6.598   3.886
10131SOL    HW131292   2.220   6.550   3.806
10131SOL    HW231293   2.106   6.655   3.860
10132SOL     OW31294   6.332   0.022   1.505
10132SOL    HW131295   6.359   0.070   1.421
10132SOL    HW231296   6.255   0.071   1.546
10133SOL     OW31297   5.412   6.665   0.158
10133SOL    HW131298   5.502   6.649   0.197
10133SOL    HW231299   5.422   6.718   0.073
10134SOL     OW31300   6.824   6.855   2.391
10134SOL    HW131301   6.875   6.821   2.471
10134SOL    HW231302   6.754   6.789   2.366
10135SOL     OW31303   6.044   0.660   2.966
10135SOL    HW131304   6.070   0.724   3.038
10135SOL    HW231305   5.946   0.641   2.973
10136SOL     OW31306   4.770   2.445   3.224
10136SOL    HW131307   4.736   2.538   3.215
10136SOL    HW231308   4.767   2.400   3.134
10137SOL     OW31309   6.522   5.125   5.137
10137SOL    HW131310   6.461   5.102   5.214
10137SOL    HW231311   6.476   5.190   5.077
10138SOL     OW31312   0.031   2.726   1.121
10138SOL    HW131313   6.973   2.734   1.181
10138SOL    HW231314   0.002   2.730   1.025
10139SOL     OW31315   2.749   3.003   6.566
10139SOL    HW131316   2.759   2.952   6.481
10139SOL    HW231317   2.678   3.073   6.555
10140SOL     OW31318   1.169   6.485   5.709
10140SOL    HW131319   1.239   6.543   5.668
10140SOL    HW231320   1.119   6.437   5.636
10141SOL     OW31321   2.098   2.595   4.483
10141SOL    HW131322   2.004   2.626   4.498
10141SOL    HW231323   2.154   2.621   4.561
10142SOL     OW31324   4.516   6.669   3.261
10142SOL    HW131325   4.531   6.764   3.287
10142SOL    HW231326   4.439   6.664   3.198
10143SOL     OW31327   5.405   2.936   6.345
10143SOL    HW131328   5.416   2.912   6.442
10143SOL    HW231329   5.346   3.016   6.337
10144SOL     OW31330   3.097   6.581   0.674
10144SOL    HW131331   3.084   6.679   0.660
10144SOL    HW231332   3.146   6.566   0.759
10145SOL     OW31333   5.425   6.969   6.409
10145SOL    HW131334   5.336   6.922   6.407
10145SOL    HW231335   5.415   0.039   6.371
10146SOL     OW31336   0.284   2.821   4.655
10146SOL    HW131337   0.375   2.850   4.624
10146SOL    HW231338   0.262   2.866   4.742
10147SOL     OW31339   4.137   5.300   5.627
10147SOL    HW131340   4.038   5.312   5.617
10147SOL    HW231341   4.171   5.361   5.700
10148SOL     OW31342   0.954   4.168   0.545
10148SOL    HW131343   1.021   4.139   0.477
10148SOL    HW231344   0.960   4.267   0.558
10149SOL     OW31345   4.092   3.589   1.043
10149SOL    HW131346   4.032   3.509   1.051
10149SOL    HW231347   4.179   3.562   1.003
10150SOL     OW31348   4.532   4.634   0.880
10150SOL    HW131349   4.474   4.619   0.960
10150SOL    HW231350   4.577   4.548   0.856
10151SOL     OW31351   6.145   0.260   6.381
10151SOL    HW131352   6.208   0.212   6.321
10151SOL    HW231353   6.062   0.283   6.331
10152SOL     OW31354   4.426   0.039   2.523
10152SOL    HW131355   4.462   0.050   2.616
10152SOL    HW231356   4.450   6.970   2.488
10153SOL     OW31357   4.902   4.461   2.336
10153SOL    HW131358   4.807   4.431   2.337
10153SOL    HW231359   4.911   4.544   2.281
10154SOL     OW31360   4.854   5.678   5.946
10154SOL    HW131361   4.919   5.678   5.870
10154SOL    HW231362   4.819   5.585   5.961
10155SOL     OW31363   4.327   1.741   4.518
10155SOL    HW131364   4.381   1.667   4.557
10155SOL    HW231365   4.307   1.720   4.422
10156SOL     OW31366   3.934   1.445   0.158
10156SOL    HW131367   3.889   1.470   0.244
10156SOL    HW231368   3.981   1.525   0.121
10157SOL     OW31369   0.518   4.165   1.569
10157SOL    HW131370   0.474   4.227   1.505
10157SOL    HW231371   0.548   4.083   1.522
10158SOL     OW31372   6.296   5.281   0.255
10158SOL    HW131373   6.367   5.214   0.276
10158SOL    HW231374   6.306   5.361   0.313
10159SOL     OW31375   3.328   3.009   1.856
10159SOL    HW131376   3.275   2.980   1.935
10159SOL    HW231377   3.360   3.103   1.869
10160SOL     OW31378   0.282   4.617   2.399
10160SOL    HW131379   0.262   4.603   2.496
10160SOL    HW231380   0.352   4.687   2.389
10161SOL     OW31381   5.407   3.318   5.180
10161SOL    HW131382   5.325   3.272   5.146
10161SOL    HW231383   5.459   3.355   5.103
10162SOL     OW31384   1.569   2.212   1.661
10162SOL    HW131385   1.656   2.258   1.678
10162SOL    HW231386   1.503   2.277   1.623
10163SOL     OW31387   2.535   5.564   5.126
10163SOL    HW131388   2.552   5.465   5.131
10163SOL    HW231389   2.622   5.613   5.133
10164SOL     OW31390   0.857   1.481   3.781
10164SOL    HW131391   0.858   1.559   3.719
10164SOL    HW231392   0.941   1.427   3.769
10165SOL     OW31393   0.720   3.649   4.152
10165SOL    HW131394   0.773   3.620   4.232
10165SOL    HW231395   0.781   3.663   4.074
10166SOL     OW31396   2.387   6.853   1.805
10166SOL    HW131397   2.400   6.863   1.707
10166SOL    HW231398   2.459   6.795   1.843
10167SOL     OW31399   2.290   1.857   6.711
10167SOL    HW131400   2.239   1.941   6.734
10167SOL    HW231401   2.376   1.857   6.761
10168SOL     OW31402   6.999   0.404   6.327
10168SOL    HW131403   6.948   0.321   6.349
10168SOL    HW231404   0.060   0.380   6.275
10169SOL     OW31405   4.831   4.308   3.940
10169SOL    HW131406   4.839   4.259   3.853
10169SOL    HW231407   4.898   4.382   3.943
10170SOL     OW31408   5.242   5.602   7.018
10170SOL    HW131409   5.293   5.634   0.076
10170SOL    HW231410   5.161   5.552   0.027
10171SOL     OW31411   1.880   4.847   4.792
10171SOL    HW131412   1.892   4.855   4.693
10171SOL    HW231413   1.795   4.891   4.820
10172SOL     OW31414   6.594   0.480   2.990
10172SOL    HW131415   6.640   0.422   3.057
10172SOL    HW231416   6.508   0.436   2.962
10173SOL     OW31417   3.428   3.747   4.647
10173SOL    HW131418   3.502   3.801   4.607
10173SOL    HW231419   3.396   3.680   4.579
10174SOL     OW31420   4.765   5.126   1.465
10174SOL    HW131421   4.688   5.066   1.487
10174SOL    HW231422   4.847   5.093   1.512
10175SOL     OW31423   0.100   0.230   4.316
10175SOL    HW131424   0.004   0.245   4.341
10175SOL    HW231425   0.159   0.278   4.381
10176SOL     OW31426   6.927   1.355   4.920
10176SOL    HW131427   0.000   1.386   4.911
10176SOL    HW231428   6.913   1.273   4.864
10177SOL     OW31429   2.630   1.311   3.436
10177SOL    HW131430   2.687   1.392   3.426
10177SOL    HW231431   2.688   1.229   3.436
10178SOL     OW31432   0.464   1.831   1.153
10178SOL    HW131433   0.495   1.854   1.061
10178SOL    HW231434   0.370   1.796   1.149
10179SOL     OW31435   1.326   4.268   0.172
10179SOL    HW131436   1.258   4.294   0.103
10179SOL    HW231437   1.378   4.349   0.200
10180SOL     OW31438   3.888   6.485   5.814
10180SOL    HW131439   3.847   6.438   5.735
10180SOL    HW231440   3.881   6.427   5.895
10181SOL     OW31441   5.924   3.171   2.834
10181SOL    HW131442   5.964   3.117   2.760
10181SOL    HW231443   5.826   3.182   2.818
10182SOL     OW31444   4.440   0.798   1.312
10182SOL    HW131445   4.540   0.809   1.309
10182SOL    HW231446   4.399   0.850   1.237
10183SOL     OW31447   6.132   0.745   5.936
10183SOL    HW131448   6.081   0.721   6.019
10183SOL    HW231449   6.216   0.793   5.961
10184SOL     OW31450   5.261   1.676   5.924
10184SOL    HW131451   5.273   1.722   5.836
10184SOL    HW231452   5.258   1.744   5.997
10185SOL     OW31453   3.718   5.551   1.582
10185SOL    HW131454   3.701   5.638   1.628
10185SOL    HW231455   3.666   5.547   1.497
10186SOL     OW31456   3.570   3.266   6.375
10186SOL    HW131457   3.598   3.272   6.279
10186SOL    HW231458   3.624   3.196   6.422
10187SOL     OW31459   2.175   4.591   5.474
10187SOL    HW131460   2.227   4.622   5.394
10187SOL    HW231461   2.238   4.559   5.545
10188SOL     OW31462   2.944   0.037   6.335
10188SOL    HW131463   3.024   0.066   6.388
10188SOL    HW231464   2.915   0.111   6.275
10189SOL     OW31465   1.775   1.909   5.567
10189SOL    HW131466   1.782   1.865   5.656
10189SOL    HW231467   1.854   1.883   5.511
10190SOL     OW31468   4.150   4.869   1.144
10190SOL    HW131469   4.225   4.931   1.166
10190SOL    HW231470   4.093   4.856   1.225
10191SOL     OW31471   5.019   6.741   0.025
10191SOL    HW131472   4.977   6.815   6.995
10191SOL    HW231473   4.959   6.661   0.024
10192SOL     OW31474   1.546   1.456   4.108
10192SOL    HW131475   1.458   1.451   4.060
10192SOL    HW231476   1.616   1.494   4.048
10193SOL     OW31477   3.826   3.696   3.860
10193SOL    HW131478   3.821   3.602   3.824
10193SOL    HW231479   3.892   3.699   3.936
10194SOL     OW31480   2.751   0.173   2.837
10194SOL    HW131481   2.849   0.163   2.855
10194SOL    HW231482   2.735   0.255   2.782
10195SOL     OW31483   4.945   6.856   2.918
10195SOL    HW131484   4.885   6.909   2.858
10195SOL    HW231485   4.940   6.759   2.894
10196SOL     OW31486   6.128   3.378   4.464
10196SOL    HW131487   6.095   3.313   4.395
10196SOL    HW231488   6.105   3.344   4.555
10197SOL     OW31489   5.508   1.202   2.576
10197SOL    HW131490   5.488   1.295   2.607
10197SOL    HW231491   5.545   1.204   2.483
10198SOL     OW31492   2.272   0.113   0.867
10198SOL    HW131493   2.321   0.196   0.842
10198SOL    HW231494   2.301   0.083   0.958
10199SOL     OW31495   1.188   1.768   0.652
10199SOL    HW131496   1.249   1.843   0.630
10199SOL    HW231497   1.200   1.742   0.748
10200SOL     OW31498   5.746   4.159   5.875
10200SOL    HW131499   5.655   4.121   5.891
10200SOL    HW231500   5.755   4.185   5.779
10201SOL     OW31501   1.683   4.942   2.387
10201SOL    HW131502   1.731   4.983   2.465
10201SOL    HW231503   1.585   4.939   2.405
10202SOL     OW31504   0.573   2.581   2.398
10202SOL    HW131505   0.496   2.520   2.384
10202SOL    HW231506   0.584   2.599   2.496
10203SOL     OW31507   0.729   3.144   2.070
10203SOL    HW131508   0.810   3.194   2.098
10203SOL    HW231509   0.648   3.200   2.086
10204SOL     OW31510   3.503   5.275   4.396
10204SOL    HW131511   3.578   5.336   4.422
10204SOL    HW231512   3.537   5.206   4.332
10205SOL     OW31513   4.500   0.969   2.833
10205SOL    HW131514   4.566   0.894   2.841
10205SOL    HW231515   4.435   0.948   2.760
10206SOL     OW31516   4.645   0.135   6.453
10206SOL    HW131517   4.626   0.133   6.355
10206SOL    HW231518   4.666   0.229   6.482
10207SOL     OW31519   4.188   0.894   2.897
10207SOL    HW131520   4.253   0.837   2.845
10207SOL    HW231521   4.133   0.948   2.834
10208SOL     OW31522   6.101   3.781   5.479
10208SOL    HW131523   6.033   3.746   5.543
10208SOL    HW231524   6.073   3.761   5.385
10209SOL     OW31525   5.138   0.070   6.732
10209SOL    HW131526   5.081   0.152   6.733
10209SOL    HW231527   5.170   0.053   6.639
10210SOL     OW31528   4.894   5.750   1.893
10210SOL    HW131529   4.890   5.677   1.962
10210SOL    HW231530   4.905   5.838   1.940
10211SOL     OW31531   3.475   6.202   4.854
10211SOL    HW131532   3.557   6.232   4.805
10211SOL    HW231533   3.432   6.126   4.805
10212SOL     OW31534   6.155   6.257   4.907
10212SOL    HW131535   6.131   6.286   4.814
10212SOL    HW231536   6.222   6.321   4.945
10213SOL     OW31537   5.662   0.689   3.487
10213SOL    HW131538   5.578   0.671   3.435
10213SOL    HW231539   5.700   0.603   3.520
10214SOL     OW31540   6.965   0.339   2.093
10214SOL    HW131541   6.903   0.261   2.083
10214SOL    HW231542   0.028   0.310   2.138
10215SOL     OW31543   3.510   2.718   6.914
10215SOL    HW131544   3.419   2.710   6.953
10215SOL    HW231545   3.563   2.785   6.966
10216SOL     OW31546   4.976   0.343   1.949
10216SOL    HW131547   4.998   0.251   1.919
10216SOL    HW231548   4.911   0.385   1.885
10217SOL     OW31549   3.121   1.416   5.237
10217SOL    HW131550   3.080   1.407   5.328
10217SOL    HW231551   3.050   1.402   5.168
10218SOL     OW31552   1.943   2.872   1.038
10218SOL    HW131553   1.867   2.815   1.070
10218SOL    HW231554   2.030   2.829   1.062
10219SOL     OW31555   0.834   3.828   0.483
10219SOL    HW131556   0.853   3.874   0.397
10219SOL    HW231557   0.756   3.873   0.528
10220SOL     OW31558   4.308   1.910   0.983
10220SOL    HW131559   4.268   1.896   0.893
10220SOL    HW231560   4.406   1.928   0.973
10221SOL     OW31561   3.472   0.617   4.985
10221SOL    HW131562   3.410   0.636   5.060
10221SOL    HW231563   3.532   0.696   4.971
10222SOL     OW31564   1.909   5.181   6.207
10222SOL    HW131565   2.006   5.197   6.189
10222SOL    HW231566   1.867   5.135   6.129
10223SOL     OW31567   6.375   4.548   0.375
10223SOL    HW131568   6.367   4.574   0.278
10223SOL    HW231569   6.294   4.495   0.401
10224SOL     OW31570   2.090   6.699   4.354
10224SOL    HW131571   2.005   6.701   4.301
10224SOL    HW231572   2.168   6.695   4.291
10225SOL     OW31573   5.942   6.052   4.257
10225SOL    HW131574   5.972   6.097   4.341
10225SOL    HW231575   5.960   6.113   4.179
10226SOL     OW31576   0.344   2.282   1.044
10226SOL    HW131577   0.438   2.259   1.019
10226SOL    HW231578   0.299   2.326   0.967
10227SOL     OW31579   5.769   5.817   6.285
10227SOL    HW131580   5.788   5.741   6.348
10227SOL    HW231581   5.807   5.795   6.195
10228SOL     OW31582   0.589   3.912   3.044
10228SOL    HW131583   0.663   3.930   2.978
10228SOL    HW231584   0.501   3.933   3.001
10229SOL     OW31585   1.753   0.914   2.080
10229SOL    HW131586   1.730   0.942   1.987
10229SOL    HW231587   1.834   0.964   2.111
10230SOL     OW31588   6.646   6.752   4.112
10230SOL    HW131589   6.683   6.729   4.022
10230SOL    HW231590   6.703   6.822   4.155
10231SOL     OW31591   4.762   6.385   4.319
10231SOL    HW131592   4.804   6.458   4.374
10231SOL    HW231593   4.684   6.422   4.268
10232SOL     OW31594   3.681   2.101   4.771
10232SOL    HW131595   3.688   2.085   4.869
10232SOL    HW231596   3.653   2.017   4.725
10233SOL     OW31597   4.718   1.048   5.693
10233SOL    HW131598   4.630   1.052   5.645
10233SOL    HW231599   4.790   1.081   5.632
10234SOL     OW31600   5.658   6.411   1.352
10234SOL    HW131601   5.630   6.506   1.360
10234SOL    HW231602   5.692   6.379   1.441
10235SOL     OW31603   5.283   1.583   6.334
10235SOL    HW131604   5.376   1.568   6.299
10235SOL    HW231605   5.228   1.500   6.321
10236SOL     OW31606   2.297   6.084   2.560
10236SOL    HW131607   2.366   6.033   2.510
10236SOL    HW231608   2.341   6.153   2.617
10237SOL     OW31609   7.009   2.496   2.874
10237SOL    HW131610   6.986   2.402   2.900
10237SOL    HW231611   7.012   2.502   2.774
10238SOL     OW31612   4.668   4.754   4.386
10238SOL    HW131613   4.751   4.700   4.375
10238SOL    HW231614   4.589   4.698   4.363
10239SOL     OW31615   0.290   4.194   3.661
10239SOL    HW131616   0.277   4.099   3.687
10239SOL    HW231617   0.360   4.236   3.718
10240SOL     OW31618   6.967   3.697   3.882
10240SOL    HW131619   6.886   3.710   3.825
10240SOL    HW231620   6.944   3.640   3.961
10241SOL     OW31621   2.029   1.506   3.255
10241SOL    HW131622   1.933   1.520   3.279
10241SOL    HW231623   2.056   1.573   3.186
10242SOL     OW31624   0.436   6.312   6.353
10242SOL    HW131625   0.453   6.214   6.358
10242SOL    HW231626   0.499   6.360   6.414
10243SOL     OW31627   1.006   5.744   2.621
10243SOL    HW131628   0.918   5.756   2.667
10243SOL    HW231629   1.045   5.833   2.597
10244SOL     OW31630   1.989   6.453   6.432
10244SOL    HW131631   2.007   6.475   6.337
10244SOL    HW231632   2.030   6.364   6.455
10245SOL     OW31633   2.125   2.567   6.987
10245SOL    HW131634   2.056   2.584   0.036
10245SOL    HW231635   2.214   2.601   7.019
10246SOL     OW31636   4.166   3.428   4.696
10246SOL    HW131637   4.147   3.439   4.794
10246SOL    HW231638   4.262   3.449   4.679
10247SOL     OW31639   1.618   5.424   5.621
10247SOL    HW131640   1.706   5.381   5.640
10247SOL    HW231641   1.630   5.523   5.612
10248SOL     OW31642   4.755   0.558   1.809
10248SOL    HW131643   4.688   0.586   1.741
10248SOL    HW231644   4.823   0.630   1.821
10249SOL     OW31645   3.739   1.248   0.199
10249SOL    HW131646   3.763   1.239   0.296
10249SOL    HW231647   3.810   1.301   0.153
10250SOL     OW31648   6.679   0.280   0.272
10250SOL    HW131649   6.613   0.274   0.198
10250SOL    HW231650   6.742   0.356   0.256
10251SOL     OW31651   3.903   4.781   6.674
10251SOL    HW131652   3.846   4.701   6.692
10251SOL    HW231653   3.848   4.864   6.682
10252SOL     OW31654   6.554   5.228   1.884
10252SOL    HW131655   6.460   5.249   1.910
10252SOL    HW231656   6.557   5.204   1.787
10253SOL     OW31657   3.045   5.214   6.356
10253SOL    HW131658   2.971   5.161   6.397
10253SOL    HW231659   3.086   5.162   6.281
10254SOL     OW31660   2.450   2.327   5.081
10254SOL    HW131661   2.510   2.256   5.119
10254SOL    HW231662   2.505   2.406   5.055
10255SOL     OW31663   2.946   5.508   3.103
10255SOL    HW131664   2.873   5.505   3.171
10255SOL    HW231665   3.029   5.544   3.145
10256SOL     OW31666   5.849   6.120   6.706
10256SOL    HW131667   5.932   6.091   6.658
10256SOL    HW231668   5.868   6.129   6.803
10257SOL     OW31669   1.584   6.249   6.313
10257SOL    HW131670   1.552   6.175   6.255
10257SOL    HW231671   1.511   6.277   6.375
10258SOL     OW31672   4.128   0.928   3.156
10258SOL    HW131673   4.139   0.924   3.057
10258SOL    HW231674   4.218   0.937   3.199
10259SOL     OW31675   0.848   3.667   2.982
10259SOL    HW131676   0.894   3.581   3.004
10259SOL    HW231677   0.917   3.738   2.966
10260SOL     OW31678   0.150   6.853   1.447
10260SOL    HW131679   0.140   6.827   1.543
10260SOL    HW231680   0.247   6.867   1.426
10261SOL     OW31681   1.927   6.501   1.466
10261SOL    HW131682   1.994   6.435   1.499
10261SOL    HW231683   1.909   6.569   1.537
10262SOL     OW31684   2.027   5.180   5.012
10262SOL    HW131685   2.050   5.222   5.099
10262SOL    HW231686   2.060   5.086   5.011
10263SOL     OW31687   6.006   2.142   6.210
10263SOL    HW131688   6.093   2.125   6.257
10263SOL    HW231689   5.932   2.140   6.277
10264SOL     OW31690   0.372   0.205   6.946
10264SOL    HW131691   0.400   0.114   6.915
10264SOL    HW231692   0.398   0.216   0.021
10265SOL     OW31693   4.337   1.658   2.302
10265SOL    HW131694   4.268   1.724   2.332
10265SOL    HW231695   4.308   1.566   2.325
10266SOL     OW31696   3.729   4.169   6.361
10266SOL    HW131697   3.722   4.233   6.438
10266SOL    HW231698   3.809   4.193   6.306
10267SOL     OW31699   6.277   1.937   6.297
10267SOL    HW131700   6.276   1.971   6.203
10267SOL    HW231701   6.347   1.866   6.306
10268SOL     OW31702   6.515   5.076   1.668
10268SOL    HW131703   6.493   5.116   1.579
10268SOL    HW231704   6.512   4.976   1.660
10269SOL     OW31705   2.800   2.801   5.780
10269SOL    HW131706   2.892   2.836   5.765
10269SOL    HW231707   2.763   2.839   5.865
10270SOL     OW31708   2.284   6.267   1.223
10270SOL    HW131709   2.226   6.280   1.143
10270SOL    HW231710   2.371   6.226   1.194
10271SOL     OW31711   3.858   4.978   1.088
10271SOL    HW131712   3.943   4.955   1.135
10271SOL    HW231713   3.875   4.989   0.990
10272SOL     OW31714   0.976   0.942   6.066
10272SOL    HW131715   0.965   0.857   6.118
10272SOL    HW231716   0.912   0.943   5.989
10273SOL     OW31717   4.211   6.049   4.599
10273SOL    HW131718   4.302   6.084   4.581
10273SOL    HW231719   4.214   5.981   4.673
10274SOL     OW31720   2.044   6.047   5.815
10274SOL    HW131721   2.107   6.112   5.858
10274SOL    HW231722   2.082   5.955   5.820
10275SOL     OW31723   1.098   6.483   1.959
10275SOL    HW131724   1.135   6.560   2.012
10275SOL    HW231725   1.022   6.516   1.902
10276SOL     OW31726   6.824   6.257   6.064
10276SOL    HW131727   6.759   6.241   6.139
10276SOL    HW231728   6.867   6.346   6.076
10277SOL     OW31729   1.734   5.616   3.428
10277SOL    HW131730   1.679   5.662   3.359
10277SOL    HW231731   1.831   5.633   3.409
10278SOL     OW31732   5.882   0.493   6.183
10278SOL    HW131733   5.922   0.402   6.192
10278SOL    HW231734   5.810   0.505   6.251
10279SOL     OW31735   3.610   6.521   3.432
10279SOL    HW131736   3.687   6.488   3.378
10279SOL    HW231737   3.537   6.551   3.371
10280SOL     OW31738   2.832   3.542   6.595
10280SOL    HW131739   2.873   3.490   6.520
10280SOL    HW231740   2.800   3.631   6.560
10281SOL     OW31741   4.094   6.993   3.752
10281SOL    HW131742   4.059   6.913   3.801
10281SOL    HW231743   4.147   6.963   3.673
10282SOL     OW31744   0.889   2.394   4.631
10282SOL    HW131745   0.980   2.421   4.600
10282SOL    HW231746   0.897   2.339   4.714
10283SOL     OW31747   0.673   3.331   6.139
10283SOL    HW131748   0.606   3.354   6.209
10283SOL    HW231749   0.753   3.389   6.149
10284SOL     OW31750   5.355   3.455   6.162
10284SOL    HW131751   5.272   3.401   6.175
10284SOL    HW231752   5.416   3.442   6.240
10285SOL     OW31753   6.043   0.211   0.819
10285SOL    HW131754   6.092   0.148   0.758
10285SOL    HW231755   5.996   0.280   0.764
10286SOL     OW31756   4.502   0.802   3.871
10286SOL    HW131757   4.467   0.745   3.945
10286SOL    HW231758   4.480   0.898   3.889
10287SOL     OW31759   2.888   5.723   1.927
10287SOL    HW131760   2.812   5.703   1.866
10287SOL    HW231761   2.955   5.650   1.923
10288SOL     OW31762   5.085   6.388   4.069
10288SOL    HW131763   5.166   6.357   4.020
10288SOL    HW231764   5.006   6.334   4.041
10289SOL     OW31765   2.935   1.086   1.716
10289SOL    HW131766   2.842   1.060   1.688
10289SOL    HW231767   2.995   1.087   1.637
10290SOL     OW31768   3.071   3.692   2.221
10290SOL    HW131769   3.105   3.754   2.150
10290SOL    HW231770   3.007   3.628   2.180
10291SOL     OW31771   3.777   0.087   5.931
10291SOL    HW131772   3.775   0.185   5.911
10291SOL    HW231773   3.699   0.063   5.989
10292SOL     OW31774   0.132   1.309   4.153
10292SOL    HW131775   0.071   1.358   4.216
10292SOL    HW231776   0.170   1.373   4.086
10293SOL     OW31777   2.578   6.037   2.946
10293SOL    HW131778   2.671   6.014   2.918
10293SOL    HW231779   2.580   6.082   3.035
10294SOL     OW31780   5.741   1.124   3.641
10294SOL    HW131781   5.808   1.142   3.570
10294SOL    HW231782   5.680   1.050   3.612
10295SOL     OW31783   1.078   4.863   5.595
10295SOL    HW131784   1.084   4.765   5.578
10295SOL    HW231785   1.166   4.896   5.629
10296SOL     OW31786   5.797   1.887   0.735
10296SOL    HW131787   5.846   1.830   0.801
10296SOL    HW231788   5.839   1.876   0.645
10297SOL     OW31789   1.980   5.057   4.290
10297SOL    HW131790   2.015   5.011   4.208
10297SOL    HW231791   2.057   5.085   4.348
10298SOL     OW31792   5.421   3.401   3.634
10298SOL    HW131793   5.456   3.323   3.582
10298SOL    HW231794   5.486   3.476   3.630
10299SOL     OW31795   4.845   4.939   2.145
10299SOL    HW131796   4.758   4.971   2.183
10299SOL    HW231797   4.903   5.018   2.125
10300SOL     OW31798   1.775   4.648   2.777
10300SOL    HW131799   1.792   4.554   2.750
10300SOL    HW231800   1.696   4.684   2.728
10301SOL     OW31801   5.788   1.476   1.661
10301SOL    HW131802   5.709   1.432   1.703
10301SOL    HW231803   5.758   1.552   1.604
10302SOL     OW31804   2.009   5.428   3.460
10302SOL    HW131805   2.089   5.374   3.432
10302SOL    HW231806   1.936   5.366   3.490
10303SOL     OW31807   3.463   2.738   0.850
10303SOL    HW131808   3.400   2.761   0.775
10303SOL    HW231809   3.489   2.821   0.899
10304SOL     OW31810   6.233   6.611   3.515
10304SOL    HW131811   6.209   6.708   3.515
10304SOL    HW231812   6.205   6.571   3.427
10305SOL     OW31813   2.065   5.771   1.038
10305SOL    HW131814   1.988   5.834   1.028
10305SOL    HW231815   2.043   5.685   0.992
10306SOL     OW31816   4.414   5.424   0.440
10306SOL    HW131817   4.353   5.464   0.372
10306SOL    HW231818   4.375   5.338   0.473
10307SOL     OW31819   2.401   1.273   5.170
10307SOL    HW131820   2.353   1.237   5.250
10307SOL    HW231821   2.350   1.350   5.133
10308SOL     OW31822   3.124   5.531   3.863
10308SOL    HW131823   3.116   5.604   3.931
10308SOL    HW231824   3.055   5.545   3.792
10309SOL     OW31825   0.226   6.420   3.475
10309SOL    HW131826   0.215   6.434   3.573
10309SOL    HW231827   0.321   6.435   3.449
10310SOL     OW31828   4.118   3.361   4.004
10310SOL    HW131829   4.099   3.270   3.967
10310SOL    HW231830   4.120   3.358   4.103
10311SOL     OW31831   6.904   6.082   0.477
10311SOL    HW131832   6.943   6.027   0.550
10311SOL    HW231833   6.977   6.132   0.430
10312SOL     OW31834   1.777   4.747   0.901
10312SOL    HW131835   1.769   4.840   0.936
10312SOL    HW231836   1.862   4.706   0.934
10313SOL     OW31837   5.543   6.228   3.236
10313SOL    HW131838   5.561   6.274   3.323
10313SOL    HW231839   5.628   6.219   3.185
10314SOL     OW31840   6.750   5.520   6.765
10314SOL    HW131841   6.838   5.522   6.719
10314SOL    HW231842   6.706   5.431   6.749
10315SOL     OW31843   6.279   5.620   4.373
10315SOL    HW131844   6.363   5.671   4.353
10315SOL    HW231845   6.202   5.684   4.380
10316SOL     OW31846   0.109   3.597   2.760
10316SOL    HW131847   0.078   3.640   2.844
10316SOL    HW231848   0.163   3.516   2.782
10317SOL     OW31849   3.474   4.839   0.853
10317SOL    HW131850   3.432   4.748   0.857
10317SOL    HW231851   3.410   4.904   0.812
10318SOL     OW31852   6.777   5.909   1.874
10318SOL    HW131853   6.781   6.000   1.834
10318SOL    HW231854   6.830   5.908   1.959
10319SOL     OW31855   5.052   6.674   4.553
10319SOL    HW131856   5.138   6.725   4.554
10319SOL    HW231857   5.066   6.586   4.508
10320SOL     OW31858   4.688   6.663   0.924
10320SOL    HW131859   4.605   6.708   0.958
10320SOL    HW231860   4.754   6.733   0.897
10321SOL     OW31861   4.075   6.334   4.375
10321SOL    HW131862   4.140   6.343   4.451
10321SOL    HW231863   4.000   6.272   4.403
10322SOL     OW31864   6.885   2.598   0.448
10322SOL    HW131865   6.850   2.652   0.524
10322SOL    HW231866   6.809   2.568   0.390
10323SOL     OW31867   5.902   2.182   4.808
10323SOL    HW131868   5.860   2.136   4.886
10323SOL    HW231869   5.897   2.123   4.727
10324SOL     OW31870   3.021   3.204   3.350
10324SOL    HW131871   3.112   3.233   3.320
10324SOL    HW231872   2.989   3.265   3.422
10325SOL     OW31873   1.020   3.841   2.874
10325SOL    HW131874   1.096   3.777   2.871
10325SOL    HW231875   0.989   3.861   2.782
10326SOL     OW31876   5.036   1.586   1.457
10326SOL    HW131877   4.989   1.514   1.404
10326SOL    HW231878   5.132   1.590   1.428
10327SOL     OW31879   0.343   0.480   3.836
10327SOL    HW131880   0.377   0.530   3.756
10327SOL    HW231881   0.407   0.406   3.858
10328SOL     OW31882   6.063   2.880   2.421
10328SOL    HW131883   6.059   2.947   2.347
10328SOL    HW231884   6.064   2.788   2.382
10329SOL     OW31885   4.114   6.203   2.192
10329SOL    HW131886   4.049   6.213   2.116
10329SOL    HW231887   4.065   6.168   2.272
10330SOL     OW31888   3.688   5.008   1.407
10330SOL    HW131889   3.765   5.071   1.406
10330SOL    HW231890   3.670   4.979   1.501
10331SOL     OW31891   5.414   0.552   4.516
10331SOL    HW131892   5.328   0.501   4.511
10331SOL    HW231893   5.418   0.603   4.602
10332SOL     OW31894   0.370   2.140   6.721
10332SOL    HW131895   0.393   2.122   6.626
10332SOL    HW231896   0.451   2.172   6.770
10333SOL     OW31897   4.703   4.200   4.579
10333SOL    HW131898   4.759   4.119   4.564
10333SOL    HW231899   4.718   4.235   4.671
10334SOL     OW31900   1.022   4.939   5.014
10334SOL    HW131901   1.033   5.004   4.939
10334SOL    HW231902   1.016   4.846   4.977
10335SOL     OW31903   1.933   5.510   2.176
10335SOL    HW131904   1.858   5.575   2.162
10335SOL    HW231905   1.920   5.462   2.263
10336SOL     OW31906   4.700   6.901   2.746
10336SOL    HW131907   4.661   6.992   2.762
10336SOL    HW231908   4.660   6.836   2.810
10337SOL     OW31909   0.705   5.319   5.058
10337SOL    HW131910   0.623   5.369   5.032
10337SOL    HW231911   0.681   5.244   5.120
10338SOL     OW31912   3.742   5.168   3.541
10338SOL    HW131913   3.749   5.264   3.564
10338SOL    HW231914   3.737   5.113   3.624
10339SOL     OW31915   3.141   5.654   0.956
10339SOL    HW131916   3.093   5.644   1.043
10339SOL    HW231917   3.239   5.666   0.972
10340SOL     OW31918   1.628   6.495   6.758
10340SOL    HW131919   1.651   6.432   6.684
10340SOL    HW231920   1.712   6.526   6.802
10341SOL     OW31921   1.591   1.425   2.473
10341SOL    HW131922   1.529   1.367   2.524
10341SOL    HW231923   1.542   1.505   2.439
10342SOL     OW31924   2.571   6.690   4.345
10342SOL    HW131925   2.500   6.627   4.313
10342SOL    HW231926   2.541   6.733   4.430
10343SOL     OW31927   2.203   3.000   4.462
10343SOL    HW131928   2.180   3.052   4.544
10343SOL    HW231929   2.245   3.060   4.395
10344SOL     OW31930   4.103   3.982   6.739
10344SOL    HW131931   4.149   4.060   6.782
10344SOL    HW231932   4.171   3.926   6.692
10345SOL     OW31933   1.585   1.600   6.151
10345SOL    HW131934   1.485   1.596   6.157
10345SOL    HW231935   1.612   1.690   6.116
10346SOL     OW31936   4.984   5.521   0.057
10346SOL    HW131937   4.941   5.602   0.096
10346SOL    HW231938   4.953   5.509   6.983
10347SOL     OW31939   5.089   1.866   1.840
10347SOL    HW131940   5.180   1.836   1.868
10347SOL    HW231941   5.048   1.796   1.782
10348SOL     OW31942   6.952   5.024   5.810
10348SOL    HW131943   6.899   5.052   5.890
10348SOL    HW231944   6.987   5.105   5.763
10349SOL     OW31945   6.829   1.455   0.620
10349SOL    HW131946   6.924   1.486   0.608
10349SOL    HW231947   6.825   1.355   0.610
10350SOL     OW31948   2.291   4.083   4.408
10350SOL    HW131949   2.383   4.048   4.421
10350SOL    HW231950   2.258   4.124   4.494
10351SOL     OW31951   4.595   4.518   4.909
10351SOL    HW131952   4.502   4.516   4.945
10351SOL    HW231953   4.608   4.600   4.853
10352SOL     OW31954   5.342   1.520   0.327
10352SOL    HW131955   5.389   1.459   0.390
10352SOL    HW231956   5.243   1.518   0.345
10353SOL     OW31957   6.818   3.000   3.548
10353SOL    HW131958   6.736   3.038   3.506
10353SOL    HW231959   6.795   2.962   3.638
10354SOL     OW31960   6.700   3.041   1.049
10354SOL    HW131961   6.728   2.952   1.014
10354SOL    HW231962   6.673   3.100   0.973
10355SOL     OW31963   0.198   1.745   1.077
10355SOL    HW131964   0.155   1.662   1.041
10355SOL    HW231965   0.176   1.822   1.017
10356SOL     OW31966   5.856   3.160   5.784
10356SOL    HW131967   5.906   3.109   5.854
10356SOL    HW231968   5.759   3.165   5.810
10357SOL     OW31969   0.893   1.225   5.993
10357SOL    HW131970   0.839   1.250   6.073
10357SOL    HW231971   0.939   1.138   6.009
10358SOL     OW31972   0.823   1.803   2.782
10358SOL    HW131973   0.887   1.727   2.769
10358SOL    HW231974   0.872   1.883   2.816
10359SOL     OW31975   6.051   2.317   1.751
10359SOL    HW131976   6.005   2.368   1.824
10359SOL    HW231977   6.140   2.359   1.732
10360SOL     OW31978   6.286   4.458   1.679
10360SOL    HW131979   6.254   4.535   1.622
10360SOL    HW231980   6.208   4.413   1.721
10361SOL     OW31981   0.025   1.188   2.470
10361SOL    HW131982   0.090   1.158   2.400
10361SOL    HW231983   6.955   1.195   2.430
10362SOL     OW31984   0.984   5.925   1.133
10362SOL    HW131985   0.931   6.005   1.161
10362SOL    HW231986   1.012   5.936   1.037
10363SOL     OW31987   5.336   4.249   0.002
10363SOL    HW131988   5.251   4.227   0.050
10363SOL    HW231989   5.338   4.347   7.003
10364SOL     OW31990   6.161   4.599   2.303
10364SOL    HW131991   6.230   4.606   2.375
10364SOL    HW231992   6.103   4.681   2.303
10365SOL     OW31993   5.231   5.397   0.500
10365SOL    HW131994   5.207   5.486   0.538
10365SOL    HW231995   5.316   5.405   0.448
10366SOL     OW31996   2.822   6.062   3.217
10366SOL    HW131997   2.741   6.118   3.234
10366SOL    HW231998   2.872   6.099   3.139
10367SOL     OW31999   6.027   6.915   1.737
10367SOL    HW132000   6.085   6.838   1.710
10367SOL    HW232001   6.040   6.991   1.674
10368SOL     OW32002   1.936   6.392   1.850
10368SOL    HW132003   1.939   6.375   1.751
10368SOL    HW232004   1.841   6.400   1.880
10369SOL     OW32005   2.668   6.791   5.827
10369SOL    HW132006   2.700   6.815   5.918
10369SOL    HW232007   2.645   6.874   5.776
10370SOL     OW32008   0.981   0.697   6.174
10370SOL    HW132009   1.042   0.676   6.098
10370SOL    HW232010   0.926   0.617   6.197
10371SOL     OW32011   4.232   5.045   3.156
10371SOL    HW132012   4.295   5.046   3.233
10371SOL    HW232013   4.195   5.137   3.141
10372SOL     OW32014   2.898   6.408   1.446
10372SOL    HW132015   2.808   6.434   1.409
10372SOL    HW232016   2.892   6.402   1.546
10373SOL     OW32017   0.303   1.344   6.077
10373SOL    HW132018   0.203   1.347   6.083
10373SOL    HW232019   0.339   1.289   6.153
10374SOL     OW32020   3.918   5.485   3.726
10374SOL    HW132021   4.014   5.459   3.738
10374SOL    HW232022   3.896   5.562   3.787
10375SOL     OW32023   2.601   4.483   0.196
10375SOL    HW132024   2.592   4.578   0.166
10375SOL    HW232025   2.511   4.444   0.212
10376SOL     OW32026   2.230   4.971   3.137
10376SOL    HW132027   2.294   4.901   3.105
10376SOL    HW232028   2.172   4.932   3.209
10377SOL     OW32029   1.485   0.839   2.155
10377SOL    HW132030   1.474   0.740   2.166
10377SOL    HW232031   1.580   0.863   2.171
10378SOL     OW32032   6.929   4.870   4.067
10378SOL    HW132033   6.899   4.965   4.071
10378SOL    HW232034   6.999   4.854   4.136
10379SOL     OW32035   2.185   6.359   4.011
10379SOL    HW132036   2.166   6.453   3.982
10379SOL    HW232037   2.168   6.350   4.109
10380SOL     OW32038   2.116   2.320   4.442
10380SOL    HW132039   2.093   2.417   4.456
10380SOL    HW232040   2.213   2.312   4.421
10381SOL     OW32041   4.233   5.967   2.205
10381SOL    HW132042   4.249   5.964   2.303
10381SOL    HW232043   4.199   6.058   2.179
10382SOL     OW32044   4.105   5.761   2.116
10382SOL    HW132045   4.140   5.845   2.157
10382SOL    HW232046   4.146   5.682   2.162
10383SOL     OW32047   1.704   4.653   0.352
10383SOL    HW132048   1.614   4.635   0.392
10383SOL    HW232049   1.701   4.739   0.301
10384SOL     OW32050   5.682   6.620   1.626
10384SOL    HW132051   5.705   6.682   1.700
10384SOL    HW232052   5.583   6.609   1.620
10385SOL     OW32053   4.849   4.853   0.024
10385SOL    HW132054   4.780   4.896   0.082
10385SOL    HW232055   4.827   4.756   0.011
10386SOL     OW32056   6.942   0.828   0.821
10386SOL    HW132057   6.921   0.759   0.752
10386SOL    HW232058   0.018   0.852   0.814
10387SOL     OW32059   4.987   3.091   1.917
10387SOL    HW132060   5.066   3.097   1.978
10387SOL    HW232061   4.909   3.051   1.965
10388SOL     OW32062   2.710   0.462   5.502
10388SOL    HW132063   2.618   0.426   5.515
10388SOL    HW232064   2.768   0.438   5.580
10389SOL     OW32065   0.361   3.568   0.670
10389SOL    HW132066   0.308   3.615   0.599
10389SOL    HW232067   0.352   3.469   0.657
10390SOL     OW32068   2.074   2.434   1.664
10390SOL    HW132069   2.022   2.395   1.587
10390SOL    HW232070   2.100   2.360   1.726
10391SOL     OW32071   5.694   0.010   4.195
10391SOL    HW132072   5.785   0.045   4.218
10391SOL    HW232073   5.629   0.036   4.265
10392SOL     OW32074   6.779   4.338   3.907
10392SOL    HW132075   6.784   4.248   3.865
10392SOL    HW232076   6.694   4.383   3.880
10393SOL     OW32077   1.425   3.953   3.464
10393SOL    HW132078   1.516   3.972   3.502
10393SOL    HW232079   1.375   3.893   3.525
10394SOL     OW32080   3.477   6.052   4.479
10394SOL    HW132081   3.510   6.146   4.466
10394SOL    HW232082   3.411   6.029   4.408
10395SOL     OW32083   0.397   0.345   1.085
10395SOL    HW132084   0.345   0.375   1.005
10395SOL    HW232085   0.406   0.421   1.149
10396SOL     OW32086   2.727   2.058   4.859
10396SOL    HW132087   2.826   2.044   4.861
10396SOL    HW232088   2.705   2.134   4.799
10397SOL     OW32089   3.254   2.107   2.671
10397SOL    HW132090   3.348   2.114   2.637
10397SOL    HW232091   3.215   2.020   2.642
10398SOL     OW32092   6.597   2.745   1.377
10398SOL    HW132093   6.602   2.736   1.277
10398SOL    HW232094   6.686   2.721   1.416
10399SOL     OW32095   6.033   3.527   2.085
10399SOL    HW132096   5.977   3.523   2.003
10399SOL    HW232097   5.975   3.534   2.166
10400SOL     OW32098   4.007   6.646   0.161
10400SOL    HW132099   3.975   6.713   0.228
10400SOL    HW232100   4.089   6.601   0.196
10401SOL     OW32101   0.235   1.077   5.415
10401SOL    HW132102   0.287   1.163   5.413
10401SOL    HW232103   0.217   1.052   5.510
10402SOL     OW32104   6.766   2.710   4.181
10402SOL    HW132105   6.737   2.794   4.137
10402SOL    HW232106   6.697   2.639   4.169
10403SOL     OW32107   2.762   0.426   3.206
10403SOL    HW132108   2.817   0.346   3.229
10403SOL    HW232109   2.697   0.402   3.133
10404SOL     OW32110   0.310   6.412   6.624
10404SOL    HW132111   0.398   6.445   6.589
10404SOL    HW232112   0.251   6.389   6.546
10405SOL     OW32113   0.089   1.113   6.185
10405SOL    HW132114   0.070   1.123   6.087
10405SOL    HW232115   0.097   1.203   6.227
10406SOL     OW32116   3.207   4.939   1.700
10406SOL    HW132117   3.123   4.981   1.735
10406SOL    HW232118   3.195   4.840   1.697
10407SOL     OW32119   3.054   6.926   0.319
10407SOL    HW132120   2.965   6.883   0.305
10407SOL    HW232121   3.124   6.854   0.327
10408SOL     OW32122   4.299   0.311   0.612
10408SOL    HW132123   4.240   0.233   0.631
10408SOL    HW232124   4.248   0.379   0.560
10409SOL     OW32125   5.859   5.099   1.145
10409SOL    HW132126   5.772   5.148   1.131
10409SOL    HW232127   5.885   5.052   1.061
10410SOL     OW32128   5.995   0.708   0.289
10410SOL    HW132129   6.093   0.728   0.280
10410SOL    HW232130   5.977   0.671   0.380
10411SOL     OW32131   2.983   5.234   3.341
10411SOL    HW132132   3.048   5.307   3.321
10411SOL    HW232133   3.005   5.193   3.429
10412SOL     OW32134   5.984   0.314   0.462
10412SOL    HW132135   5.889   0.284   0.466
10412SOL    HW232136   6.027   0.277   0.380
10413SOL     OW32137   5.983   2.429   1.059
10413SOL    HW132138   5.947   2.462   0.971
10413SOL    HW232139   5.908   2.411   1.121
10414SOL     OW32140   4.617   2.628   4.624
10414SOL    HW132141   4.564   2.591   4.548
10414SOL    HW232142   4.627   2.559   4.695
10415SOL     OW32143   0.727   6.280   6.122
10415SOL    HW132144   0.692   6.372   6.134
10415SOL    HW232145   0.785   6.277   6.041
10416SOL     OW32146   5.846   3.039   4.742
10416SOL    HW132147   5.793   2.955   4.734
10416SOL    HW232148   5.788   3.112   4.778
10417SOL     OW32149   2.440   4.872   4.011
10417SOL    HW132150   2.485   4.954   4.048
10417SOL    HW232151   2.504   4.822   3.954
10418SOL     OW32152   0.813   4.311   5.146
10418SOL    HW132153   0.808   4.266   5.235
10418SOL    HW232154   0.831   4.408   5.158
10419SOL     OW32155   1.176   1.202   0.638
10419SOL    HW132156   1.116   1.279   0.658
10419SOL    HW232157   1.265   1.216   0.682
10420SOL     OW32158   6.785   2.781   2.729
10420SOL    HW132159   6.838   2.723   2.666
10420SOL    HW232160   6.848   2.844   2.775
10421SOL     OW32161   1.400   0.386   3.705
10421SOL    HW132162   1.421   0.293   3.735
10421SOL    HW232163   1.462   0.450   3.750
10422SOL     OW32164   6.402   2.318   5.919
10422SOL    HW132165   6.395   2.369   5.834
10422SOL    HW232166   6.486   2.345   5.967
10423SOL     OW32167   4.671   4.517   3.907
10423SOL    HW132168   4.608   4.491   3.834
10423SOL    HW232169   4.734   4.441   3.926
10424SOL     OW32170   5.101   1.336   6.737
10424SOL    HW132171   5.019   1.279   6.746
10424SOL    HW232172   5.073   1.432   6.728
10425SOL     OW32173   1.351   5.651   2.794
10425SOL    HW132174   1.285   5.584   2.830
10425SOL    HW232175   1.337   5.739   2.839
10426SOL     OW32176   6.284   4.279   0.133
10426SOL    HW132177   6.212   4.347   0.116
10426SOL    HW232178   6.342   4.310   0.209
10427SOL     OW32179   5.211   2.121   0.481
10427SOL    HW132180   5.272   2.055   0.438
10427SOL    HW232181   5.219   2.209   0.434
10428SOL     OW32182   4.207   0.681   4.350
10428SOL    HW132183   4.295   0.676   4.302
10428SOL    HW232184   4.155   0.597   4.333
10429SOL     OW32185   7.013   5.956   1.610
10429SOL    HW132186   7.007   6.055   1.619
10429SOL    HW232187   0.085   5.930   1.584
10430SOL     OW32188   4.228   6.731   2.822
10430SOL    HW132189   4.180   6.819   2.829
10430SOL    HW232190   4.163   6.660   2.794
10431SOL     OW32191   2.783   0.485   4.731
10431SOL    HW132192   2.721   0.492   4.809
10431SOL    HW232193   2.873   0.519   4.757
10432SOL     OW32194   5.806   0.686   4.223
10432SOL    HW132195   5.713   0.651   4.224
10432SOL    HW232196   5.839   0.693   4.317
10433SOL     OW32197   1.717   6.684   1.005
10433SOL    HW132198   1.776   6.643   0.935
10433SOL    HW232199   1.744   6.779   1.020
10434SOL     OW32200   2.991   0.104   3.801
10434SOL    HW132201   2.972   0.007   3.815
10434SOL    HW232202   3.036   0.118   3.713
10435SOL     OW32203   5.561   6.476   6.194
10435SOL    HW132204   5.551   6.463   6.095
10435SOL    HW232205   5.568   6.574   6.214
10436SOL     OW32206   1.346   4.949   4.253
10436SOL    HW132207   1.402   5.028   4.279
10436SOL    HW232208   1.403   4.866   4.255
10437SOL     OW32209   6.611   5.240   5.936
10437SOL    HW132210   6.644   5.253   5.843
10437SOL    HW232211   6.670   5.174   5.983
10438SOL     OW32212   5.040   6.978   0.446
10438SOL    HW132213   5.007   6.884   0.445
10438SOL    HW232214   5.050   7.009   0.541
10439SOL     OW32215   3.464   0.255   5.808
10439SOL    HW132216   3.517   0.214   5.734
10439SOL    HW232217   3.367   0.236   5.793
10440SOL     OW32218   1.692   6.684   1.340
10440SOL    HW132219   1.689   6.594   1.384
10440SOL    HW232220   1.715   6.673   1.243
10441SOL     OW32221   5.340   2.165   6.730
10441SOL    HW132222   5.280   2.116   6.667
10441SOL    HW232223   5.417   2.106   6.755
10442SOL     OW32224   3.921   4.838   5.552
10442SOL    HW132225   3.936   4.828   5.650
10442SOL    HW232226   3.823   4.850   5.535
10443SOL     OW32227   5.845   3.679   5.112
10443SOL    HW132228   5.778   3.709   5.044
10443SOL    HW232229   5.801   3.620   5.179
10444SOL     OW32230   3.590   5.284   4.924
10444SOL    HW132231   3.626   5.253   5.012
10444SOL    HW232232   3.532   5.364   4.938
10445SOL     OW32233   6.707   6.167   4.497
10445SOL    HW132234   6.707   6.174   4.596
10445SOL    HW232235   6.618   6.195   4.461
10446SOL     OW32236   1.132   4.865   6.014
10446SOL    HW132237   1.132   4.856   6.114
10446SOL    HW232238   1.096   4.781   5.973
10447SOL     OW32239   5.888   2.149   1.132
10447SOL    HW132240   5.946   2.074   1.166
10447SOL    HW232241   5.888   2.146   1.032
10448SOL     OW32242   3.552   3.763   1.868
10448SOL    HW132243   3.529   3.708   1.787
10448SOL    HW232244   3.651   3.765   1.881
10449SOL     OW32245   2.571   5.385   4.189
10449SOL    HW132246   2.622   5.320   4.244
10449SOL    HW232247   2.473   5.372   4.205
10450SOL     OW32248   6.439   1.770   0.344
10450SOL    HW132249   6.442   1.867   0.369
10450SOL    HW232250   6.529   1.729   0.356
10451SOL     OW32251   2.586   4.607   3.189
10451SOL    HW132252   2.546   4.692   3.156
10451SOL    HW232253   2.615   4.551   3.111
10452SOL     OW32254   0.814   2.931   3.687
10452SOL    HW132255   0.905   2.891   3.671
10452SOL    HW232256   0.760   2.870   3.744
10453SOL     OW32257   5.365   6.054   1.520
10453SOL    HW132258   5.457   6.050   1.480
10453SOL    HW232259   5.313   6.127   1.474
10454SOL     OW32260   5.099   2.962   2.188
10454SOL    HW132261   5.170   2.893   2.171
10454SOL    HW232262   5.138   3.053   2.177
10455SOL     OW32263   0.072   4.699   3.583
10455SOL    HW132264   0.152   4.643   3.605
10455SOL    HW232265   7.016   4.671   3.639
10456SOL     OW32266   4.383   6.153   1.460
10456SOL    HW132267   4.365   6.179   1.365
10456SOL    HW232268   4.414   6.058   1.463
10457SOL     OW32269   3.957   3.807   3.311
10457SOL    HW132270   4.000   3.724   3.276
10457SOL    HW232271   3.955   3.804   3.411
10458SOL     OW32272   1.231   6.839   1.057
10458SOL    HW132273   1.273   6.786   0.983
10458SOL    HW232274   1.196   6.925   1.020
10459SOL     OW32275   6.165   5.287   2.762
10459SOL    HW132276   6.108   5.253   2.688
10459SOL    HW232277   6.108   5.329   2.832
10460SOL     OW32278   2.194   4.927   1.929
10460SOL    HW132279   2.220   4.981   1.849
10460SOL    HW232280   2.247   4.957   2.008
10461SOL     OW32281   3.233   0.654   6.401
10461SOL    HW132282   3.213   0.752   6.409
10461SOL    HW232283   3.235   0.628   6.305
10462SOL     OW32284   6.499   0.654   1.020
10462SOL    HW132285   6.486   0.556   1.036
10462SOL    HW232286   6.597   0.674   1.015
10463SOL     OW32287   2.779   5.050   0.486
10463SOL    HW132288   2.783   5.107   0.568
10463SOL    HW232289   2.837   5.089   0.415
10464SOL     OW32290   5.687   0.587   0.893
10464SOL    HW132291   5.722   0.675   0.862
10464SOL    HW232292   5.667   0.529   0.814
10465SOL     OW32293   6.589   5.094   6.405
10465SOL    HW132294   6.507   5.045   6.433
10465SOL    HW232295   6.667   5.061   6.459
10466SOL     OW32296   4.754   6.240   5.603
10466SOL    HW132297   4.703   6.224   5.518
10466SOL    HW232298   4.749   6.158   5.660
10467SOL     OW32299   2.701   1.447   5.419
10467SOL    HW132300   2.744   1.422   5.332
10467SOL    HW232301   2.612   1.402   5.427
10468SOL     OW32302   3.351   6.443   3.611
10468SOL    HW132303   3.366   6.442   3.710
10468SOL    HW232304   3.439   6.444   3.563
10469SOL     OW32305   1.504   4.831   0.589
10469SOL    HW132306   1.517   4.772   0.669
10469SOL    HW232307   1.591   4.874   0.566
10470SOL     OW32308   2.674   1.621   4.216
10470SOL    HW132309   2.654   1.613   4.314
10470SOL    HW232310   2.705   1.532   4.181
10471SOL     OW32311   2.938   3.651   1.070
10471SOL    HW132312   2.959   3.683   0.977
10471SOL    HW232313   2.881   3.570   1.065
10472SOL     OW32314   3.774   0.864   2.019
10472SOL    HW132315   3.825   0.848   1.934
10472SOL    HW232316   3.833   0.843   2.097
10473SOL     OW32317   4.978   6.045   0.146
10473SOL    HW132318   4.953   6.136   0.113
10473SOL    HW232319   5.038   6.054   0.226
10474SOL     OW32320   4.044   0.862   4.759
10474SOL    HW132321   4.057   0.960   4.772
10474SOL    HW232322   4.114   0.828   4.696
10475SOL     OW32323   4.168   0.216   1.519
10475SOL    HW132324   4.258   0.247   1.549
10475SOL    HW232325   4.129   0.156   1.589
10476SOL     OW32326   0.222   5.373   0.159
10476SOL    HW132327   0.205   5.372   0.258
10476SOL    HW232328   0.307   5.325   0.139
10477SOL     OW32329   5.451   3.993   5.483
10477SOL    HW132330   5.428   3.915   5.540
10477SOL    HW232331   5.492   3.962   5.398
10478SOL     OW32332   0.144   6.400   1.518
10478SOL    HW132333   0.090   6.384   1.435
10478SOL    HW232334   0.199   6.483   1.507
10479SOL     OW32335   1.432   3.455   2.995
10479SOL    HW132336   1.507   3.427   2.935
10479SOL    HW232337   1.406   3.550   2.973
10480SOL     OW32338   5.314   0.160   2.323
10480SOL    HW132339   5.290   0.158   2.420
10480SOL    HW232340   5.328   0.255   2.295
10481SOL     OW32341   1.745   0.645   5.096
10481SOL    HW132342   1.792   0.714   5.040
10481SOL    HW232343   1.672   0.688   5.148
10482SOL     OW32344   1.527   5.779   5.291
10482SOL    HW132345   1.448   5.722   5.314
10482SOL    HW232346   1.495   5.866   5.252
10483SOL     OW32347   6.740   5.334   0.166
10483SOL    HW132348   6.740   5.239   0.199
10483SOL    HW232349   6.802   5.389   0.222
10484SOL     OW32350   6.229   1.001   1.251
10484SOL    HW132351   6.203   1.097   1.244
10484SOL    HW232352   6.254   0.966   1.160
10485SOL     OW32353   3.312   4.098   2.949
10485SOL    HW132354   3.369   4.142   3.019
10485SOL    HW232355   3.256   4.027   2.992
10486SOL     OW32356   6.160   6.391   5.702
10486SOL    HW132357   6.258   6.388   5.683
10486SOL    HW232358   6.118   6.305   5.676
10487SOL     OW32359   4.383   2.150   1.764
10487SOL    HW132360   4.298   2.171   1.715
10487SOL    HW232361   4.370   2.066   1.817
10488SOL     OW32362   6.900   2.191   5.836
10488SOL    HW132363   6.931   2.120   5.773
10488SOL    HW232364   6.823   2.157   5.890
10489SOL     OW32365   6.057   4.562   4.676
10489SOL    HW132366   6.061   4.661   4.667
10489SOL    HW232367   6.149   4.524   4.665
10490SOL     OW32368   5.952   6.276   6.226
10490SOL    HW132369   5.951   6.313   6.319
10490SOL    HW232370   6.038   6.229   6.210
10491SOL     OW32371   1.752   2.590   6.309
10491SOL    HW132372   1.711   2.509   6.267
10491SOL    HW232373   1.682   2.659   6.325
10492SOL     OW32374   4.151   0.509   0.154
10492SOL    HW132375   4.068   0.498   0.100
10492SOL    HW232376   4.169   0.606   0.169
10493SOL     OW32377   4.465   5.726   0.704
10493SOL    HW132378   4.379   5.765   0.670
10493SOL    HW232379   4.541   5.787   0.682
10494SOL     OW32380   0.827   4.538   5.280
10494SOL    HW132381   0.849   4.500   5.370
10494SOL    HW232382   0.784   4.628   5.292
10495SOL     OW32383   0.653   6.419   0.465
10495SOL    HW132384   0.733   6.476   0.444
10495SOL    HW232385   0.683   6.338   0.516
10496SOL     OW32386   0.110   3.653   5.137
10496SOL    HW132387   0.178   3.714   5.097
10496SOL    HW232388   0.153   3.567   5.164
10497SOL     OW32389   2.133   6.908   1.482
10497SOL    HW132390   2.222   6.882   1.520
10497SOL    HW232391   2.146   6.984   1.418
10498SOL     OW32392   4.117   5.102   0.296
10498SOL    HW132393   4.209   5.138   0.285
10498SOL    HW232394   4.054   5.178   0.315
10499SOL     OW32395   5.904   5.258   2.661
10499SOL    HW132396   5.879   5.259   2.758
10499SOL    HW232397   5.881   5.169   2.622
10500SOL     OW32398   6.619   3.645   5.019
10500SOL    HW132399   6.618   3.545   5.030
10500SOL    HW232400   6.703   3.673   4.974
10501SOL     OW32401   2.783   5.106   2.773
10501SOL    HW132402   2.821   5.198   2.777
10501SOL    HW232403   2.847   5.041   2.814
10502SOL     OW32404   3.218   4.092   2.392
10502SOL    HW132405   3.316   4.073   2.400
10502SOL    HW232406   3.203   4.191   2.384
10503SOL     OW32407   6.139   2.438   6.352
10503SOL    HW132408   6.105   2.450   6.259
10503SOL    HW232409   6.200   2.514   6.375
10504SOL     OW32410   1.273   2.416   5.783
10504SOL    HW132411   1.231   2.427   5.873
10504SOL    HW232412   1.291   2.319   5.766
10505SOL     OW32413   5.666   6.620   0.778
10505SOL    HW132414   5.625   6.534   0.748
10505SOL    HW232415   5.611   6.696   0.744
10506SOL     OW32416   1.251   2.667   0.115
10506SOL    HW132417   1.220   2.667   0.210
10506SOL    HW232418   1.269   2.761   0.085
10507SOL     OW32419   1.318   5.048   6.570
10507SOL    HW132420   1.273   5.102   6.498
10507SOL    HW232421   1.274   4.959   6.577
10508SOL     OW32422   1.662   5.019   4.808
10508SOL    HW132423   1.602   5.024   4.888
10508SOL    HW232424   1.696   5.110   4.786
10509SOL     OW32425   4.654   2.631   3.674
10509SOL    HW132426   4.630   2.703   3.740
10509SOL    HW232427   4.717   2.567   3.716
10510SOL     OW32428   5.559   5.347   3.833
10510SOL    HW132429   5.602   5.280   3.893
10510SOL    HW232430   5.472   5.311   3.799
10511SOL     OW32431   4.329   1.833   2.070
10511SOL    HW132432   4.381   1.903   2.120
10511SOL    HW232433   4.390   1.758   2.045
10512SOL     OW32434   4.187   1.423   4.634
10512SOL    HW132435   4.140   1.511   4.632
10512SOL    HW232436   4.206   1.394   4.540
10513SOL     OW32437   5.262   3.452   1.167
10513SOL    HW132438   5.262   3.396   1.084
10513SOL    HW232439   5.325   3.529   1.155
10514SOL     OW32440   0.635   3.364   1.881
10514SOL    HW132441   0.693   3.424   1.825
10514SOL    HW232442   0.692   3.319   1.950
10515SOL     OW32443   2.186   2.785   5.167
10515SOL    HW132444   2.114   2.753   5.106
10515SOL    HW232445   2.247   2.847   5.117
10516SOL     OW32446   4.112   2.337   1.133
10516SOL    HW132447   4.202   2.353   1.173
10516SOL    HW232448   4.112   2.249   1.085
10517SOL     OW32449   1.192   2.561   3.217
10517SOL    HW132450   1.230   2.496   3.284
10517SOL    HW232451   1.183   2.516   3.129
10518SOL     OW32452   0.695   4.895   2.550
10518SOL    HW132453   0.624   4.827   2.535
10518SOL    HW232454   0.775   4.873   2.494
10519SOL     OW32455   3.593   6.558   1.122
10519SOL    HW132456   3.516   6.514   1.168
10519SOL    HW232457   3.640   6.491   1.065
10520SOL     OW32458   6.798   2.267   5.059
10520SOL    HW132459   6.884   2.238   5.015
10520SOL    HW232460   6.721   2.247   4.998
10521SOL     OW32461   6.584   3.266   1.794
10521SOL    HW132462   6.523   3.187   1.804
10521SOL    HW232463   6.675   3.243   1.828
10522SOL     OW32464   4.996   2.587   3.330
10522SOL    HW132465   4.964   2.496   3.355
10522SOL    HW232466   5.051   2.582   3.246
10523SOL     OW32467   0.114   4.385   2.855
10523SOL    HW132468   0.149   4.445   2.927
10523SOL    HW232469   0.045   4.434   2.801
10524SOL     OW32470   0.237   6.412   5.109
10524SOL    HW132471   0.238   6.462   5.195
10524SOL    HW232472   0.151   6.361   5.101
10525SOL     OW32473   5.316   1.619   4.008
10525SOL    HW132474   5.296   1.714   4.033
10525SOL    HW232475   5.405   1.614   3.964
10526SOL     OW32476   1.426   5.175   0.578
10526SOL    HW132477   1.369   5.100   0.612
10526SOL    HW232478   1.425   5.174   0.478
10527SOL     OW32479   0.741   6.817   4.641
10527SOL    HW132480   0.834   6.799   4.672
10527SOL    HW232481   0.720   6.759   4.562
10528SOL     OW32482   1.474   4.020   5.485
10528SOL    HW132483   1.490   3.993   5.390
10528SOL    HW232484   1.473   3.938   5.543
10529SOL     OW32485   0.865   6.272   0.983
10529SOL    HW132486   0.794   6.338   0.961
10529SOL    HW232487   0.954   6.316   0.981
10530SOL     OW32488   0.307   5.672   0.956
10530SOL    HW132489   0.239   5.650   1.026
10530SOL    HW232490   0.332   5.589   0.907
10531SOL     OW32491   2.990   3.176   5.221
10531SOL    HW132492   2.993   3.085   5.262
10531SOL    HW232493   2.918   3.230   5.265
10532SOL     OW32494   5.692   6.334   6.635
10532SOL    HW132495   5.740   6.252   6.666
10532SOL    HW232496   5.628   6.364   6.705
10533SOL     OW32497   3.524   6.265   3.316
10533SOL    HW132498   3.568   6.354   3.332
10533SOL    HW232499   3.453   6.250   3.385
10534SOL     OW32500   1.512   6.014   3.882
10534SOL    HW132501   1.595   6.070   3.892
10534SOL    HW232502   1.538   5.920   3.859
10535SOL     OW32503   3.413   1.913   2.247
10535SOL    HW132504   3.367   1.838   2.294
10535SOL    HW232505   3.344   1.977   2.212
10536SOL     OW32506   5.880   1.557   4.113
10536SOL    HW132507   5.975   1.559   4.143
10536SOL    HW232508   5.850   1.463   4.101
10537SOL     OW32509   3.846   0.142   4.050
10537SOL    HW132510   3.860   0.170   4.145
10537SOL    HW232511   3.851   0.222   3.991
10538SOL     OW32512   6.773   3.360   2.943
10538SOL    HW132513   6.741   3.320   3.029
10538SOL    HW232514   6.728   3.314   2.867
10539SOL     OW32515   6.688   0.143   2.782
10539SOL    HW132516   6.597   0.107   2.802
10539SOL    HW232517   6.681   0.221   2.719
10540SOL     OW32518   1.920   3.435   5.894
10540SOL    HW132519   1.954   3.501   5.828
10540SOL    HW232520   1.951   3.460   5.986
10541SOL     OW32521   3.398   3.076   5.391
10541SOL    HW132522   3.365   3.168   5.373
10541SOL    HW232523   3.345   3.010   5.338
10542SOL     OW32524   5.113   0.141   4.660
10542SOL    HW132525   5.202   0.186   4.653
10542SOL    HW232526   5.060   0.159   4.577
10543SOL     OW32527   0.532   3.625   4.992
10543SOL    HW132528   0.517   3.534   4.954
10543SOL    HW232529   0.577   3.617   5.081
10544SOL     OW32530   1.900   1.374   2.849
10544SOL    HW132531   1.851   1.323   2.920
10544SOL    HW232532   1.990   1.401   2.884
10545SOL     OW32533   2.045   2.658   2.460
10545SOL    HW132534   2.127   2.689   2.508
10545SOL    HW232535   2.070   2.581   2.400
10546SOL     OW32536   2.780   6.792   7.003
10546SOL    HW132537   2.839   6.858   6.956
10546SOL    HW232538   2.812   6.780   0.076
10547SOL     OW32539   4.514   0.497   4.730
10547SOL    HW132540   4.538   0.478   4.826
10547SOL    HW232541   4.415   0.505   4.722
10548SOL     OW32542   0.585   5.112   3.820
10548SOL    HW132543   0.677   5.130   3.855
10548SOL    HW232544   0.554   5.023   3.853
10549SOL     OW32545   6.760   0.674   1.038
10549SOL    HW132546   6.771   0.613   0.960
10549SOL    HW232547   6.833   0.743   1.037
10550SOL     OW32548   4.789   5.767   3.571
10550SOL    HW132549   4.718   5.831   3.542
10550SOL    HW232550   4.826   5.796   3.659
10551SOL     OW32551   2.674   1.973   5.991
10551SOL    HW132552   2.703   1.950   5.898
10551SOL    HW232553   2.753   1.969   6.052
10552SOL     OW32554   2.441   1.320   4.405
10552SOL    HW132555   2.464   1.248   4.471
10552SOL    HW232556   2.343   1.318   4.387
10553SOL     OW32557   0.280   4.786   0.554
10553SOL    HW132558   0.335   4.868   0.540
10553SOL    HW232559   0.189   4.812   0.588
10554SOL     OW32560   6.429   6.010   2.038
10554SOL    HW132561   6.379   6.079   1.985
10554SOL    HW232562   6.501   6.055   2.091
10555SOL     OW32563   3.919   2.817   0.464
10555SOL    HW132564   3.858   2.894   0.445
10555SOL    HW232565   3.939   2.768   0.379
10556SOL     OW32566   2.385   1.656   2.624
10556SOL    HW132567   2.408   1.566   2.587
10556SOL    HW232568   2.306   1.693   2.576
10557SOL     OW32569   2.409   4.368   3.789
10557SOL    HW132570   2.404   4.401   3.883
10557SOL    HW232571   2.493   4.401   3.746
10558SOL     OW32572   3.122   5.389   4.624
10558SOL    HW132573   3.031   5.350   4.637
10558SOL    HW232574   3.161   5.355   4.538
10559SOL     OW32575   4.424   6.603   0.315
10559SOL    HW132576   4.438   6.521   0.370
10559SOL    HW232577   4.336   6.598   0.268
10560SOL     OW32578   5.544   6.977   2.439
10560SOL    HW132579   5.516   0.049   2.414
10560SOL    HW232580   5.640   6.979   2.466
10561SOL     OW32581   5.915   4.319   0.447
10561SOL    HW132582   5.848   4.351   0.513
10561SOL    HW232583   5.873   4.251   0.387
10562SOL     OW32584   3.953   6.395   2.540
10562SOL    HW132585   3.967   6.301   2.512
10562SOL    HW232586   3.856   6.418   2.531
10563SOL     OW32587   0.241   0.718   1.703
10563SOL    HW132588   0.228   0.620   1.718
10563SOL    HW232589   0.161   0.756   1.656
10564SOL     OW32590   5.567   4.732   3.830
10564SOL    HW132591   5.622   4.690   3.758
10564SOL    HW232592   5.601   4.703   3.920
10565SOL     OW32593   1.068   0.180   5.679
10565SOL    HW132594   1.072   0.102   5.740
10565SOL    HW232595   0.995   0.242   5.708
10566SOL     OW32596   2.929   3.507   6.855
10566SOL    HW132597   2.985   3.589   6.847
10566SOL    HW232598   2.872   3.497   6.773
10567SOL     OW32599   1.223   2.237   6.577
10567SOL    HW132600   1.159   2.306   6.545
10567SOL    HW232601   1.272   2.198   6.499
10568SOL     OW32602   5.127   2.282   5.583
10568SOL    HW132603   5.119   2.331   5.497
10568SOL    HW232604   5.143   2.347   5.658
10569SOL     OW32605   5.863   6.540   0.359
10569SOL    HW132606   5.907   6.520   0.271
10569SOL    HW232607   5.930   6.525   0.433
10570SOL     OW32608   1.287   4.929   3.186
10570SOL    HW132609   1.214   4.894   3.127
10570SOL    HW232610   1.247   4.988   3.256
10571SOL     OW32611   6.570   4.769   6.138
10571SOL    HW132612   6.576   4.672   6.117
10571SOL    HW232613   6.477   4.801   6.123
10572SOL     OW32614   5.963   4.510   0.878
10572SOL    HW132615   6.020   4.591   0.861
10572SOL    HW232616   6.016   4.427   0.859
10573SOL     OW32617   5.709   1.711   3.483
10573SOL    HW132618   5.689   1.725   3.580
10573SOL    HW232619   5.705   1.614   3.461
10574SOL     OW32620   6.276   2.512   3.418
10574SOL    HW132621   6.204   2.518   3.487
10574SOL    HW232622   6.357   2.469   3.458
10575SOL     OW32623   6.527   0.475   1.499
10575SOL    HW132624   6.566   0.556   1.455
10575SOL    HW232625   6.544   0.395   1.442
10576SOL     OW32626   1.208   4.508   4.179
10576SOL    HW132627   1.227   4.503   4.277
10576SOL    HW232628   1.285   4.552   4.132
10577SOL     OW32629   4.240   5.007   0.643
10577SOL    HW132630   4.222   4.979   0.737
10577SOL    HW232631   4.324   4.962   0.610
10578SOL     OW32632   0.012   3.676   4.701
10578SOL    HW132633   0.025   3.589   4.653
10578SOL    HW232634   0.094   3.732   4.690
10579SOL     OW32635   1.376   3.556   6.934
10579SOL    HW132636   1.296   3.499   6.914
10579SOL    HW232637   1.357   3.650   6.906
10580SOL     OW32638   6.666   6.600   0.026
10580SOL    HW132639   6.611   6.575   0.105
10580SOL    HW232640   6.682   6.699   0.026
10581SOL     OW32641   5.560   0.056   3.073
10581SOL    HW132642   5.644   0.023   3.118
10581SOL    HW232643   5.561   0.029   2.977
10582SOL     OW32644   5.879   4.634   6.170
10582SOL    HW132645   5.811   4.669   6.105
10582SOL    HW232646   5.839   4.632   6.262
10583SOL     OW32647   3.201   1.049   5.535
10583SOL    HW132648   3.165   1.108   5.463
10583SOL    HW232649   3.208   0.955   5.501
10584SOL     OW32650   1.037   6.730   4.653
10584SOL    HW132651   1.100   6.685   4.717
10584SOL    HW232652   1.083   6.748   4.567
10585SOL     OW32653   0.925   6.849   5.070
10585SOL    HW132654   0.927   6.914   4.993
10585SOL    HW232655   0.954   6.896   5.153
10586SOL     OW32656   4.041   4.413   5.285
10586SOL    HW132657   4.013   4.505   5.313
10586SOL    HW232658   4.128   4.419   5.236
10587SOL     OW32659   2.297   5.530   5.373
10587SOL    HW132660   2.254   5.612   5.410
10587SOL    HW232661   2.267   5.517   5.278
10588SOL     OW32662   0.963   3.902   4.008
10588SOL    HW132663   0.873   3.917   3.968
10588SOL    HW232664   0.953   3.876   4.104
10589SOL     OW32665   5.217   6.517   3.757
10589SOL    HW132666   5.250   6.430   3.791
10589SOL    HW232667   5.120   6.528   3.780
10590SOL     OW32668   0.873   5.428   2.540
10590SOL    HW132669   0.855   5.336   2.574
10590SOL    HW232670   0.939   5.424   2.465
10591SOL     OW32671   6.836   2.311   1.831
10591SOL    HW132672   6.911   2.340   1.773
10591SOL    HW232673   6.784   2.238   1.785
10592SOL     OW32674   6.581   1.977   4.916
10592SOL    HW132675   6.509   1.908   4.922
10592SOL    HW232676   6.545   2.066   4.943
10593SOL     OW32677   3.328   5.645   3.044
10593SOL    HW132678   3.389   5.613   3.117
10593SOL    HW232679   3.245   5.683   3.084
10594SOL     OW32680   2.898   6.812   3.835
10594SOL    HW132681   2.812   6.813   3.785
10594SOL    HW232682   2.883   6.845   3.928
10595SOL     OW32683   6.275   6.615   0.277
10595SOL    HW132684   6.196   6.575   0.231
10595SOL    HW232685   6.250   6.643   0.369
10596SOL     OW32686   5.191   2.786   7.001
10596SOL    HW132687   5.181   2.767   0.078
10596SOL    HW232688   5.277   2.748   6.968
10597SOL     OW32689   2.296   0.788   5.459
10597SOL    HW132690   2.253   0.735   5.385
10597SOL    HW232691   2.297   0.734   5.543
10598SOL     OW32692   2.631   2.209   6.432
10598SOL    HW132693   2.579   2.252   6.506
10598SOL    HW232694   2.570   2.151   6.378
10599SOL     OW32695   6.978   2.393   6.932
10599SOL    HW132696   6.892   2.414   6.887
10599SOL    HW232697   6.964   2.389   0.010
10600SOL     OW32698   2.951   2.207   1.116
10600SOL    HW132699   2.985   2.189   1.208
10600SOL    HW232700   2.958   2.304   1.096
10601SOL     OW32701   1.230   6.908   6.063
10601SOL    HW132702   1.323   6.927   6.031
10601SOL    HW232703   1.230   6.901   6.163
10602SOL     OW32704   6.673   0.117   1.016
10602SOL    HW132705   6.576   0.143   1.021
10602SOL    HW232706   6.727   0.195   0.987
10603SOL     OW32707   5.138   0.493   3.056
10603SOL    HW132708   5.046   0.520   3.084
10603SOL    HW232709   5.136   0.400   3.019
10604SOL     OW32710   5.244   6.379   4.984
10604SOL    HW132711   5.244   6.478   4.997
10604SOL    HW232712   5.287   6.357   4.896
10605SOL     OW32713   2.586   1.910   1.405
10605SOL    HW132714   2.622   1.990   1.356
10605SOL    HW232715   2.520   1.862   1.347
10606SOL     OW32716   6.401   0.504   0.365
10606SOL    HW132717   6.386   0.450   0.282
10606SOL    HW232718   6.342   0.469   0.438
10607SOL     OW32719   2.775   4.488   6.794
10607SOL    HW132720   2.835   4.427   6.743
10607SOL    HW232721   2.731   4.437   6.869
10608SOL     OW32722   5.619   3.797   3.173
10608SOL    HW132723   5.569   3.726   3.221
10608SOL    HW232724   5.598   3.792   3.075
10609SOL     OW32725   4.186   1.643   6.473
10609SOL    HW132726   4.150   1.599   6.390
10609SOL    HW232727   4.111   1.686   6.522
10610SOL     OW32728   0.778   0.439   3.668
10610SOL    HW132729   0.754   0.376   3.595
10610SOL    HW232730   0.773   0.392   3.756
10611SOL     OW32731   3.635   5.500   4.448
10611SOL    HW132732   3.610   5.595   4.433
10611SOL    HW232733   3.720   5.495   4.500
10612SOL     OW32734   5.843   1.557   3.763
10612SOL    HW132735   5.745   1.573   3.753
10612SOL    HW232736   5.876   1.607   3.843
10613SOL     OW32737   4.715   6.152   4.448
10613SOL    HW132738   4.628   6.168   4.494
10613SOL    HW232739   4.740   6.235   4.397
10614SOL     OW32740   4.283   0.830   5.786
10614SOL    HW132741   4.185   0.828   5.806
10614SOL    HW232742   4.314   0.925   5.782
10615SOL     OW32743   1.828   1.556   6.290
10615SOL    HW132744   1.898   1.605   6.239
10615SOL    HW232745   1.740   1.565   6.243
10616SOL     OW32746   2.328   6.242   0.285
10616SOL    HW132747   2.343   6.143   0.284
10616SOL    HW232748   2.255   6.265   0.349
10617SOL     OW32749   2.539   3.319   1.659
10617SOL    HW132750   2.506   3.398   1.712
10617SOL    HW232751   2.482   3.307   1.578
10618SOL     OW32752   1.520   5.202   4.136
10618SOL    HW132753   1.482   5.242   4.053
10618SOL    HW232754   1.616   5.227   4.145
10619SOL     OW32755   1.394   2.390   2.862
10619SOL    HW132756   1.339   2.390   2.779
10619SOL    HW232757   1.431   2.298   2.877
10620SOL     OW32758   3.367   1.042   5.943
10620SOL    HW132759   3.424   1.067   6.021
10620SOL    HW232760   3.285   0.995   5.974
10621SOL     OW32761   0.511   3.559   3.306
10621SOL    HW132762   0.508   3.463   3.277
10621SOL    HW232763   0.477   3.618   3.233
10622SOL     OW32764   3.760   2.104   0.283
10622SOL    HW132765   3.678   2.121   0.338
10622SOL    HW232766   3.779   2.006   0.280
10623SOL     OW32767   5.261   6.209   5.956
10623SOL    HW132768   5.308   6.296   5.944
10623SOL    HW232769   5.214   6.209   6.045
10624SOL     OW32770   0.208   2.152   6.416
10624SOL    HW132771   0.252   2.063   6.428
10624SOL    HW232772   0.272   2.215   6.373
10625SOL     OW32773   5.808   4.479   0.141
10625SOL    HW132774   5.762   4.390   0.140
10625SOL    HW232775   5.752   4.545   0.191
10626SOL     OW32776   5.148   2.926   1.126
10626SOL    HW132777   5.195   2.930   1.038
10626SOL    HW232778   5.049   2.932   1.111
10627SOL     OW32779   5.785   5.359   6.241
10627SOL    HW132780   5.816   5.297   6.169
10627SOL    HW232781   5.863   5.388   6.297
10628SOL     OW32782   3.497   6.822   1.088
10628SOL    HW132783   3.530   6.728   1.098
10628SOL    HW232784   3.488   6.844   0.991
10629SOL     OW32785   3.068   4.997   4.274
10629SOL    HW132786   3.153   4.971   4.229
10629SOL    HW232787   3.057   5.096   4.269
10630SOL     OW32788   3.728   0.989   2.462
10630SOL    HW132789   3.783   1.063   2.500
10630SOL    HW232790   3.656   1.027   2.404
10631SOL     OW32791   4.376   6.047   6.817
10631SOL    HW132792   4.309   6.002   6.759
10631SOL    HW232793   4.462   6.056   6.767
10632SOL     OW32794   4.259   5.694   3.408
10632SOL    HW132795   4.163   5.719   3.419
10632SOL    HW232796   4.298   5.743   3.330
10633SOL     OW32797   0.917   3.136   1.709
10633SOL    HW132798   0.957   3.119   1.619
10633SOL    HW232799   0.967   3.082   1.777
10634SOL     OW32800   0.678   3.434   6.826
10634SOL    HW132801   0.771   3.453   6.858
10634SOL    HW232802   0.658   3.337   6.836
10635SOL     OW32803   2.021   4.147   5.895
10635SOL    HW132804   1.952   4.113   5.832
10635SOL    HW232805   2.009   4.245   5.909
10636SOL     OW32806   6.637   1.941   6.113
10636SOL    HW132807   6.684   1.999   6.179
10636SOL    HW232808   6.704   1.894   6.057
10637SOL     OW32809   3.146   0.967   6.924
10637SOL    HW132810   3.053   0.972   6.961
10637SOL    HW232811   3.185   0.877   6.945
10638SOL     OW32812   0.015   5.452   1.571
10638SOL    HW132813   7.020   5.356   1.591
10638SOL    HW232814   0.025   5.503   1.657
10639SOL     OW32815   1.658   4.384   1.224
10639SOL    HW132816   1.737   4.332   1.191
10639SOL    HW232817   1.591   4.395   1.150
10640SOL     OW32818   4.390   0.175   3.988
10640SOL    HW132819   4.394   0.077   4.007
10640SOL    HW232820   4.315   0.194   3.925
10641SOL     OW32821   2.019   1.455   3.605
10641SOL    HW132822   2.057   1.363   3.591
10641SOL    HW232823   1.974   1.486   3.521
10642SOL     OW32824   5.601   2.326   6.294
10642SOL    HW132825   5.521   2.274   6.263
10642SOL    HW232826   5.577   2.380   6.374
10643SOL     OW32827   1.653   5.084   5.332
10643SOL    HW132828   1.672   5.000   5.383
10643SOL    HW232829   1.571   5.127   5.369
10644SOL     OW32830   6.801   2.641   3.136
10644SOL    HW132831   6.755   2.627   3.048
10644SOL    HW232832   6.884   2.585   3.139
10645SOL     OW32833   2.386   2.314   3.589
10645SOL    HW132834   2.443   2.373   3.532
10645SOL    HW232835   2.310   2.368   3.626
10646SOL     OW32836   5.121   0.507   4.035
10646SOL    HW132837   5.032   0.550   4.055
10646SOL    HW232838   5.185   0.577   4.003
10647SOL     OW32839   3.834   5.001   4.985
10647SOL    HW132840   3.794   5.003   4.893
10647SOL    HW232841   3.778   5.056   5.047
10648SOL     OW32842   5.238   5.228   5.332
10648SOL    HW132843   5.318   5.210   5.389
10648SOL    HW232844   5.220   5.326   5.330
10649SOL     OW32845   6.310   3.145   2.725
10649SOL    HW132846   6.350   3.097   2.803
10649SOL    HW232847   6.274   3.233   2.756
10650SOL     OW32848   0.306   0.279   4.101
10650SOL    HW132849   0.221   0.285   4.154
10650SOL    HW232850   0.384   0.280   4.163
10651SOL     OW32851   3.961   6.177   5.891
10651SOL    HW132852   3.907   6.163   5.808
10651SOL    HW232853   3.986   6.088   5.929
10652SOL     OW32854   1.883   6.895   6.989
10652SOL    HW132855   1.843   6.976   0.009
10652SOL    HW232856   1.820   6.857   6.922
10653SOL     OW32857   4.406   6.047   4.332
10653SOL    HW132858   4.394   5.955   4.370
10653SOL    HW232859   4.471   6.043   4.255
10654SOL     OW32860   5.755   1.753   4.481
10654SOL    HW132861   5.735   1.844   4.444
10654SOL    HW232862   5.816   1.762   4.560
10655SOL     OW32863   0.648   4.884   1.324
10655SOL    HW132864   0.737   4.918   1.293
10655SOL    HW232865   0.653   4.864   1.422
10656SOL     OW32866   6.004   1.339   2.878
10656SOL    HW132867   5.993   1.435   2.853
10656SOL    HW232868   5.922   1.308   2.926
10657SOL     OW32869   5.217   6.789   4.216
10657SOL    HW132870   5.264   6.810   4.130
10657SOL    HW232871   5.268   6.719   4.266
10658SOL     OW32872   0.390   2.950   5.468
10658SOL    HW132873   0.320   3.015   5.498
10658SOL    HW232874   0.414   2.969   5.373
10659SOL     OW32875   0.914   5.363   0.885
10659SOL    HW132876   0.866   5.389   0.801
10659SOL    HW232877   0.994   5.308   0.861
10660SOL     OW32878   6.319   3.503   5.282
10660SOL    HW132879   6.384   3.570   5.318
10660SOL    HW232880   6.229   3.545   5.273
10661SOL     OW32881   1.715   4.162   5.968
10661SOL    HW132882   1.628   4.127   6.005
10661SOL    HW232883   1.747   4.101   5.895
10662SOL     OW32884   2.705   1.307   3.003
10662SOL    HW132885   2.683   1.239   2.934
10662SOL    HW232886   2.745   1.387   2.959
10663SOL     OW32887   1.687   1.758   4.272
10663SOL    HW132888   1.622   1.694   4.314
10663SOL    HW232889   1.775   1.752   4.319
10664SOL     OW32890   1.508   5.162   4.554
10664SOL    HW132891   1.488   5.123   4.644
10664SOL    HW232892   1.602   5.141   4.529
10665SOL     OW32893   1.944   2.531   5.837
10665SOL    HW132894   1.969   2.628   5.837
10665SOL    HW232895   1.852   2.521   5.875
10666SOL     OW32896   3.586   3.184   1.784
10666SOL    HW132897   3.561   3.278   1.805
10666SOL    HW232898   3.641   3.181   1.701
10667SOL     OW32899   5.619   2.378   3.579
10667SOL    HW132900   5.672   2.460   3.599
10667SOL    HW232901   5.655   2.332   3.498
10668SOL     OW32902   3.181   2.169   5.338
10668SOL    HW132903   3.109   2.213   5.391
10668SOL    HW232904   3.176   2.200   5.243
10669SOL     OW32905   6.233   1.247   1.145
10669SOL    HW132906   6.195   1.260   1.054
10669SOL    HW232907   6.305   1.315   1.161
10670SOL     OW32908   5.209   3.303   4.558
10670SOL    HW132909   5.198   3.343   4.467
10670SOL    HW232910   5.269   3.362   4.613
10671SOL     OW32911   1.181   2.819   4.163
10671SOL    HW132912   1.134   2.831   4.076
10671SOL    HW232913   1.247   2.745   4.157
10672SOL     OW32914   5.829   3.502   1.670
10672SOL    HW132915   5.760   3.572   1.687
10672SOL    HW232916   5.788   3.423   1.624
10673SOL     OW32917   2.321   0.996   0.857
10673SOL    HW132918   2.385   1.002   0.780
10673SOL    HW232919   2.372   0.970   0.939
10674SOL     OW32920   3.765   4.142   4.653
10674SOL    HW132921   3.859   4.129   4.685
10674SOL    HW232922   3.705   4.157   4.732
10675SOL     OW32923   3.782   6.883   5.516
10675SOL    HW132924   3.752   6.923   5.430
10675SOL    HW232925   3.874   6.846   5.506
10676SOL     OW32926   2.031   6.302   5.679
10676SOL    HW132927   2.023   6.213   5.724
10676SOL    HW232928   1.961   6.364   5.716
10677SOL     OW32929   0.270   1.223   0.872
10677SOL    HW132930   0.193   1.171   0.908
10677SOL    HW232931   0.237   1.312   0.840
10678SOL     OW32932   4.215   5.443   3.960
10678SOL    HW132933   4.251   5.400   3.876
10678SOL    HW232934   4.230   5.381   4.037
10679SOL     OW32935   3.821   3.668   6.879
10679SOL    HW132936   3.890   3.683   6.807
10679SOL    HW232937   3.825   3.573   6.909
10680SOL     OW32938   3.750   1.275   4.049
10680SOL    HW132939   3.714   1.198   3.998
10680SOL    HW232940   3.710   1.277   4.141
10681SOL     OW32941   0.599   3.069   6.228
10681SOL    HW132942   0.571   3.039   6.319
10681SOL    HW232943   0.625   3.165   6.231
10682SOL     OW32944   6.222   2.959   5.940
10682SOL    HW132945   6.235   2.862   5.961
10682SOL    HW232946   6.311   3.001   5.919
10683SOL     OW32947   3.938   0.377   3.928
10683SOL    HW132948   3.860   0.405   3.870
10683SOL    HW232949   3.977   0.458   3.972
10684SOL     OW32950   4.265   4.409   1.696
10684SOL    HW132951   4.310   4.330   1.737
10684SOL    HW232952   4.213   4.458   1.767
10685SOL     OW32953   1.185   5.908   1.695
10685SOL    HW132954   1.219   5.831   1.639
10685SOL    HW232955   1.093   5.932   1.665
10686SOL     OW32956   2.438   3.371   6.947
10686SOL    HW132957   2.490   3.383   6.863
10686SOL    HW232958   2.501   3.362   0.003
10687SOL     OW32959   0.606   4.317   2.904
10687SOL    HW132960   0.679   4.358   2.848
10687SOL    HW232961   0.644   4.285   2.990
10688SOL     OW32962   5.260   1.476   2.536
10688SOL    HW132963   5.245   1.530   2.619
10688SOL    HW232964   5.195   1.400   2.534
10689SOL     OW32965   0.157   6.764   2.268
10689SOL    HW132966   0.232   6.807   2.319
10689SOL    HW232967   0.122   6.829   2.200
10690SOL     OW32968   6.942   5.935   3.703
10690SOL    HW132969   6.998   5.992   3.643
10690SOL    HW232970   6.987   5.847   3.717
10691SOL     OW32971   3.213   1.495   2.810
10691SOL    HW132972   3.137   1.446   2.768
10691SOL    HW232973   3.296   1.482   2.756
10692SOL     OW32974   2.554   1.051   4.535
10692SOL    HW132975   2.516   0.980   4.594
10692SOL    HW232976   2.611   1.113   4.589
10693SOL     OW32977   1.566   5.876   0.878
10693SOL    HW132978   1.630   5.910   0.947
10693SOL    HW232979   1.491   5.827   0.922
10694SOL     OW32980   4.597   6.412   5.731
10694SOL    HW132981   4.657   6.358   5.673
10694SOL    HW232982   4.519   6.445   5.677
10695SOL     OW32983   0.175   3.485   1.549
10695SOL    HW132984   0.262   3.462   1.506
10695SOL    HW232985   0.110   3.409   1.537
10696SOL     OW32986   6.850   4.295   5.087
10696SOL    HW132987   6.826   4.298   4.990
10696SOL    HW232988   6.782   4.345   5.140
10697SOL     OW32989   1.224   5.608   4.888
10697SOL    HW132990   1.200   5.600   4.791
10697SOL    HW232991   1.225   5.517   4.929
10698SOL     OW32992   4.491   3.536   0.083
10698SOL    HW132993   4.558   3.471   0.119
10698SOL    HW232994   4.455   3.591   0.159
10699SOL     OW32995   3.014   4.109   0.421
10699SOL    HW132996   2.922   4.138   0.393
10699SOL    HW232997   3.021   4.010   0.414
10700SOL     OW32998   5.396   0.128   6.828
10700SOL    HW132999   5.301   0.098   6.814
10700SOL    HW233000   5.412   0.143   6.925
10701SOL     OW33001   3.036   0.393   6.457
10701SOL    HW133002   3.102   0.465   6.435
10701SOL    HW233003   2.993   0.413   6.545
10702SOL     OW33004   4.873   3.162   2.541
10702SOL    HW133005   4.811   3.240   2.549
10702SOL    HW233006   4.872   3.128   2.447
10703SOL     OW33007   2.119   2.349   5.824
10703SOL    HW133008   2.052   2.423   5.826
10703SOL    HW233009   2.169   2.352   5.737
10704SOL     OW33010   7.016   5.927   2.844
10704SOL    HW133011   6.962   5.958   2.922
10704SOL    HW233012   6.957   5.880   2.778
10705SOL     OW33013   5.424   5.208   1.162
10705SOL    HW133014   5.460   5.126   1.208
10705SOL    HW233015   5.500   5.268   1.137
10706SOL     OW33016   4.992   0.228   2.397
10706SOL    HW133017   4.896   0.248   2.416
10706SOL    HW233018   5.002   0.130   2.378
10707SOL     OW33019   6.304   6.834   4.197
10707SOL    HW133020   6.257   6.779   4.265
10707SOL    HW233021   6.311   6.783   4.111
10708SOL     OW33022   4.835   2.729   2.959
10708SOL    HW133023   4.768   2.734   3.032
10708SOL    HW233024   4.797   2.769   2.876
10709SOL     OW33025   5.987   5.562   3.881
10709SOL    HW133026   6.035   5.639   3.922
10709SOL    HW233027   5.898   5.592   3.848
10710SOL     OW33028   5.241   0.485   3.313
10710SOL    HW133029   5.198   0.481   3.223
10710SOL    HW233030   5.289   0.399   3.331
10711SOL     OW33031   3.730   6.613   2.694
10711SOL    HW133032   3.670   6.686   2.660
10711SOL    HW233033   3.792   6.651   2.762
10712SOL     OW33034   3.672   0.301   2.931
10712SOL    HW133035   3.748   0.358   2.964
10712SOL    HW233036   3.603   0.294   3.002
10713SOL     OW33037   0.799   3.361   1.023
10713SOL    HW133038   0.751   3.279   0.992
10713SOL    HW233039   0.889   3.366   0.978
10714SOL     OW33040   3.822   3.179   4.740
10714SOL    HW133041   3.753   3.177   4.668
10714SOL    HW233042   3.914   3.179   4.700
10715SOL     OW33043   5.320   0.471   2.317
10715SOL    HW133044   5.391   0.464   2.387
10715SOL    HW233045   5.230   0.477   2.361
10716SOL     OW33046   6.529   2.406   3.492
10716SOL    HW133047   6.568   2.497   3.486
10716SOL    HW233048   6.583   2.342   3.438
10717SOL     OW33049   1.255   2.908   0.538
10717SOL    HW133050   1.228   2.998   0.502
10717SOL    HW233051   1.228   2.902   0.634
10718SOL     OW33052   0.659   4.760   6.203
10718SOL    HW133053   0.580   4.713   6.242
10718SOL    HW233054   0.733   4.760   6.270
10719SOL     OW33055   6.027   5.901   3.127
10719SOL    HW133056   6.063   5.888   3.219
10719SOL    HW233057   5.933   5.868   3.123
10720SOL     OW33058   5.798   5.163   4.390
10720SOL    HW133059   5.844   5.195   4.474
10720SOL    HW233060   5.746   5.239   4.350
10721SOL     OW33061   5.091   3.844   5.469
10721SOL    HW133062   5.132   3.934   5.474
10721SOL    HW233063   5.160   3.774   5.489
10722SOL     OW33064   6.470   3.741   6.455
10722SOL    HW133065   6.502   3.825   6.499
10722SOL    HW233066   6.467   3.755   6.356
10723SOL     OW33067   0.254   1.373   6.691
10723SOL    HW133068   0.210   1.310   6.754
10723SOL    HW233069   0.333   1.327   6.648
10724SOL     OW33070   0.437   6.872   0.103
10724SOL    HW133071   0.355   6.849   0.052
10724SOL    HW233072   0.413   6.931   0.180
10725SOL     OW33073   2.229   5.782   5.103
10725SOL    HW133074   2.259   5.687   5.096
10725SOL    HW233075   2.272   5.825   5.182
10726SOL     OW33076   4.853   1.142   4.027
10726SOL    HW133077   4.945   1.141   3.989
10726SOL    HW233078   4.804   1.223   3.996
10727SOL     OW33079   1.269   5.077   6.132
10727SOL    HW133080   1.310   5.132   6.059
10727SOL    HW233081   1.207   5.010   6.092
10728SOL     OW33082   0.228   5.377   0.432
10728SOL    HW133083   0.158   5.372   0.503
10728SOL    HW233084   0.295   5.447   0.457
10729SOL     OW33085   5.710   2.118   1.755
10729SOL    HW133086   5.661   2.183   1.698
10729SOL    HW233087   5.805   2.110   1.724
10730SOL     OW33088   3.894   0.598   1.725
10730SOL    HW133089   3.934   0.530   1.664
10730SOL    HW233090   3.809   0.562   1.764
10731SOL     OW33091   3.792   0.853   1.285
10731SOL    HW133092   3.716   0.903   1.243
10731SOL    HW233093   3.779   0.852   1.385
10732SOL     OW33094   0.468   4.814   5.218
10732SOL    HW133095   0.403   4.830   5.293
10732SOL    HW233096   0.440   4.733   5.167
10733SOL     OW33097   5.555   1.371   6.630
10733SOL    HW133098   5.569   1.469   6.614
10733SOL    HW233099   5.469   1.358   6.681
10734SOL     OW33100   0.887   1.779   0.942
10734SOL    HW133101   0.815   1.712   0.958
10734SOL    HW233102   0.865   1.833   0.861
10735SOL     OW33103   0.062   2.400   1.667
10735SOL    HW133104   0.124   2.362   1.736
10735SOL    HW233105   0.097   2.378   1.576
10736SOL     OW33106   2.257   0.113   4.010
10736SOL    HW133107   2.332   0.063   3.966
10736SOL    HW233108   2.212   0.053   4.077
10737SOL     OW33109   0.627   1.962   1.311
10737SOL    HW133110   0.646   1.920   1.400
10737SOL    HW233111   0.574   1.899   1.255
10738SOL     OW33112   3.517   5.868   2.948
10738SOL    HW133113   3.447   5.798   2.958
10738SOL    HW233114   3.474   5.958   2.951
10739SOL     OW33115   1.545   2.606   1.281
10739SOL    HW133116   1.627   2.595   1.337
10739SOL    HW233117   1.553   2.689   1.226
10740SOL     OW33118   5.931   4.738   5.410
10740SOL    HW133119   5.957   4.789   5.329
10740SOL    HW233120   5.852   4.782   5.453
10741SOL     OW33121   4.477   1.134   2.108
10741SOL    HW133122   4.442   1.202   2.172
10741SOL    HW233123   4.575   1.148   2.095
10742SOL     OW33124   5.857   5.669   1.478
10742SOL    HW133125   5.859   5.575   1.445
10742SOL    HW233126   5.942   5.690   1.525
10743SOL     OW33127   1.650   2.025   4.330
10743SOL    HW133128   1.654   1.942   4.275
10743SOL    HW233129   1.705   2.013   4.412
10744SOL     OW33130   3.047   1.638   1.055
10744SOL    HW133131   3.007   1.729   1.042
10744SOL    HW233132   2.976   1.568   1.050
10745SOL     OW33133   0.195   5.160   5.404
10745SOL    HW133134   0.257   5.156   5.482
10745SOL    HW233135   0.146   5.073   5.396
10746SOL     OW33136   1.298   3.793   5.864
10746SOL    HW133137   1.388   3.773   5.903
10746SOL    HW233138   1.254   3.708   5.837
10747SOL     OW33139   3.007   1.011   4.568
10747SOL    HW133140   2.960   1.092   4.533
10747SOL    HW233141   2.990   0.933   4.507
10748SOL     OW33142   6.445   1.750   2.254
10748SOL    HW133143   6.368   1.815   2.253
10748SOL    HW233144   6.425   1.675   2.191
10749SOL     OW33145   1.075   6.072   5.361
10749SOL    HW133146   1.098   6.101   5.268
10749SOL    HW233147   1.151   6.017   5.398
10750SOL     OW33148   4.171   0.156   5.077
10750SOL    HW133149   4.194   0.133   5.172
10750SOL    HW233150   4.075   0.135   5.060
10751SOL     OW33151   1.725   4.632   4.174
10751SOL    HW133152   1.751   4.687   4.094
10751SOL    HW233153   1.808   4.593   4.215
10752SOL     OW33154   5.458   4.552   5.068
10752SOL    HW133155   5.395   4.499   5.125
10752SOL    HW233156   5.489   4.632   5.119
10753SOL     OW33157   0.083   3.741   4.201
10753SOL    HW133158   0.069   3.824   4.148
10753SOL    HW233159   7.021   3.686   4.199
10754SOL     OW33160   0.786   0.260   2.899
10754SOL    HW133161   0.737   0.336   2.943
10754SOL    HW233162   0.881   0.260   2.929
10755SOL     OW33163   6.822   0.007   1.717
10755SOL    HW133164   6.727   0.032   1.701
10755SOL    HW233165   6.827   6.937   1.757
10756SOL     OW33166   6.941   5.521   5.040
10756SOL    HW133167   6.891   5.545   4.957
10756SOL    HW233168   6.997   5.598   5.069
10757SOL     OW33169   2.450   2.815   6.675
10757SOL    HW133170   2.492   2.849   6.759
10757SOL    HW233171   2.400   2.888   6.630
10758SOL     OW33172   0.506   6.170   3.283
10758SOL    HW133173   0.462   6.220   3.208
10758SOL    HW233174   0.574   6.107   3.247
10759SOL     OW33175   0.792   2.919   0.435
10759SOL    HW133176   0.852   2.871   0.498
10759SOL    HW233177   0.717   2.960   0.486
10760SOL     OW33178   5.777   0.857   3.197
10760SOL    HW133179   5.829   0.868   3.113
10760SOL    HW233180   5.721   0.774   3.191
10761SOL     OW33181   1.901   5.300   5.806
10761SOL    HW133182   1.886   5.236   5.731
10761SOL    HW233183   1.956   5.255   5.877
10762SOL     OW33184   3.093   0.382   4.933
10762SOL    HW133185   3.147   0.373   4.849
10762SOL    HW233186   3.146   0.433   5.001
10763SOL     OW33187   3.954   0.321   3.436
10763SOL    HW133188   3.883   0.252   3.451
10763SOL    HW233189   3.914   0.412   3.440
10764SOL     OW33190   4.949   1.403   4.717
10764SOL    HW133191   4.859   1.362   4.729
10764SOL    HW233192   4.966   1.419   4.619
10765SOL     OW33193   5.372   3.223   1.026
10765SOL    HW133194   5.472   3.232   1.030
10765SOL    HW233195   5.348   3.132   0.993
10766SOL     OW33196   4.085   4.681   0.630
10766SOL    HW133197   4.092   4.774   0.596
10766SOL    HW233198   3.995   4.644   0.607
10767SOL     OW33199   2.566   0.211   1.443
10767SOL    HW133200   2.665   0.195   1.439
10767SOL    HW233201   2.536   0.250   1.356
10768SOL     OW33202   6.213   5.125   1.334
10768SOL    HW133203   6.196   5.190   1.259
10768SOL    HW233204   6.307   5.138   1.367
10769SOL     OW33205   1.669   3.286   5.855
10769SOL    HW133206   1.755   3.336   5.842
10769SOL    HW233207   1.598   3.327   5.797
10770SOL     OW33208   5.188   5.413   3.592
10770SOL    HW133209   5.188   5.321   3.630
10770SOL    HW233210   5.217   5.410   3.496
10771SOL     OW33211   4.419   6.929   3.989
10771SOL    HW133212   4.357   6.887   4.055
10771SOL    HW233213   4.426   6.870   3.909
10772SOL     OW33214   6.710   5.622   3.620
10772SOL    HW133215   6.709   5.587   3.714
10772SOL    HW233216   6.799   5.602   3.578
10773SOL     OW33217   5.665   4.404   5.488
10773SOL    HW133218   5.754   4.360   5.505
10773SOL    HW233219   5.592   4.343   5.519
10774SOL     OW33220   1.665   1.130   4.045
10774SOL    HW133221   1.658   1.158   4.141
10774SOL    HW233222   1.582   1.156   3.996
10775SOL     OW33223   0.769   4.119   1.832
10775SOL    HW133224   0.792   4.069   1.916
10775SOL    HW233225   0.832   4.195   1.820
10776SOL     OW33226   1.400   0.695   6.472
10776SOL    HW133227   1.395   0.669   6.376
10776SOL    HW233228   1.325   0.758   6.494
10777SOL     OW33229   3.622   5.233   1.148
10777SOL    HW133230   3.691   5.305   1.137
10777SOL    HW233231   3.539   5.260   1.100
10778SOL     OW33232   5.374   6.928   4.015
10778SOL    HW133233   5.311   7.003   3.995
10778SOL    HW233234   5.464   6.949   3.977
10779SOL     OW33235   5.895   2.966   3.250
10779SOL    HW133236   5.852   2.930   3.332
10779SOL    HW233237   5.858   2.918   3.170
10780SOL     OW33238   1.065   1.127   4.007
10780SOL    HW133239   0.980   1.096   3.966
10780SOL    HW233240   1.136   1.134   3.937
10781SOL     OW33241   3.818   0.633   4.238
10781SOL    HW133242   3.852   0.573   4.310
10781SOL    HW233243   3.739   0.684   4.271
10782SOL     OW33244   6.370   6.624   3.750
10782SOL    HW133245   6.399   6.529   3.757
10782SOL    HW233246   6.312   6.636   3.669
10783SOL     OW33247   0.288   2.620   2.336
10783SOL    HW133248   0.256   2.560   2.409
10783SOL    HW233249   0.237   2.706   2.339
10784SOL     OW33250   2.552   1.011   3.524
10784SOL    HW133251   2.607   0.934   3.492
10784SOL    HW233252   2.503   1.051   3.446
10785SOL     OW33253   1.276   3.848   6.921
10785SOL    HW133254   1.322   3.932   6.891
10785SOL    HW233255   1.180   3.866   6.940
10786SOL     OW33256   5.877   6.153   3.182
10786SOL    HW133257   5.873   6.126   3.278
10786SOL    HW233258   5.939   6.091   3.133
10787SOL     OW33259   0.219   0.134   5.566
10787SOL    HW133260   0.284   0.090   5.628
10787SOL    HW233261   0.214   0.083   5.480
10788SOL     OW33262   0.749   4.020   0.225
10788SOL    HW133263   0.769   4.048   0.131
10788SOL    HW233264   0.705   4.096   0.274
10789SOL     OW33265   6.944   2.841   0.068
10789SOL    HW133266   0.022   2.832   0.060
10789SOL    HW233267   6.901   2.817   7.001
10790SOL     OW33268   0.607   6.780   1.933
10790SOL    HW133269   0.635   6.739   2.020
10790SOL    HW233270   0.645   6.727   1.857
10791SOL     OW33271   6.447   6.359   2.038
10791SOL    HW133272   6.485   6.337   1.948
10791SOL    HW233273   6.468   6.454   2.061
10792SOL     OW33274   3.825   3.625   5.204
10792SOL    HW133275   3.909   3.586   5.240
10792SOL    HW233276   3.817   3.721   5.233
10793SOL     OW33277   5.292   3.283   5.442
10793SOL    HW133278   5.353   3.294   5.364
10793SOL    HW233279   5.209   3.235   5.413
10794SOL     OW33280   3.820   4.073   4.095
10794SOL    HW133281   3.748   4.127   4.052
10794SOL    HW233282   3.799   4.062   4.192
10795SOL     OW33283   0.911   4.366   2.798
10795SOL    HW133284   0.861   4.297   2.747
10795SOL    HW233285   0.973   4.322   2.863
10796SOL     OW33286   0.242   5.996   5.841
10796SOL    HW133287   0.172   6.065   5.822
10796SOL    HW233288   0.331   6.031   5.812
10797SOL     OW33289   3.747   3.036   0.427
10797SOL    HW133290   3.739   3.103   0.501
10797SOL    HW233291   3.656   3.016   0.391
10798SOL     OW33292   2.341   1.733   0.612
10798SOL    HW133293   2.256   1.731   0.560
10798SOL    HW233294   2.331   1.794   0.691
10799SOL     OW33295   4.030   0.687   3.163
10799SOL    HW133296   4.120   0.647   3.147
10799SOL    HW233297   4.035   0.786   3.150
10800SOL     OW33298   0.961   5.981   0.075
10800SOL    HW133299   0.998   6.041   0.005
10800SOL    HW233300   0.980   6.019   0.165
10801SOL     OW33301   1.602   0.651   0.534
10801SOL    HW133302   1.593   0.749   0.550
10801SOL    HW233303   1.605   0.603   0.622
10802SOL     OW33304   6.555   6.908   3.611
10802SOL    HW133305   6.572   6.967   3.690
10802SOL    HW233306   6.461   6.920   3.579
10803SOL     OW33307   1.735   5.597   6.663
10803SOL    HW133308   1.638   5.614   6.676
10803SOL    HW233309   1.784   5.685   6.659
10804SOL     OW33310   6.999   2.806   3.477
10804SOL    HW133311   6.923   2.871   3.483
10804SOL    HW233312   0.037   2.818   3.557
10805SOL     OW33313   5.954   1.094   5.013
10805SOL    HW133314   5.960   1.067   5.109
10805SOL    HW233315   5.991   1.186   5.001
10806SOL     OW33316   2.679   5.190   6.822
10806SOL    HW133317   2.588   5.177   6.862
10806SOL    HW233318   2.720   5.272   6.860
10807SOL     OW33319   2.274   5.799   3.988
10807SOL    HW133320   2.207   5.873   3.981
10807SOL    HW233321   2.323   5.790   3.901
10808SOL     OW33322   6.986   2.317   6.447
10808SOL    HW133323   6.989   2.406   6.401
10808SOL    HW233324   0.057   2.279   6.451
10809SOL     OW33325   2.192   4.471   4.283
10809SOL    HW133326   2.205   4.385   4.333
10809SOL    HW233327   2.238   4.545   4.331
10810SOL     OW33328   0.500   0.263   3.913
10810SOL    HW133329   0.575   0.208   3.952
10810SOL    HW233330   0.413   0.232   3.950
10811SOL     OW33331   4.796   5.194   4.676
10811SOL    HW133332   4.817   5.291   4.663
10811SOL    HW233333   4.858   5.138   4.621
10812SOL     OW33334   0.087   2.891   6.537
10812SOL    HW133335   0.085   2.973   6.594
10812SOL    HW233336   0.012   2.895   6.471
10813SOL     OW33337   0.659   3.610   5.930
10813SOL    HW133338   0.649   3.688   5.868
10813SOL    HW233339   0.746   3.564   5.912
10814SOL     OW33340   2.051   7.019   0.389
10814SOL    HW133341   2.100   0.025   0.472
10814SOL    HW233342   1.975   6.959   0.413
10815SOL     OW33343   4.768   1.686   3.645
10815SOL    HW133344   4.785   1.601   3.695
10815SOL    HW233345   4.850   1.711   3.593
10816SOL     OW33346   4.000   3.153   3.387
10816SOL    HW133347   4.065   3.170   3.313
10816SOL    HW233348   3.908   3.149   3.349
10817SOL     OW33349   3.208   6.994   3.324
10817SOL    HW133350   3.187   6.916   3.266
10817SOL    HW233351   3.246   0.046   3.268
10818SOL     OW33352   5.257   5.664   5.921
10818SOL    HW133353   5.213   5.577   5.943
10818SOL    HW233354   5.194   5.739   5.937
10819SOL     OW33355   6.899   5.520   6.310
10819SOL    HW133356   6.807   5.481   6.317
10819SOL    HW233357   6.900   5.589   6.238
10820SOL     OW33358   1.247   5.591   5.266
10820SOL    HW133359   1.215   5.513   5.212
10820SOL    HW233360   1.247   5.673   5.210
10821SOL     OW33361   4.427   5.624   2.535
10821SOL    HW133362   4.396   5.572   2.614
10821SOL    HW233363   4.390   5.583   2.452
10822SOL     OW33364   5.525   3.004   0.922
10822SOL    HW133365   5.544   3.016   1.019
10822SOL    HW233366   5.561   2.915   0.892
10823SOL     OW33367   6.907   6.770   2.975
10823SOL    HW133368   6.883   6.673   2.984
10823SOL    HW233369   6.865   6.823   3.048
10824SOL     OW33370   1.377   0.933   4.373
10824SOL    HW133371   1.312   0.938   4.449
10824SOL    HW233372   1.341   0.870   4.303
10825SOL     OW33373   1.262   2.052   0.629
10825SOL    HW133374   1.346   2.099   0.602
10825SOL    HW233375   1.196   2.055   0.553
10826SOL     OW33376   1.131   2.429   2.987
10826SOL    HW133377   1.206   2.459   2.928
10826SOL    HW233378   1.102   2.338   2.960
10827SOL     OW33379   6.212   4.003   5.138
10827SOL    HW133380   6.120   4.019   5.103
10827SOL    HW233381   6.263   3.948   5.071
10828SOL     OW33382   6.415   3.465   0.137
10828SOL    HW133383   6.477   3.459   0.215
10828SOL    HW233384   6.335   3.519   0.162
10829SOL     OW33385   4.808   3.450   6.960
10829SOL    HW133386   4.766   3.540   6.948
10829SOL    HW233387   4.906   3.456   6.938
10830SOL     OW33388   4.507   1.701   3.653
10830SOL    HW133389   4.605   1.681   3.663
10830SOL    HW233390   4.467   1.714   3.744
10831SOL     OW33391   4.019   0.982   2.518
10831SOL    HW133392   3.982   1.030   2.597
10831SOL    HW233393   4.004   0.883   2.530
10832SOL     OW33394   6.998   3.325   0.051
10832SOL    HW133395   6.936   3.253   0.082
10832SOL    HW233396   6.977   3.349   6.977
10833SOL     OW33397   0.699   1.593   0.978
10833SOL    HW133398   0.678   1.543   0.894
10833SOL    HW233399   0.680   1.535   1.057
10834SOL     OW33400   6.599   6.808   0.443
10834SOL    HW133401   6.671   6.755   0.489
10834SOL    HW233402   6.519   6.812   0.502
10835SOL     OW33403   5.534   3.429   0.020
10835SOL    HW133404   5.482   3.351   0.054
10835SOL    HW233405   5.627   3.427   0.059
10836SOL     OW33406   1.412   1.469   2.743
10836SOL    HW133407   1.361   1.465   2.829
10836SOL    HW233408   1.388   1.553   2.694
10837SOL     OW33409   6.508   4.536   2.045
10837SOL    HW133410   6.549   4.497   2.127
10837SOL    HW233411   6.412   4.557   2.062
10838SOL     OW33412   5.572   5.715   3.523
10838SOL    HW133413   5.539   5.622   3.515
10838SOL    HW233414   5.671   5.714   3.538
10839SOL     OW33415   4.382   3.622   0.569
10839SOL    HW133416   4.327   3.553   0.523
10839SOL    HW233417   4.347   3.713   0.546
10840SOL     OW33418   2.801   0.117   1.342
10840SOL    HW133419   2.793   0.090   1.246
10840SOL    HW233420   2.832   0.038   1.396
10841SOL     OW33421   0.974   5.357   4.949
10841SOL    HW133422   0.973   5.418   4.870
10841SOL    HW233423   0.883   5.355   4.991
10842SOL     OW33424   4.760   4.021   1.424
10842SOL    HW133425   4.812   3.946   1.462
10842SOL    HW233426   4.799   4.047   1.335
10843SOL     OW33427   2.058   1.281   1.331
10843SOL    HW133428   2.024   1.293   1.238
10843SOL    HW233429   2.024   1.195   1.368
10844SOL     OW33430   1.481   5.948   4.762
10844SOL    HW133431   1.461   5.874   4.826
10844SOL    HW233432   1.466   6.036   4.808
10845SOL     OW33433   4.596   6.164   5.062
10845SOL    HW133434   4.591   6.072   5.102
10845SOL    HW233435   4.653   6.161   4.980
10846SOL     OW33436   5.498   6.331   0.038
10846SOL    HW133437   5.489   6.240   7.018
10846SOL    HW233438   5.410   6.360   0.075
10847SOL     OW33439   2.066   2.009   6.814
10847SOL    HW133440   2.039   1.962   6.898
10847SOL    HW233441   2.144   2.069   6.833
10848SOL     OW33442   1.738   3.950   1.407
10848SOL    HW133443   1.649   3.993   1.391
10848SOL    HW233444   1.799   3.970   1.331
10849SOL     OW33445   3.040   5.144   3.691
10849SOL    HW133446   2.961   5.205   3.681
10849SOL    HW233447   3.100   5.181   3.762
10850SOL     OW33448   4.705   6.239   0.354
10850SOL    HW133449   4.609   6.267   0.361
10850SOL    HW233450   4.760   6.318   0.326
10851SOL     OW33451   2.754   4.388   1.642
10851SOL    HW133452   2.836   4.432   1.678
10851SOL    HW233453   2.757   4.290   1.663
10852SOL     OW33454   2.102   2.011   0.642
10852SOL    HW133455   2.177   2.041   0.702
10852SOL    HW233456   2.093   2.075   0.567
10853SOL     OW33457   2.173   2.385   6.225
10853SOL    HW133458   2.253   2.429   6.265
10853SOL    HW233459   2.201   2.305   6.173
10854SOL     OW33460   3.981   6.259   5.028
10854SOL    HW133461   3.977   6.317   4.947
10854SOL    HW233462   4.066   6.206   5.028
10855SOL     OW33463   3.198   1.515   0.558
10855SOL    HW133464   3.133   1.552   0.625
10855SOL    HW233465   3.290   1.543   0.583
10856SOL     OW33466   0.369   0.716   0.113
10856SOL    HW133467   0.322   0.688   0.028
10856SOL    HW233468   0.446   0.775   0.090
10857SOL     OW33469   6.740   1.530   2.161
10857SOL    HW133470   6.754   1.527   2.260
10857SOL    HW233471   6.708   1.621   2.134
10858SOL     OW33472   2.504   5.950   1.820
10858SOL    HW133473   2.528   5.953   1.917
10858SOL    HW233474   2.457   5.864   1.800
10859SOL     OW33475   0.312   5.007   4.194
10859SOL    HW133476   0.367   4.996   4.277
10859SOL    HW233477   0.358   5.072   4.133
10860SOL     OW33478   6.617   2.993   2.715
10860SOL    HW133479   6.555   2.975   2.790
10860SOL    HW233480   6.657   2.907   2.683
10861SOL     OW33481   3.521   2.903   3.885
10861SOL    HW133482   3.465   2.863   3.812
10861SOL    HW233483   3.596   2.956   3.844
10862SOL     OW33484   2.178   6.863   5.309
10862SOL    HW133485   2.246   6.928   5.343
10862SOL    HW233486   2.179   6.865   5.209
10863SOL     OW33487   2.789   6.561   4.797
10863SOL    HW133488   2.852   6.603   4.732
10863SOL    HW233489   2.816   6.466   4.812
10864SOL     OW33490   3.324   6.622   2.255
10864SOL    HW133491   3.241   6.618   2.198
10864SOL    HW233492   3.382   6.543   2.234
10865SOL     OW33493   5.619   1.251   6.973
10865SOL    HW133494   5.554   1.273   6.900
10865SOL    HW233495   5.570   1.243   0.039
10866SOL     OW33496   5.467   4.392   0.349
10866SOL    HW133497   5.410   4.325   0.397
10866SOL    HW233498   5.496   4.463   0.412
10867SOL     OW33499   3.410   4.202   0.460
10867SOL    HW133500   3.400   4.169   0.554
10867SOL    HW233501   3.323   4.242   0.429
10868SOL     OW33502   4.255   1.543   3.435
10868SOL    HW133503   4.170   1.544   3.383
10868SOL    HW233504   4.258   1.624   3.494
10869NA      NA33505   5.940   2.252   5.718
10870NA      NA33506   4.333   4.692   5.171
10871NA      NA33507   1.987   3.616   1.551
10872NA      NA33508   4.872   3.793   5.448
10873NA      NA33509   4.417   2.403   5.123
10874NA      NA33510   3.715   4.814   1.743
10875NA      NA33511   6.854   5.489   5.286
10876NA      NA33512   3.653   3.541   5.043
10877NA      NA33513   4.951   6.666   6.561
10878NA      NA33514   3.626   6.730   5.617
10879NA      NA33515   6.613   5.072   2.105
10880NA      NA33516   2.428   0.429   3.855
10881NA      NA33517   3.636   4.998   1.182
10882NA      NA33518   3.269   3.516   2.521
   7.02133   7.02133   7.02133
