Generated by trjconv : CNT in water t= 400.00000
33518
    1C        C    1   2.848   2.774   4.745
    1C        C    2   2.896   2.721   4.866
    1C        C    3   2.848   2.778   4.985
    1C        C    4   2.856   2.777   4.261
    1C        C    5   2.905   2.728   4.384
    1C        C    6   2.845   2.770   4.505
    1C        C    7   3.014   2.638   4.627
    1C        C    8   2.899   2.719   4.626
    1C        C    9   3.078   2.602   4.748
    1C        C   10   3.006   2.632   4.865
    1C        C   11   3.183   2.497   4.978
    1C        C   12   3.060   2.564   4.975
    1C        C   13   2.852   2.773   3.773
    1C        C   14   2.901   2.723   3.896
    1C        C   15   2.852   2.776   4.017
    1C        C   16   3.021   2.646   4.136
    1C        C   17   2.907   2.729   4.138
    1C        C   18   3.079   2.610   4.260
    1C        C   19   3.018   2.643   4.383
    1C        C   20   3.209   2.553   4.505
    1C        C   21   3.077   2.603   4.505
    1C        C   22   3.277   2.528   4.626
    1C        C   23   3.211   2.549   4.749
    1C        C   24   3.415   2.483   4.865
    1C        C   25   3.272   2.498   4.866
    1C        C   26   3.491   2.485   4.983
    1C        C   27   2.852   2.767   3.282
    1C        C   28   2.907   2.727   3.406
    1C        C   29   2.857   2.775   3.529
    1C        C   30   3.019   2.639   3.648
    1C        C   31   2.907   2.725   3.652
    1C        C   32   3.077   2.602   3.772
    1C        C   33   3.015   2.640   3.894
    1C        C   34   3.206   2.541   4.018
    1C        C   35   3.079   2.603   4.015
    1C        C   36   3.276   2.524   4.139
    1C        C   37   3.209   2.554   4.260
    1C        C   38   3.415   2.506   4.381
    1C        C   39   3.276   2.533   4.382
    1C        C   40   3.486   2.496   4.503
    1C        C   41   3.415   2.501   4.625
    1C        C   42   3.631   2.487   4.745
    1C        C   43   3.489   2.483   4.744
    1C        C   44   3.707   2.485   4.864
    1C        C   45   3.630   2.479   4.981
    1C        C   46   2.839   2.753   2.794
    1C        C   47   2.896   2.711   2.916
    1C        C   48   2.849   2.765   3.038
    1C        C   49   3.019   2.637   3.164
    1C        C   50   2.909   2.725   3.159
    1C        C   51   3.077   2.595   3.286
    1C        C   52   3.016   2.637   3.406
    1C        C   53   3.206   2.540   3.526
    1C        C   54   3.076   2.595   3.527
    1C        C   55   3.272   2.525   3.650
    1C        C   56   3.207   2.549   3.774
    1C        C   57   3.414   2.504   3.892
    1C        C   58   3.274   2.524   3.895
    1C        C   59   3.485   2.494   4.014
    1C        C   60   3.415   2.503   4.137
    1C        C   61   3.626   2.501   4.261
    1C        C   62   3.485   2.500   4.259
    1C        C   63   3.700   2.507   4.382
    1C        C   64   3.627   2.501   4.503
    1C        C   65   3.837   2.543   4.621
    1C        C   66   3.700   2.506   4.623
    1C        C   67   3.909   2.558   4.741
    1C        C   68   3.842   2.524   4.860
    1C        C   69   4.051   2.584   4.979
    1C        C   70   3.923   2.528   4.975
    1C        C   71   2.822   2.730   2.309
    1C        C   72   2.883   2.691   2.431
    1C        C   73   2.831   2.746   2.551
    1C        C   74   3.005   2.621   2.675
    1C        C   75   2.886   2.698   2.672
    1C        C   76   3.071   2.592   2.796
    1C        C   77   3.012   2.630   2.919
    1C        C   78   3.206   2.545   3.038
    1C        C   79   3.076   2.600   3.041
    1C        C   80   3.275   2.524   3.159
    1C        C   81   3.209   2.543   3.283
    1C        C   82   3.413   2.489   3.403
    1C        C   83   3.275   2.517   3.405
    1C        C   84   3.483   2.489   3.526
    1C        C   85   3.412   2.501   3.648
    1C        C   86   3.625   2.503   3.771
    1C        C   87   3.484   2.496   3.769
    1C        C   88   3.693   2.512   3.894
    1C        C   89   3.626   2.501   4.018
    1C        C   90   3.832   2.552   4.137
    1C        C   91   3.698   2.509   4.139
    1C        C   92   3.901   2.574   4.259
    1C        C   93   3.837   2.541   4.380
    1C        C   94   4.031   2.634   4.500
    1C        C   95   3.906   2.570   4.500
    1C        C   96   4.098   2.667   4.620
    1C        C   97   4.033   2.627   4.740
    1C        C   98   4.187   2.767   4.859
    1C        C   99   4.097   2.656   4.864
    1C        C  100   4.212   2.845   4.973
    1C        C  101   2.821   2.731   2.074
    1C        C  102   2.992   2.590   2.190
    1C        C  103   2.879   2.678   2.190
    1C        C  104   3.064   2.573   2.311
    1C        C  105   3.000   2.613   2.431
    1C        C  106   3.198   2.534   2.550
    1C        C  107   3.065   2.582   2.553
    1C        C  108   3.267   2.517   2.672
    1C        C  109   3.201   2.536   2.796
    1C        C  110   3.412   2.497   2.915
    1C        C  111   3.272   2.516   2.916
    1C        C  112   3.483   2.492   3.037
    1C        C  113   3.413   2.495   3.160
    1C        C  114   3.625   2.495   3.281
    1C        C  115   3.484   2.482   3.282
    1C        C  116   3.692   2.510   3.404
    1C        C  117   3.624   2.496   3.527
    1C        C  118   3.832   2.543   3.646
    1C        C  119   3.695   2.507   3.649
    1C        C  120   3.896   2.571   3.769
    1C        C  121   3.830   2.547   3.892
    1C        C  122   4.022   2.638   4.012
    1C        C  123   3.897   2.572   4.013
    1C        C  124   4.086   2.676   4.132
    1C        C  125   4.027   2.639   4.255
    1C        C  126   4.190   2.770   4.376
    1C        C  127   4.089   2.672   4.377
    1C        C  128   4.240   2.824   4.496
    1C        C  129   4.202   2.763   4.617
    1C        C  130   4.329   2.932   4.734
    1C        C  131   4.247   2.815   4.740
    1C        C  132   4.356   3.002   4.854
    1C        C  133   4.295   2.956   4.971
    1C        C  134   3.173   2.475   2.079
    1C        C  135   3.038   2.510   2.081
    1C        C  136   3.261   2.484   2.188
    1C        C  137   3.196   2.522   2.308
    1C        C  138   3.405   2.479   2.433
    1C        C  139   3.267   2.509   2.430
    1C        C  140   3.480   2.479   2.553
    1C        C  141   3.405   2.488   2.672
    1C        C  142   3.622   2.489   2.791
    1C        C  143   3.481   2.487   2.792
    1C        C  144   3.693   2.500   2.913
    1C        C  145   3.624   2.494   3.036
    1C        C  146   3.830   2.543   3.156
    1C        C  147   3.694   2.505   3.158
    1C        C  148   3.896   2.570   3.278
    1C        C  149   3.827   2.552   3.400
    1C        C  150   4.024   2.626   3.523
    1C        C  151   3.895   2.569   3.523
    1C        C  152   4.082   2.668   3.644
    1C        C  153   4.021   2.637   3.768
    1C        C  154   4.189   2.768   3.889
    1C        C  155   4.080   2.679   3.889
    1C        C  156   4.245   2.817   4.010
    1C        C  157   4.196   2.765   4.132
    1C        C  158   4.338   2.922   4.252
    1C        C  159   4.245   2.816   4.254
    1C        C  160   4.378   2.984   4.373
    1C        C  161   4.329   2.934   4.495
    1C        C  162   4.448   3.113   4.615
    1C        C  163   4.376   2.992   4.615
    1C        C  164   4.474   3.181   4.736
    1C        C  165   4.437   3.117   4.856
    1C        C  166   4.515   3.318   4.975
    1C        C  167   4.481   3.183   4.971
    1C        C  168   3.477   2.443   2.073
    1C        C  169   3.399   2.455   2.190
    1C        C  170   3.615   2.460   2.310
    1C        C  171   3.472   2.458   2.310
    1C        C  172   3.691   2.481   2.427
    1C        C  173   3.621   2.482   2.550
    1C        C  174   3.830   2.534   2.668
    1C        C  175   3.693   2.500   2.670
    1C        C  176   3.895   2.562   2.791
    1C        C  177   3.830   2.537   2.914
    1C        C  178   4.025   2.625   3.031
    1C        C  179   3.899   2.562   3.035
    1C        C  180   4.084   2.665   3.154
    1C        C  181   4.026   2.627   3.277
    1C        C  182   4.192   2.754   3.400
    1C        C  183   4.085   2.662   3.400
    1C        C  184   4.242   2.806   3.522
    1C        C  185   4.191   2.759   3.645
    1C        C  186   4.337   2.916   3.764
    1C        C  187   4.241   2.812   3.765
    1C        C  188   4.380   2.975   3.884
    1C        C  189   4.338   2.923   4.009
    1C        C  190   4.446   3.105   4.128
    1C        C  191   4.381   2.980   4.131
    1C        C  192   4.470   3.174   4.249
    1C        C  193   4.443   3.110   4.371
    1C        C  194   4.513   3.313   4.492
    1C        C  195   4.472   3.178   4.492
    1C        C  196   4.521   3.385   4.614
    1C        C  197   4.512   3.319   4.738
    1C        C  198   4.552   3.535   4.853
    1C        C  199   4.525   3.394   4.858
    1C        C  200   4.585   3.619   4.964
    1C        C  201   3.614   2.416   2.075
    1C        C  202   3.824   2.507   2.183
    1C        C  203   3.689   2.461   2.188
    1C        C  204   3.896   2.539   2.302
    1C        C  205   3.826   2.520   2.424
    1C        C  206   4.022   2.611   2.541
    1C        C  207   3.895   2.551   2.543
    1C        C  208   4.082   2.652   2.663
    1C        C  209   4.022   2.622   2.787
    1C        C  210   4.197   2.746   2.908
    1C        C  211   4.084   2.661   2.908
    1C        C  212   4.249   2.795   3.030
    1C        C  213   4.194   2.753   3.153
    1C        C  214   4.331   2.911   3.274
    1C        C  215   4.240   2.803   3.277
    1C        C  216   4.370   2.968   3.397
    1C        C  217   4.334   2.913   3.523
    1C        C  218   4.441   3.099   3.642
    1C        C  219   4.383   2.971   3.642
    1C        C  220   4.466   3.168   3.763
    1C        C  221   4.447   3.100   3.886
    1C        C  222   4.511   3.306   4.003
    1C        C  223   4.475   3.169   4.005
    1C        C  224   4.521   3.379   4.124
    1C        C  225   4.501   3.312   4.247
    1C        C  226   4.519   3.524   4.367
    1C        C  227   4.518   3.382   4.369
    1C        C  228   4.517   3.596   4.488
    1C        C  229   4.528   3.526   4.610
    1C        C  230   4.498   3.740   4.728
    1C        C  231   4.530   3.601   4.729
    1C        C  232   4.498   3.821   4.844
    1C        C  233   4.547   3.753   4.956
    1C        C  234   4.020   2.601   2.062
    1C        C  235   3.896   2.538   2.067
    1C        C  236   4.084   2.644   2.179
    1C        C  237   4.021   2.607   2.299
    1C        C  238   4.193   2.738   2.420
    1C        C  239   4.084   2.646   2.419
    1C        C  240   4.239   2.794   2.541
    1C        C  241   4.189   2.744   2.664
    1C        C  242   4.333   2.904   2.785
    1C        C  243   4.244   2.794   2.784
    1C        C  244   4.378   2.960   2.907
    1C        C  245   4.341   2.903   3.030
    1C        C  246   4.443   3.089   3.152
    1C        C  247   4.380   2.963   3.152
    1C        C  248   4.464   3.157   3.274
    1C        C  249   4.432   3.095   3.396
    1C        C  250   4.498   3.299   3.515
    1C        C  251   4.460   3.163   3.517
    1C        C  252   4.510   3.372   3.636
    1C        C  253   4.501   3.304   3.760
    1C        C  254   4.518   3.517   3.877
    1C        C  255   4.516   3.376   3.881
    1C        C  256   4.514   3.587   4.000
    1C        C  257   4.522   3.520   4.124
    1C        C  258   4.488   3.732   4.241
    1C        C  259   4.516   3.594   4.244
    1C        C  260   4.469   3.800   4.363
    1C        C  261   4.487   3.734   4.487
    1C        C  262   4.416   3.937   4.603
    1C        C  263   4.473   3.808   4.607
    1C        C  264   4.390   4.006   4.724
    1C        C  265   4.433   3.946   4.844
    1C        C  266   4.309   4.121   4.956
    1C        C  267   4.385   4.004   4.962
    1C        C  268   4.256   2.781   2.065
    1C        C  269   4.199   2.727   2.181
    1C        C  270   4.346   2.887   2.301
    1C        C  271   4.254   2.779   2.300
    1C        C  272   4.386   2.949   2.421
    1C        C  273   4.338   2.895   2.543
    1C        C  274   4.448   3.081   2.660
    1C        C  275   4.380   2.957   2.663
    1C        C  276   4.475   3.147   2.782
    1C        C  277   4.443   3.085   2.905
    1C        C  278   4.503   3.288   3.026
    1C        C  279   4.464   3.152   3.027
    1C        C  280   4.512   3.360   3.148
    1C        C  281   4.501   3.293   3.272
    1C        C  282   4.512   3.508   3.390
    1C        C  283   4.509   3.367   3.392
    1C        C  284   4.511   3.582   3.511
    1C        C  285   4.518   3.513   3.634
    1C        C  286   4.492   3.726   3.751
    1C        C  287   4.519   3.587   3.754
    1C        C  288   4.468   3.792   3.873
    1C        C  289   4.485   3.725   3.997
    1C        C  290   4.414   3.928   4.118
    1C        C  291   4.466   3.796   4.117
    1C        C  292   4.393   3.998   4.238
    1C        C  293   4.426   3.935   4.360
    1C        C  294   4.322   4.125   4.479
    1C        C  295   4.389   4.000   4.480
    1C        C  296   4.284   4.190   4.598
    1C        C  297   4.321   4.130   4.721
    1C        C  298   4.192   4.309   4.840
    1C        C  299   4.278   4.194   4.841
    1C        C  300   4.167   4.400   4.947
    1C        C  301   4.347   2.886   2.062
    1C        C  302   4.469   3.067   2.180
    1C        C  303   4.395   2.945   2.181
    1C        C  304   4.485   3.140   2.301
    1C        C  305   4.453   3.074   2.422
    1C        C  306   4.514   3.284   2.539
    1C        C  307   4.482   3.146   2.539
    1C        C  308   4.524   3.354   2.661
    1C        C  309   4.507   3.285   2.783
    1C        C  310   4.528   3.498   2.901
    1C        C  311   4.520   3.357   2.904
    1C        C  312   4.515   3.571   3.021
    1C        C  313   4.511   3.501   3.144
    1C        C  314   4.483   3.713   3.263
    1C        C  315   4.509   3.574   3.265
    1C        C  316   4.472   3.787   3.382
    1C        C  317   4.492   3.722   3.506
    1C        C  318   4.420   3.923   3.628
    1C        C  319   4.471   3.792   3.627
    1C        C  320   4.387   3.985   3.751
    1C        C  321   4.419   3.924   3.874
    1C        C  322   4.312   4.111   3.992
    1C        C  323   4.388   3.992   3.994
    1C        C  324   4.275   4.174   4.113
    1C        C  325   4.319   4.118   4.235
    1C        C  326   4.188   4.288   4.357
    1C        C  327   4.277   4.179   4.356
    1C        C  328   4.137   4.342   4.477
    1C        C  329   4.189   4.295   4.599
    1C        C  330   4.022   4.437   4.713
    1C        C  331   4.136   4.352   4.717
    1C        C  332   3.971   4.498   4.830
    1C        C  333   4.052   4.480   4.944
    1C        C  334   4.546   3.264   2.062
    1C        C  335   4.527   3.125   2.063
    1C        C  336   4.532   3.346   2.175
    1C        C  337   4.511   3.280   2.298
    1C        C  338   4.525   3.496   2.413
    1C        C  339   4.517   3.355   2.417
    1C        C  340   4.520   3.566   2.536
    1C        C  341   4.520   3.495   2.658
    1C        C  342   4.490   3.707   2.777
    1C        C  343   4.519   3.569   2.779
    1C        C  344   4.468   3.779   2.897
    1C        C  345   4.491   3.710   3.018
    1C        C  346   4.417   3.912   3.139
    1C        C  347   4.465   3.779   3.139
    1C        C  348   4.386   3.980   3.259
    1C        C  349   4.423   3.920   3.382
    1C        C  350   4.316   4.103   3.503
    1C        C  351   4.391   3.983   3.504
    1C        C  352   4.275   4.164   3.624
    1C        C  353   4.314   4.107   3.747
    1C        C  354   4.180   4.273   3.866
    1C        C  355   4.271   4.165   3.868
    1C        C  356   4.127   4.324   3.987
    1C        C  357   4.183   4.282   4.109
    1C        C  358   4.016   4.407   4.232
    1C        C  359   4.132   4.327   4.233
    1C        C  360   3.954   4.452   4.351
    1C        C  361   4.022   4.424   4.472
    1C        C  362   3.828   4.520   4.592
    1C        C  363   3.959   4.467   4.591
    1C        C  364   3.762   4.552   4.713
    1C        C  365   3.838   4.543   4.832
    1C        C  366   3.630   4.596   4.950
    1C        C  367   3.766   4.568   4.950
    1C        C  368   4.506   3.563   2.057
    1C        C  369   4.526   3.487   2.173
    1C        C  370   4.500   3.705   2.289
    1C        C  371   4.526   3.566   2.290
    1C        C  372   4.479   3.775   2.410
    1C        C  373   4.496   3.705   2.531
    1C        C  374   4.424   3.905   2.648
    1C        C  375   4.475   3.774   2.653
    1C        C  376   4.387   3.970   2.769
    1C        C  377   4.418   3.911   2.893
    1C        C  378   4.322   4.098   3.014
    1C        C  379   4.394   3.976   3.016
    1C        C  380   4.271   4.155   3.133
    1C        C  381   4.309   4.099   3.256
    1C        C  382   4.178   4.261   3.379
    1C        C  383   4.272   4.155   3.380
    1C        C  384   4.123   4.311   3.499
    1C        C  385   4.174   4.263   3.622
    1C        C  386   4.011   4.399   3.743
    1C        C  387   4.124   4.315   3.743
    1C        C  388   3.949   4.435   3.865
    1C        C  389   4.008   4.400   3.989
    1C        C  390   3.819   4.494   4.108
    1C        C  391   3.949   4.438   4.112
    1C        C  392   3.755   4.522   4.230
    1C        C  393   3.825   4.509   4.352
    1C        C  394   3.618   4.565   4.474
    1C        C  395   3.757   4.542   4.472
    1C        C  396   3.547   4.569   4.596
    1C        C  397   3.622   4.565   4.716
    1C        C  398   3.411   4.547   4.841
    1C        C  399   3.550   4.573   4.837
    1C        C  400   3.347   4.510   4.960
    1C        C  401   4.498   3.702   2.052
    1C        C  402   4.453   3.916   2.168
    1C        C  403   4.485   3.778   2.169
    1C        C  404   4.409   3.978   2.287
    1C        C  405   4.429   3.907   2.407
    1C        C  406   4.326   4.096   2.527
    1C        C  407   4.396   3.973   2.528
    1C        C  408   4.281   4.153   2.648
    1C        C  409   4.316   4.092   2.770
    1C        C  410   4.178   4.252   2.889
    1C        C  411   4.279   4.154   2.891
    1C        C  412   4.124   4.303   3.009
    1C        C  413   4.174   4.258   3.134
    1C        C  414   4.005   4.384   3.252
    1C        C  415   4.122   4.305   3.257
    1C        C  416   3.947   4.422   3.374
    1C        C  417   4.008   4.393   3.498
    1C        C  418   3.815   4.478   3.620
    1C        C  419   3.947   4.428   3.621
    1C        C  420   3.749   4.505   3.742
    1C        C  421   3.819   4.490   3.864
    1C        C  422   3.613   4.542   3.986
    1C        C  423   3.752   4.518   3.986
    1C        C  424   3.546   4.548   4.110
    1C        C  425   3.617   4.551   4.233
    1C        C  426   3.404   4.549   4.357
    1C        C  427   3.544   4.563   4.353
    1C        C  428   3.332   4.546   4.478
    1C        C  429   3.406   4.556   4.597
    1C        C  430   3.199   4.514   4.722
    1C        C  431   3.338   4.547   4.720
    1C        C  432   3.128   4.499   4.844
    1C        C  433   3.209   4.491   4.959
    1C        C  434   4.381   4.124   2.050
    1C        C  435   4.441   3.998   2.055
    1C        C  436   4.303   4.166   2.163
    1C        C  437   4.329   4.096   2.284
    1C        C  438   4.181   4.251   2.404
    1C        C  439   4.279   4.149   2.405
    1C        C  440   4.124   4.298   2.524
    1C        C  441   4.182   4.254   2.645
    1C        C  442   4.009   4.380   2.766
    1C        C  443   4.124   4.298   2.766
    1C        C  444   3.946   4.421   2.886
    1C        C  445   4.009   4.385   3.007
    1C        C  446   3.815   4.473   3.129
    1C        C  447   3.946   4.420   3.129
    1C        C  448   3.749   4.497   3.252
    1C        C  449   3.817   4.479   3.374
    1C        C  450   3.612   4.529   3.495
    1C        C  451   3.750   4.499   3.496
    1C        C  452   3.544   4.540   3.619
    1C        C  453   3.612   4.539   3.742
    1C        C  454   3.401   4.544   3.866
    1C        C  455   3.542   4.550   3.864
    1C        C  456   3.334   4.529   3.989
    1C        C  457   3.405   4.536   4.111
    1C        C  458   3.198   4.503   4.237
    1C        C  459   3.336   4.532   4.234
    1C        C  460   3.127   4.488   4.359
    1C        C  461   3.194   4.515   4.481
    1C        C  462   3.000   4.428   4.603
    1C        C  463   3.129   4.487   4.603
    1C        C  464   2.937   4.394   4.725
    1C        C  465   2.995   4.446   4.844
    1C        C  466   2.803   4.344   4.958
    1C        C  467   2.909   4.436   4.958
    1C        C  468   4.128   4.295   2.041
    1C        C  469   4.191   4.255   2.160
    1C        C  470   4.013   4.377   2.281
    1C        C  471   4.134   4.304   2.281
    1C        C  472   3.943   4.406   2.400
    1C        C  473   4.008   4.378   2.523
    1C        C  474   3.815   4.468   2.645
    1C        C  475   3.943   4.409   2.645
    1C        C  476   3.746   4.496   2.765
    1C        C  477   3.815   4.475   2.886
    1C        C  478   3.609   4.527   3.008
    1C        C  479   3.747   4.498   3.008
    1C        C  480   3.538   4.537   3.130
    1C        C  481   3.610   4.522   3.251
    1C        C  482   3.399   4.529   3.378
    1C        C  483   3.540   4.533   3.373
    1C        C  484   3.330   4.524   3.501
    1C        C  485   3.403   4.540   3.621
    1C        C  486   3.196   4.496   3.748
    1C        C  487   3.331   4.537   3.743
    1C        C  488   3.130   4.474   3.870
    1C        C  489   3.196   4.496   3.993
    1C        C  490   3.007   4.409   4.115
    1C        C  491   3.130   4.478   4.116
    1C        C  492   2.943   4.384   4.239
    1C        C  493   3.000   4.427   4.361
    1C        C  494   2.824   4.307   4.482
    1C        C  495   2.937   4.391   4.482
    1C        C  496   2.773   4.258   4.605
    1C        C  497   2.818   4.316   4.725
    1C        C  498   2.666   4.167   4.846
    1C        C  499   2.756   4.276   4.846
    1C        C  500   2.597   4.117   4.957
    1C        C  501   4.003   4.357   2.043
    1C        C  502   3.819   4.469   2.157
    1C        C  503   3.947   4.409   2.160
    1C        C  504   3.746   4.482   2.277
    1C        C  505   3.813   4.460   2.399
    1C        C  506   3.610   4.514   2.519
    1C        C  507   3.749   4.488   2.521
    1C        C  508   3.538   4.525   2.640
    1C        C  509   3.607   4.521   2.763
    1C        C  510   3.397   4.521   2.885
    1C        C  511   3.538   4.529   2.886
    1C        C  512   3.327   4.517   3.008
    1C        C  513   3.397   4.530   3.130
    1C        C  514   3.194   4.490   3.257
    1C        C  515   3.331   4.523   3.254
    1C        C  516   3.126   4.469   3.379
    1C        C  517   3.192   4.492   3.501
    1C        C  518   3.003   4.409   3.624
    1C        C  519   3.129   4.472   3.626
    1C        C  520   2.942   4.373   3.746
    1C        C  521   3.002   4.413   3.867
    1C        C  522   2.841   4.281   3.996
    1C        C  523   2.949   4.371   3.992
    1C        C  524   2.790   4.233   4.119
    1C        C  525   2.836   4.292   4.239
    1C        C  526   2.693   4.137   4.366
    1C        C  527   2.780   4.248   4.361
    1C        C  528   2.648   4.081   4.487
    1C        C  529   2.691   4.143   4.606
    1C        C  530   2.582   3.964   4.731
    1C        C  531   2.641   4.093   4.729
    1C        C  532   2.543   3.902   4.853
    1C        C  533   2.529   3.995   4.962
    1C        C  534   3.621   4.558   2.038
    1C        C  535   3.753   4.512   2.041
    1C        C  536   3.539   4.536   2.153
    1C        C  537   3.607   4.513   2.276
    1C        C  538   3.395   4.516   2.399
    1C        C  539   3.537   4.522   2.399
    1C        C  540   3.324   4.503   2.521
    1C        C  541   3.397   4.517   2.641
    1C        C  542   3.188   4.485   2.768
    1C        C  543   3.326   4.517   2.763
    1C        C  544   3.124   4.460   2.891
    1C        C  545   3.190   4.482   3.014
    1C        C  546   2.998   4.399   3.135
    1C        C  547   3.125   4.461   3.137
    1C        C  548   2.937   4.367   3.258
    1C        C  549   2.998   4.409   3.378
    1C        C  550   2.831   4.282   3.507
    1C        C  551   2.941   4.371   3.502
    1C        C  552   2.780   4.232   3.628
    1C        C  553   2.831   4.284   3.749
    1C        C  554   2.699   4.125   3.875
    1C        C  555   2.789   4.234   3.874
    1C        C  556   2.656   4.068   3.997
    1C        C  557   2.695   4.128   4.118
    1C        C  558   2.592   3.950   4.247
    1C        C  559   2.656   4.076   4.244
    1C        C  560   2.561   3.887   4.369
    1C        C  561   2.590   3.952   4.491
    1C        C  562   2.527   3.752   4.617
    1C        C  563   2.559   3.889   4.613
    1C        C  564   2.508   3.682   4.739
    1C        C  565   2.520   3.761   4.857
    1C        C  566   2.516   3.550   4.977
    1C        C  567   2.522   3.689   4.977
    1C        C  568   3.328   4.482   2.042
    1C        C  569   3.399   4.516   2.158
    1C        C  570   3.186   4.473   2.280
    1C        C  571   3.323   4.512   2.278
    1C        C  572   3.118   4.459   2.402
    1C        C  573   3.185   4.480   2.525
    1C        C  574   2.989   4.405   2.649
    1C        C  575   3.117   4.464   2.647
    1C        C  576   2.929   4.363   2.770
    1C        C  577   2.996   4.401   2.889
    1C        C  578   2.826   4.277   3.016
    1C        C  579   2.937   4.365   3.012
    1C        C  580   2.777   4.227   3.139
    1C        C  581   2.829   4.275   3.261
    1C        C  582   2.695   4.118   3.385
    1C        C  583   2.780   4.231   3.385
    1C        C  584   2.658   4.060   3.508
    1C        C  585   2.693   4.120   3.631
    1C        C  586   2.596   3.936   3.757
    1C        C  587   2.657   4.064   3.755
    1C        C  588   2.567   3.873   3.880
    1C        C  589   2.599   3.939   4.001
    1C        C  590   2.541   3.741   4.130
    1C        C  591   2.574   3.878   4.126
    1C        C  592   2.527   3.673   4.253
    1C        C  593   2.533   3.748   4.372
    1C        C  594   2.514   3.539   4.498
    1C        C  595   2.519   3.680   4.495
    1C        C  596   2.517   3.467   4.620
    1C        C  597   2.509   3.540   4.741
    1C        C  598   2.528   3.329   4.863
    1C        C  599   2.512   3.470   4.863
    1C        C  600   2.531   3.249   4.978
    1C        C  601   3.197   4.439   2.038
    1C        C  602   2.986   4.396   2.159
    1C        C  603   3.122   4.442   2.157
    1C        C  604   2.926   4.360   2.283
    1C        C  605   2.990   4.399   2.403
    1C        C  606   2.825   4.273   2.528
    1C        C  607   2.928   4.369   2.526
    1C        C  608   2.774   4.222   2.649
    1C        C  609   2.821   4.272   2.773
    1C        C  610   2.692   4.110   2.895
    1C        C  611   2.771   4.227   2.897
    1C        C  612   2.657   4.051   3.018
    1C        C  613   2.694   4.112   3.140
    1C        C  614   2.590   3.932   3.265
    1C        C  615   2.652   4.058   3.264
    1C        C  616   2.572   3.867   3.389
    1C        C  617   2.596   3.933   3.512
    1C        C  618   2.535   3.732   3.641
    1C        C  619   2.572   3.868   3.635
    1C        C  620   2.519   3.665   3.764
    1C        C  621   2.527   3.738   3.885
    1C        C  622   2.513   3.529   4.009
    1C        C  623   2.528   3.670   4.008
    1C        C  624   2.516   3.460   4.131
    1C        C  625   2.512   3.532   4.253
    1C        C  626   2.540   3.328   4.380
    1C        C  627   2.509   3.466   4.378
    1C        C  628   2.561   3.257   4.500
    1C        C  629   2.534   3.327   4.619
    1C        C  630   2.595   3.125   4.742
    1C        C  631   2.548   3.259   4.742
    1C        C  632   2.619   3.055   4.864
    1C        C  633   2.562   3.113   4.981
    1C        C  634   2.787   4.305   2.055
    1C        C  635   2.899   4.388   2.046
    1C        C  636   2.751   4.230   2.168
    1C        C  637   2.812   4.274   2.287
    1C        C  638   2.683   4.107   2.410
    1C        C  639   2.766   4.221   2.410
    1C        C  640   2.642   4.050   2.533
    1C        C  641   2.683   4.114   2.652
    1C        C  642   2.585   3.925   2.777
    1C        C  643   2.649   4.050   2.774
    1C        C  644   2.561   3.861   2.900
    1C        C  645   2.589   3.927   3.022
    1C        C  646   2.525   3.727   3.150
    1C        C  647   2.559   3.864   3.145
    1C        C  648   2.519   3.659   3.273
    1C        C  649   2.534   3.731   3.394
    1C        C  650   2.507   3.524   3.518
    1C        C  651   2.519   3.664   3.517
    1C        C  652   2.513   3.453   3.640
    1C        C  653   2.511   3.523   3.763
    1C        C  654   2.535   3.317   3.890
    1C        C  655   2.512   3.457   3.887
    1C        C  656   2.559   3.252   4.013
    1C        C  657   2.542   3.321   4.135
    1C        C  658   2.614   3.126   4.259
    1C        C  659   2.562   3.257   4.260
    1C        C  660   2.640   3.058   4.380
    1C        C  661   2.611   3.124   4.501
    1C        C  662   2.715   2.943   4.625
    1C        C  663   2.634   3.058   4.624
    1C        C  664   2.755   2.882   4.746
    1C        C  665   2.699   2.936   4.865
    1C        C  666   2.745   2.871   4.981
    1C        C  667   2.685   4.025   2.054
    1C        C  668   2.687   4.105   2.169
    1C        C  669   2.590   3.912   2.292
    1C        C  670   2.651   4.041   2.290
    1C        C  671   2.562   3.849   2.416
    1C        C  672   2.584   3.922   2.535
    1C        C  673   2.520   3.720   2.657
    1C        C  674   2.552   3.858   2.657
    1C        C  675   2.511   3.652   2.781
    1C        C  676   2.525   3.724   2.902
    1C        C  677   2.503   3.518   3.032
    1C        C  678   2.510   3.659   3.027
    1C        C  679   2.506   3.446   3.154
    1C        C  680   2.507   3.518   3.276
    1C        C  681   2.528   3.308   3.399
    1C        C  682   2.510   3.448   3.398
    1C        C  683   2.555   3.245   3.523
    1C        C  684   2.534   3.314   3.645
    1C        C  685   2.607   3.117   3.772
    1C        C  686   2.549   3.246   3.768
    1C        C  687   2.640   3.053   3.894
    1C        C  688   2.603   3.118   4.014
    1C        C  689   2.717   2.941   4.142
    1C        C  690   2.638   3.058   4.137
    1C        C  691   2.761   2.881   4.263
    1C        C  692   2.715   2.938   4.384
    1C        C  693   2.757   2.880   4.505
    1C        C  694   2.636   3.894   2.059
    1C        C  695   2.528   3.706   2.175
    1C        C  696   2.574   3.839   2.173
    1C        C  697   2.500   3.640   2.297
    1C        C  698   2.515   3.716   2.415
    1C        C  699   2.496   3.506   2.544
    1C        C  700   2.504   3.647   2.538
    1C        C  701   2.509   3.440   2.669
    1C        C  702   2.502   3.512   2.791
    1C        C  703   2.532   3.303   2.914
    1C        C  704   2.504   3.442   2.913
    1C        C  705   2.552   3.235   3.036
    1C        C  706   2.535   3.308   3.156
    1C        C  707   2.603   3.108   3.280
    1C        C  708   2.547   3.238   3.278
    1C        C  709   2.640   3.052   3.404
    1C        C  710   2.610   3.115   3.527
    1C        C  711   2.719   2.935   3.650
    1C        C  712   2.643   3.055   3.650
    1C        C  713   2.762   2.881   3.773
    1C        C  714   2.723   2.939   3.896
    1C        C  715   2.760   2.884   4.021
    1C        C  716   2.444   3.500   2.064
    1C        C  717   2.492   3.632   2.062
    1C        C  718   2.462   3.422   2.183
    1C        C  719   2.480   3.499   2.301
    1C        C  720   2.517   3.293   2.428
    1C        C  721   2.493   3.432   2.424
    1C        C  722   2.542   3.227   2.551
    1C        C  723   2.529   3.300   2.671
    1C        C  724   2.600   3.102   2.791
    1C        C  725   2.545   3.232   2.793
    1C        C  726   2.633   3.040   2.914
    1C        C  727   2.601   3.102   3.036
    1C        C  728   2.712   2.924   3.161
    1C        C  729   2.633   3.041   3.159
    1C        C  730   2.760   2.874   3.284
    1C        C  731   2.721   2.936   3.405
    1C        C  732   2.763   2.880   3.527
    1C        C  733   2.494   3.202   2.074
    1C        C  734   2.491   3.282   2.189
    1C        C  735   2.584   3.087   2.307
    1C        C  736   2.526   3.216   2.310
    1C        C  737   2.610   3.020   2.428
    1C        C  738   2.586   3.093   2.547
    1C        C  739   2.701   2.914   2.670
    1C        C  740   2.627   3.035   2.669
    1C        C  741   2.748   2.861   2.792
    1C        C  742   2.706   2.919   2.913
    1C        C  743   2.754   2.870   3.037
    1C        C  744   2.548   3.074   2.075
    1C        C  745   2.690   2.900   2.188
    1C        C  746   2.611   3.017   2.187
    1C        C  747   2.731   2.839   2.308
    1C        C  748   2.688   2.902   2.427
    1C        C  749   2.736   2.850   2.549
    1C        C  750   2.729   2.835   2.070
    1C        C  751   3.662   2.295   2.004
    1C        O  752   3.640   2.183   2.057
    1C        O  753   3.671   2.288   1.864
    1C        C  754   4.636   3.059   1.988
    1C        O  755   4.633   3.015   1.870
    1C        O  756   4.737   2.994   2.060
    1C        C  757   4.427   4.218   1.946
    1C        O  758   4.552   4.237   1.947
    1C        O  759   4.379   4.212   1.814
    1C        C  760   3.604   4.688   1.968
    1C        O  761   3.584   4.803   2.015
    1C        O  762   3.588   4.692   1.829
    1C        C  763   2.874   4.507   1.961
    1C        O  764   2.902   4.518   1.839
    1C        O  765   2.828   4.629   2.012
    1C        C  766   2.331   3.473   1.971
    1C        O  767   2.353   3.506   1.852
    1C        O  768   2.194   3.488   1.997
    1C        C  769   4.703   3.584   5.047
    1C        O  770   4.695   3.577   5.173
    1C        O  771   4.828   3.644   5.025
    1C        C  772   4.246   4.415   5.071
    1C        O  773   4.212   4.365   5.181
    1C        O  774   4.329   4.527   5.081
    1C        C  775   4.139   2.516   5.077
    1C        O  776   4.228   2.433   5.044
    1C        O  777   4.139   2.574   5.205
    1C        C  778   2.894   4.554   5.046
    1C        O  779   2.829   4.652   5.002
    1C        O  780   2.882   4.529   5.183
    1C        C  781   2.467   3.052   5.078
    1C        O  782   2.351   3.013   5.050
    1C        O  783   2.495   3.031   5.212
    1C        C  784   2.411   3.991   5.051
    1C        O  785   2.308   4.048   5.007
    1C        O  786   2.426   3.983   5.190
    1C        C  787   2.953   2.410   2.012
    1C        O  788   2.895   2.447   1.907
    1C        O  789   2.987   2.275   2.017
    1C        C  790   3.184   2.387   5.077
    1C        O  791   3.207   2.266   5.047
    1C        O  792   3.152   2.411   5.211
    1C        H  793   4.310   3.016   5.059
    1C        H  794   4.157   2.823   5.063
    1C        H  795   4.497   3.129   5.063
    1C        H  796   4.543   3.354   5.071
    1C        H  797   4.561   3.812   5.045
    1C        H  798   4.358   3.936   5.040
    1C        H  799   4.283   4.171   5.047
    1C        H  800   4.050   4.555   5.020
    1C        H  801   3.814   4.550   5.043
    1C        H  802   3.584   4.661   5.021
    1C        H  803   3.400   4.468   5.042
    1C        H  804   3.163   4.450   5.047
    1C        H  805   3.913   2.444   5.040
    1C        H  806   3.671   2.419   5.060
    1C        H  807   3.004   2.569   5.066
    1C        H  808   3.443   2.480   5.078
    1C        H  809   2.905   2.774   5.075
    1C        H  810   2.710   2.907   5.075
    1C        H  811   2.513   3.301   5.070
    1C        H  812   2.512   3.508   5.076
    1C        H  813   2.588   3.729   5.052
    1C        H  814   2.572   4.188   5.033
    1C        H  815   2.784   4.297   5.052
    1C        H  816   2.706   2.884   1.977
    1C        H  817   2.827   2.668   1.987
    1C        H  818   3.213   2.434   1.989
    1C        H  819   3.437   2.487   1.984
    1C        H  820   3.860   2.500   1.973
    1C        H  821   4.045   2.658   1.975
    1C        H  822   4.275   2.709   1.988
    1C        H  823   4.395   2.910   1.970
    1C        H  824   4.599   3.297   1.975
    1C        H  825   4.533   3.517   1.965
    1C        H  826   4.537   3.751   1.965
    1C        H  827   3.798   4.494   1.946
    1C        H  828   3.934   4.318   1.971
    1C        H  829   4.182   4.307   1.950
    1C        H  830   4.524   3.992   1.987
    1C        H  831   2.691   3.825   2.000
    1C        H  832   2.709   4.067   1.958
    1C        H  833   2.702   4.340   2.000
    1C        H  834   3.364   4.520   1.949
    1C        H  835   3.149   4.455   1.944
    1C        H  836   2.510   3.007   2.001
    1C        H  837   2.404   3.215   2.018
    1C        H  838   2.494   3.682   1.967
    2V3OU   H29  839   2.806   3.548   4.716
    2V3OU   C27  840   2.799   3.501   4.817
    2V3OU   H27  841   2.738   3.571   4.880
    2V3OU   H28  842   2.744   3.406   4.793
    2V3OU   O11  843   2.919   3.474   4.889
    2V3OU   C15  844   2.921   3.397   5.004
    2V3OU   C13  845   3.051   3.372   5.053
    2V3OU   C14  846   3.079   3.264   5.137
    2V3OU   C16  847   2.975   3.185   5.184
    2V3OU    H6  848   2.994   3.103   5.255
    2V3OU   C12  849   3.220   3.226   5.162
    2V3OU    O2  850   3.248   3.128   5.234
    2V3OU   C10  851   3.327   3.305   5.098
    2V3OU    C8  852   3.462   3.271   5.102
    2V3OU   O10  853   3.493   3.151   5.156
    2V3OU   H26  854   3.405   3.116   5.177
    2V3OU    C6  855   3.568   3.350   5.047
    2V3OU    C5  856   3.535   3.468   4.981
    2V3OU    C4  857   3.704   3.291   5.052
    2V3OU    H4  858   3.721   3.230   5.146
    2V3OU    H5  859   3.715   3.231   4.958
    2V3OU    C2  860   3.814   3.398   5.056
    2V3OU    O6  861   3.804   3.480   5.173
    2V3OU   H21  862   3.771   3.561   5.132
    2V3OU    C3  863   3.782   3.488   4.938
    2V3OU    H2  864   3.858   3.569   4.930
    2V3OU    H3  865   3.782   3.434   4.839
    2V3OU   C25  866   3.948   3.327   5.032
    2V3OU    O7  867   3.998   3.299   4.923
    2V3OU   C26  868   4.030   3.293   5.155
    2V3OU   H22  869   4.066   3.387   5.203
    2V3OU   H23  870   4.113   3.221   5.131
    2V3OU    O8  871   3.965   3.209   5.247
    2V3OU   H24  872   3.929   3.260   5.321
    2V3OU    C1  873   3.647   3.559   4.943
    2V3OU    H1  874   3.625   3.614   4.846
    2V3OU    O3  875   3.658   3.658   5.045
    2V3OU   C19  876   3.615   3.793   5.023
    2V3OU    H9  877   3.517   3.798   4.967
    2V3OU    O4  878   3.709   3.844   4.931
    2V3OU   C20  879   3.841   3.875   4.977
    2V3OU   H10  880   3.899   3.778   4.983
    2V3OU   C24  881   3.610   3.862   5.159
    2V3OU   H16  882   3.547   3.797   5.225
    2V3OU   H17  883   3.566   3.964   5.147
    2V3OU   C23  884   3.752   3.877   5.215
    2V3OU   H15  885   3.795   3.774   5.238
    2V3OU    N1  886   3.736   3.959   5.334
    2V3OU   H19  887   3.816   3.925   5.384
    2V3OU   H20  888   3.654   3.921   5.377
    2V3OU   C21  889   3.845   3.948   5.111
    2V3OU   H11  890   3.951   3.928   5.145
    2V3OU    O5  891   3.829   4.088   5.119
    2V3OU   H18  892   3.784   4.099   5.205
    2V3OU   C22  893   3.910   3.952   4.866
    2V3OU   H12  894   3.859   4.050   4.848
    2V3OU   H13  895   3.910   3.890   4.773
    2V3OU   H14  896   4.021   3.955   4.886
    2V3OU   C11  897   3.157   3.469   5.023
    2V3OU    O1  898   3.129   3.587   4.994
    2V3OU    C9  899   3.299   3.429   5.036
    2V3OU    C7  900   3.398   3.510   4.981
    2V3OU    O9  901   3.377   3.624   4.906
    2V3OU   H25  902   3.281   3.638   4.913
    2V3OU   C17  903   2.824   3.312   5.060
    2V3OU    H7  904   2.721   3.348   5.063
    2V3OU   C18  905   2.842   3.204   5.146
    2V3OU    H8  906   2.754   3.154   5.189
    3SOL     OW  907   3.323   4.170   5.052
    3SOL    HW1  908   3.311   4.180   5.151
    3SOL    HW2  909   3.236   4.146   5.010
    4SOL     OW  910   6.921   0.328   0.221
    4SOL    HW1  911   6.834   0.326   0.173
    4SOL    HW2  912   6.975   0.248   0.195
    5SOL     OW  913   4.268   1.078   1.171
    5SOL    HW1  914   4.206   1.154   1.152
    5SOL    HW2  915   4.268   1.060   1.269
    6SOL     OW  916   5.735   0.806   3.335
    6SOL    HW1  917   5.687   0.781   3.419
    6SOL    HW2  918   5.832   0.822   3.356
    7SOL     OW  919   1.015   4.282   5.013
    7SOL    HW1  920   0.948   4.294   4.940
    7SOL    HW2  921   0.986   4.332   5.094
    8SOL     OW  922   2.021   2.551   5.549
    8SOL    HW1  923   1.977   2.561   5.638
    8SOL    HW2  924   2.061   2.638   5.521
    9SOL     OW  925   6.309   1.541   6.588
    9SOL    HW1  926   6.293   1.640   6.587
    9SOL    HW2  927   6.234   1.495   6.539
   10SOL     OW  928   4.818   4.634   2.531
   10SOL    HW1  929   4.882   4.639   2.454
   10SOL    HW2  930   4.780   4.725   2.549
   11SOL     OW  931   2.136   1.356   0.211
   11SOL    HW1  932   2.190   1.356   0.295
   11SOL    HW2  933   2.185   1.306   0.140
   12SOL     OW  934   2.660   5.010   3.315
   12SOL    HW1  935   2.591   5.032   3.384
   12SOL    HW2  936   2.741   4.972   3.359
   13SOL     OW  937   4.712   5.961   2.400
   13SOL    HW1  938   4.743   5.913   2.318
   13SOL    HW2  939   4.738   5.908   2.481
   14SOL     OW  940   4.896   4.734   5.334
   14SOL    HW1  941   4.840   4.815   5.316
   14SOL    HW2  942   4.851   4.653   5.296
   15SOL     OW  943   0.549   5.575   5.605
   15SOL    HW1  944   0.483   5.537   5.669
   15SOL    HW2  945   0.603   5.501   5.564
   16SOL     OW  946   6.729   2.833   5.867
   16SOL    HW1  947   6.753   2.858   5.961
   16SOL    HW2  948   6.762   2.903   5.804
   17SOL     OW  949   6.306   0.566   5.820
   17SOL    HW1  950   6.327   0.644   5.762
   17SOL    HW2  951   6.256   0.497   5.767
   18SOL     OW  952   3.232   0.054   5.071
   18SOL    HW1  953   3.219   0.134   5.013
   18SOL    HW2  954   3.143   0.018   5.100
   19SOL     OW  955   0.768   1.355   3.117
   19SOL    HW1  956   0.775   1.451   3.142
   19SOL    HW2  957   0.766   1.346   3.017
   20SOL     OW  958   5.619   2.884   5.445
   20SOL    HW1  959   5.640   2.820   5.518
   20SOL    HW2  960   5.649   2.976   5.471
   21SOL     OW  961   4.105   6.609   2.850
   21SOL    HW1  962   4.081   6.679   2.783
   21SOL    HW2  963   4.172   6.646   2.914
   22SOL     OW  964   2.233   6.250   5.167
   22SOL    HW1  965   2.211   6.336   5.122
   22SOL    HW2  966   2.269   6.267   5.258
   23SOL     OW  967   5.535   4.267   1.972
   23SOL    HW1  968   5.634   4.263   1.957
   23SOL    HW2  969   5.491   4.310   1.893
   24SOL     OW  970   4.132   0.702   1.793
   24SOL    HW1  971   4.108   0.684   1.889
   24SOL    HW2  972   4.200   0.635   1.763
   25SOL     OW  973   2.777   6.787   3.507
   25SOL    HW1  974   2.713   6.811   3.580
   25SOL    HW2  975   2.807   6.869   3.460
   26SOL     OW  976   1.066   2.410   6.624
   26SOL    HW1  977   0.995   2.468   6.665
   26SOL    HW2  978   1.039   2.315   6.632
   27SOL     OW  979   6.239   1.477   2.210
   27SOL    HW1  980   6.337   1.477   2.190
   27SOL    HW2  981   6.192   1.538   2.146
   28SOL     OW  982   2.137   0.693   4.733
   28SOL    HW1  983   2.130   0.746   4.649
   28SOL    HW2  984   2.078   0.612   4.727
   29SOL     OW  985   0.061   0.896   0.437
   29SOL    HW1  986   0.053   0.967   0.367
   29SOL    HW2  987   7.013   0.908   0.505
   30SOL     OW  988   4.304   0.292   4.809
   30SOL    HW1  989   4.283   0.217   4.746
   30SOL    HW2  990   4.374   0.263   4.874
   31SOL     OW  991   0.563   2.818   5.245
   31SOL    HW1  992   0.507   2.850   5.320
   31SOL    HW2  993   0.504   2.790   5.169
   32SOL     OW  994   1.452   0.644   1.041
   32SOL    HW1  995   1.450   0.641   1.141
   32SOL    HW2  996   1.455   0.550   1.005
   33SOL     OW  997   0.520   3.984   6.765
   33SOL    HW1  998   0.525   4.011   6.669
   33SOL    HW2  999   0.557   3.891   6.775
   34SOL     OW 1000   1.773   5.470   5.222
   34SOL    HW1 1001   1.862   5.489   5.181
   34SOL    HW2 1002   1.747   5.545   5.282
   35SOL     OW 1003   3.809   3.125   6.892
   35SOL    HW1 1004   3.843   3.162   6.805
   35SOL    HW2 1005   3.731   3.065   6.874
   36SOL     OW 1006   4.728   0.754   3.950
   36SOL    HW1 1007   4.760   0.701   3.871
   36SOL    HW2 1008   4.723   0.851   3.924
   37SOL     OW 1009   2.179   1.224   3.867
   37SOL    HW1 1010   2.162   1.132   3.904
   37SOL    HW2 1011   2.140   1.292   3.929
   38SOL     OW 1012   1.452   5.483   2.260
   38SOL    HW1 1013   1.539   5.531   2.267
   38SOL    HW2 1014   1.468   5.391   2.222
   39SOL     OW 1015   5.656   4.915   6.436
   39SOL    HW1 1016   5.752   4.899   6.462
   39SOL    HW2 1017   5.601   4.835   6.459
   40SOL     OW 1018   3.055   0.744   6.098
   40SOL    HW1 1019   3.062   0.652   6.059
   40SOL    HW2 1020   3.147   0.778   6.121
   41SOL     OW 1021   5.811   4.227   1.976
   41SOL    HW1 1022   5.814   4.192   1.883
   41SOL    HW2 1023   5.900   4.215   2.019
   42SOL     OW 1024   2.786   5.726   5.111
   42SOL    HW1 1025   2.876   5.738   5.154
   42SOL    HW2 1026   2.732   5.663   5.167
   43SOL     OW 1027   4.987   6.787   5.188
   43SOL    HW1 1028   5.047   6.801   5.109
   43SOL    HW2 1029   5.028   6.829   5.269
   44SOL     OW 1030   5.426   2.629   5.202
   44SOL    HW1 1031   5.425   2.661   5.108
   44SOL    HW2 1032   5.407   2.706   5.264
   45SOL     OW 1033   3.943   5.326   0.302
   45SOL    HW1 1034   3.912   5.393   0.369
   45SOL    HW2 1035   3.910   5.351   0.211
   46SOL     OW 1036   0.634   2.999   4.502
   46SOL    HW1 1037   0.644   3.001   4.402
   46SOL    HW2 1038   0.550   2.949   4.525
   47SOL     OW 1039   5.256   3.336   1.991
   47SOL    HW1 1040   5.241   3.244   2.028
   47SOL    HW2 1041   5.180   3.395   2.017
   48SOL     OW 1042   6.541   3.928   6.744
   48SOL    HW1 1043   6.578   3.919   6.652
   48SOL    HW2 1044   6.451   3.971   6.740
   49SOL     OW 1045   4.864   3.058   0.292
   49SOL    HW1 1046   4.834   3.079   0.199
   49SOL    HW2 1047   4.894   2.963   0.297
   50SOL     OW 1048   6.126   2.084   6.545
   50SOL    HW1 1049   6.211   2.119   6.586
   50SOL    HW2 1050   6.116   2.122   6.453
   51SOL     OW 1051   1.831   4.824   3.426
   51SOL    HW1 1052   1.736   4.835   3.399
   51SOL    HW2 1053   1.884   4.791   3.347
   52SOL     OW 1054   5.400   3.173   1.595
   52SOL    HW1 1055   5.500   3.175   1.591
   52SOL    HW2 1056   5.371   3.123   1.677
   53SOL     OW 1057   4.589   0.691   3.134
   53SOL    HW1 1058   4.583   0.765   3.067
   53SOL    HW2 1059   4.517   0.702   3.203
   54SOL     OW 1060   5.375   6.178   0.168
   54SOL    HW1 1061   5.373   6.103   0.102
   54SOL    HW2 1062   5.443   6.246   0.139
   55SOL     OW 1063   2.131   2.846   6.488
   55SOL    HW1 1064   2.059   2.791   6.444
   55SOL    HW2 1065   2.107   2.861   6.584
   56SOL     OW 1066   1.594   2.137   0.032
   56SOL    HW1 1067   1.661   2.125   6.983
   56SOL    HW2 1068   1.640   2.169   0.114
   57SOL     OW 1069   3.891   0.756   0.567
   57SOL    HW1 1070   3.825   0.720   0.633
   57SOL    HW2 1071   3.930   0.841   0.602
   58SOL     OW 1072   1.017   0.629   6.155
   58SOL    HW1 1073   1.078   0.706   6.136
   58SOL    HW2 1074   0.950   0.621   6.080
   59SOL     OW 1075   6.141   3.471   6.272
   59SOL    HW1 1076   6.201   3.548   6.250
   59SOL    HW2 1077   6.076   3.457   6.197
   60SOL     OW 1078   5.725   0.643   2.993
   60SOL    HW1 1079   5.694   0.618   3.085
   60SOL    HW2 1080   5.653   0.622   2.927
   61SOL     OW 1081   0.321   1.108   5.048
   61SOL    HW1 1082   0.301   1.165   4.968
   61SOL    HW2 1083   0.238   1.060   5.076
   62SOL     OW 1084   0.155   1.848   2.229
   62SOL    HW1 1085   0.166   1.935   2.277
   62SOL    HW2 1086   0.154   1.864   2.130
   63SOL     OW 1087   3.965   6.597   4.672
   63SOL    HW1 1088   3.990   6.503   4.650
   63SOL    HW2 1089   4.019   6.660   4.617
   64SOL     OW 1090   1.406   4.207   6.663
   64SOL    HW1 1091   1.373   4.116   6.639
   64SOL    HW2 1092   1.449   4.204   6.753
   65SOL     OW 1093   0.625   0.431   5.281
   65SOL    HW1 1094   0.558   0.460   5.350
   65SOL    HW2 1095   0.716   0.463   5.309
   66SOL     OW 1096   3.843   0.093   2.194
   66SOL    HW1 1097   3.800   0.058   2.110
   66SOL    HW2 1098   3.897   0.174   2.172
   67SOL     OW 1099   0.353   2.242   1.244
   67SOL    HW1 1100   0.274   2.299   1.224
   67SOL    HW2 1101   0.324   2.150   1.270
   68SOL     OW 1102   0.032   2.331   5.605
   68SOL    HW1 1103   0.103   2.296   5.544
   68SOL    HW2 1104   0.065   2.413   5.651
   69SOL     OW 1105   0.751   5.242   5.779
   69SOL    HW1 1106   0.705   5.166   5.825
   69SOL    HW2 1107   0.850   5.229   5.783
   70SOL     OW 1108   5.446   3.769   4.665
   70SOL    HW1 1109   5.363   3.808   4.703
   70SOL    HW2 1110   5.468   3.683   4.711
   71SOL     OW 1111   4.477   2.064   4.787
   71SOL    HW1 1112   4.558   2.116   4.760
   71SOL    HW2 1113   4.463   1.987   4.724
   72SOL     OW 1114   6.897   0.087   3.700
   72SOL    HW1 1115   6.937   0.156   3.759
   72SOL    HW2 1116   6.819   0.044   3.746
   73SOL     OW 1117   2.899   0.448   0.930
   73SOL    HW1 1118   2.997   0.465   0.943
   73SOL    HW2 1119   2.887   0.367   0.872
   74SOL     OW 1120   1.998   1.528   6.800
   74SOL    HW1 1121   2.081   1.494   6.843
   74SOL    HW2 1122   1.923   1.526   6.866
   75SOL     OW 1123   4.188   1.423   0.768
   75SOL    HW1 1124   4.107   1.482   0.770
   75SOL    HW2 1125   4.231   1.422   0.859
   76SOL     OW 1126   3.003   4.324   5.358
   76SOL    HW1 1127   2.952   4.307   5.443
   76SOL    HW2 1128   2.960   4.400   5.309
   77SOL     OW 1129   2.017   5.347   4.419
   77SOL    HW1 1130   2.084   5.289   4.465
   77SOL    HW2 1131   2.053   5.376   4.330
   78SOL     OW 1132   4.279   1.387   1.157
   78SOL    HW1 1133   4.250   1.329   1.234
   78SOL    HW2 1134   4.226   1.472   1.158
   79SOL     OW 1135   2.136   5.007   1.706
   79SOL    HW1 1136   2.071   4.936   1.732
   79SOL    HW2 1137   2.112   5.093   1.752
   80SOL     OW 1138   5.016   2.023   5.479
   80SOL    HW1 1139   4.994   2.001   5.384
   80SOL    HW2 1140   5.064   2.111   5.482
   81SOL     OW 1141   2.541   6.099   1.215
   81SOL    HW1 1142   2.533   6.039   1.295
   81SOL    HW2 1143   2.602   6.175   1.236
   82SOL     OW 1144   1.184   5.763   1.669
   82SOL    HW1 1145   1.239   5.700   1.725
   82SOL    HW2 1146   1.175   5.726   1.576
   83SOL     OW 1147   5.775   2.146   5.806
   83SOL    HW1 1148   5.750   2.238   5.834
   83SOL    HW2 1149   5.759   2.082   5.881
   84SOL     OW 1150   6.385   3.074   3.646
   84SOL    HW1 1151   6.474   3.095   3.605
   84SOL    HW2 1152   6.354   2.985   3.615
   85SOL     OW 1153   2.014   0.059   4.239
   85SOL    HW1 1154   1.955   0.135   4.268
   85SOL    HW2 1155   1.993   7.002   4.293
   86SOL     OW 1156   5.613   1.607   6.105
   86SOL    HW1 1157   5.579   1.601   6.198
   86SOL    HW2 1158   5.599   1.699   6.070
   87SOL     OW 1159   4.346   4.283   6.393
   87SOL    HW1 1160   4.407   4.206   6.380
   87SOL    HW2 1161   4.309   4.282   6.486
   88SOL     OW 1162   3.055   3.103   6.415
   88SOL    HW1 1163   3.016   3.011   6.412
   88SOL    HW2 1164   3.068   3.137   6.321
   89SOL     OW 1165   2.975   3.543   2.974
   89SOL    HW1 1166   2.977   3.603   3.053
   89SOL    HW2 1167   2.939   3.592   2.895
   90SOL     OW 1168   4.871   3.344   2.736
   90SOL    HW1 1169   4.810   3.346   2.657
   90SOL    HW2 1170   4.900   3.437   2.759
   91SOL     OW 1171   5.512   5.248   5.706
   91SOL    HW1 1172   5.533   5.265   5.610
   91SOL    HW2 1173   5.524   5.150   5.726
   92SOL     OW 1174   5.254   4.435   6.921
   92SOL    HW1 1175   5.327   4.441   6.989
   92SOL    HW2 1176   5.170   4.401   6.966
   93SOL     OW 1177   2.632   2.904   1.070
   93SOL    HW1 1178   2.616   2.839   1.145
   93SOL    HW2 1179   2.617   2.997   1.104
   94SOL     OW 1180   3.218   0.652   5.511
   94SOL    HW1 1181   3.209   0.670   5.609
   94SOL    HW2 1182   3.313   0.662   5.484
   95SOL     OW 1183   0.159   0.398   4.304
   95SOL    HW1 1184   0.148   0.438   4.214
   95SOL    HW2 1185   0.103   0.448   4.370
   96SOL     OW 1186   4.714   4.922   6.666
   96SOL    HW1 1187   4.783   4.980   6.622
   96SOL    HW2 1188   4.717   4.831   6.626
   97SOL     OW 1189   1.974   5.408   5.739
   97SOL    HW1 1190   1.921   5.325   5.720
   97SOL    HW2 1191   2.068   5.382   5.762
   98SOL     OW 1192   0.961   2.959   2.280
   98SOL    HW1 1193   0.999   2.920   2.364
   98SOL    HW2 1194   0.966   3.058   2.284
   99SOL     OW 1195   3.603   2.871   3.731
   99SOL    HW1 1196   3.563   2.782   3.714
   99SOL    HW2 1197   3.622   2.881   3.829
  100SOL     OW 1198   6.974   6.855   3.948
  100SOL    HW1 1199   6.925   6.788   3.894
  100SOL    HW2 1200   6.909   6.913   3.997
  101SOL     OW 1201   1.100   4.221   3.026
  101SOL    HW1 1202   1.199   4.212   3.037
  101SOL    HW2 1203   1.054   4.196   3.111
  102SOL     OW 1204   2.742   6.254   1.732
  102SOL    HW1 1205   2.778   6.177   1.678
  102SOL    HW2 1206   2.675   6.304   1.679
  103SOL     OW 1207   1.859   1.079   2.155
  103SOL    HW1 1208   1.788   1.143   2.125
  103SOL    HW2 1209   1.938   1.130   2.189
  104SOL     OW 1210   1.168   4.500   1.784
  104SOL    HW1 1211   1.231   4.576   1.800
  104SOL    HW2 1212   1.218   4.414   1.788
  105SOL     OW 1213   4.985   1.734   6.686
  105SOL    HW1 1214   4.978   1.672   6.608
  105SOL    HW2 1215   4.914   1.711   6.753
  106SOL     OW 1216   5.584   5.230   2.374
  106SOL    HW1 1217   5.544   5.179   2.298
  106SOL    HW2 1218   5.639   5.169   2.430
  107SOL     OW 1219   6.266   1.645   0.295
  107SOL    HW1 1220   6.328   1.675   0.221
  107SOL    HW2 1221   6.182   1.700   0.292
  108SOL     OW 1222   1.741   0.830   4.997
  108SOL    HW1 1223   1.755   0.846   5.095
  108SOL    HW2 1224   1.828   0.806   4.954
  109SOL     OW 1225   3.263   1.020   3.377
  109SOL    HW1 1226   3.326   1.075   3.431
  109SOL    HW2 1227   3.171   1.058   3.383
  110SOL     OW 1228   2.701   4.619   5.850
  110SOL    HW1 1229   2.633   4.692   5.861
  110SOL    HW2 1230   2.787   4.658   5.817
  111SOL     OW 1231   5.910   1.550   2.602
  111SOL    HW1 1232   5.831   1.530   2.660
  111SOL    HW2 1233   5.922   1.476   2.536
  112SOL     OW 1234   3.862   0.009   6.780
  112SOL    HW1 1235   3.796   0.063   6.832
  112SOL    HW2 1236   3.815   6.956   6.738
  113SOL     OW 1237   6.205   5.824   2.844
  113SOL    HW1 1238   6.266   5.780   2.910
  113SOL    HW2 1239   6.256   5.850   2.762
  114SOL     OW 1240   1.497   4.221   4.300
  114SOL    HW1 1241   1.539   4.130   4.299
  114SOL    HW2 1242   1.504   4.261   4.208
  115SOL     OW 1243   5.989   0.926   3.465
  115SOL    HW1 1244   6.039   1.010   3.489
  115SOL    HW2 1245   5.904   0.922   3.518
  116SOL     OW 1246   1.189   5.582   0.826
  116SOL    HW1 1247   1.288   5.590   0.838
  116SOL    HW2 1248   1.144   5.594   0.914
  117SOL     OW 1249   2.330   1.933   6.803
  117SOL    HW1 1250   2.289   1.909   6.891
  117SOL    HW2 1251   2.337   2.032   6.795
  118SOL     OW 1252   1.351   1.847   4.172
  118SOL    HW1 1253   1.412   1.923   4.146
  118SOL    HW2 1254   1.261   1.883   4.194
  119SOL     OW 1255   0.298   6.852   6.422
  119SOL    HW1 1256   0.314   6.803   6.508
  119SOL    HW2 1257   0.281   6.948   6.440
  120SOL     OW 1258   4.248   1.343   4.765
  120SOL    HW1 1259   4.221   1.356   4.670
  120SOL    HW2 1260   4.259   1.432   4.809
  121SOL     OW 1261   1.141   3.568   6.429
  121SOL    HW1 1262   1.049   3.555   6.390
  121SOL    HW2 1263   1.190   3.481   6.426
  122SOL     OW 1264   0.777   4.319   6.870
  122SOL    HW1 1265   0.766   4.222   6.847
  122SOL    HW2 1266   0.856   4.356   6.821
  123SOL     OW 1267   1.038   1.565   1.616
  123SOL    HW1 1268   1.046   1.468   1.641
  123SOL    HW2 1269   0.952   1.580   1.569
  124SOL     OW 1270   3.005   2.483   1.005
  124SOL    HW1 1271   3.015   2.572   1.049
  124SOL    HW2 1272   3.021   2.411   1.072
  125SOL     OW 1273   3.661   2.361   6.999
  125SOL    HW1 1274   3.607   2.387   6.919
  125SOL    HW2 1275   3.680   2.263   6.996
  126SOL     OW 1276   4.078   3.242   4.013
  126SOL    HW1 1277   4.177   3.249   4.023
  126SOL    HW2 1278   4.039   3.197   4.094
  127SOL     OW 1279   0.460   6.059   6.385
  127SOL    HW1 1280   0.555   6.068   6.415
  127SOL    HW2 1281   0.442   5.964   6.359
  128SOL     OW 1282   4.574   3.676   1.239
  128SOL    HW1 1283   4.515   3.741   1.288
  128SOL    HW2 1284   4.564   3.689   1.141
  129SOL     OW 1285   2.062   6.154   1.184
  129SOL    HW1 1286   2.136   6.128   1.122
  129SOL    HW2 1287   2.025   6.242   1.156
  130SOL     OW 1288   5.651   2.383   4.605
  130SOL    HW1 1289   5.604   2.299   4.631
  130SOL    HW2 1290   5.595   2.462   4.632
  131SOL     OW 1291   0.139   2.312   3.904
  131SOL    HW1 1292   0.074   2.286   3.976
  131SOL    HW2 1293   0.164   2.231   3.851
  132SOL     OW 1294   3.547   4.197   1.845
  132SOL    HW1 1295   3.469   4.190   1.784
  132SOL    HW2 1296   3.616   4.257   1.805
  133SOL     OW 1297   5.296   0.002   5.005
  133SOL    HW1 1298   5.243   6.945   4.983
  133SOL    HW2 1299   5.317   0.052   4.920
  134SOL     OW 1300   5.654   1.338   2.222
  134SOL    HW1 1301   5.627   1.345   2.318
  134SOL    HW2 1302   5.582   1.291   2.170
  135SOL     OW 1303   4.948   3.497   4.335
  135SOL    HW1 1304   4.888   3.563   4.381
  135SOL    HW2 1305   4.930   3.499   4.236
  136SOL     OW 1306   2.650   6.698   5.079
  136SOL    HW1 1307   2.732   6.755   5.094
  136SOL    HW2 1308   2.571   6.757   5.066
  137SOL     OW 1309   3.286   2.161   4.815
  137SOL    HW1 1310   3.260   2.220   4.891
  137SOL    HW2 1311   3.211   2.156   4.749
  138SOL     OW 1312   0.694   5.339   4.704
  138SOL    HW1 1313   0.648   5.386   4.779
  138SOL    HW2 1314   0.627   5.312   4.634
  139SOL     OW 1315   1.995   6.158   6.252
  139SOL    HW1 1316   1.993   6.186   6.348
  139SOL    HW2 1317   1.957   6.231   6.195
  140SOL     OW 1318   2.013   1.068   3.029
  140SOL    HW1 1319   2.103   1.090   3.067
  140SOL    HW2 1320   1.993   1.130   2.954
  141SOL     OW 1321   6.838   4.295   0.703
  141SOL    HW1 1322   6.787   4.266   0.784
  141SOL    HW2 1323   6.840   4.395   0.699
  142SOL     OW 1324   1.253   4.236   1.802
  142SOL    HW1 1325   1.295   4.180   1.874
  142SOL    HW2 1326   1.192   4.179   1.747
  143SOL     OW 1327   5.322   6.752   1.789
  143SOL    HW1 1328   5.370   6.667   1.767
  143SOL    HW2 1329   5.294   6.749   1.885
  144SOL     OW 1330   3.251   4.979   3.154
  144SOL    HW1 1331   3.197   4.922   3.216
  144SOL    HW2 1332   3.345   4.985   3.188
  145SOL     OW 1333   6.735   4.338   2.625
  145SOL    HW1 1334   6.700   4.428   2.651
  145SOL    HW2 1335   6.680   4.302   2.549
  146SOL     OW 1336   6.023   1.852   5.890
  146SOL    HW1 1337   6.060   1.788   5.957
  146SOL    HW2 1338   5.981   1.802   5.815
  147SOL     OW 1339   4.872   1.296   6.063
  147SOL    HW1 1340   4.836   1.262   5.976
  147SOL    HW2 1341   4.955   1.245   6.087
  148SOL     OW 1342   1.235   4.562   1.370
  148SOL    HW1 1343   1.280   4.478   1.399
  148SOL    HW2 1344   1.210   4.555   1.273
  149SOL     OW 1345   2.356   2.204   5.516
  149SOL    HW1 1346   2.287   2.150   5.468
  149SOL    HW2 1347   2.323   2.298   5.528
  150SOL     OW 1348   4.398   1.149   5.254
  150SOL    HW1 1349   4.363   1.156   5.161
  150SOL    HW2 1350   4.484   1.201   5.261
  151SOL     OW 1351   4.093   1.872   0.982
  151SOL    HW1 1352   4.143   1.916   1.056
  151SOL    HW2 1353   4.135   1.896   0.894
  152SOL     OW 1354   0.955   0.873   0.038
  152SOL    HW1 1355   0.998   0.932   0.106
  152SOL    HW2 1356   0.976   0.777   0.059
  153SOL     OW 1357   2.641   1.217   3.842
  153SOL    HW1 1358   2.741   1.209   3.842
  153SOL    HW2 1359   2.613   1.278   3.916
  154SOL     OW 1360   6.078   1.985   1.587
  154SOL    HW1 1361   6.075   2.030   1.498
  154SOL    HW2 1362   6.121   2.046   1.653
  155SOL     OW 1363   0.555   6.874   1.574
  155SOL    HW1 1364   0.490   6.944   1.602
  155SOL    HW2 1365   0.596   6.900   1.487
  156SOL     OW 1366   4.696   1.162   0.537
  156SOL    HW1 1367   4.733   1.111   0.615
  156SOL    HW2 1368   4.697   1.260   0.558
  157SOL     OW 1369   5.286   4.256   1.011
  157SOL    HW1 1370   5.329   4.221   0.928
  157SOL    HW2 1371   5.228   4.334   0.989
  158SOL     OW 1372   0.792   2.628   2.963
  158SOL    HW1 1373   0.830   2.604   3.053
  158SOL    HW2 1374   0.707   2.579   2.948
  159SOL     OW 1375   5.399   5.614   0.298
  159SOL    HW1 1376   5.416   5.518   0.318
  159SOL    HW2 1377   5.451   5.671   0.362
  160SOL     OW 1378   5.974   6.761   0.592
  160SOL    HW1 1379   6.007   6.720   0.507
  160SOL    HW2 1380   6.052   6.788   0.649
  161SOL     OW 1381   0.754   0.233   0.457
  161SOL    HW1 1382   0.779   0.256   0.550
  161SOL    HW2 1383   0.786   0.141   0.435
  162SOL     OW 1384   2.683   6.347   0.309
  162SOL    HW1 1385   2.659   6.389   0.221
  162SOL    HW2 1386   2.604   6.349   0.370
  163SOL     OW 1387   6.944   4.055   3.873
  163SOL    HW1 1388   6.913   4.101   3.790
  163SOL    HW2 1389   6.981   3.965   3.850
  164SOL     OW 1390   1.997   1.879   2.813
  164SOL    HW1 1391   1.932   1.955   2.803
  164SOL    HW2 1392   2.019   1.867   2.910
  165SOL     OW 1393   0.971   5.695   2.286
  165SOL    HW1 1394   0.877   5.697   2.321
  165SOL    HW2 1395   1.019   5.615   2.324
  166SOL     OW 1396   6.377   4.037   2.445
  166SOL    HW1 1397   6.298   4.028   2.385
  166SOL    HW2 1398   6.453   3.984   2.407
  167SOL     OW 1399   5.012   1.597   0.475
  167SOL    HW1 1400   4.921   1.604   0.434
  167SOL    HW2 1401   5.070   1.670   0.438
  168SOL     OW 1402   5.175   3.995   2.145
  168SOL    HW1 1403   5.095   4.050   2.168
  168SOL    HW2 1404   5.193   4.003   2.047
  169SOL     OW 1405   6.010   2.431   1.382
  169SOL    HW1 1406   6.087   2.426   1.318
  169SOL    HW2 1407   6.043   2.409   1.474
  170SOL     OW 1408   0.720   5.118   2.360
  170SOL    HW1 1409   0.639   5.092   2.413
  170SOL    HW2 1410   0.692   5.160   2.274
  171SOL     OW 1411   2.550   4.074   0.707
  171SOL    HW1 1412   2.516   3.984   0.735
  171SOL    HW2 1413   2.648   4.079   0.726
  172SOL     OW 1414   6.043   2.109   2.035
  172SOL    HW1 1415   6.123   2.119   2.094
  172SOL    HW2 1416   6.068   2.061   1.951
  173SOL     OW 1417   6.558   1.450   5.579
  173SOL    HW1 1418   6.490   1.523   5.570
  173SOL    HW2 1419   6.572   1.430   5.676
  174SOL     OW 1420   5.719   5.474   5.329
  174SOL    HW1 1421   5.791   5.496   5.395
  174SOL    HW2 1422   5.655   5.550   5.323
  175SOL     OW 1423   1.190   0.352   0.288
  175SOL    HW1 1424   1.142   0.329   0.204
  175SOL    HW2 1425   1.153   0.437   0.326
  176SOL     OW 1426   5.358   4.805   2.675
  176SOL    HW1 1427   5.286   4.837   2.614
  176SOL    HW2 1428   5.350   4.706   2.688
  177SOL     OW 1429   5.790   1.951   4.316
  177SOL    HW1 1430   5.801   2.014   4.239
  177SOL    HW2 1431   5.717   1.886   4.297
  178SOL     OW 1432   1.928   6.556   5.070
  178SOL    HW1 1433   1.915   6.625   5.142
  178SOL    HW2 1434   2.023   6.526   5.071
  179SOL     OW 1435   4.291   5.267   0.715
  179SOL    HW1 1436   4.210   5.213   0.738
  179SOL    HW2 1437   4.345   5.219   0.646
  180SOL     OW 1438   3.911   0.984   1.153
  180SOL    HW1 1439   3.824   0.965   1.109
  180SOL    HW2 1440   3.960   1.055   1.102
  181SOL     OW 1441   3.418   2.742   5.245
  181SOL    HW1 1442   3.510   2.737   5.205
  181SOL    HW2 1443   3.406   2.667   5.310
  182SOL     OW 1444   5.076   2.465   6.826
  182SOL    HW1 1445   5.109   2.461   6.920
  182SOL    HW2 1446   5.149   2.497   6.766
  183SOL     OW 1447   3.324   1.464   4.256
  183SOL    HW1 1448   3.381   1.457   4.338
  183SOL    HW2 1449   3.260   1.388   4.253
  184SOL     OW 1450   0.079   6.188   3.257
  184SOL    HW1 1451   7.021   6.186   3.314
  184SOL    HW2 1452   0.053   6.202   3.161
  185SOL     OW 1453   0.547   1.590   3.987
  185SOL    HW1 1454   0.570   1.496   4.011
  185SOL    HW2 1455   0.471   1.622   4.043
  186SOL     OW 1456   4.875   5.245   4.346
  186SOL    HW1 1457   4.789   5.211   4.384
  186SOL    HW2 1458   4.908   5.182   4.276
  187SOL     OW 1459   3.921   5.732   2.607
  187SOL    HW1 1460   3.988   5.803   2.630
  187SOL    HW2 1461   3.829   5.771   2.607
  188SOL     OW 1462   2.433   2.605   2.551
  188SOL    HW1 1463   2.494   2.579   2.477
  188SOL    HW2 1464   2.468   2.569   2.638
  189SOL     OW 1465   6.477   5.644   6.634
  189SOL    HW1 1466   6.448   5.609   6.723
  189SOL    HW2 1467   6.464   5.743   6.632
  190SOL     OW 1468   5.874   5.853   0.329
  190SOL    HW1 1469   5.906   5.819   0.417
  190SOL    HW2 1470   5.841   5.776   0.273
  191SOL     OW 1471   6.121   0.605   6.029
  191SOL    HW1 1472   6.065   0.603   5.946
  191SOL    HW2 1473   6.217   0.594   6.005
  192SOL     OW 1474   0.205   5.408   1.211
  192SOL    HW1 1475   0.221   5.482   1.276
  192SOL    HW2 1476   0.274   5.337   1.224
  193SOL     OW 1477   3.149   5.106   6.362
  193SOL    HW1 1478   3.143   5.072   6.268
  193SOL    HW2 1479   3.236   5.079   6.402
  194SOL     OW 1480   4.075   6.554   2.152
  194SOL    HW1 1481   4.038   6.477   2.204
  194SOL    HW2 1482   3.999   6.608   2.116
  195SOL     OW 1483   3.243   0.847   1.542
  195SOL    HW1 1484   3.215   0.754   1.566
  195SOL    HW2 1485   3.200   0.874   1.456
  196SOL     OW 1486   2.292   0.744   6.349
  196SOL    HW1 1487   2.370   0.796   6.316
  196SOL    HW2 1488   2.216   0.806   6.366
  197SOL     OW 1489   2.770   5.519   0.282
  197SOL    HW1 1490   2.812   5.516   0.191
  197SOL    HW2 1491   2.777   5.429   0.325
  198SOL     OW 1492   4.316   6.383   0.419
  198SOL    HW1 1493   4.282   6.326   0.344
  198SOL    HW2 1494   4.246   6.391   0.489
  199SOL     OW 1495   5.629   0.020   2.499
  199SOL    HW1 1496   5.590   6.958   2.467
  199SOL    HW2 1497   5.720   0.004   2.536
  200SOL     OW 1498   1.205   4.125   2.754
  200SOL    HW1 1499   1.159   4.082   2.832
  200SOL    HW2 1500   1.145   4.195   2.715
  201SOL     OW 1501   2.747   0.916   6.691
  201SOL    HW1 1502   2.747   0.850   6.766
  201SOL    HW2 1503   2.839   0.953   6.680
  202SOL     OW 1504   4.225   7.020   3.766
  202SOL    HW1 1505   4.247   6.923   3.759
  202SOL    HW2 1506   4.132   0.011   3.733
  203SOL     OW 1507   5.395   3.260   6.383
  203SOL    HW1 1508   5.400   3.163   6.359
  203SOL    HW2 1509   5.467   3.281   6.450
  204SOL     OW 1510   1.888   0.302   0.442
  204SOL    HW1 1511   1.885   0.202   0.448
  204SOL    HW2 1512   1.795   0.338   0.429
  205SOL     OW 1513   5.722   1.599   1.203
  205SOL    HW1 1514   5.749   1.695   1.205
  205SOL    HW2 1515   5.798   1.544   1.168
  206SOL     OW 1516   0.690   4.579   1.318
  206SOL    HW1 1517   0.605   4.585   1.371
  206SOL    HW2 1518   0.671   4.602   1.223
  207SOL     OW 1519   4.704   0.521   5.934
  207SOL    HW1 1520   4.675   0.614   5.956
  207SOL    HW2 1521   4.773   0.491   6.001
  208SOL     OW 1522   5.181   4.964   6.142
  208SOL    HW1 1523   5.166   5.021   6.061
  208SOL    HW2 1524   5.093   4.931   6.176
  209SOL     OW 1525   0.081   6.154   5.981
  209SOL    HW1 1526   0.098   6.067   6.027
  209SOL    HW2 1527   0.143   6.162   5.903
  210SOL     OW 1528   3.769   1.964   1.941
  210SOL    HW1 1529   3.699   1.894   1.954
  210SOL    HW2 1530   3.730   2.054   1.961
  211SOL     OW 1531   1.082   1.262   1.355
  211SOL    HW1 1532   1.001   1.235   1.406
  211SOL    HW2 1533   1.058   1.334   1.289
  212SOL     OW 1534   0.738   4.932   3.014
  212SOL    HW1 1535   0.764   4.836   3.011
  212SOL    HW2 1536   0.747   4.967   3.107
  213SOL     OW 1537   5.019   1.244   0.395
  213SOL    HW1 1538   5.038   1.147   0.377
  213SOL    HW2 1539   5.100   1.298   0.375
  214SOL     OW 1540   0.680   6.294   2.884
  214SOL    HW1 1541   0.726   6.261   2.801
  214SOL    HW2 1542   0.581   6.282   2.874
  215SOL     OW 1543   3.682   3.224   2.340
  215SOL    HW1 1544   3.675   3.126   2.322
  215SOL    HW2 1545   3.720   3.270   2.260
  216SOL     OW 1546   0.970   0.287   4.831
  216SOL    HW1 1547   0.961   0.205   4.774
  216SOL    HW2 1548   1.067   0.309   4.842
  217SOL     OW 1549   1.843   2.618   3.819
  217SOL    HW1 1550   1.801   2.705   3.795
  217SOL    HW2 1551   1.776   2.544   3.807
  218SOL     OW 1552   1.015   2.630   4.643
  218SOL    HW1 1553   1.019   2.530   4.651
  218SOL    HW2 1554   1.070   2.670   4.716
  219SOL     OW 1555   3.953   3.937   0.711
  219SOL    HW1 1556   3.869   3.893   0.743
  219SOL    HW2 1557   3.998   3.878   0.644
  220SOL     OW 1558   2.849   5.510   0.014
  220SOL    HW1 1559   2.920   5.572   7.005
  220SOL    HW2 1560   2.806   5.464   6.962
  221SOL     OW 1561   5.176   3.021   3.951
  221SOL    HW1 1562   5.091   3.068   3.927
  221SOL    HW2 1563   5.230   3.079   4.013
  222SOL     OW 1564   1.207   5.869   5.599
  222SOL    HW1 1565   1.119   5.839   5.563
  222SOL    HW2 1566   1.230   5.814   5.680
  223SOL     OW 1567   7.017   3.576   1.972
  223SOL    HW1 1568   7.010   3.675   1.985
  223SOL    HW2 1569   0.077   3.543   2.014
  224SOL     OW 1570   2.650   2.351   1.938
  224SOL    HW1 1571   2.727   2.409   1.910
  224SOL    HW2 1572   2.685   2.264   1.972
  225SOL     OW 1573   5.721   0.850   0.090
  225SOL    HW1 1574   5.650   0.900   0.138
  225SOL    HW2 1575   5.810   0.894   0.105
  226SOL     OW 1576   1.339   6.186   0.558
  226SOL    HW1 1577   1.433   6.180   0.592
  226SOL    HW2 1578   1.340   6.225   0.466
  227SOL     OW 1579   2.223   4.095   3.909
  227SOL    HW1 1580   2.184   4.031   3.842
  227SOL    HW2 1581   2.255   4.177   3.861
  228SOL     OW 1582   3.993   0.012   4.144
  228SOL    HW1 1583   3.949   7.006   4.060
  228SOL    HW2 1584   4.069   0.073   4.121
  229SOL     OW 1585   6.277   5.850   1.711
  229SOL    HW1 1586   6.290   5.850   1.810
  229SOL    HW2 1587   6.351   5.798   1.668
  230SOL     OW 1588   2.181   4.083   4.766
  230SOL    HW1 1589   2.158   4.003   4.710
  230SOL    HW2 1590   2.239   4.055   4.842
  231SOL     OW 1591   6.898   3.106   6.882
  231SOL    HW1 1592   6.830   3.162   6.930
  231SOL    HW2 1593   6.873   3.010   6.888
  232SOL     OW 1594   1.898   3.884   6.456
  232SOL    HW1 1595   1.887   3.809   6.391
  232SOL    HW2 1596   1.960   3.856   6.529
  233SOL     OW 1597   2.471   1.331   5.659
  233SOL    HW1 1598   2.424   1.287   5.735
  233SOL    HW2 1599   2.569   1.331   5.676
  234SOL     OW 1600   2.969   4.899   0.010
  234SOL    HW1 1601   2.984   4.823   0.073
  234SOL    HW2 1602   3.007   4.876   6.945
  235SOL     OW 1603   3.321   3.222   4.003
  235SOL    HW1 1604   3.322   3.293   4.073
  235SOL    HW2 1605   3.338   3.262   3.914
  236SOL     OW 1606   7.009   2.611   5.604
  236SOL    HW1 1607   6.926   2.602   5.661
  236SOL    HW2 1608   6.998   2.688   5.541
  237SOL     OW 1609   0.011   6.836   1.401
  237SOL    HW1 1610   0.031   6.753   1.453
  237SOL    HW2 1611   0.093   6.893   1.398
  238SOL     OW 1612   5.828   3.446   2.043
  238SOL    HW1 1613   5.905   3.506   2.065
  238SOL    HW2 1614   5.776   3.427   2.127
  239SOL     OW 1615   0.006   5.545   6.811
  239SOL    HW1 1616   0.006   5.564   6.713
  239SOL    HW2 1617   0.074   5.603   6.857
  240SOL     OW 1618   0.624   3.606   6.475
  240SOL    HW1 1619   0.533   3.595   6.515
  240SOL    HW2 1620   0.615   3.636   6.380
  241SOL     OW 1621   0.376   0.935   3.736
  241SOL    HW1 1622   0.398   0.857   3.677
  241SOL    HW2 1623   0.307   0.908   3.802
  242SOL     OW 1624   1.428   3.926   4.625
  242SOL    HW1 1625   1.373   4.006   4.646
  242SOL    HW2 1626   1.368   3.847   4.611
  243SOL     OW 1627   5.697   0.237   5.728
  243SOL    HW1 1628   5.598   0.226   5.717
  243SOL    HW2 1629   5.720   0.240   5.825
  244SOL     OW 1630   5.578   2.067   5.311
  244SOL    HW1 1631   5.638   2.027   5.241
  244SOL    HW2 1632   5.509   2.001   5.338
  245SOL     OW 1633   6.201   2.409   4.874
  245SOL    HW1 1634   6.291   2.381   4.841
  245SOL    HW2 1635   6.212   2.481   4.942
  246SOL     OW 1636   5.015   3.708   3.297
  246SOL    HW1 1637   5.096   3.748   3.339
  246SOL    HW2 1638   4.964   3.656   3.366
  247SOL     OW 1639   2.050   1.421   4.015
  247SOL    HW1 1640   2.108   1.480   3.959
  247SOL    HW2 1641   1.955   1.450   4.005
  248SOL     OW 1642   4.892   1.889   4.352
  248SOL    HW1 1643   4.961   1.947   4.395
  248SOL    HW2 1644   4.902   1.893   4.252
  249SOL     OW 1645   3.269   6.597   4.785
  249SOL    HW1 1646   3.249   6.622   4.690
  249SOL    HW2 1647   3.238   6.504   4.802
  250SOL     OW 1648   5.063   3.676   5.473
  250SOL    HW1 1649   5.137   3.608   5.469
  250SOL    HW2 1650   5.019   3.673   5.562
  251SOL     OW 1651   4.502   2.946   6.650
  251SOL    HW1 1652   4.442   3.012   6.605
  251SOL    HW2 1653   4.504   2.964   6.749
  252SOL     OW 1654   6.571   1.162   6.005
  252SOL    HW1 1655   6.641   1.152   6.076
  252SOL    HW2 1656   6.558   1.259   5.983
  253SOL     OW 1657   2.824   3.305   0.543
  253SOL    HW1 1658   2.844   3.388   0.491
  253SOL    HW2 1659   2.733   3.311   0.584
  254SOL     OW 1660   6.547   3.034   4.411
  254SOL    HW1 1661   6.476   3.080   4.464
  254SOL    HW2 1662   6.610   3.102   4.374
  255SOL     OW 1663   2.823   2.358   3.255
  255SOL    HW1 1664   2.911   2.399   3.231
  255SOL    HW2 1665   2.838   2.276   3.310
  256SOL     OW 1666   6.154   5.330   6.831
  256SOL    HW1 1667   6.234   5.281   6.798
  256SOL    HW2 1668   6.148   5.320   6.930
  257SOL     OW 1669   3.093   5.660   6.006
  257SOL    HW1 1670   3.187   5.655   5.974
  257SOL    HW2 1671   3.051   5.746   5.978
  258SOL     OW 1672   5.223   3.850   4.270
  258SOL    HW1 1673   5.195   3.757   4.246
  258SOL    HW2 1674   5.161   3.916   4.227
  259SOL     OW 1675   1.236   3.021   2.668
  259SOL    HW1 1676   1.329   3.033   2.634
  259SOL    HW2 1677   1.239   2.990   2.763
  260SOL     OW 1678   5.417   0.331   6.229
  260SOL    HW1 1679   5.446   0.402   6.293
  260SOL    HW2 1680   5.439   0.359   6.136
  261SOL     OW 1681   0.804   3.864   1.985
  261SOL    HW1 1682   0.882   3.802   1.991
  261SOL    HW2 1683   0.769   3.883   2.076
  262SOL     OW 1684   1.116   3.077   1.993
  262SOL    HW1 1685   1.101   3.127   1.908
  262SOL    HW2 1686   1.089   3.133   2.070
  263SOL     OW 1687   0.623   2.182   5.064
  263SOL    HW1 1688   0.593   2.252   4.999
  263SOL    HW2 1689   0.543   2.142   5.109
  264SOL     OW 1690   1.633   4.378   6.113
  264SOL    HW1 1691   1.628   4.406   6.209
  264SOL    HW2 1692   1.597   4.285   6.104
  265SOL     OW 1693   5.008   4.547   3.885
  265SOL    HW1 1694   4.994   4.588   3.795
  265SOL    HW2 1695   4.967   4.606   3.955
  266SOL     OW 1696   3.911   1.272   0.779
  266SOL    HW1 1697   3.826   1.226   0.807
  266SOL    HW2 1698   3.942   1.235   0.691
  267SOL     OW 1699   1.967   2.544   6.284
  267SOL    HW1 1700   1.952   2.639   6.313
  267SOL    HW2 1701   2.050   2.539   6.228
  268SOL     OW 1702   4.426   4.612   4.560
  268SOL    HW1 1703   4.423   4.558   4.644
  268SOL    HW2 1704   4.333   4.637   4.533
  269SOL     OW 1705   1.390   2.076   6.425
  269SOL    HW1 1706   1.368   2.103   6.331
  269SOL    HW2 1707   1.459   2.138   6.462
  270SOL     OW 1708   5.089   0.694   2.233
  270SOL    HW1 1709   5.188   0.709   2.234
  270SOL    HW2 1710   5.061   0.662   2.142
  271SOL     OW 1711   1.481   0.333   0.082
  271SOL    HW1 1712   1.393   0.294   0.053
  271SOL    HW2 1713   1.541   0.260   0.115
  272SOL     OW 1714   3.473   5.428   3.121
  272SOL    HW1 1715   3.488   5.358   3.051
  272SOL    HW2 1716   3.446   5.384   3.207
  273SOL     OW 1717   1.687   5.866   4.925
  273SOL    HW1 1718   1.682   5.897   4.831
  273SOL    HW2 1719   1.621   5.792   4.940
  274SOL     OW 1720   6.290   2.705   2.622
  274SOL    HW1 1721   6.191   2.716   2.629
  274SOL    HW2 1722   6.334   2.743   2.703
  275SOL     OW 1723   6.639   6.550   5.721
  275SOL    HW1 1724   6.724   6.549   5.775
  275SOL    HW2 1725   6.645   6.621   5.651
  276SOL     OW 1726   6.511   6.030   3.849
  276SOL    HW1 1727   6.571   6.013   3.928
  276SOL    HW2 1728   6.529   5.962   3.778
  277SOL     OW 1729   3.303   1.889   5.460
  277SOL    HW1 1730   3.396   1.907   5.429
  277SOL    HW2 1731   3.252   1.843   5.387
  278SOL     OW 1732   5.555   3.782   2.233
  278SOL    HW1 1733   5.520   3.871   2.204
  278SOL    HW2 1734   5.496   3.709   2.199
  279SOL     OW 1735   0.087   2.752   2.939
  279SOL    HW1 1736   0.026   2.682   2.977
  279SOL    HW2 1737   0.181   2.734   2.969
  280SOL     OW 1738   4.972   6.939   4.172
  280SOL    HW1 1739   5.023   6.853   4.168
  280SOL    HW2 1740   4.967   6.979   4.081
  281SOL     OW 1741   5.013   6.036   4.116
  281SOL    HW1 1742   4.930   6.046   4.060
  281SOL    HW2 1743   5.090   6.077   4.068
  282SOL     OW 1744   4.576   2.014   0.013
  282SOL    HW1 1745   4.488   2.057   0.033
  282SOL    HW2 1746   4.585   2.003   6.938
  283SOL     OW 1747   6.148   1.073   4.718
  283SOL    HW1 1748   6.210   1.095   4.642
  283SOL    HW2 1749   6.094   0.993   4.695
  284SOL     OW 1750   6.683   4.894   4.890
  284SOL    HW1 1751   6.592   4.858   4.910
  284SOL    HW2 1752   6.740   4.889   4.973
  285SOL     OW 1753   4.203   0.330   6.773
  285SOL    HW1 1754   4.172   0.385   6.850
  285SOL    HW2 1755   4.125   0.278   6.736
  286SOL     OW 1756   3.791   4.912   4.649
  286SOL    HW1 1757   3.749   4.945   4.564
  286SOL    HW2 1758   3.861   4.844   4.626
  287SOL     OW 1759   2.750   6.529   6.137
  287SOL    HW1 1760   2.680   6.471   6.179
  287SOL    HW2 1761   2.705   6.602   6.085
  288SOL     OW 1762   3.637   0.902   0.852
  288SOL    HW1 1763   3.633   0.814   0.899
  288SOL    HW2 1764   3.593   0.895   0.762
  289SOL     OW 1765   0.355   6.808   4.638
  289SOL    HW1 1766   0.330   6.896   4.598
  289SOL    HW2 1767   0.437   6.772   4.592
  290SOL     OW 1768   3.821   0.847   3.793
  290SOL    HW1 1769   3.761   0.924   3.770
  290SOL    HW2 1770   3.791   0.806   3.879
  291SOL     OW 1771   5.056   0.703   4.389
  291SOL    HW1 1772   4.968   0.676   4.352
  291SOL    HW2 1773   5.119   0.725   4.315
  292SOL     OW 1774   3.354   0.212   3.829
  292SOL    HW1 1775   3.394   0.123   3.851
  292SOL    HW2 1776   3.405   0.255   3.754
  293SOL     OW 1777   5.813   6.346   2.974
  293SOL    HW1 1778   5.867   6.289   3.036
  293SOL    HW2 1779   5.874   6.391   2.909
  294SOL     OW 1780   5.626   1.161   5.645
  294SOL    HW1 1781   5.583   1.163   5.555
  294SOL    HW2 1782   5.721   1.133   5.636
  295SOL     OW 1783   1.283   2.117   5.038
  295SOL    HW1 1784   1.352   2.056   5.077
  295SOL    HW2 1785   1.261   2.190   5.103
  296SOL     OW 1786   6.617   1.134   1.608
  296SOL    HW1 1787   6.614   1.102   1.703
  296SOL    HW2 1788   6.684   1.081   1.557
  297SOL     OW 1789   5.278   4.100   3.469
  297SOL    HW1 1790   5.301   4.196   3.482
  297SOL    HW2 1791   5.321   4.067   3.385
  298SOL     OW 1792   3.996   0.407   0.645
  298SOL    HW1 1793   4.048   0.492   0.633
  298SOL    HW2 1794   4.046   0.346   0.705
  299SOL     OW 1795   3.121   1.382   6.740
  299SOL    HW1 1796   3.046   1.449   6.730
  299SOL    HW2 1797   3.127   1.327   6.656
  300SOL     OW 1798   3.584   1.034   2.398
  300SOL    HW1 1799   3.633   1.120   2.385
  300SOL    HW2 1800   3.524   1.041   2.477
  301SOL     OW 1801   5.739   5.817   2.095
  301SOL    HW1 1802   5.828   5.858   2.074
  301SOL    HW2 1803   5.753   5.722   2.125
  302SOL     OW 1804   6.915   6.276   1.701
  302SOL    HW1 1805   6.967   6.305   1.781
  302SOL    HW2 1806   6.917   6.349   1.632
  303SOL     OW 1807   6.385   5.840   2.636
  303SOL    HW1 1808   6.469   5.889   2.614
  303SOL    HW2 1809   6.407   5.746   2.662
  304SOL     OW 1810   1.082   0.128   5.142
  304SOL    HW1 1811   1.060   0.031   5.136
  304SOL    HW2 1812   1.002   0.179   5.175
  305SOL     OW 1813   1.797   2.889   1.480
  305SOL    HW1 1814   1.834   2.817   1.538
  305SOL    HW2 1815   1.851   2.897   1.396
  306SOL     OW 1816   6.749   0.698   3.577
  306SOL    HW1 1817   6.779   0.654   3.493
  306SOL    HW2 1818   6.725   0.794   3.559
  307SOL     OW 1819   3.167   3.623   1.659
  307SOL    HW1 1820   3.104   3.619   1.736
  307SOL    HW2 1821   3.253   3.578   1.683
  308SOL     OW 1822   5.345   0.539   4.124
  308SOL    HW1 1823   5.315   0.619   4.176
  308SOL    HW2 1824   5.443   0.524   4.141
  309SOL     OW 1825   0.651   6.673   6.696
  309SOL    HW1 1826   0.695   6.757   6.729
  309SOL    HW2 1827   0.649   6.674   6.596
  310SOL     OW 1828   5.096   5.939   4.743
  310SOL    HW1 1829   5.166   6.002   4.711
  310SOL    HW2 1830   5.136   5.876   4.810
  311SOL     OW 1831   1.500   5.493   2.962
  311SOL    HW1 1832   1.434   5.530   2.897
  311SOL    HW2 1833   1.584   5.547   2.958
  312SOL     OW 1834   4.611   2.274   3.396
  312SOL    HW1 1835   4.525   2.304   3.356
  312SOL    HW2 1836   4.593   2.229   3.484
  313SOL     OW 1837   3.955   3.574   2.841
  313SOL    HW1 1838   4.053   3.564   2.825
  313SOL    HW2 1839   3.909   3.486   2.827
  314SOL     OW 1840   1.685   6.588   4.903
  314SOL    HW1 1841   1.780   6.597   4.932
  314SOL    HW2 1842   1.630   6.661   4.943
  315SOL     OW 1843   6.441   1.251   3.453
  315SOL    HW1 1844   6.449   1.242   3.552
  315SOL    HW2 1845   6.344   1.250   3.427
  316SOL     OW 1846   4.081   1.454   5.500
  316SOL    HW1 1847   4.035   1.387   5.442
  316SOL    HW2 1848   4.014   1.515   5.541
  317SOL     OW 1849   1.402   1.568   1.242
  317SOL    HW1 1850   1.448   1.492   1.195
  317SOL    HW2 1851   1.459   1.600   1.318
  318SOL     OW 1852   6.699   0.610   5.633
  318SOL    HW1 1853   6.771   0.639   5.696
  318SOL    HW2 1854   6.716   0.516   5.603
  319SOL     OW 1855   1.065   2.125   2.627
  319SOL    HW1 1856   1.082   2.190   2.553
  319SOL    HW2 1857   1.148   2.070   2.643
  320SOL     OW 1858   5.573   2.141   0.037
  320SOL    HW1 1859   5.492   2.129   7.003
  320SOL    HW2 1860   5.638   2.202   7.016
  321SOL     OW 1861   3.915   3.115   0.785
  321SOL    HW1 1862   4.002   3.109   0.736
  321SOL    HW2 1863   3.856   3.040   0.756
  322SOL     OW 1864   4.242   3.833   6.898
  322SOL    HW1 1865   4.198   3.746   6.919
  322SOL    HW2 1866   4.339   3.819   6.880
  323SOL     OW 1867   0.341   2.652   3.312
  323SOL    HW1 1868   0.315   2.728   3.372
  323SOL    HW2 1869   0.353   2.686   3.219
  324SOL     OW 1870   1.541   0.393   3.104
  324SOL    HW1 1871   1.576   0.422   3.193
  324SOL    HW2 1872   1.446   0.423   3.094
  325SOL     OW 1873   1.263   3.668   2.274
  325SOL    HW1 1874   1.212   3.594   2.318
  325SOL    HW2 1875   1.324   3.629   2.205
  326SOL     OW 1876   1.800   5.304   6.371
  326SOL    HW1 1877   1.745   5.376   6.329
  326SOL    HW2 1878   1.818   5.327   6.466
  327SOL     OW 1879   3.350   5.674   3.135
  327SOL    HW1 1880   3.409   5.594   3.127
  327SOL    HW2 1881   3.287   5.662   3.212
  328SOL     OW 1882   1.515   4.303   1.692
  328SOL    HW1 1883   1.418   4.294   1.712
  328SOL    HW2 1884   1.560   4.215   1.706
  329SOL     OW 1885   3.200   3.926   1.762
  329SOL    HW1 1886   3.105   3.955   1.753
  329SOL    HW2 1887   3.210   3.834   1.724
  330SOL     OW 1888   3.767   5.005   0.201
  330SOL    HW1 1889   3.671   5.004   0.230
  330SOL    HW2 1890   3.779   5.072   0.127
  331SOL     OW 1891   4.806   5.419   0.916
  331SOL    HW1 1892   4.860   5.504   0.908
  331SOL    HW2 1893   4.805   5.373   0.827
  332SOL     OW 1894   5.673   2.012   3.592
  332SOL    HW1 1895   5.753   2.004   3.533
  332SOL    HW2 1896   5.677   1.944   3.664
  333SOL     OW 1897   3.933   0.580   5.109
  333SOL    HW1 1898   3.963   0.582   5.205
  333SOL    HW2 1899   3.856   0.642   5.097
  334SOL     OW 1900   4.133   3.379   3.063
  334SOL    HW1 1901   4.047   3.338   3.092
  334SOL    HW2 1902   4.197   3.381   3.140
  335SOL     OW 1903   3.583   6.763   0.046
  335SOL    HW1 1904   3.647   6.687   0.063
  335SOL    HW2 1905   3.542   6.752   6.981
  336SOL     OW 1906   2.505   1.036   3.376
  336SOL    HW1 1907   2.511   1.135   3.385
  336SOL    HW2 1908   2.437   1.000   3.441
  337SOL     OW 1909   1.604   1.658   5.733
  337SOL    HW1 1910   1.523   1.680   5.678
  337SOL    HW2 1911   1.620   1.730   5.800
  338SOL     OW 1912   4.218   3.263   1.605
  338SOL    HW1 1913   4.284   3.200   1.647
  338SOL    HW2 1914   4.196   3.232   1.513
  339SOL     OW 1915   4.209   4.920   4.661
  339SOL    HW1 1916   4.193   4.842   4.601
  339SOL    HW2 1917   4.144   4.918   4.737
  340SOL     OW 1918   4.917   2.615   4.981
  340SOL    HW1 1919   4.903   2.680   4.906
  340SOL    HW2 1920   4.832   2.565   4.998
  341SOL     OW 1921   5.864   6.182   4.082
  341SOL    HW1 1922   5.838   6.167   4.178
  341SOL    HW2 1923   5.807   6.124   4.023
  342SOL     OW 1924   4.984   3.552   0.642
  342SOL    HW1 1925   4.937   3.483   0.696
  342SOL    HW2 1926   4.932   3.569   0.558
  343SOL     OW 1927   1.036   5.815   2.569
  343SOL    HW1 1928   1.124   5.817   2.520
  343SOL    HW2 1929   1.050   5.845   2.663
  344SOL     OW 1930   1.246   1.731   1.575
  344SOL    HW1 1931   1.299   1.753   1.657
  344SOL    HW2 1932   1.170   1.670   1.600
  345SOL     OW 1933   6.898   2.432   4.276
  345SOL    HW1 1934   6.886   2.365   4.350
  345SOL    HW2 1935   6.813   2.483   4.263
  346SOL     OW 1936   1.925   0.223   2.782
  346SOL    HW1 1937   1.973   0.160   2.844
  346SOL    HW2 1938   1.833   0.239   2.816
  347SOL     OW 1939   2.612   5.856   0.506
  347SOL    HW1 1940   2.639   5.948   0.476
  347SOL    HW2 1941   2.686   5.792   0.489
  348SOL     OW 1942   4.889   5.095   2.398
  348SOL    HW1 1943   4.909   5.077   2.301
  348SOL    HW2 1944   4.944   5.173   2.428
  349SOL     OW 1945   6.916   4.134   1.233
  349SOL    HW1 1946   6.969   4.049   1.238
  349SOL    HW2 1947   6.969   4.203   1.183
  350SOL     OW 1948   3.490   2.930   0.020
  350SOL    HW1 1949   3.412   2.906   0.078
  350SOL    HW2 1950   3.511   2.852   6.985
  351SOL     OW 1951   3.409   4.011   0.644
  351SOL    HW1 1952   3.377   3.938   0.705
  351SOL    HW2 1953   3.494   4.049   0.679
  352SOL     OW 1954   4.287   5.967   3.756
  352SOL    HW1 1955   4.350   5.970   3.679
  352SOL    HW2 1956   4.196   5.942   3.725
  353SOL     OW 1957   2.903   6.847   5.967
  353SOL    HW1 1958   2.992   6.860   5.924
  353SOL    HW2 1959   2.912   6.854   6.066
  354SOL     OW 1960   5.779   3.004   0.866
  354SOL    HW1 1961   5.858   2.948   0.843
  354SOL    HW2 1962   5.695   2.955   0.844
  355SOL     OW 1963   2.126   3.444   2.720
  355SOL    HW1 1964   2.134   3.478   2.626
  355SOL    HW2 1965   2.044   3.481   2.762
  356SOL     OW 1966   1.949   0.469   5.201
  356SOL    HW1 1967   1.914   0.557   5.232
  356SOL    HW2 1968   2.008   0.430   5.272
  357SOL     OW 1969   6.372   6.778   4.516
  357SOL    HW1 1970   6.282   6.746   4.485
  357SOL    HW2 1971   6.375   6.877   4.512
  358SOL     OW 1972   4.871   6.014   0.985
  358SOL    HW1 1973   4.928   5.932   0.980
  358SOL    HW2 1974   4.841   6.040   0.893
  359SOL     OW 1975   3.358   1.239   2.039
  359SOL    HW1 1976   3.311   1.294   2.107
  359SOL    HW2 1977   3.292   1.183   1.989
  360SOL     OW 1978   1.031   4.741   4.556
  360SOL    HW1 1979   1.089   4.672   4.601
  360SOL    HW2 1980   1.035   4.826   4.608
  361SOL     OW 1981   6.568   6.013   2.881
  361SOL    HW1 1982   6.591   5.982   2.789
  361SOL    HW2 1983   6.542   5.934   2.937
  362SOL     OW 1984   3.788   4.080   0.480
  362SOL    HW1 1985   3.853   4.031   0.539
  362SOL    HW2 1986   3.775   4.173   0.515
  363SOL     OW 1987   6.289   4.861   2.544
  363SOL    HW1 1988   6.309   4.801   2.622
  363SOL    HW2 1989   6.303   4.811   2.459
  364SOL     OW 1990   0.116   4.553   6.735
  364SOL    HW1 1991   0.067   4.547   6.822
  364SOL    HW2 1992   0.183   4.479   6.729
  365SOL     OW 1993   3.528   0.586   1.862
  365SOL    HW1 1994   3.501   0.552   1.772
  365SOL    HW2 1995   3.472   0.666   1.885
  366SOL     OW 1996   6.005   3.315   6.886
  366SOL    HW1 1997   6.014   3.389   6.952
  366SOL    HW2 1998   5.992   3.353   6.795
  367SOL     OW 1999   5.136   2.351   6.042
  367SOL    HW1 2000   5.178   2.369   6.131
  367SOL    HW2 2001   5.139   2.434   5.987
  368SOL     OW 2002   6.771   2.193   6.274
  368SOL    HW1 2003   6.735   2.167   6.184
  368SOL    HW2 2004   6.696   2.225   6.332
  369SOL     OW 2005   5.951   4.231   2.968
  369SOL    HW1 2006   5.917   4.323   2.950
  369SOL    HW2 2007   5.878   4.177   3.010
  370SOL     OW 2008   1.847   2.188   3.969
  370SOL    HW1 2009   1.840   2.274   4.020
  370SOL    HW2 2010   1.918   2.131   4.009
  371SOL     OW 2011   2.124   4.019   6.919
  371SOL    HW1 2012   2.154   4.073   6.998
  371SOL    HW2 2013   2.027   3.997   6.928
  372SOL     OW 2014   2.057   6.960   5.111
  372SOL    HW1 2015   2.056   6.864   5.140
  372SOL    HW2 2016   2.014   7.016   5.181
  373SOL     OW 2017   6.115   6.492   5.169
  373SOL    HW1 2018   6.139   6.410   5.222
  373SOL    HW2 2019   6.165   6.571   5.205
  374SOL     OW 2020   2.119   1.649   2.732
  374SOL    HW1 2021   2.213   1.655   2.767
  374SOL    HW2 2022   2.063   1.721   2.773
  375SOL     OW 2023   0.561   5.525   4.882
  375SOL    HW1 2024   0.554   5.623   4.903
  375SOL    HW2 2025   0.504   5.474   4.946
  376SOL     OW 2026   2.437   1.127   4.885
  376SOL    HW1 2027   2.496   1.205   4.865
  376SOL    HW2 2028   2.387   1.144   4.970
  377SOL     OW 2029   1.701   2.258   0.241
  377SOL    HW1 2030   1.781   2.297   0.195
  377SOL    HW2 2031   1.685   2.307   0.327
  378SOL     OW 2032   3.639   1.195   6.356
  378SOL    HW1 2033   3.539   1.192   6.369
  378SOL    HW2 2034   3.684   1.179   6.444
  379SOL     OW 2035   5.475   2.404   0.230
  379SOL    HW1 2036   5.561   2.392   0.181
  379SOL    HW2 2037   5.490   2.459   0.311
  380SOL     OW 2038   3.263   1.330   1.268
  380SOL    HW1 2039   3.354   1.292   1.284
  380SOL    HW2 2040   3.272   1.426   1.241
  381SOL     OW 2041   2.198   4.497   4.769
  381SOL    HW1 2042   2.117   4.478   4.824
  381SOL    HW2 2043   2.174   4.561   4.695
  382SOL     OW 2044   6.203   0.411   0.580
  382SOL    HW1 2045   6.260   0.492   0.590
  382SOL    HW2 2046   6.147   0.420   0.498
  383SOL     OW 2047   4.366   2.983   0.530
  383SOL    HW1 2048   4.326   3.062   0.484
  383SOL    HW2 2049   4.297   2.941   0.589
  384SOL     OW 2050   0.161   3.647   3.949
  384SOL    HW1 2051   0.213   3.701   4.016
  384SOL    HW2 2052   0.223   3.614   3.878
  385SOL     OW 2053   3.765   5.709   6.265
  385SOL    HW1 2054   3.761   5.789   6.324
  385SOL    HW2 2055   3.855   5.703   6.221
  386SOL     OW 2056   4.151   0.731   4.007
  386SOL    HW1 2057   4.100   0.788   3.942
  386SOL    HW2 2058   4.099   0.722   4.092
  387SOL     OW 2059   1.259   4.863   2.397
  387SOL    HW1 2060   1.252   4.854   2.297
  387SOL    HW2 2061   1.223   4.951   2.425
  388SOL     OW 2062   2.010   2.421   6.705
  388SOL    HW1 2063   1.983   2.499   6.762
  388SOL    HW2 2064   2.012   2.338   6.760
  389SOL     OW 2065   3.811   3.351   2.788
  389SOL    HW1 2066   3.861   3.265   2.798
  389SOL    HW2 2067   3.722   3.333   2.747
  390SOL     OW 2068   2.667   0.781   3.584
  390SOL    HW1 2069   2.684   0.753   3.490
  390SOL    HW2 2070   2.606   0.715   3.628
  391SOL     OW 2071   1.974   3.172   6.569
  391SOL    HW1 2072   1.955   3.156   6.472
  391SOL    HW2 2073   2.072   3.181   6.583
  392SOL     OW 2074   1.990   5.107   1.133
  392SOL    HW1 2075   1.981   5.121   1.034
  392SOL    HW2 2076   1.908   5.144   1.178
  393SOL     OW 2077   6.196   4.427   5.432
  393SOL    HW1 2078   6.174   4.447   5.336
  393SOL    HW2 2079   6.291   4.452   5.450
  394SOL     OW 2080   0.567   6.824   6.989
  394SOL    HW1 2081   0.562   6.891   0.038
  394SOL    HW2 2082   0.478   6.816   6.944
  395SOL     OW 2083   4.693   4.203   2.377
  395SOL    HW1 2084   4.687   4.137   2.301
  395SOL    HW2 2085   4.627   4.277   2.363
  396SOL     OW 2086   3.983   3.888   2.574
  396SOL    HW1 2087   3.968   3.974   2.525
  396SOL    HW2 2088   4.026   3.822   2.513
  397SOL     OW 2089   4.283   3.059   5.729
  397SOL    HW1 2090   4.256   3.054   5.825
  397SOL    HW2 2091   4.216   3.010   5.673
  398SOL     OW 2092   1.064   5.991   1.722
  398SOL    HW1 2093   1.003   5.992   1.801
  398SOL    HW2 2094   1.094   5.897   1.704
  399SOL     OW 2095   5.360   6.127   2.797
  399SOL    HW1 2096   5.326   6.133   2.891
  399SOL    HW2 2097   5.452   6.167   2.792
  400SOL     OW 2098   0.117   0.306   6.022
  400SOL    HW1 2099   0.067   0.301   6.108
  400SOL    HW2 2100   0.211   0.276   6.036
  401SOL     OW 2101   4.648   0.774   6.038
  401SOL    HW1 2102   4.734   0.819   6.061
  401SOL    HW2 2103   4.597   0.753   6.122
  402SOL     OW 2104   6.296   6.542   2.907
  402SOL    HW1 2105   6.312   6.611   2.835
  402SOL    HW2 2106   6.274   6.455   2.864
  403SOL     OW 2107   4.323   2.678   6.080
  403SOL    HW1 2108   4.328   2.586   6.041
  403SOL    HW2 2109   4.270   2.676   6.165
  404SOL     OW 2110   1.452   6.880   3.754
  404SOL    HW1 2111   1.366   6.897   3.803
  404SOL    HW2 2112   1.493   6.795   3.788
  405SOL     OW 2113   2.191   2.533   1.102
  405SOL    HW1 2114   2.271   2.588   1.078
  405SOL    HW2 2115   2.128   2.588   1.156
  406SOL     OW 2116   1.164   2.520   3.987
  406SOL    HW1 2117   1.146   2.586   3.914
  406SOL    HW2 2118   1.259   2.489   3.982
  407SOL     OW 2119   2.410   0.300   3.888
  407SOL    HW1 2120   2.311   0.294   3.895
  407SOL    HW2 2121   2.442   0.243   3.813
  408SOL     OW 2122   1.295   1.133   3.233
  408SOL    HW1 2123   1.265   1.211   3.288
  408SOL    HW2 2124   1.355   1.074   3.287
  409SOL     OW 2125   5.696   2.979   2.079
  409SOL    HW1 2126   5.631   2.942   2.145
  409SOL    HW2 2127   5.777   3.014   2.127
  410SOL     OW 2128   2.397   0.075   0.019
  410SOL    HW1 2129   2.445   7.019   0.053
  410SOL    HW2 2130   2.401   0.077   6.944
  411SOL     OW 2131   5.862   6.318   6.679
  411SOL    HW1 2132   5.840   6.313   6.777
  411SOL    HW2 2133   5.924   6.395   6.663
  412SOL     OW 2134   4.712   6.944   3.373
  412SOL    HW1 2135   4.632   6.967   3.428
  412SOL    HW2 2136   4.694   6.966   3.277
  413SOL     OW 2137   4.393   4.780   1.415
  413SOL    HW1 2138   4.317   4.729   1.455
  413SOL    HW2 2139   4.432   4.841   1.483
  414SOL     OW 2140   3.993   5.186   2.791
  414SOL    HW1 2141   4.035   5.276   2.781
  414SOL    HW2 2142   3.999   5.136   2.705
  415SOL     OW 2143   1.150   5.957   0.563
  415SOL    HW1 2144   1.220   5.896   0.526
  415SOL    HW2 2145   1.179   6.052   0.550
  416SOL     OW 2146   4.479   5.982   5.086
  416SOL    HW1 2147   4.509   5.989   5.181
  416SOL    HW2 2148   4.402   5.919   5.080
  417SOL     OW 2149   2.668   6.462   0.801
  417SOL    HW1 2150   2.571   6.443   0.790
  417SOL    HW2 2151   2.680   6.537   0.867
  418SOL     OW 2152   4.871   6.175   0.744
  418SOL    HW1 2153   4.900   6.212   0.656
  418SOL    HW2 2154   4.857   6.250   0.809
  419SOL     OW 2155   1.104   0.242   1.383
  419SOL    HW1 2156   1.087   0.151   1.346
  419SOL    HW2 2157   1.198   0.270   1.364
  420SOL     OW 2158   6.191   3.565   1.193
  420SOL    HW1 2159   6.179   3.501   1.117
  420SOL    HW2 2160   6.142   3.530   1.274
  421SOL     OW 2161   0.694   5.194   6.327
  421SOL    HW1 2162   0.613   5.244   6.298
  421SOL    HW2 2163   0.771   5.219   6.268
  422SOL     OW 2164   6.260   5.848   0.765
  422SOL    HW1 2165   6.216   5.758   0.772
  422SOL    HW2 2166   6.202   5.909   0.711
  423SOL     OW 2167   6.808   3.282   0.091
  423SOL    HW1 2168   6.857   3.203   0.129
  423SOL    HW2 2169   6.867   3.363   0.095
  424SOL     OW 2170   2.914   3.766   1.176
  424SOL    HW1 2171   2.838   3.765   1.242
  424SOL    HW2 2172   2.995   3.725   1.218
  425SOL     OW 2173   5.520   1.066   2.239
  425SOL    HW1 2174   5.444   1.127   2.258
  425SOL    HW2 2175   5.496   1.005   2.163
  426SOL     OW 2176   5.574   2.158   4.727
  426SOL    HW1 2177   5.527   2.093   4.669
  426SOL    HW2 2178   5.637   2.110   4.788
  427SOL     OW 2179   5.656   5.026   2.542
  427SOL    HW1 2180   5.736   5.064   2.589
  427SOL    HW2 2181   5.573   5.056   2.589
  428SOL     OW 2182   4.480   6.932   5.098
  428SOL    HW1 2183   4.553   6.920   5.166
  428SOL    HW2 2184   4.513   6.992   5.025
  429SOL     OW 2185   2.809   4.709   1.483
  429SOL    HW1 2186   2.880   4.649   1.446
  429SOL    HW2 2187   2.775   4.670   1.569
  430SOL     OW 2188   0.495   6.852   4.291
  430SOL    HW1 2189   0.449   6.863   4.203
  430SOL    HW2 2190   0.592   6.875   4.281
  431SOL     OW 2191   3.800   0.191   0.591
  431SOL    HW1 2192   3.854   0.108   0.577
  431SOL    HW2 2193   3.860   0.271   0.582
  432SOL     OW 2194   6.532   2.412   1.717
  432SOL    HW1 2195   6.616   2.367   1.686
  432SOL    HW2 2196   6.527   2.503   1.678
  433SOL     OW 2197   3.091   6.347   3.629
  433SOL    HW1 2198   3.019   6.385   3.570
  433SOL    HW2 2199   3.151   6.421   3.658
  434SOL     OW 2200   5.036   5.302   1.823
  434SOL    HW1 2201   4.997   5.209   1.825
  434SOL    HW2 2202   5.055   5.327   1.728
  435SOL     OW 2203   3.684   2.568   5.295
  435SOL    HW1 2204   3.645   2.568   5.387
  435SOL    HW2 2205   3.770   2.618   5.295
  436SOL     OW 2206   2.600   6.638   1.405
  436SOL    HW1 2207   2.607   6.597   1.495
  436SOL    HW2 2208   2.606   6.738   1.413
  437SOL     OW 2209   0.786   6.977   6.456
  437SOL    HW1 2210   0.854   0.026   6.448
  437SOL    HW2 2211   0.803   6.925   6.539
  438SOL     OW 2212   2.150   3.340   2.305
  438SOL    HW1 2213   2.158   3.241   2.315
  438SOL    HW2 2214   2.207   3.370   2.228
  439SOL     OW 2215   6.111   4.181   3.356
  439SOL    HW1 2216   6.128   4.083   3.350
  439SOL    HW2 2217   6.146   4.216   3.443
  440SOL     OW 2218   0.799   1.963   4.593
  440SOL    HW1 2219   0.837   2.056   4.588
  440SOL    HW2 2220   0.864   1.898   4.554
  441SOL     OW 2221   0.525   2.111   3.149
  441SOL    HW1 2222   0.579   2.185   3.109
  441SOL    HW2 2223   0.453   2.084   3.085
  442SOL     OW 2224   2.061   5.139   6.947
  442SOL    HW1 2225   2.112   5.075   6.891
  442SOL    HW2 2226   2.070   5.231   6.909
  443SOL     OW 2227   0.803   3.903   5.126
  443SOL    HW1 2228   0.768   3.867   5.039
  443SOL    HW2 2229   0.892   3.946   5.111
  444SOL     OW 2230   5.462   2.456   5.938
  444SOL    HW1 2231   5.482   2.360   5.922
  444SOL    HW2 2232   5.368   2.477   5.909
  445SOL     OW 2233   1.604   5.216   3.376
  445SOL    HW1 2234   1.576   5.178   3.287
  445SOL    HW2 2235   1.689   5.172   3.405
  446SOL     OW 2236   3.978   4.969   3.008
  446SOL    HW1 2237   4.070   5.007   3.019
  446SOL    HW2 2238   3.939   4.999   2.921
  447SOL     OW 2239   0.530   3.739   0.039
  447SOL    HW1 2240   0.463   3.741   6.989
  447SOL    HW2 2241   0.482   3.739   0.126
  448SOL     OW 2242   3.025   0.472   4.926
  448SOL    HW1 2243   2.945   0.526   4.903
  448SOL    HW2 2244   3.107   0.528   4.917
  449SOL     OW 2245   4.451   0.525   5.544
  449SOL    HW1 2246   4.541   0.482   5.553
  449SOL    HW2 2247   4.442   0.566   5.454
  450SOL     OW 2248   1.106   5.715   3.426
  450SOL    HW1 2249   1.006   5.713   3.424
  450SOL    HW2 2250   1.141   5.622   3.438
  451SOL     OW 2251   2.055   1.819   3.111
  451SOL    HW1 2252   2.092   1.895   3.163
  451SOL    HW2 2253   2.001   1.760   3.171
  452SOL     OW 2254   6.525   5.931   1.227
  452SOL    HW1 2255   6.443   5.892   1.267
  452SOL    HW2 2256   6.511   5.946   1.129
  453SOL     OW 2257   3.251   0.179   4.675
  453SOL    HW1 2258   3.219   0.088   4.702
  453SOL    HW2 2259   3.340   0.171   4.631
  454SOL     OW 2260   0.153   5.249   6.287
  454SOL    HW1 2261   0.227   5.183   6.300
  454SOL    HW2 2262   0.186   5.325   6.231
  455SOL     OW 2263   6.980   1.187   4.006
  455SOL    HW1 2264   7.005   1.279   3.976
  455SOL    HW2 2265   6.971   1.187   4.106
  456SOL     OW 2266   4.612   5.111   4.386
  456SOL    HW1 2267   4.612   5.087   4.289
  456SOL    HW2 2268   4.592   5.029   4.440
  457SOL     OW 2269   2.185   3.154   3.480
  457SOL    HW1 2270   2.202   3.185   3.574
  457SOL    HW2 2271   2.149   3.231   3.426
  458SOL     OW 2272   4.914   6.160   4.359
  458SOL    HW1 2273   4.869   6.244   4.330
  458SOL    HW2 2274   4.957   6.116   4.280
  459SOL     OW 2275   1.678   6.966   3.969
  459SOL    HW1 2276   1.592   6.942   4.014
  459SOL    HW2 2277   1.704   6.892   3.907
  460SOL     OW 2278   1.490   0.859   2.581
  460SOL    HW1 2279   1.433   0.938   2.602
  460SOL    HW2 2280   1.585   0.879   2.604
  461SOL     OW 2281   5.926   6.711   4.687
  461SOL    HW1 2282   5.967   6.670   4.768
  461SOL    HW2 2283   5.940   6.652   4.608
  462SOL     OW 2284   4.078   2.446   5.920
  462SOL    HW1 2285   4.125   2.362   5.950
  462SOL    HW2 2286   3.991   2.422   5.877
  463SOL     OW 2287   6.218   5.841   3.553
  463SOL    HW1 2288   6.260   5.898   3.624
  463SOL    HW2 2289   6.119   5.854   3.553
  464SOL     OW 2290   2.536   1.691   6.232
  464SOL    HW1 2291   2.605   1.732   6.291
  464SOL    HW2 2292   2.540   1.592   6.240
  465SOL     OW 2293   1.409   2.671   4.471
  465SOL    HW1 2294   1.340   2.744   4.474
  465SOL    HW2 2295   1.386   2.600   4.538
  466SOL     OW 2296   0.828   5.274   3.030
  466SOL    HW1 2297   0.878   5.201   3.077
  466SOL    HW2 2298   0.730   5.257   3.035
  467SOL     OW 2299   1.157   0.834   6.057
  467SOL    HW1 2300   1.214   0.903   6.101
  467SOL    HW2 2301   1.094   0.878   5.993
  468SOL     OW 2302   3.129   6.454   6.629
  468SOL    HW1 2303   3.104   6.476   6.534
  468SOL    HW2 2304   3.086   6.367   6.655
  469SOL     OW 2305   2.840   4.573   0.540
  469SOL    HW1 2306   2.876   4.583   0.633
  469SOL    HW2 2307   2.819   4.663   0.502
  470SOL     OW 2308   3.980   0.519   2.454
  470SOL    HW1 2309   3.957   0.548   2.546
  470SOL    HW2 2310   3.939   0.429   2.436
  471SOL     OW 2311   1.935   2.423   4.118
  471SOL    HW1 2312   2.023   2.435   4.073
  471SOL    HW2 2313   1.946   2.363   4.197
  472SOL     OW 2314   5.153   4.076   6.934
  472SOL    HW1 2315   5.100   4.072   7.019
  472SOL    HW2 2316   5.103   4.130   6.866
  473SOL     OW 2317   0.618   3.279   1.505
  473SOL    HW1 2318   0.599   3.257   1.600
  473SOL    HW2 2319   0.612   3.377   1.491
  474SOL     OW 2320   4.871   4.842   3.692
  474SOL    HW1 2321   4.814   4.923   3.705
  474SOL    HW2 2322   4.872   4.816   3.596
  475SOL     OW 2323   5.985   1.462   6.012
  475SOL    HW1 2324   5.965   1.467   5.914
  475SOL    HW2 2325   5.905   1.424   6.060
  476SOL     OW 2326   0.195   3.887   2.227
  476SOL    HW1 2327   0.268   3.940   2.184
  476SOL    HW2 2328   0.212   3.789   2.212
  477SOL     OW 2329   2.203   4.781   5.401
  477SOL    HW1 2330   2.246   4.825   5.322
  477SOL    HW2 2331   2.169   4.851   5.464
  478SOL     OW 2332   3.094   6.681   2.813
  478SOL    HW1 2333   3.107   6.676   2.714
  478SOL    HW2 2334   3.021   6.618   2.840
  479SOL     OW 2335   4.708   1.827   0.169
  479SOL    HW1 2336   4.664   1.912   0.139
  479SOL    HW2 2337   4.719   1.766   0.091
  480SOL     OW 2338   2.382   0.902   0.068
  480SOL    HW1 2339   2.348   0.845   7.018
  480SOL    HW2 2340   2.387   0.848   0.152
  481SOL     OW 2341   1.995   0.616   6.533
  481SOL    HW1 2342   1.962   0.602   6.626
  481SOL    HW2 2343   1.997   0.713   6.512
  482SOL     OW 2344   4.457   4.524   3.226
  482SOL    HW1 2345   4.427   4.619   3.241
  482SOL    HW2 2346   4.414   4.488   3.144
  483SOL     OW 2347   6.857   1.630   2.255
  483SOL    HW1 2348   6.924   1.692   2.295
  483SOL    HW2 2349   6.832   1.663   2.164
  484SOL     OW 2350   0.911   2.804   5.371
  484SOL    HW1 2351   0.871   2.781   5.283
  484SOL    HW2 2352   0.903   2.902   5.388
  485SOL     OW 2353   4.252   5.597   2.457
  485SOL    HW1 2354   4.295   5.527   2.514
  485SOL    HW2 2355   4.321   5.664   2.428
  486SOL     OW 2356   0.023   1.484   1.197
  486SOL    HW1 2357   0.085   1.481   1.119
  486SOL    HW2 2358   6.972   1.420   1.183
  487SOL     OW 2359   0.934   1.900   0.613
  487SOL    HW1 2360   0.977   1.810   0.602
  487SOL    HW2 2361   0.982   1.967   0.556
  488SOL     OW 2362   0.767   1.666   1.271
  488SOL    HW1 2363   0.858   1.704   1.285
  488SOL    HW2 2364   0.775   1.576   1.228
  489SOL     OW 2365   3.444   6.551   6.215
  489SOL    HW1 2366   3.419   6.478   6.151
  489SOL    HW2 2367   3.507   6.615   6.169
  490SOL     OW 2368   6.725   5.709   3.409
  490SOL    HW1 2369   6.725   5.625   3.462
  490SOL    HW2 2370   6.819   5.734   3.385
  491SOL     OW 2371   0.234   3.133   2.060
  491SOL    HW1 2372   0.218   3.110   2.157
  491SOL    HW2 2373   0.271   3.225   2.053
  492SOL     OW 2374   2.964   0.284   4.687
  492SOL    HW1 2375   2.981   0.313   4.781
  492SOL    HW2 2376   3.041   0.230   4.653
  493SOL     OW 2377   5.645   6.434   5.257
  493SOL    HW1 2378   5.722   6.373   5.239
  493SOL    HW2 2379   5.570   6.381   5.298
  494SOL     OW 2380   0.217   0.340   6.671
  494SOL    HW1 2381   0.315   0.355   6.687
  494SOL    HW2 2382   0.181   0.416   6.618
  495SOL     OW 2383   4.401   5.711   2.836
  495SOL    HW1 2384   4.411   5.772   2.757
  495SOL    HW2 2385   4.482   5.652   2.843
  496SOL     OW 2386   5.215   3.713   2.752
  496SOL    HW1 2387   5.271   3.719   2.669
  496SOL    HW2 2388   5.274   3.706   2.832
  497SOL     OW 2389   3.457   0.822   4.874
  497SOL    HW1 2390   3.499   0.913   4.866
  497SOL    HW2 2391   3.506   0.758   4.815
  498SOL     OW 2392   1.446   3.956   1.210
  498SOL    HW1 2393   1.381   4.032   1.217
  498SOL    HW2 2394   1.396   3.869   1.212
  499SOL     OW 2395   3.045   0.028   4.111
  499SOL    HW1 2396   3.027   0.041   4.013
  499SOL    HW2 2397   3.102   0.102   4.144
  500SOL     OW 2398   1.233   3.321   2.655
  500SOL    HW1 2399   1.237   3.308   2.754
  500SOL    HW2 2400   1.198   3.238   2.612
  501SOL     OW 2401   2.943   6.365   0.414
  501SOL    HW1 2402   2.852   6.335   0.386
  501SOL    HW2 2403   2.940   6.399   0.508
  502SOL     OW 2404   6.733   4.425   6.375
  502SOL    HW1 2405   6.724   4.396   6.280
  502SOL    HW2 2406   6.663   4.493   6.396
  503SOL     OW 2407   5.512   5.962   6.246
  503SOL    HW1 2408   5.583   5.895   6.224
  503SOL    HW2 2409   5.499   5.967   6.345
  504SOL     OW 2410   2.382   5.287   3.080
  504SOL    HW1 2411   2.369   5.307   2.983
  504SOL    HW2 2412   2.297   5.250   3.118
  505SOL     OW 2413   3.465   6.112   5.040
  505SOL    HW1 2414   3.374   6.129   5.078
  505SOL    HW2 2415   3.457   6.062   4.954
  506SOL     OW 2416   1.393   5.156   4.727
  506SOL    HW1 2417   1.314   5.172   4.667
  506SOL    HW2 2418   1.433   5.244   4.753
  507SOL     OW 2419   2.938   0.774   3.448
  507SOL    HW1 2420   2.947   0.842   3.521
  507SOL    HW2 2421   2.863   0.801   3.387
  508SOL     OW 2422   6.486   3.292   2.418
  508SOL    HW1 2423   6.398   3.245   2.427
  508SOL    HW2 2424   6.472   3.380   2.372
  509SOL     OW 2425   2.990   1.284   1.457
  509SOL    HW1 2426   3.083   1.289   1.423
  509SOL    HW2 2427   2.929   1.251   1.385
  510SOL     OW 2428   6.652   4.893   6.246
  510SOL    HW1 2429   6.659   4.825   6.173
  510SOL    HW2 2430   6.685   4.981   6.212
  511SOL     OW 2431   6.987   0.207   6.711
  511SOL    HW1 2432   6.982   0.127   6.770
  511SOL    HW2 2433   0.053   0.248   6.717
  512SOL     OW 2434   0.275   3.284   0.310
  512SOL    HW1 2435   0.219   3.313   0.233
  512SOL    HW2 2436   0.300   3.187   0.299
  513SOL     OW 2437   5.646   6.271   3.174
  513SOL    HW1 2438   5.556   6.227   3.176
  513SOL    HW2 2439   5.682   6.270   3.081
  514SOL     OW 2440   0.024   2.727   3.687
  514SOL    HW1 2441   0.007   2.796   3.617
  514SOL    HW2 2442   0.029   2.636   3.644
  515SOL     OW 2443   2.072   0.877   6.482
  515SOL    HW1 2444   2.016   0.941   6.430
  515SOL    HW2 2445   2.110   0.923   6.562
  516SOL     OW 2446   2.680   4.546   1.682
  516SOL    HW1 2447   2.652   4.452   1.662
  516SOL    HW2 2448   2.755   4.545   1.749
  517SOL     OW 2449   5.068   5.803   1.981
  517SOL    HW1 2450   5.072   5.890   2.029
  517SOL    HW2 2451   5.019   5.736   2.037
  518SOL     OW 2452   2.573   2.437   2.332
  518SOL    HW1 2453   2.649   2.464   2.273
  518SOL    HW2 2454   2.497   2.404   2.276
  519SOL     OW 2455   0.999   1.060   4.505
  519SOL    HW1 2456   0.981   1.111   4.422
  519SOL    HW2 2457   1.094   1.072   4.533
  520SOL     OW 2458   6.193   4.928   0.156
  520SOL    HW1 2459   6.185   5.028   0.147
  520SOL    HW2 2460   6.116   4.894   0.209
  521SOL     OW 2461   6.375   3.432   6.629
  521SOL    HW1 2462   6.418   3.497   6.691
  521SOL    HW2 2463   6.278   3.454   6.619
  522SOL     OW 2464   3.491   3.839   5.484
  522SOL    HW1 2465   3.453   3.754   5.448
  522SOL    HW2 2466   3.415   3.900   5.509
  523SOL     OW 2467   0.686   4.580   1.768
  523SOL    HW1 2468   0.776   4.620   1.785
  523SOL    HW2 2469   0.619   4.621   1.829
  524SOL     OW 2470   1.614   0.793   6.619
  524SOL    HW1 2471   1.623   0.885   6.658
  524SOL    HW2 2472   1.518   0.775   6.598
  525SOL     OW 2473   2.676   3.955   6.830
  525SOL    HW1 2474   2.647   4.004   6.748
  525SOL    HW2 2475   2.756   3.899   6.809
  526SOL     OW 2476   3.763   0.115   3.886
  526SOL    HW1 2477   3.707   0.033   3.871
  526SOL    HW2 2478   3.794   0.150   3.798
  527SOL     OW 2479   6.226   3.154   6.216
  527SOL    HW1 2480   6.268   3.085   6.275
  527SOL    HW2 2481   6.278   3.239   6.223
  528SOL     OW 2482   1.106   1.884   4.003
  528SOL    HW1 2483   1.178   1.912   3.940
  528SOL    HW2 2484   1.101   1.948   4.079
  529SOL     OW 2485   1.118   6.214   4.598
  529SOL    HW1 2486   1.031   6.169   4.619
  529SOL    HW2 2487   1.112   6.311   4.620
  530SOL     OW 2488   2.656   3.073   5.411
  530SOL    HW1 2489   2.581   3.066   5.345
  530SOL    HW2 2490   2.733   3.017   5.380
  531SOL     OW 2491   0.208   0.459   1.386
  531SOL    HW1 2492   0.120   0.411   1.391
  531SOL    HW2 2493   0.192   0.558   1.395
  532SOL     OW 2494   1.037   2.138   6.878
  532SOL    HW1 2495   1.123   2.174   6.915
  532SOL    HW2 2496   0.967   2.139   6.949
  533SOL     OW 2497   3.906   6.466   3.986
  533SOL    HW1 2498   3.843   6.473   4.063
  533SOL    HW2 2499   3.854   6.455   3.901
  534SOL     OW 2500   5.554   5.079   3.419
  534SOL    HW1 2501   5.490   5.151   3.394
  534SOL    HW2 2502   5.504   5.000   3.454
  535SOL     OW 2503   0.530   3.699   4.702
  535SOL    HW1 2504   0.489   3.789   4.688
  535SOL    HW2 2505   0.625   3.700   4.671
  536SOL     OW 2506   0.231   4.601   2.165
  536SOL    HW1 2507   0.276   4.574   2.080
  536SOL    HW2 2508   0.206   4.519   2.216
  537SOL     OW 2509   1.707   5.959   3.527
  537SOL    HW1 2510   1.616   6.001   3.520
  537SOL    HW2 2511   1.736   5.960   3.623
  538SOL     OW 2512   2.113   4.424   3.737
  538SOL    HW1 2513   2.200   4.390   3.701
  538SOL    HW2 2514   2.100   4.389   3.830
  539SOL     OW 2515   0.880   5.952   0.495
  539SOL    HW1 2516   0.971   5.993   0.504
  539SOL    HW2 2517   0.819   6.017   0.450
  540SOL     OW 2518   6.923   0.918   1.729
  540SOL    HW1 2519   6.936   1.012   1.758
  540SOL    HW2 2520   6.882   0.865   1.804
  541SOL     OW 2521   2.695   6.535   4.238
  541SOL    HW1 2522   2.684   6.435   4.235
  541SOL    HW2 2523   2.699   6.571   4.145
  542SOL     OW 2524   6.562   0.437   7.011
  542SOL    HW1 2525   6.628   0.370   0.020
  542SOL    HW2 2526   6.478   0.433   0.041
  543SOL     OW 2527   0.962   5.234   4.821
  543SOL    HW1 2528   0.994   5.303   4.885
  543SOL    HW2 2529   0.870   5.258   4.789
  544SOL     OW 2530   2.202   4.203   1.051
  544SOL    HW1 2531   2.160   4.293   1.041
  544SOL    HW2 2532   2.229   4.169   0.960
  545SOL     OW 2533   3.335   1.408   3.542
  545SOL    HW1 2534   3.430   1.378   3.539
  545SOL    HW2 2535   3.312   1.455   3.457
  546SOL     OW 2536   1.563   3.343   0.190
  546SOL    HW1 2537   1.547   3.437   0.161
  546SOL    HW2 2538   1.655   3.315   0.163
  547SOL     OW 2539   2.785   1.282   6.221
  547SOL    HW1 2540   2.835   1.275   6.307
  547SOL    HW2 2541   2.849   1.279   6.145
  548SOL     OW 2542   3.833   2.973   3.001
  548SOL    HW1 2543   3.912   3.013   2.955
  548SOL    HW2 2544   3.846   2.980   3.100
  549SOL     OW 2545   4.751   3.116   1.339
  549SOL    HW1 2546   4.779   3.031   1.294
  549SOL    HW2 2547   4.765   3.108   1.437
  550SOL     OW 2548   6.739   4.366   3.598
  550SOL    HW1 2549   6.716   4.349   3.694
  550SOL    HW2 2550   6.783   4.455   3.590
  551SOL     OW 2551   0.293   1.324   1.120
  551SOL    HW1 2552   0.338   1.235   1.121
  551SOL    HW2 2553   0.268   1.350   1.214
  552SOL     OW 2554   4.677   5.326   0.684
  552SOL    HW1 2555   4.583   5.358   0.689
  552SOL    HW2 2556   4.680   5.228   0.698
  553SOL     OW 2557   2.123   0.085   1.976
  553SOL    HW1 2558   2.024   0.093   1.976
  553SOL    HW2 2559   2.151   0.011   2.037
  554SOL     OW 2560   5.020   6.272   6.096
  554SOL    HW1 2561   4.956   6.331   6.046
  554SOL    HW2 2562   5.008   6.286   6.194
  555SOL     OW 2563   2.079   5.410   4.165
  555SOL    HW1 2564   2.127   5.476   4.107
  555SOL    HW2 2565   2.003   5.370   4.114
  556SOL     OW 2566   5.742   2.410   4.081
  556SOL    HW1 2567   5.745   2.459   3.993
  556SOL    HW2 2568   5.805   2.453   4.145
  557SOL     OW 2569   0.586   5.367   6.775
  557SOL    HW1 2570   0.612   5.306   6.700
  557SOL    HW2 2571   0.663   5.377   6.838
  558SOL     OW 2572   3.435   4.105   4.509
  558SOL    HW1 2573   3.447   4.054   4.424
  558SOL    HW2 2574   3.398   4.196   4.488
  559SOL     OW 2575   5.885   6.654   7.004
  559SOL    HW1 2576   5.902   6.718   6.929
  559SOL    HW2 2577   5.968   6.599   7.020
  560SOL     OW 2578   4.067   6.366   0.571
  560SOL    HW1 2579   4.000   6.436   0.596
  560SOL    HW2 2580   4.084   6.308   0.651
  561SOL     OW 2581   6.651   0.556   6.789
  561SOL    HW1 2582   6.574   0.576   6.728
  561SOL    HW2 2583   6.616   0.516   6.874
  562SOL     OW 2584   4.605   0.486   6.630
  562SOL    HW1 2585   4.684   0.516   6.576
  562SOL    HW2 2586   4.525   0.478   6.571
  563SOL     OW 2587   2.577   0.460   3.209
  563SOL    HW1 2588   2.528   0.374   3.223
  563SOL    HW2 2589   2.589   0.476   3.111
  564SOL     OW 2590   2.234   2.268   6.282
  564SOL    HW1 2591   2.221   2.330   6.205
  564SOL    HW2 2592   2.196   2.178   6.259
  565SOL     OW 2593   4.263   3.242   5.372
  565SOL    HW1 2594   4.240   3.277   5.463
  565SOL    HW2 2595   4.278   3.318   5.310
  566SOL     OW 2596   5.266   3.814   3.367
  566SOL    HW1 2597   5.306   3.851   3.452
  566SOL    HW2 2598   5.295   3.871   3.290
  567SOL     OW 2599   2.903   3.712   3.178
  567SOL    HW1 2600   2.901   3.807   3.209
  567SOL    HW2 2601   2.942   3.655   3.251
  568SOL     OW 2602   3.709   2.501   1.140
  568SOL    HW1 2603   3.748   2.514   1.231
  568SOL    HW2 2604   3.718   2.406   1.113
  569SOL     OW 2605   2.033   3.296   0.547
  569SOL    HW1 2606   2.132   3.298   0.537
  569SOL    HW2 2607   1.997   3.213   0.504
  570SOL     OW 2608   1.904   6.500   5.455
  570SOL    HW1 2609   1.883   6.577   5.515
  570SOL    HW2 2610   1.911   6.416   5.509
  571SOL     OW 2611   3.615   6.969   2.853
  571SOL    HW1 2612   3.533   7.019   2.823
  571SOL    HW2 2613   3.613   6.958   2.952
  572SOL     OW 2614   2.715   5.147   6.069
  572SOL    HW1 2615   2.737   5.183   6.160
  572SOL    HW2 2616   2.676   5.219   6.013
  573SOL     OW 2617   4.096   1.930   5.038
  573SOL    HW1 2618   4.118   2.025   5.015
  573SOL    HW2 2619   4.114   1.914   5.135
  574SOL     OW 2620   2.114   1.990   3.525
  574SOL    HW1 2621   2.080   2.066   3.580
  574SOL    HW2 2622   2.084   2.000   3.430
  575SOL     OW 2623   5.905   3.819   6.148
  575SOL    HW1 2624   5.841   3.870   6.205
  575SOL    HW2 2625   5.889   3.842   6.052
  576SOL     OW 2626   1.394   2.187   2.071
  576SOL    HW1 2627   1.411   2.151   2.162
  576SOL    HW2 2628   1.384   2.112   2.006
  577SOL     OW 2629   2.167   1.222   3.294
  577SOL    HW1 2630   2.257   1.260   3.314
  577SOL    HW2 2631   2.119   1.203   3.380
  578SOL     OW 2632   6.572   3.306   3.528
  578SOL    HW1 2633   6.626   3.227   3.498
  578SOL    HW2 2634   6.618   3.390   3.499
  579SOL     OW 2635   3.277   2.321   0.990
  579SOL    HW1 2636   3.315   2.412   1.002
  579SOL    HW2 2637   3.309   2.282   0.904
  580SOL     OW 2638   0.743   4.503   6.526
  580SOL    HW1 2639   0.701   4.416   6.503
  580SOL    HW2 2640   0.680   4.557   6.582
  581SOL     OW 2641   3.197   3.406   2.562
  581SOL    HW1 2642   3.236   3.498   2.570
  581SOL    HW2 2643   3.146   3.398   2.476
  582SOL     OW 2644   5.184   5.108   2.679
  582SOL    HW1 2645   5.197   5.114   2.580
  582SOL    HW2 2646   5.257   5.052   2.719
  583SOL     OW 2647   2.924   4.979   6.441
  583SOL    HW1 2648   2.896   4.983   6.537
  583SOL    HW2 2649   3.001   5.040   6.426
  584SOL     OW 2650   0.889   5.545   5.651
  584SOL    HW1 2651   0.892   5.613   5.578
  584SOL    HW2 2652   0.816   5.479   5.632
  585SOL     OW 2653   6.504   3.057   6.043
  585SOL    HW1 2654   6.522   3.064   5.944
  585SOL    HW2 2655   6.412   3.020   6.057
  586SOL     OW 2656   3.570   0.211   0.277
  586SOL    HW1 2657   3.546   0.116   0.258
  586SOL    HW2 2658   3.627   0.246   0.202
  587SOL     OW 2659   1.974   2.402   5.341
  587SOL    HW1 2660   2.002   2.468   5.410
  587SOL    HW2 2661   1.874   2.400   5.335
  588SOL     OW 2662   3.361   6.075   1.050
  588SOL    HW1 2663   3.310   6.013   0.991
  588SOL    HW2 2664   3.457   6.045   1.055
  589SOL     OW 2665   3.788   5.415   2.077
  589SOL    HW1 2666   3.734   5.426   2.161
  589SOL    HW2 2667   3.878   5.378   2.100
  590SOL     OW 2668   6.203   2.862   1.820
  590SOL    HW1 2669   6.155   2.910   1.747
  590SOL    HW2 2670   6.170   2.894   1.908
  591SOL     OW 2671   3.667   6.837   3.847
  591SOL    HW1 2672   3.755   6.854   3.890
  591SOL    HW2 2673   3.638   6.743   3.865
  592SOL     OW 2674   4.264   0.626   0.867
  592SOL    HW1 2675   4.182   0.616   0.923
  592SOL    HW2 2676   4.237   0.648   0.773
  593SOL     OW 2677   4.488   2.101   3.612
  593SOL    HW1 2678   4.558   2.095   3.683
  593SOL    HW2 2679   4.496   2.024   3.549
  594SOL     OW 2680   4.290   3.165   6.531
  594SOL    HW1 2681   4.317   3.079   6.487
  594SOL    HW2 2682   4.253   3.144   6.622
  595SOL     OW 2683   4.760   6.116   4.033
  595SOL    HW1 2684   4.770   6.205   4.078
  595SOL    HW2 2685   4.743   6.130   3.936
  596SOL     OW 2686   1.128   3.905   1.031
  596SOL    HW1 2687   1.167   3.889   1.122
  596SOL    HW2 2688   1.096   3.818   0.993
  597SOL     OW 2689   4.717   0.067   5.823
  597SOL    HW1 2690   4.652   7.015   5.823
  597SOL    HW2 2691   4.804   0.037   5.784
  598SOL     OW 2692   3.528   4.126   0.322
  598SOL    HW1 2693   3.476   4.183   0.385
  598SOL    HW2 2694   3.624   4.121   0.353
  599SOL     OW 2695   0.401   0.813   3.234
  599SOL    HW1 2696   0.440   0.815   3.142
  599SOL    HW2 2697   0.391   0.718   3.264
  600SOL     OW 2698   0.786   0.048   0.776
  600SOL    HW1 2699   0.755   0.066   0.870
  600SOL    HW2 2700   0.886   0.046   0.775
  601SOL     OW 2701   3.119   6.242   3.328
  601SOL    HW1 2702   3.069   6.248   3.415
  601SOL    HW2 2703   3.145   6.333   3.298
  602SOL     OW 2704   0.774   1.335   0.546
  602SOL    HW1 2705   0.818   1.349   0.458
  602SOL    HW2 2706   0.722   1.417   0.570
  603SOL     OW 2707   4.047   1.642   3.798
  603SOL    HW1 2708   4.120   1.710   3.813
  603SOL    HW2 2709   4.004   1.620   3.885
  604SOL     OW 2710   0.541   3.251   0.653
  604SOL    HW1 2711   0.612   3.321   0.658
  604SOL    HW2 2712   0.583   3.160   0.654
  605SOL     OW 2713   6.513   5.523   3.171
  605SOL    HW1 2714   6.577   5.596   3.192
  605SOL    HW2 2715   6.548   5.468   3.095
  606SOL     OW 2716   5.029   0.795   5.853
  606SOL    HW1 2717   4.987   0.814   5.765
  606SOL    HW2 2718   5.064   0.880   5.893
  607SOL     OW 2719   5.730   1.135   4.456
  607SOL    HW1 2720   5.717   1.055   4.513
  607SOL    HW2 2721   5.807   1.119   4.393
  608SOL     OW 2722   3.358   6.822   0.414
  608SOL    HW1 2723   3.363   6.730   0.454
  608SOL    HW2 2724   3.265   6.856   0.418
  609SOL     OW 2725   3.386   3.214   4.447
  609SOL    HW1 2726   3.318   3.238   4.377
  609SOL    HW2 2727   3.358   3.253   4.535
  610SOL     OW 2728   5.596   2.174   3.089
  610SOL    HW1 2729   5.689   2.212   3.090
  610SOL    HW2 2730   5.567   2.164   2.994
  611SOL     OW 2731   0.850   0.457   6.899
  611SOL    HW1 2732   0.869   0.555   6.902
  611SOL    HW2 2733   0.786   0.433   6.971
  612SOL     OW 2734   3.322   5.819   5.813
  612SOL    HW1 2735   3.388   5.846   5.743
  612SOL    HW2 2736   3.241   5.877   5.807
  613SOL     OW 2737   4.759   0.821   5.393
  613SOL    HW1 2738   4.838   0.761   5.405
  613SOL    HW2 2739   4.698   0.813   5.472
  614SOL     OW 2740   5.911   4.852   1.005
  614SOL    HW1 2741   6.010   4.841   0.989
  614SOL    HW2 2742   5.892   4.945   1.033
  615SOL     OW 2743   1.089   0.672   6.753
  615SOL    HW1 2744   0.989   0.670   6.745
  615SOL    HW2 2745   1.119   0.765   6.775
  616SOL     OW 2746   5.970   1.790   3.732
  616SOL    HW1 2747   6.017   1.707   3.700
  616SOL    HW2 2748   6.033   1.844   3.788
  617SOL     OW 2749   0.413   4.232   6.776
  617SOL    HW1 2750   0.453   4.140   6.784
  617SOL    HW2 2751   0.345   4.232   6.703
  618SOL     OW 2752   5.811   3.506   1.118
  618SOL    HW1 2753   5.734   3.569   1.110
  618SOL    HW2 2754   5.890   3.555   1.155
  619SOL     OW 2755   3.489   6.783   6.812
  619SOL    HW1 2756   3.572   6.816   6.768
  619SOL    HW2 2757   3.441   6.719   6.751
  620SOL     OW 2758   5.560   3.274   1.357
  620SOL    HW1 2759   5.616   3.271   1.439
  620SOL    HW2 2760   5.479   3.330   1.373
  621SOL     OW 2761   2.701   0.217   4.886
  621SOL    HW1 2762   2.780   0.233   4.945
  621SOL    HW2 2763   2.645   0.300   4.881
  622SOL     OW 2764   0.803   2.413   5.115
  622SOL    HW1 2765   0.749   2.457   5.187
  622SOL    HW2 2766   0.758   2.327   5.088
  623SOL     OW 2767   6.605   6.958   5.347
  623SOL    HW1 2768   6.660   7.009   5.281
  623SOL    HW2 2769   6.508   6.981   5.334
  624SOL     OW 2770   6.745   1.360   6.656
  624SOL    HW1 2771   6.837   1.387   6.630
  624SOL    HW2 2772   6.745   1.329   6.752
  625SOL     OW 2773   1.692   0.886   0.038
  625SOL    HW1 2774   1.689   0.899   0.137
  625SOL    HW2 2775   1.714   0.973   7.018
  626SOL     OW 2776   0.935   5.528   2.614
  626SOL    HW1 2777   0.979   5.601   2.666
  626SOL    HW2 2778   0.996   5.495   2.542
  627SOL     OW 2779   6.660   6.254   0.257
  627SOL    HW1 2780   6.635   6.349   0.274
  627SOL    HW2 2781   6.600   6.215   0.187
  628SOL     OW 2782   5.576   4.008   4.852
  628SOL    HW1 2783   5.524   3.924   4.868
  628SOL    HW2 2784   5.581   4.026   4.754
  629SOL     OW 2785   0.158   1.287   0.288
  629SOL    HW1 2786   0.078   1.228   0.297
  629SOL    HW2 2787   0.144   1.350   0.211
  630SOL     OW 2788   6.597   1.448   0.518
  630SOL    HW1 2789   6.581   1.402   0.431
  630SOL    HW2 2790   6.511   1.483   0.554
  631SOL     OW 2791   3.130   1.829   4.460
  631SOL    HW1 2792   3.202   1.804   4.395
  631SOL    HW2 2793   3.047   1.854   4.410
  632SOL     OW 2794   4.500   2.710   0.261
  632SOL    HW1 2795   4.566   2.636   0.252
  632SOL    HW2 2796   4.539   2.783   0.317
  633SOL     OW 2797   2.365   5.011   0.968
  633SOL    HW1 2798   2.270   4.981   0.971
  633SOL    HW2 2799   2.404   4.990   0.878
  634SOL     OW 2800   3.361   3.409   3.501
  634SOL    HW1 2801   3.455   3.425   3.530
  634SOL    HW2 2802   3.352   3.433   3.404
  635SOL     OW 2803   4.653   0.071   6.849
  635SOL    HW1 2804   4.626   0.086   6.944
  635SOL    HW2 2805   4.669   0.160   6.805
  636SOL     OW 2806   3.525   0.327   5.005
  636SOL    HW1 2807   3.524   0.417   5.048
  636SOL    HW2 2808   3.441   0.314   4.953
  637SOL     OW 2809   6.142   1.690   2.662
  637SOL    HW1 2810   6.110   1.774   2.706
  637SOL    HW2 2811   6.067   1.648   2.612
  638SOL     OW 2812   5.788   3.284   3.895
  638SOL    HW1 2813   5.852   3.274   3.971
  638SOL    HW2 2814   5.725   3.360   3.914
  639SOL     OW 2815   5.513   4.603   3.216
  639SOL    HW1 2816   5.544   4.508   3.214
  639SOL    HW2 2817   5.422   4.609   3.176
  640SOL     OW 2818   0.234   3.669   3.507
  640SOL    HW1 2819   0.147   3.718   3.519
  640SOL    HW2 2820   0.262   3.675   3.411
  641SOL     OW 2821   1.351   4.840   5.470
  641SOL    HW1 2822   1.376   4.769   5.536
  641SOL    HW2 2823   1.406   4.922   5.486
  642SOL     OW 2824   1.452   3.450   4.724
  642SOL    HW1 2825   1.548   3.464   4.700
  642SOL    HW2 2826   1.401   3.425   4.641
  643SOL     OW 2827   6.661   6.782   6.909
  643SOL    HW1 2828   6.681   6.855   6.843
  643SOL    HW2 2829   6.669   6.693   6.863
  644SOL     OW 2830   0.906   0.705   4.294
  644SOL    HW1 2831   0.942   0.719   4.202
  644SOL    HW2 2832   0.876   0.792   4.333
  645SOL     OW 2833   3.456   4.952   2.928
  645SOL    HW1 2834   3.451   4.929   3.025
  645SOL    HW2 2835   3.372   4.923   2.882
  646SOL     OW 2836   4.010   0.800   4.530
  646SOL    HW1 2837   4.046   0.850   4.452
  646SOL    HW2 2838   3.974   0.865   4.598
  647SOL     OW 2839   5.091   1.863   5.085
  647SOL    HW1 2840   5.013   1.901   5.133
  647SOL    HW2 2841   5.066   1.844   4.990
  648SOL     OW 2842   6.697   2.940   3.098
  648SOL    HW1 2843   6.727   2.932   3.003
  648SOL    HW2 2844   6.625   2.873   3.116
  649SOL     OW 2845   2.040   4.712   6.912
  649SOL    HW1 2846   2.131   4.739   6.944
  649SOL    HW2 2847   1.979   4.700   6.991
  650SOL     OW 2848   6.846   5.518   0.390
  650SOL    HW1 2849   6.844   5.615   0.413
  650SOL    HW2 2850   6.941   5.485   0.392
  651SOL     OW 2851   2.147   0.361   5.913
  651SOL    HW1 2852   2.140   0.266   5.944
  651SOL    HW2 2853   2.164   0.420   5.992
  652SOL     OW 2854   4.169   6.627   1.803
  652SOL    HW1 2855   4.225   6.602   1.724
  652SOL    HW2 2856   4.154   6.726   1.803
  653SOL     OW 2857   0.782   6.768   0.294
  653SOL    HW1 2858   0.830   6.748   0.380
  653SOL    HW2 2859   0.684   6.780   0.312
  654SOL     OW 2860   0.015   6.540   6.243
  654SOL    HW1 2861   6.971   6.564   6.174
  654SOL    HW2 2862   0.023   6.440   6.248
  655SOL     OW 2863   0.196   5.460   1.936
  655SOL    HW1 2864   0.131   5.390   1.964
  655SOL    HW2 2865   0.237   5.503   2.016
  656SOL     OW 2866   2.442   6.278   0.784
  656SOL    HW1 2867   2.347   6.246   0.785
  656SOL    HW2 2868   2.495   6.228   0.852
  657SOL     OW 2869   2.914   3.540   1.366
  657SOL    HW1 2870   2.824   3.568   1.401
  657SOL    HW2 2871   2.981   3.612   1.386
  658SOL     OW 2872   1.641   4.294   5.118
  658SOL    HW1 2873   1.603   4.386   5.120
  658SOL    HW2 2874   1.673   4.269   5.210
  659SOL     OW 2875   3.075   5.580   4.875
  659SOL    HW1 2876   3.092   5.495   4.824
  659SOL    HW2 2877   3.125   5.578   4.962
  660SOL     OW 2878   4.947   5.326   2.110
  660SOL    HW1 2879   4.918   5.369   2.196
  660SOL    HW2 2880   5.034   5.366   2.081
  661SOL     OW 2881   4.951   4.385   4.709
  661SOL    HW1 2882   5.050   4.379   4.695
  661SOL    HW2 2883   4.930   4.465   4.765
  662SOL     OW 2884   4.207   2.183   6.583
  662SOL    HW1 2885   4.289   2.147   6.539
  662SOL    HW2 2886   4.187   2.129   6.665
  663SOL     OW 2887   0.375   4.876   6.884
  663SOL    HW1 2888   0.377   4.968   6.923
  663SOL    HW2 2889   0.457   4.826   6.911
  664SOL     OW 2890   1.754   5.396   6.916
  664SOL    HW1 2891   1.775   5.333   6.842
  664SOL    HW2 2892   1.780   5.489   6.890
  665SOL     OW 2893   4.488   5.670   1.336
  665SOL    HW1 2894   4.542   5.738   1.384
  665SOL    HW2 2895   4.545   5.624   1.268
  666SOL     OW 2896   3.514   1.707   0.657
  666SOL    HW1 2897   3.459   1.684   0.577
  666SOL    HW2 2898   3.604   1.665   0.649
  667SOL     OW 2899   0.533   2.787   3.993
  667SOL    HW1 2900   0.593   2.707   3.991
  667SOL    HW2 2901   0.475   2.782   4.075
  668SOL     OW 2902   4.371   5.622   6.795
  668SOL    HW1 2903   4.419   5.594   6.878
  668SOL    HW2 2904   4.287   5.669   6.819
  669SOL     OW 2905   1.526   6.760   3.291
  669SOL    HW1 2906   1.503   6.820   3.214
  669SOL    HW2 2907   1.574   6.679   3.257
  670SOL     OW 2908   3.046   3.917   2.778
  670SOL    HW1 2909   3.048   3.912   2.678
  670SOL    HW2 2910   2.957   3.886   2.811
  671SOL     OW 2911   2.219   6.080   5.971
  671SOL    HW1 2912   2.248   6.077   5.875
  671SOL    HW2 2913   2.292   6.046   6.029
  672SOL     OW 2914   1.482   3.358   3.777
  672SOL    HW1 2915   1.383   3.362   3.764
  672SOL    HW2 2916   1.527   3.421   3.714
  673SOL     OW 2917   4.512   6.824   6.960
  673SOL    HW1 2918   4.443   6.882   6.918
  673SOL    HW2 2919   4.565   6.778   6.889
  674SOL     OW 2920   0.080   2.937   4.156
  674SOL    HW1 2921   0.129   3.024   4.169
  674SOL    HW2 2922   0.129   2.882   4.089
  675SOL     OW 2923   0.883   2.117   5.157
  675SOL    HW1 2924   0.800   2.144   5.107
  675SOL    HW2 2925   0.959   2.108   5.092
  676SOL     OW 2926   3.396   4.942   4.138
  676SOL    HW1 2927   3.374   5.033   4.104
  676SOL    HW2 2928   3.352   4.927   4.227
  677SOL     OW 2929   5.919   0.695   0.486
  677SOL    HW1 2930   5.850   0.762   0.459
  677SOL    HW2 2931   5.882   0.603   0.476
  678SOL     OW 2932   2.458   1.388   5.273
  678SOL    HW1 2933   2.423   1.482   5.276
  678SOL    HW2 2934   2.535   1.380   5.337
  679SOL     OW 2935   4.189   1.386   4.472
  679SOL    HW1 2936   4.096   1.413   4.446
  679SOL    HW2 2937   4.205   1.291   4.446
  680SOL     OW 2938   5.794   4.656   5.787
  680SOL    HW1 2939   5.893   4.670   5.798
  680SOL    HW2 2940   5.772   4.560   5.804
  681SOL     OW 2941   6.540   6.872   1.140
  681SOL    HW1 2942   6.639   6.866   1.126
  681SOL    HW2 2943   6.493   6.865   1.052
  682SOL     OW 2944   2.436   6.739   6.252
  682SOL    HW1 2945   2.437   6.838   6.263
  682SOL    HW2 2946   2.413   6.716   6.157
  683SOL     OW 2947   3.515   0.403   5.917
  683SOL    HW1 2948   3.554   0.493   5.897
  683SOL    HW2 2949   3.495   0.356   5.832
  684SOL     OW 2950   6.430   1.588   6.224
  684SOL    HW1 2951   6.447   1.640   6.308
  684SOL    HW2 2952   6.516   1.549   6.191
  685SOL     OW 2953   4.899   0.555   5.445
  685SOL    HW1 2954   4.936   0.476   5.396
  685SOL    HW2 2955   4.832   0.525   5.513
  686SOL     OW 2956   6.075   3.186   3.594
  686SOL    HW1 2957   6.157   3.149   3.638
  686SOL    HW2 2958   6.093   3.201   3.497
  687SOL     OW 2959   6.868   3.285   6.505
  687SOL    HW1 2960   6.828   3.206   6.552
  687SOL    HW2 2961   6.960   3.301   6.541
  688SOL     OW 2962   2.136   3.485   0.165
  688SOL    HW1 2963   2.091   3.442   0.087
  688SOL    HW2 2964   2.235   3.481   0.154
  689SOL     OW 2965   0.985   4.321   5.771
  689SOL    HW1 2966   0.912   4.337   5.705
  689SOL    HW2 2967   1.021   4.408   5.803
  690SOL     OW 2968   0.899   3.119   3.101
  690SOL    HW1 2969   0.972   3.115   3.169
  690SOL    HW2 2970   0.924   3.063   3.022
  691SOL     OW 2971   2.025   1.989   6.601
  691SOL    HW1 2972   2.076   1.911   6.638
  691SOL    HW2 2973   2.084   2.069   6.599
  692SOL     OW 2974   2.971   0.059   3.630
  692SOL    HW1 2975   3.005   0.028   3.542
  692SOL    HW2 2976   2.872   0.041   3.636
  693SOL     OW 2977   6.693   1.463   3.743
  693SOL    HW1 2978   6.695   1.508   3.654
  693SOL    HW2 2979   6.752   1.383   3.741
  694SOL     OW 2980   3.562   5.660   2.018
  694SOL    HW1 2981   3.482   5.698   1.971
  694SOL    HW2 2982   3.559   5.686   2.114
  695SOL     OW 2983   4.702   5.150   4.954
  695SOL    HW1 2984   4.639   5.078   4.926
  695SOL    HW2 2985   4.742   5.194   4.873
  696SOL     OW 2986   2.987   5.246   2.266
  696SOL    HW1 2987   3.065   5.216   2.321
  696SOL    HW2 2988   2.989   5.345   2.256
  697SOL     OW 2989   1.016   3.298   6.149
  697SOL    HW1 2990   0.969   3.358   6.214
  697SOL    HW2 2991   1.022   3.206   6.188
  698SOL     OW 2992   5.849   6.999   4.646
  698SOL    HW1 2993   5.845   6.903   4.620
  698SOL    HW2 2994   5.758   0.016   4.633
  699SOL     OW 2995   1.228   4.476   0.330
  699SOL    HW1 2996   1.231   4.399   0.394
  699SOL    HW2 2997   1.149   4.466   0.270
  700SOL     OW 2998   2.844   2.133   3.424
  700SOL    HW1 2999   2.799   2.088   3.502
  700SOL    HW2 3000   2.927   2.083   3.401
  701SOL     OW 3001   1.229   4.866   6.665
  701SOL    HW1 3002   1.324   4.876   6.695
  701SOL    HW2 3003   1.199   4.950   6.620
  702SOL     OW 3004   5.915   6.130   6.286
  702SOL    HW1 3005   6.004   6.166   6.257
  702SOL    HW2 3006   5.845   6.201   6.276
  703SOL     OW 3007   4.196   3.223   0.133
  703SOL    HW1 3008   4.200   3.128   0.104
  703SOL    HW2 3009   4.288   3.262   0.133
  704SOL     OW 3010   1.530   0.951   6.156
  704SOL    HW1 3011   1.583   0.924   6.237
  704SOL    HW2 3012   1.442   0.988   6.184
  705SOL     OW 3013   4.853   6.923   3.602
  705SOL    HW1 3014   4.812   6.929   3.510
  705SOL    HW2 3015   4.877   7.015   3.634
  706SOL     OW 3016   4.474   1.546   3.637
  706SOL    HW1 3017   4.517   1.477   3.695
  706SOL    HW2 3018   4.475   1.515   3.542
  707SOL     OW 3019   4.510   7.008   2.099
  707SOL    HW1 3020   4.493   6.997   2.197
  707SOL    HW2 3021   4.606   6.987   2.080
  708SOL     OW 3022   4.566   0.022   1.265
  708SOL    HW1 3023   4.663   0.032   1.241
  708SOL    HW2 3024   4.513   7.023   1.183
  709SOL     OW 3025   1.453   5.299   1.086
  709SOL    HW1 3026   1.421   5.211   1.050
  709SOL    HW2 3027   1.374   5.353   1.116
  710SOL     OW 3028   3.710   3.967   2.986
  710SOL    HW1 3029   3.794   3.973   2.933
  710SOL    HW2 3030   3.715   3.889   3.048
  711SOL     OW 3031   0.578   2.285   6.037
  711SOL    HW1 3032   0.620   2.200   6.004
  711SOL    HW2 3033   0.486   2.267   6.072
  712SOL     OW 3034   1.766   4.360   1.048
  712SOL    HW1 3035   1.713   4.283   1.085
  712SOL    HW2 3036   1.824   4.398   1.120
  713SOL     OW 3037   3.404   4.292   0.981
  713SOL    HW1 3038   3.413   4.386   0.948
  713SOL    HW2 3039   3.431   4.288   1.077
  714SOL     OW 3040   6.047   4.183   5.122
  714SOL    HW1 3041   5.982   4.143   5.057
  714SOL    HW2 3042   6.100   4.255   5.077
  715SOL     OW 3043   5.009   5.978   0.051
  715SOL    HW1 3044   5.077   5.908   0.028
  715SOL    HW2 3045   5.056   6.061   0.081
  716SOL     OW 3046   0.990   5.453   1.333
  716SOL    HW1 3047   0.909   5.510   1.318
  716SOL    HW2 3048   0.965   5.357   1.325
  717SOL     OW 3049   6.234   4.786   6.596
  717SOL    HW1 3050   6.280   4.697   6.601
  717SOL    HW2 3051   6.170   4.785   6.519
  718SOL     OW 3052   3.648   2.149   6.246
  718SOL    HW1 3053   3.616   2.075   6.305
  718SOL    HW2 3054   3.668   2.113   6.155
  719SOL     OW 3055   6.399   2.248   1.966
  719SOL    HW1 3056   6.433   2.279   1.877
  719SOL    HW2 3057   6.475   2.215   2.021
  720SOL     OW 3058   2.640   1.706   5.591
  720SOL    HW1 3059   2.557   1.656   5.615
  720SOL    HW2 3060   2.618   1.802   5.572
  721SOL     OW 3061   1.624   0.942   4.648
  721SOL    HW1 3062   1.590   0.886   4.572
  721SOL    HW2 3063   1.587   0.908   4.734
  722SOL     OW 3064   4.294   6.589   4.950
  722SOL    HW1 3065   4.379   6.606   4.901
  722SOL    HW2 3066   4.293   6.640   5.036
  723SOL     OW 3067   2.128   3.051   1.888
  723SOL    HW1 3068   2.181   3.113   1.831
  723SOL    HW2 3069   2.090   3.102   1.966
  724SOL     OW 3070   1.556   1.534   5.097
  724SOL    HW1 3071   1.530   1.533   5.000
  724SOL    HW2 3072   1.473   1.536   5.153
  725SOL     OW 3073   2.444   4.906   2.044
  725SOL    HW1 3074   2.454   4.969   1.967
  725SOL    HW2 3075   2.480   4.949   2.127
  726SOL     OW 3076   4.090   4.610   0.347
  726SOL    HW1 3077   4.116   4.526   0.300
  726SOL    HW2 3078   4.149   4.624   0.426
  727SOL     OW 3079   4.049   6.228   4.066
  727SOL    HW1 3080   4.143   6.260   4.068
  727SOL    HW2 3081   3.993   6.294   4.016
  728SOL     OW 3082   0.067   4.323   5.102
  728SOL    HW1 3083   0.076   4.251   5.170
  728SOL    HW2 3084   0.116   4.296   5.019
  729SOL     OW 3085   2.424   0.424   0.442
  729SOL    HW1 3086   2.441   0.370   0.360
  729SOL    HW2 3087   2.338   0.474   0.431
  730SOL     OW 3088   5.676   0.177   3.519
  730SOL    HW1 3089   5.606   0.155   3.450
  730SOL    HW2 3090   5.765   0.182   3.474
  731SOL     OW 3091   5.524   3.174   6.082
  731SOL    HW1 3092   5.486   3.265   6.098
  731SOL    HW2 3093   5.478   3.108   6.140
  732SOL     OW 3094   0.477   3.752   0.858
  732SOL    HW1 3095   0.421   3.682   0.902
  732SOL    HW2 3096   0.507   3.719   0.768
  733SOL     OW 3097   5.719   4.222   4.521
  733SOL    HW1 3098   5.687   4.305   4.475
  733SOL    HW2 3099   5.642   4.176   4.565
  734SOL     OW 3100   6.783   4.816   2.497
  734SOL    HW1 3101   6.719   4.839   2.570
  734SOL    HW2 3102   6.824   4.726   2.516
  735SOL     OW 3103   3.070   2.788   0.917
  735SOL    HW1 3104   3.070   2.746   1.008
  735SOL    HW2 3105   2.981   2.829   0.900
  736SOL     OW 3106   0.076   6.774   2.833
  736SOL    HW1 3107   0.169   6.808   2.822
  736SOL    HW2 3108   0.058   6.759   2.930
  737SOL     OW 3109   4.873   3.331   1.206
  737SOL    HW1 3110   4.849   3.421   1.241
  737SOL    HW2 3111   4.830   3.260   1.262
  738SOL     OW 3112   1.596   4.750   4.117
  738SOL    HW1 3113   1.680   4.759   4.064
  738SOL    HW2 3114   1.549   4.665   4.092
  739SOL     OW 3115   5.081   6.104   5.864
  739SOL    HW1 3116   5.080   6.165   5.943
  739SOL    HW2 3117   5.099   6.156   5.781
  740SOL     OW 3118   5.562   0.458   0.899
  740SOL    HW1 3119   5.636   0.522   0.920
  740SOL    HW2 3120   5.541   0.404   0.981
  741SOL     OW 3121   1.863   6.257   3.561
  741SOL    HW1 3122   1.805   6.302   3.494
  741SOL    HW2 3123   1.806   6.202   3.623
  742SOL     OW 3124   2.251   0.176   2.330
  742SOL    HW1 3125   2.346   0.207   2.334
  742SOL    HW2 3126   2.248   0.081   2.300
  743SOL     OW 3127   1.816   4.256   4.372
  743SOL    HW1 3128   1.902   4.280   4.417
  743SOL    HW2 3129   1.742   4.312   4.409
  744SOL     OW 3130   6.827   6.979   6.334
  744SOL    HW1 3131   6.851   0.043   6.292
  744SOL    HW2 3132   6.909   6.924   6.343
  745SOL     OW 3133   0.964   6.350   3.982
  745SOL    HW1 3134   1.001   6.312   3.897
  745SOL    HW2 3135   0.870   6.317   3.995
  746SOL     OW 3136   0.288   6.726   4.952
  746SOL    HW1 3137   0.291   6.759   4.857
  746SOL    HW2 3138   0.193   6.721   4.982
  747SOL     OW 3139   4.265   5.121   4.152
  747SOL    HW1 3140   4.300   5.113   4.245
  747SOL    HW2 3141   4.328   5.074   4.089
  748SOL     OW 3142   4.371   5.102   2.476
  748SOL    HW1 3143   4.417   5.161   2.409
  748SOL    HW2 3144   4.365   5.009   2.439
  749SOL     OW 3145   0.017   3.122   4.870
  749SOL    HW1 3146   6.978   3.062   4.918
  749SOL    HW2 3147   0.020   3.211   4.915
  750SOL     OW 3148   1.967   2.950   0.484
  750SOL    HW1 3149   1.886   2.984   0.437
  750SOL    HW2 3150   1.952   2.953   0.583
  751SOL     OW 3151   3.903   1.902   6.296
  751SOL    HW1 3152   3.897   1.803   6.286
  751SOL    HW2 3153   3.817   1.936   6.335
  752SOL     OW 3154   4.396   2.379   2.034
  752SOL    HW1 3155   4.376   2.372   1.936
  752SOL    HW2 3156   4.470   2.445   2.048
  753SOL     OW 3157   2.184   3.354   4.204
  753SOL    HW1 3158   2.262   3.405   4.167
  753SOL    HW2 3159   2.182   3.263   4.163
  754SOL     OW 3160   5.871   3.519   6.667
  754SOL    HW1 3161   5.786   3.478   6.701
  754SOL    HW2 3162   5.852   3.569   6.583
  755SOL     OW 3163   1.398   5.807   0.076
  755SOL    HW1 3164   1.298   5.807   0.079
  755SOL    HW2 3165   1.432   5.714   0.064
  756SOL     OW 3166   4.697   6.745   1.111
  756SOL    HW1 3167   4.646   6.785   1.034
  756SOL    HW2 3168   4.793   6.736   1.086
  757SOL     OW 3169   0.956   6.070   3.325
  757SOL    HW1 3170   0.866   6.088   3.286
  757SOL    HW2 3171   0.949   6.059   3.424
  758SOL     OW 3172   4.049   1.256   1.302
  758SOL    HW1 3173   3.949   1.255   1.291
  758SOL    HW2 3174   4.081   1.163   1.321
  759SOL     OW 3175   6.820   1.274   0.492
  759SOL    HW1 3176   6.882   1.312   0.560
  759SOL    HW2 3177   6.732   1.320   0.498
  760SOL     OW 3178   4.208   1.479   6.576
  760SOL    HW1 3179   4.277   1.493   6.505
  760SOL    HW2 3180   4.229   1.535   6.656
  761SOL     OW 3181   4.929   3.474   6.877
  761SOL    HW1 3182   4.840   3.491   6.919
  761SOL    HW2 3183   4.919   3.472   6.778
  762SOL     OW 3184   2.018   6.172   3.310
  762SOL    HW1 3185   1.948   6.195   3.379
  762SOL    HW2 3186   1.995   6.217   3.224
  763SOL     OW 3187   4.149   5.752   6.720
  763SOL    HW1 3188   4.167   5.813   6.642
  763SOL    HW2 3189   4.053   5.760   6.746
  764SOL     OW 3190   4.433   7.001   4.185
  764SOL    HW1 3191   4.531   7.013   4.205
  764SOL    HW2 3192   4.414   0.009   4.092
  765SOL     OW 3193   1.619   6.326   1.338
  765SOL    HW1 3194   1.538   6.268   1.336
  765SOL    HW2 3195   1.687   6.285   1.399
  766SOL     OW 3196   0.172   1.846   6.984
  766SOL    HW1 3197   0.212   1.759   6.957
  766SOL    HW2 3198   0.199   1.866   0.054
  767SOL     OW 3199   0.923   6.304   2.106
  767SOL    HW1 3200   0.958   6.384   2.056
  767SOL    HW2 3201   0.998   6.258   2.153
  768SOL     OW 3202   1.965   0.790   2.716
  768SOL    HW1 3203   2.036   0.808   2.783
  768SOL    HW2 3204   1.940   0.693   2.719
  769SOL     OW 3205   2.973   6.737   3.984
  769SOL    HW1 3206   3.047   6.777   3.929
  769SOL    HW2 3207   3.011   6.674   4.050
  770SOL     OW 3208   2.116   4.369   3.010
  770SOL    HW1 3209   2.208   4.332   3.025
  770SOL    HW2 3210   2.052   4.326   3.073
  771SOL     OW 3211   1.976   5.391   2.362
  771SOL    HW1 3212   1.974   5.447   2.279
  771SOL    HW2 3213   1.977   5.294   2.337
  772SOL     OW 3214   6.630   5.291   0.715
  772SOL    HW1 3215   6.717   5.339   0.712
  772SOL    HW2 3216   6.556   5.355   0.737
  773SOL     OW 3217   0.529   3.448   3.815
  773SOL    HW1 3218   0.628   3.438   3.820
  773SOL    HW2 3219   0.489   3.367   3.772
  774SOL     OW 3220   0.903   1.716   2.052
  774SOL    HW1 3221   0.820   1.770   2.036
  774SOL    HW2 3222   0.980   1.778   2.067
  775SOL     OW 3223   1.340   2.152   3.725
  775SOL    HW1 3224   1.303   2.203   3.803
  775SOL    HW2 3225   1.403   2.211   3.674
  776SOL     OW 3226   6.694   1.110   6.480
  776SOL    HW1 3227   6.736   1.065   6.559
  776SOL    HW2 3228   6.690   1.208   6.496
  777SOL     OW 3229   3.431   6.992   1.353
  777SOL    HW1 3230   3.382   7.010   1.268
  777SOL    HW2 3231   3.396   6.909   1.396
  778SOL     OW 3232   3.595   1.361   3.560
  778SOL    HW1 3233   3.687   1.326   3.575
  778SOL    HW2 3234   3.596   1.461   3.564
  779SOL     OW 3235   0.612   1.927   2.847
  779SOL    HW1 3236   0.651   1.960   2.762
  779SOL    HW2 3237   0.611   1.827   2.847
  780SOL     OW 3238   6.030   3.464   4.639
  780SOL    HW1 3239   5.976   3.415   4.709
  780SOL    HW2 3240   5.977   3.470   4.555
  781SOL     OW 3241   6.201   1.344   6.170
  781SOL    HW1 3242   6.151   1.398   6.102
  781SOL    HW2 3243   6.273   1.401   6.211
  782SOL     OW 3244   1.345   4.197   0.179
  782SOL    HW1 3245   1.362   4.152   0.267
  782SOL    HW2 3246   1.247   4.212   0.167
  783SOL     OW 3247   4.063   4.372   0.643
  783SOL    HW1 3248   4.024   4.374   0.551
  783SOL    HW2 3249   3.998   4.411   0.708
  784SOL     OW 3250   5.234   7.012   5.613
  784SOL    HW1 3251   5.304   6.959   5.660
  784SOL    HW2 3252   5.170   0.025   5.680
  785SOL     OW 3253   6.484   2.062   3.255
  785SOL    HW1 3254   6.557   2.010   3.299
  785SOL    HW2 3255   6.484   2.044   3.157
  786SOL     OW 3256   0.852   0.397   0.713
  786SOL    HW1 3257   0.832   0.392   0.811
  786SOL    HW2 3258   0.781   0.451   0.668
  787SOL     OW 3259   3.122   1.442   6.060
  787SOL    HW1 3260   3.127   1.391   5.974
  787SOL    HW2 3261   3.104   1.538   6.041
  788SOL     OW 3262   2.378   2.689   4.840
  788SOL    HW1 3263   2.376   2.594   4.868
  788SOL    HW2 3264   2.456   2.735   4.882
  789SOL     OW 3265   6.073   4.341   1.517
  789SOL    HW1 3266   6.153   4.295   1.478
  789SOL    HW2 3267   6.009   4.363   1.443
  790SOL     OW 3268   2.450   1.546   4.026
  790SOL    HW1 3269   2.417   1.454   4.043
  790SOL    HW2 3270   2.395   1.612   4.077
  791SOL     OW 3271   3.549   0.382   3.670
  791SOL    HW1 3272   3.567   0.480   3.673
  791SOL    HW2 3273   3.629   0.332   3.703
  792SOL     OW 3274   6.964   0.416   1.130
  792SOL    HW1 3275   0.014   0.411   1.064
  792SOL    HW2 3276   6.901   0.489   1.103
  793SOL     OW 3277   4.366   6.410   2.300
  793SOL    HW1 3278   4.275   6.375   2.323
  793SOL    HW2 3279   4.358   6.488   2.239
  794SOL     OW 3280   2.211   3.699   5.199
  794SOL    HW1 3281   2.137   3.703   5.266
  794SOL    HW2 3282   2.279   3.769   5.220
  795SOL     OW 3283   2.877   5.153   5.039
  795SOL    HW1 3284   2.783   5.138   5.009
  795SOL    HW2 3285   2.900   5.088   5.111
  796SOL     OW 3286   0.713   2.349   6.572
  796SOL    HW1 3287   0.705   2.380   6.478
  796SOL    HW2 3288   0.805   2.315   6.589
  797SOL     OW 3289   5.371   2.808   2.650
  797SOL    HW1 3290   5.395   2.884   2.709
  797SOL    HW2 3291   5.304   2.839   2.582
  798SOL     OW 3292   4.952   0.279   0.990
  798SOL    HW1 3293   4.946   0.378   0.999
  798SOL    HW2 3294   5.047   0.250   1.006
  799SOL     OW 3295   6.604   0.909   4.030
  799SOL    HW1 3296   6.702   0.899   4.011
  799SOL    HW2 3297   6.586   1.000   4.067
  800SOL     OW 3298   5.707   0.903   2.623
  800SOL    HW1 3299   5.660   0.979   2.668
  800SOL    HW2 3300   5.653   0.873   2.544
  801SOL     OW 3301   1.354   3.762   2.999
  801SOL    HW1 3302   1.396   3.828   3.060
  801SOL    HW2 3303   1.365   3.791   2.904
  802SOL     OW 3304   4.439   1.101   0.431
  802SOL    HW1 3305   4.528   1.146   0.438
  802SOL    HW2 3306   4.380   1.131   0.507
  803SOL     OW 3307   0.066   6.078   5.309
  803SOL    HW1 3308   0.079   5.985   5.344
  803SOL    HW2 3309   0.080   6.144   5.383
  804SOL     OW 3310   6.219   6.491   6.818
  804SOL    HW1 3311   6.173   6.470   6.904
  804SOL    HW2 3312   6.155   6.536   6.756
  805SOL     OW 3313   4.194   2.187   5.932
  805SOL    HW1 3314   4.169   2.130   5.854
  805SOL    HW2 3315   4.137   2.164   6.011
  806SOL     OW 3316   3.879   1.667   4.867
  806SOL    HW1 3317   3.972   1.703   4.859
  806SOL    HW2 3318   3.836   1.665   4.777
  807SOL     OW 3319   0.626   1.889   3.590
  807SOL    HW1 3320   0.591   1.863   3.500
  807SOL    HW2 3321   0.692   1.820   3.621
  808SOL     OW 3322   5.014   3.394   6.607
  808SOL    HW1 3323   5.075   3.430   6.537
  808SOL    HW2 3324   4.960   3.318   6.569
  809SOL     OW 3325   1.209   4.792   1.486
  809SOL    HW1 3326   1.115   4.799   1.521
  809SOL    HW2 3327   1.218   4.707   1.435
  810SOL     OW 3328   4.158   2.749   0.951
  810SOL    HW1 3329   4.249   2.712   0.968
  810SOL    HW2 3330   4.109   2.689   0.888
  811SOL     OW 3331   4.753   5.063   3.434
  811SOL    HW1 3332   4.697   5.109   3.366
  811SOL    HW2 3333   4.806   5.131   3.486
  812SOL     OW 3334   0.205   0.726   1.736
  812SOL    HW1 3335   0.181   0.820   1.760
  812SOL    HW2 3336   0.281   0.726   1.671
  813SOL     OW 3337   3.973   5.163   4.144
  813SOL    HW1 3338   3.919   5.246   4.153
  813SOL    HW2 3339   4.070   5.184   4.160
  814SOL     OW 3340   4.993   6.327   3.579
  814SOL    HW1 3341   5.047   6.390   3.523
  814SOL    HW2 3342   4.901   6.364   3.592
  815SOL     OW 3343   6.485   3.087   2.119
  815SOL    HW1 3344   6.509   3.184   2.120
  815SOL    HW2 3345   6.388   3.075   2.137
  816SOL     OW 3346   0.064   6.815   7.004
  816SOL    HW1 3347   0.022   6.742   6.949
  816SOL    HW2 3348   0.033   6.807   0.074
  817SOL     OW 3349   2.133   3.778   2.275
  817SOL    HW1 3350   2.101   3.872   2.277
  817SOL    HW2 3351   2.167   3.756   2.184
  818SOL     OW 3352   6.633   2.879   1.190
  818SOL    HW1 3353   6.728   2.903   1.212
  818SOL    HW2 3354   6.631   2.822   1.108
  819SOL     OW 3355   6.078   3.033   3.905
  819SOL    HW1 3356   6.148   2.962   3.904
  819SOL    HW2 3357   6.121   3.123   3.894
  820SOL     OW 3358   1.324   3.127   6.094
  820SOL    HW1 3359   1.351   3.062   6.023
  820SOL    HW2 3360   1.312   3.078   6.180
  821SOL     OW 3361   2.646   4.304   0.022
  821SOL    HW1 3362   2.630   4.386   6.991
  821SOL    HW2 3363   2.721   4.321   0.085
  822SOL     OW 3364   1.001   4.947   4.769
  822SOL    HW1 3365   0.983   5.043   4.794
  822SOL    HW2 3366   0.965   4.887   4.840
  823SOL     OW 3367   4.399   4.469   0.332
  823SOL    HW1 3368   4.353   4.393   0.286
  823SOL    HW2 3369   4.468   4.508   0.271
  824SOL     OW 3370   5.167   1.135   5.481
  824SOL    HW1 3371   5.232   1.068   5.444
  824SOL    HW2 3372   5.120   1.181   5.406
  825SOL     OW 3373   2.022   3.317   1.610
  825SOL    HW1 3374   2.109   3.282   1.575
  825SOL    HW2 3375   2.039   3.387   1.678
  826SOL     OW 3376   6.048   4.157   0.798
  826SOL    HW1 3377   5.979   4.127   0.863
  826SOL    HW2 3378   6.012   4.234   0.744
  827SOL     OW 3379   2.937   5.365   5.504
  827SOL    HW1 3380   2.864   5.302   5.475
  827SOL    HW2 3381   2.900   5.429   5.571
  828SOL     OW 3382   6.417   0.443   5.296
  828SOL    HW1 3383   6.432   0.487   5.207
  828SOL    HW2 3384   6.485   0.476   5.361
  829SOL     OW 3385   3.177   3.544   4.691
  829SOL    HW1 3386   3.194   3.631   4.644
  829SOL    HW2 3387   3.079   3.532   4.705
  830SOL     OW 3388   4.894   4.398   6.036
  830SOL    HW1 3389   4.850   4.327   6.091
  830SOL    HW2 3390   4.939   4.356   5.957
  831SOL     OW 3391   6.936   0.260   4.777
  831SOL    HW1 3392   6.908   0.296   4.687
  831SOL    HW2 3393   6.974   0.334   4.832
  832SOL     OW 3394   1.713   1.030   6.738
  832SOL    HW1 3395   1.648   1.072   6.802
  832SOL    HW2 3396   1.799   1.081   6.741
  833SOL     OW 3397   0.477   5.541   6.066
  833SOL    HW1 3398   0.477   5.479   5.987
  833SOL    HW2 3399   0.544   5.613   6.052
  834SOL     OW 3400   3.995   4.070   1.800
  834SOL    HW1 3401   4.021   4.159   1.763
  834SOL    HW2 3402   3.990   4.075   1.900
  835SOL     OW 3403   3.733   6.966   4.425
  835SOL    HW1 3404   3.730   6.895   4.495
  835SOL    HW2 3405   3.802   0.010   4.449
  836SOL     OW 3406   3.104   6.175   6.714
  836SOL    HW1 3407   3.039   6.173   6.791
  836SOL    HW2 3408   3.197   6.161   6.749
  837SOL     OW 3409   5.024   6.976   6.762
  837SOL    HW1 3410   5.037   0.032   6.704
  837SOL    HW2 3411   4.951   6.919   6.724
  838SOL     OW 3412   0.672   0.322   4.838
  838SOL    HW1 3413   0.684   0.263   4.758
  838SOL    HW2 3414   0.672   0.418   4.810
  839SOL     OW 3415   2.881   1.588   2.120
  839SOL    HW1 3416   2.921   1.556   2.034
  839SOL    HW2 3417   2.918   1.533   2.196
  840SOL     OW 3418   6.003   0.846   5.238
  840SOL    HW1 3419   6.048   0.773   5.186
  840SOL    HW2 3420   6.071   0.895   5.292
  841SOL     OW 3421   6.188   4.566   0.369
  841SOL    HW1 3422   6.119   4.537   0.435
  841SOL    HW2 3423   6.261   4.616   0.416
  842SOL     OW 3424   4.179   5.046   3.789
  842SOL    HW1 3425   4.108   4.977   3.800
  842SOL    HW2 3426   4.147   5.134   3.824
  843SOL     OW 3427   5.349   2.044   0.479
  843SOL    HW1 3428   5.352   1.947   0.503
  843SOL    HW2 3429   5.302   2.055   0.391
  844SOL     OW 3430   4.602   6.608   0.865
  844SOL    HW1 3431   4.546   6.613   0.948
  844SOL    HW2 3432   4.542   6.600   0.785
  845SOL     OW 3433   6.237   3.170   4.210
  845SOL    HW1 3434   6.297   3.104   4.165
  845SOL    HW2 3435   6.153   3.125   4.240
  846SOL     OW 3436   5.359   1.315   6.762
  846SOL    HW1 3437   5.424   1.240   6.775
  846SOL    HW2 3438   5.325   1.345   6.851
  847SOL     OW 3439   6.286   3.407   0.875
  847SOL    HW1 3440   6.187   3.415   0.880
  847SOL    HW2 3441   6.317   3.438   0.785
  848SOL     OW 3442   5.611   1.141   6.892
  848SOL    HW1 3443   5.682   1.179   6.831
  848SOL    HW2 3444   5.637   1.159   6.987
  849SOL     OW 3445   0.411   5.665   5.384
  849SOL    HW1 3446   0.379   5.579   5.343
  849SOL    HW2 3447   0.455   5.645   5.472
  850SOL     OW 3448   4.815   0.865   3.600
  850SOL    HW1 3449   4.730   0.846   3.648
  850SOL    HW2 3450   4.864   0.939   3.646
  851SOL     OW 3451   0.034   1.257   0.746
  851SOL    HW1 3452   0.084   1.171   0.758
  851SOL    HW2 3453   6.961   1.241   0.757
  852SOL     OW 3454   2.610   2.454   0.057
  852SOL    HW1 3455   2.525   2.414   0.021
  852SOL    HW2 3456   2.654   2.388   0.118
  853SOL     OW 3457   0.863   3.491   3.667
  853SOL    HW1 3458   0.918   3.557   3.616
  853SOL    HW2 3459   0.913   3.463   3.749
  854SOL     OW 3460   5.265   6.232   2.286
  854SOL    HW1 3461   5.239   6.328   2.297
  854SOL    HW2 3462   5.332   6.207   2.357
  855SOL     OW 3463   6.022   6.918   0.959
  855SOL    HW1 3464   5.940   6.862   0.967
  855SOL    HW2 3465   6.001   7.011   0.991
  856SOL     OW 3466   2.087   0.770   5.204
  856SOL    HW1 3467   1.990   0.747   5.211
  856SOL    HW2 3468   2.110   0.837   5.275
  857SOL     OW 3469   5.920   5.441   1.271
  857SOL    HW1 3470   5.962   5.360   1.229
  857SOL    HW2 3471   5.821   5.434   1.265
  858SOL     OW 3472   2.573   4.654   2.121
  858SOL    HW1 3473   2.549   4.747   2.091
  858SOL    HW2 3474   2.666   4.632   2.092
  859SOL     OW 3475   5.780   5.443   6.467
  859SOL    HW1 3476   5.819   5.364   6.512
  859SOL    HW2 3477   5.844   5.520   6.473
  860SOL     OW 3478   4.846   4.176   0.446
  860SOL    HW1 3479   4.841   4.116   0.526
  860SOL    HW2 3480   4.913   4.248   0.462
  861SOL     OW 3481   2.084   6.993   4.617
  861SOL    HW1 3482   2.178   7.007   4.648
  861SOL    HW2 3483   2.021   0.013   4.680
  862SOL     OW 3484   6.084   3.846   5.148
  862SOL    HW1 3485   6.108   3.869   5.054
  862SOL    HW2 3486   6.162   3.804   5.193
  863SOL     OW 3487   1.102   6.947   0.465
  863SOL    HW1 3488   1.164   7.023   0.484
  863SOL    HW2 3489   1.144   6.886   0.398
  864SOL     OW 3490   5.382   4.350   3.619
  864SOL    HW1 3491   5.296   4.325   3.663
  864SOL    HW2 3492   5.398   4.448   3.629
  865SOL     OW 3493   0.485   0.059   4.791
  865SOL    HW1 3494   0.510   0.039   4.886
  865SOL    HW2 3495   0.513   0.153   4.769
  866SOL     OW 3496   2.139   1.582   2.015
  866SOL    HW1 3497   2.092   1.534   2.089
  866SOL    HW2 3498   2.114   1.679   2.017
  867SOL     OW 3499   3.444   2.521   1.051
  867SOL    HW1 3500   3.412   2.584   1.122
  867SOL    HW2 3501   3.535   2.488   1.074
  868SOL     OW 3502   6.108   6.474   1.537
  868SOL    HW1 3503   6.206   6.459   1.523
  868SOL    HW2 3504   6.085   6.567   1.511
  869SOL     OW 3505   6.222   5.287   3.115
  869SOL    HW1 3506   6.129   5.297   3.151
  869SOL    HW2 3507   6.287   5.287   3.191
  870SOL     OW 3508   6.108   4.044   1.628
  870SOL    HW1 3509   6.186   4.094   1.668
  870SOL    HW2 3510   6.084   4.085   1.541
  871SOL     OW 3511   0.286   3.291   1.716
  871SOL    HW1 3512   0.343   3.355   1.665
  871SOL    HW2 3513   0.199   3.279   1.668
  872SOL     OW 3514   6.471   3.407   4.391
  872SOL    HW1 3515   6.557   3.356   4.399
  872SOL    HW2 3516   6.457   3.435   4.296
  873SOL     OW 3517   4.392   0.744   2.835
  873SOL    HW1 3518   4.444   0.698   2.763
  873SOL    HW2 3519   4.456   0.793   2.895
  874SOL     OW 3520   1.363   4.399   5.378
  874SOL    HW1 3521   1.361   4.416   5.477
  874SOL    HW2 3522   1.313   4.315   5.358
  875SOL     OW 3523   5.123   4.454   0.957
  875SOL    HW1 3524   5.145   4.526   1.022
  875SOL    HW2 3525   5.039   4.478   0.908
  876SOL     OW 3526   6.510   4.342   3.481
  876SOL    HW1 3527   6.511   4.301   3.390
  876SOL    HW2 3528   6.602   4.338   3.520
  877SOL     OW 3529   4.625   4.860   0.123
  877SOL    HW1 3530   4.704   4.911   0.088
  877SOL    HW2 3531   4.639   4.841   0.220
  878SOL     OW 3532   3.752   5.245   0.049
  878SOL    HW1 3533   3.708   5.245   6.984
  878SOL    HW2 3534   3.716   5.320   0.105
  879SOL     OW 3535   4.272   1.626   2.203
  879SOL    HW1 3536   4.174   1.625   2.222
  879SOL    HW2 3537   4.322   1.607   2.288
  880SOL     OW 3538   3.194   4.234   0.015
  880SOL    HW1 3539   3.138   4.290   6.978
  880SOL    HW2 3540   3.168   4.253   0.109
  881SOL     OW 3541   4.414   4.925   5.077
  881SOL    HW1 3542   4.350   4.860   5.118
  881SOL    HW2 3543   4.365   4.989   5.018
  882SOL     OW 3544   1.926   1.676   4.114
  882SOL    HW1 3545   1.908   1.747   4.182
  882SOL    HW2 3546   1.901   1.710   4.023
  883SOL     OW 3547   4.337   4.809   5.439
  883SOL    HW1 3548   4.271   4.881   5.459
  883SOL    HW2 3549   4.318   4.771   5.349
  884SOL     OW 3550   6.758   3.478   2.060
  884SOL    HW1 3551   6.757   3.380   2.040
  884SOL    HW2 3552   6.846   3.517   2.033
  885SOL     OW 3553   5.768   6.547   0.214
  885SOL    HW1 3554   5.792   6.608   0.138
  885SOL    HW2 3555   5.817   6.460   0.203
  886SOL     OW 3556   4.100   1.183   0.308
  886SOL    HW1 3557   4.143   1.233   0.384
  886SOL    HW2 3558   4.021   1.234   0.276
  887SOL     OW 3559   4.322   6.475   6.087
  887SOL    HW1 3560   4.354   6.482   6.182
  887SOL    HW2 3561   4.249   6.542   6.072
  888SOL     OW 3562   6.864   6.474   3.623
  888SOL    HW1 3563   6.953   6.432   3.637
  888SOL    HW2 3564   6.849   6.491   3.526
  889SOL     OW 3565   0.410   6.816   5.978
  889SOL    HW1 3566   0.386   6.912   5.964
  889SOL    HW2 3567   0.331   6.766   6.014
  890SOL     OW 3568   2.933   4.839   2.119
  890SOL    HW1 3569   2.872   4.916   2.101
  890SOL    HW2 3570   2.889   4.753   2.091
  891SOL     OW 3571   5.728   3.541   1.469
  891SOL    HW1 3572   5.784   3.608   1.517
  891SOL    HW2 3573   5.786   3.465   1.439
  892SOL     OW 3574   3.778   3.798   0.218
  892SOL    HW1 3575   3.743   3.773   0.308
  892SOL    HW2 3576   3.713   3.766   0.148
  893SOL     OW 3577   1.609   0.497   0.721
  893SOL    HW1 3578   1.601   0.591   0.689
  893SOL    HW2 3579   1.701   0.463   0.703
  894SOL     OW 3580   1.932   4.644   4.348
  894SOL    HW1 3581   1.846   4.594   4.347
  894SOL    HW2 3582   2.005   4.585   4.312
  895SOL     OW 3583   2.000   6.864   4.396
  895SOL    HW1 3584   2.063   6.789   4.373
  895SOL    HW2 3585   2.033   6.910   4.478
  896SOL     OW 3586   5.794   6.124   4.330
  896SOL    HW1 3587   5.721   6.188   4.354
  896SOL    HW2 3588   5.782   6.039   4.382
  897SOL     OW 3589   4.857   1.064   0.745
  897SOL    HW1 3590   4.937   1.009   0.720
  897SOL    HW2 3591   4.887   1.146   0.793
  898SOL     OW 3592   5.176   6.226   3.991
  898SOL    HW1 3593   5.273   6.209   3.975
  898SOL    HW2 3594   5.165   6.279   4.075
  899SOL     OW 3595   0.510   5.084   0.216
  899SOL    HW1 3596   0.571   5.115   0.288
  899SOL    HW2 3597   0.436   5.029   0.256
  900SOL     OW 3598   6.395   5.865   1.969
  900SOL    HW1 3599   6.389   5.957   2.008
  900SOL    HW2 3600   6.406   5.798   2.043
  901SOL     OW 3601   0.323   1.607   4.213
  901SOL    HW1 3602   0.312   1.525   4.157
  901SOL    HW2 3603   0.404   1.598   4.271
  902SOL     OW 3604   0.084   0.529   6.486
  902SOL    HW1 3605   0.149   0.605   6.494
  902SOL    HW2 3606   7.021   0.564   6.455
  903SOL     OW 3607   6.395   4.693   0.523
  903SOL    HW1 3608   6.387   4.611   0.580
  903SOL    HW2 3609   6.490   4.722   0.518
  904SOL     OW 3610   1.589   1.767   3.533
  904SOL    HW1 3611   1.657   1.795   3.464
  904SOL    HW2 3612   1.514   1.833   3.533
  905SOL     OW 3613   5.248   2.271   0.164
  905SOL    HW1 3614   5.326   2.309   0.214
  905SOL    HW2 3615   5.218   2.336   0.095
  906SOL     OW 3616   6.967   4.470   6.956
  906SOL    HW1 3617   6.954   4.564   6.986
  906SOL    HW2 3618   6.962   4.409   0.011
  907SOL     OW 3619   6.120   1.924   2.812
  907SOL    HW1 3620   6.198   1.963   2.861
  907SOL    HW2 3621   6.057   1.883   2.878
  908SOL     OW 3622   1.067   6.865   4.234
  908SOL    HW1 3623   1.079   6.964   4.227
  908SOL    HW2 3624   1.092   6.834   4.325
  909SOL     OW 3625   2.369   1.288   0.362
  909SOL    HW1 3626   2.322   1.215   0.312
  909SOL    HW2 3627   2.398   1.253   0.452
  910SOL     OW 3628   1.991   0.503   0.813
  910SOL    HW1 3629   2.089   0.498   0.794
  910SOL    HW2 3630   1.943   0.435   0.757
  911SOL     OW 3631   0.018   5.137   1.359
  911SOL    HW1 3632   0.049   5.066   1.421
  911SOL    HW2 3633   0.013   5.224   1.408
  912SOL     OW 3634   0.171   1.584   5.819
  912SOL    HW1 3635   0.179   1.582   5.919
  912SOL    HW2 3636   0.117   1.505   5.789
  913SOL     OW 3637   2.128   0.623   3.751
  913SOL    HW1 3638   2.055   0.560   3.777
  913SOL    HW2 3639   2.088   0.704   3.707
  914SOL     OW 3640   2.489   5.732   4.584
  914SOL    HW1 3641   2.503   5.754   4.487
  914SOL    HW2 3642   2.452   5.639   4.592
  915SOL     OW 3643   0.432   3.502   0.264
  915SOL    HW1 3644   0.481   3.445   0.198
  915SOL    HW2 3645   0.375   3.444   0.322
  916SOL     OW 3646   2.173   1.951   2.342
  916SOL    HW1 3647   2.230   1.869   2.334
  916SOL    HW2 3648   2.135   1.957   2.434
  917SOL     OW 3649   3.969   0.849   1.387
  917SOL    HW1 3650   3.951   0.922   1.452
  917SOL    HW2 3651   3.950   0.881   1.294
  918SOL     OW 3652   3.291   6.165   6.492
  918SOL    HW1 3653   3.252   6.222   6.564
  918SOL    HW2 3654   3.288   6.069   6.520
  919SOL     OW 3655   1.488   6.413   2.151
  919SOL    HW1 3656   1.411   6.471   2.127
  919SOL    HW2 3657   1.476   6.323   2.109
  920SOL     OW 3658   2.612   0.484   2.900
  920SOL    HW1 3659   2.624   0.410   2.834
  920SOL    HW2 3660   2.563   0.559   2.857
  921SOL     OW 3661   6.067   4.707   4.398
  921SOL    HW1 3662   5.997   4.668   4.458
  921SOL    HW2 3663   6.036   4.796   4.365
  922SOL     OW 3664   3.245   3.969   0.010
  922SOL    HW1 3665   3.328   3.970   0.066
  922SOL    HW2 3666   3.209   4.062   0.002
  923SOL     OW 3667   2.831   5.757   0.381
  923SOL    HW1 3668   2.813   5.670   0.335
  923SOL    HW2 3669   2.900   5.743   0.453
  924SOL     OW 3670   5.556   3.079   2.470
  924SOL    HW1 3671   5.646   3.094   2.511
  924SOL    HW2 3672   5.494   3.153   2.496
  925SOL     OW 3673   0.012   1.956   6.140
  925SOL    HW1 3674   7.012   2.011   6.220
  925SOL    HW2 3675   0.084   1.891   6.165
  926SOL     OW 3676   5.699   6.806   0.667
  926SOL    HW1 3677   5.666   6.894   0.631
  926SOL    HW2 3678   5.792   6.790   0.635
  927SOL     OW 3679   4.748   4.085   3.817
  927SOL    HW1 3680   4.739   4.098   3.718
  927SOL    HW2 3681   4.840   4.112   3.846
  928SOL     OW 3682   1.538   6.968   0.415
  928SOL    HW1 3683   1.569   0.037   0.436
  928SOL    HW2 3684   1.568   6.943   0.323
  929SOL     OW 3685   0.343   2.754   2.004
  929SOL    HW1 3686   0.258   2.803   1.986
  929SOL    HW2 3687   0.327   2.684   2.074
  930SOL     OW 3688   6.020   4.975   4.017
  930SOL    HW1 3689   6.013   5.022   3.929
  930SOL    HW2 3690   5.936   4.992   4.070
  931SOL     OW 3691   0.622   3.160   3.156
  931SOL    HW1 3692   0.611   3.233   3.089
  931SOL    HW2 3693   0.712   3.118   3.145
  932SOL     OW 3694   3.766   6.312   2.089
  932SOL    HW1 3695   3.743   6.389   2.149
  932SOL    HW2 3696   3.858   6.279   2.111
  933SOL     OW 3697   0.943   4.111   3.214
  933SOL    HW1 3698   0.880   4.063   3.153
  933SOL    HW2 3699   0.891   4.162   3.283
  934SOL     OW 3700   2.729   1.112   4.849
  934SOL    HW1 3701   2.765   1.194   4.894
  934SOL    HW2 3702   2.705   1.134   4.754
  935SOL     OW 3703   4.791   3.739   6.468
  935SOL    HW1 3704   4.805   3.837   6.452
  935SOL    HW2 3705   4.857   3.707   6.537
  936SOL     OW 3706   0.414   6.761   1.290
  936SOL    HW1 3707   0.413   6.721   1.382
  936SOL    HW2 3708   0.454   6.696   1.226
  937SOL     OW 3709   5.150   1.557   4.374
  937SOL    HW1 3710   5.202   1.476   4.349
  937SOL    HW2 3711   5.079   1.573   4.306
  938SOL     OW 3712   0.418   4.303   6.380
  938SOL    HW1 3713   0.392   4.400   6.375
  938SOL    HW2 3714   0.365   4.251   6.313
  939SOL     OW 3715   4.963   1.353   6.369
  939SOL    HW1 3716   4.988   1.372   6.464
  939SOL    HW2 3717   4.870   1.386   6.351
  940SOL     OW 3718   0.258   1.552   2.691
  940SOL    HW1 3719   0.345   1.512   2.660
  940SOL    HW2 3720   0.186   1.483   2.685
  941SOL     OW 3721   5.396   1.188   3.766
  941SOL    HW1 3722   5.447   1.136   3.698
  941SOL    HW2 3723   5.355   1.268   3.723
  942SOL     OW 3724   5.258   0.176   5.254
  942SOL    HW1 3725   5.231   0.136   5.166
  942SOL    HW2 3726   5.358   0.184   5.257
  943SOL     OW 3727   6.932   3.542   2.444
  943SOL    HW1 3728   6.845   3.579   2.413
  943SOL    HW2 3729   6.991   3.526   2.365
  944SOL     OW 3730   6.277   3.411   4.754
  944SOL    HW1 3731   6.307   3.333   4.700
  944SOL    HW2 3732   6.207   3.462   4.703
  945SOL     OW 3733   4.574   4.767   4.294
  945SOL    HW1 3734   4.556   4.812   4.381
  945SOL    HW2 3735   4.609   4.675   4.310
  946SOL     OW 3736   6.038   2.495   6.394
  946SOL    HW1 3737   6.073   2.402   6.386
  946SOL    HW2 3738   6.063   2.547   6.312
  947SOL     OW 3739   3.153   3.614   6.208
  947SOL    HW1 3740   3.113   3.705   6.196
  947SOL    HW2 3741   3.247   3.614   6.175
  948SOL     OW 3742   3.412   0.911   0.248
  948SOL    HW1 3743   3.375   0.962   0.171
  948SOL    HW2 3744   3.458   0.974   0.311
  949SOL     OW 3745   6.563   5.545   6.311
  949SOL    HW1 3746   6.639   5.562   6.374
  949SOL    HW2 3747   6.503   5.625   6.308
  950SOL     OW 3748   3.928   5.214   2.224
  950SOL    HW1 3749   3.851   5.169   2.269
  950SOL    HW2 3750   4.007   5.215   2.286
  951SOL     OW 3751   0.586   0.546   1.769
  951SOL    HW1 3752   0.498   0.548   1.816
  951SOL    HW2 3753   0.617   0.451   1.760
  952SOL     OW 3754   5.359   1.640   2.544
  952SOL    HW1 3755   5.265   1.606   2.538
  952SOL    HW2 3756   5.377   1.700   2.467
  953SOL     OW 3757   4.536   6.026   5.369
  953SOL    HW1 3758   4.525   5.938   5.416
  953SOL    HW2 3759   4.466   6.089   5.400
  954SOL     OW 3760   5.993   0.219   1.522
  954SOL    HW1 3761   5.958   0.199   1.613
  954SOL    HW2 3762   6.036   0.309   1.522
  955SOL     OW 3763   0.921   4.837   3.887
  955SOL    HW1 3764   0.837   4.834   3.832
  955SOL    HW2 3765   0.996   4.870   3.829
  956SOL     OW 3766   1.040   1.577   1.112
  956SOL    HW1 3767   1.109   1.647   1.128
  956SOL    HW2 3768   0.975   1.609   1.044
  957SOL     OW 3769   1.619   5.067   5.725
  957SOL    HW1 3770   1.567   5.043   5.807
  957SOL    HW2 3771   1.556   5.077   5.647
  958SOL     OW 3772   4.865   2.041   0.870
  958SOL    HW1 3773   4.874   1.951   0.827
  958SOL    HW2 3774   4.945   2.097   0.847
  959SOL     OW 3775   2.794   4.724   3.062
  959SOL    HW1 3776   2.847   4.767   3.135
  959SOL    HW2 3777   2.853   4.709   2.982
  960SOL     OW 3778   1.352   6.215   3.916
  960SOL    HW1 3779   1.304   6.170   3.990
  960SOL    HW2 3780   1.321   6.310   3.909
  961SOL     OW 3781   4.472   6.943   2.377
  961SOL    HW1 3782   4.517   6.997   2.448
  961SOL    HW2 3783   4.435   6.859   2.417
  962SOL     OW 3784   1.408   0.884   3.685
  962SOL    HW1 3785   1.471   0.961   3.674
  962SOL    HW2 3786   1.414   0.848   3.778
  963SOL     OW 3787   6.141   0.169   0.688
  963SOL    HW1 3788   6.072   0.220   0.740
  963SOL    HW2 3789   6.207   0.233   0.648
  964SOL     OW 3790   5.444   3.002   0.926
  964SOL    HW1 3791   5.460   3.079   0.865
  964SOL    HW2 3792   5.493   3.017   1.012
  965SOL     OW 3793   6.112   1.571   0.956
  965SOL    HW1 3794   6.044   1.519   0.904
  965SOL    HW2 3795   6.157   1.510   1.021
  966SOL     OW 3796   6.262   1.659   3.000
  966SOL    HW1 3797   6.181   1.608   2.972
  966SOL    HW2 3798   6.322   1.672   2.921
  967SOL     OW 3799   1.472   5.598   0.832
  967SOL    HW1 3800   1.549   5.600   0.896
  967SOL    HW2 3801   1.506   5.598   0.738
  968SOL     OW 3802   5.376   2.578   2.825
  968SOL    HW1 3803   5.376   2.664   2.774
  968SOL    HW2 3804   5.294   2.526   2.803
  969SOL     OW 3805   3.435   5.859   5.562
  969SOL    HW1 3806   3.402   5.796   5.492
  969SOL    HW2 3807   3.510   5.914   5.525
  970SOL     OW 3808   4.244   1.856   5.268
  970SOL    HW1 3809   4.335   1.869   5.230
  970SOL    HW2 3810   4.222   1.758   5.269
  971SOL     OW 3811   0.066   1.105   2.468
  971SOL    HW1 3812   0.150   1.073   2.424
  971SOL    HW2 3813   0.040   1.194   2.430
  972SOL     OW 3814   6.073   4.952   0.703
  972SOL    HW1 3815   6.017   5.033   0.686
  972SOL    HW2 3816   6.144   4.946   0.633
  973SOL     OW 3817   0.543   4.751   6.231
  973SOL    HW1 3818   0.482   4.811   6.283
  973SOL    HW2 3819   0.537   4.658   6.267
  974SOL     OW 3820   3.311   0.891   2.493
  974SOL    HW1 3821   3.378   0.924   2.560
  974SOL    HW2 3822   3.251   0.824   2.537
  975SOL     OW 3823   3.175   6.211   6.249
  975SOL    HW1 3824   3.233   6.189   6.328
  975SOL    HW2 3825   3.143   6.305   6.258
  976SOL     OW 3826   6.912   2.994   2.350
  976SOL    HW1 3827   6.920   2.906   2.397
  976SOL    HW2 3828   6.829   3.041   2.381
  977SOL     OW 3829   2.200   1.365   4.238
  977SOL    HW1 3830   2.170   1.379   4.144
  977SOL    HW2 3831   2.144   1.422   4.299
  978SOL     OW 3832   5.219   3.911   4.739
  978SOL    HW1 3833   5.223   3.982   4.669
  978SOL    HW2 3834   5.128   3.871   4.741
  979SOL     OW 3835   6.391   1.422   3.723
  979SOL    HW1 3836   6.487   1.445   3.705
  979SOL    HW2 3837   6.384   1.380   3.813
  980SOL     OW 3838   5.509   2.326   3.808
  980SOL    HW1 3839   5.484   2.423   3.812
  980SOL    HW2 3840   5.514   2.296   3.713
  981SOL     OW 3841   1.065   2.008   4.891
  981SOL    HW1 3842   1.074   2.039   4.796
  981SOL    HW2 3843   1.147   2.032   4.942
  982SOL     OW 3844   2.026   2.750   2.421
  982SOL    HW1 3845   2.095   2.686   2.386
  982SOL    HW2 3846   1.961   2.771   2.348
  983SOL     OW 3847   5.952   2.429   3.693
  983SOL    HW1 3848   6.043   2.390   3.678
  983SOL    HW2 3849   5.899   2.424   3.608
  984SOL     OW 3850   3.975   0.372   4.935
  984SOL    HW1 3851   3.998   0.408   4.844
  984SOL    HW2 3852   3.958   0.448   4.997
  985SOL     OW 3853   4.343   4.932   7.014
  985SOL    HW1 3854   4.438   4.902   7.006
  985SOL    HW2 3855   4.332   4.981   0.076
  986SOL     OW 3856   5.285   5.798   6.579
  986SOL    HW1 3857   5.356   5.866   6.561
  986SOL    HW2 3858   5.320   5.707   6.557
  987SOL     OW 3859   3.748   6.696   1.511
  987SOL    HW1 3860   3.791   6.609   1.533
  987SOL    HW2 3861   3.738   6.751   1.594
  988SOL     OW 3862   4.045   2.260   1.017
  988SOL    HW1 3863   3.984   2.339   1.016
  988SOL    HW2 3864   4.014   2.192   0.950
  989SOL     OW 3865   0.546   0.788   5.954
  989SOL    HW1 3866   0.640   0.756   5.948
  989SOL    HW2 3867   0.487   0.729   5.899
  990SOL     OW 3868   4.884   6.700   3.763
  990SOL    HW1 3869   4.877   6.619   3.705
  990SOL    HW2 3870   4.820   6.770   3.729
  991SOL     OW 3871   1.833   2.060   4.735
  991SOL    HW1 3872   1.920   2.079   4.780
  991SOL    HW2 3873   1.799   1.971   4.765
  992SOL     OW 3874   0.509   3.019   6.945
  992SOL    HW1 3875   0.480   3.103   6.900
  992SOL    HW2 3876   0.605   3.001   6.926
  993SOL     OW 3877   2.180   5.547   2.331
  993SOL    HW1 3878   2.258   5.497   2.293
  993SOL    HW2 3879   2.120   5.482   2.379
  994SOL     OW 3880   3.815   3.998   2.324
  994SOL    HW1 3881   3.830   3.906   2.359
  994SOL    HW2 3882   3.741   4.041   2.375
  995SOL     OW 3883   2.192   2.523   6.131
  995SOL    HW1 3884   2.204   2.497   6.035
  995SOL    HW2 3885   2.232   2.613   6.146
  996SOL     OW 3886   1.869   3.684   4.145
  996SOL    HW1 3887   1.902   3.773   4.115
  996SOL    HW2 3888   1.890   3.616   4.075
  997SOL     OW 3889   0.372   0.024   1.668
  997SOL    HW1 3890   0.387   0.082   1.748
  997SOL    HW2 3891   0.278   7.016   1.667
  998SOL     OW 3892   4.530   0.065   3.126
  998SOL    HW1 3893   4.462   7.023   3.094
  998SOL    HW2 3894   4.619   0.044   3.085
  999SOL     OW 3895   5.271   5.990   1.288
  999SOL    HW1 3896   5.297   5.903   1.246
  999SOL    HW2 3897   5.190   5.976   1.346
 1000SOL     OW 3898   0.904   1.766   2.353
 1000SOL    HW1 3899   1.001   1.760   2.378
 1000SOL    HW2 3900   0.888   1.713   2.270
 1001SOL     OW 3901   4.325   6.445   6.372
 1001SOL    HW1 3902   4.232   6.481   6.379
 1001SOL    HW2 3903   4.390   6.514   6.405
 1002SOL     OW 3904   5.520   1.484   6.620
 1002SOL    HW1 3905   5.458   1.511   6.547
 1002SOL    HW2 3906   5.469   1.429   6.687
 1003SOL     OW 3907   2.662   6.906   1.746
 1003SOL    HW1 3908   2.618   6.879   1.832
 1003SOL    HW2 3909   2.671   7.005   1.742
 1004SOL     OW 3910   6.608   0.837   0.514
 1004SOL    HW1 3911   6.567   0.785   0.439
 1004SOL    HW2 3912   6.615   0.779   0.595
 1005SOL     OW 3913   6.786   0.905   3.364
 1005SOL    HW1 3914   6.819   0.918   3.270
 1005SOL    HW2 3915   6.742   0.988   3.396
 1006SOL     OW 3916   2.291   6.026   1.589
 1006SOL    HW1 3917   2.241   6.099   1.636
 1006SOL    HW2 3918   2.234   5.944   1.584
 1007SOL     OW 3919   5.839   6.791   3.411
 1007SOL    HW1 3920   5.931   6.763   3.440
 1007SOL    HW2 3921   5.775   6.777   3.486
 1008SOL     OW 3922   1.310   2.970   4.276
 1008SOL    HW1 3923   1.285   2.961   4.372
 1008SOL    HW2 3924   1.409   2.966   4.266
 1009SOL     OW 3925   6.638   5.311   3.874
 1009SOL    HW1 3926   6.555   5.329   3.821
 1009SOL    HW2 3927   6.639   5.215   3.902
 1010SOL     OW 3928   4.346   2.247   0.264
 1010SOL    HW1 3929   4.419   2.189   0.301
 1010SOL    HW2 3930   4.320   2.212   0.174
 1011SOL     OW 3931   3.195   5.319   3.070
 1011SOL    HW1 3932   3.195   5.226   3.107
 1011SOL    HW2 3933   3.279   5.334   3.018
 1012SOL     OW 3934   6.389   5.388   0.177
 1012SOL    HW1 3935   6.345   5.368   0.265
 1012SOL    HW2 3936   6.357   5.476   0.142
 1013SOL     OW 3937   0.429   1.309   6.854
 1013SOL    HW1 3938   0.510   1.278   6.904
 1013SOL    HW2 3939   0.346   1.277   6.900
 1014SOL     OW 3940   5.368   5.531   6.518
 1014SOL    HW1 3941   5.362   5.443   6.565
 1014SOL    HW2 3942   5.463   5.559   6.511
 1015SOL     OW 3943   3.678   6.717   4.985
 1015SOL    HW1 3944   3.618   6.796   4.969
 1015SOL    HW2 3945   3.639   6.636   4.941
 1016SOL     OW 3946   2.583   2.925   0.752
 1016SOL    HW1 3947   2.595   2.995   0.822
 1016SOL    HW2 3948   2.501   2.946   0.697
 1017SOL     OW 3949   4.678   2.700   1.101
 1017SOL    HW1 3950   4.585   2.731   1.122
 1017SOL    HW2 3951   4.674   2.626   1.034
 1018SOL     OW 3952   1.888   3.468   3.970
 1018SOL    HW1 3953   1.796   3.474   4.010
 1018SOL    HW2 3954   1.880   3.445   3.873
 1019SOL     OW 3955   0.495   0.949   0.615
 1019SOL    HW1 3956   0.528   1.003   0.538
 1019SOL    HW2 3957   0.401   0.976   0.637
 1020SOL     OW 3958   0.951   6.615   1.011
 1020SOL    HW1 3959   0.962   6.595   0.914
 1020SOL    HW2 3960   1.033   6.587   1.060
 1021SOL     OW 3961   5.891   1.104   1.494
 1021SOL    HW1 3962   5.897   1.124   1.592
 1021SOL    HW2 3963   5.981   1.076   1.460
 1022SOL     OW 3964   4.118   5.290   6.319
 1022SOL    HW1 3965   4.072   5.203   6.298
 1022SOL    HW2 3966   4.094   5.318   6.412
 1023SOL     OW 3967   6.800   0.278   2.746
 1023SOL    HW1 3968   6.863   0.322   2.809
 1023SOL    HW2 3969   6.803   0.178   2.759
 1024SOL     OW 3970   6.642   2.685   4.280
 1024SOL    HW1 3971   6.651   2.699   4.378
 1024SOL    HW2 3972   6.597   2.597   4.263
 1025SOL     OW 3973   3.790   4.502   0.234
 1025SOL    HW1 3974   3.801   4.502   0.134
 1025SOL    HW2 3975   3.801   4.595   0.269
 1026SOL     OW 3976   1.259   0.979   0.523
 1026SOL    HW1 3977   1.314   1.019   0.596
 1026SOL    HW2 3978   1.206   1.051   0.478
 1027SOL     OW 3979   3.010   5.852   1.564
 1027SOL    HW1 3980   3.104   5.884   1.561
 1027SOL    HW2 3981   2.948   5.931   1.566
 1028SOL     OW 3982   3.206   6.169   0.609
 1028SOL    HW1 3983   3.240   6.233   0.540
 1028SOL    HW2 3984   3.131   6.116   0.571
 1029SOL     OW 3985   1.971   0.692   0.250
 1029SOL    HW1 3986   1.942   0.643   0.168
 1029SOL    HW2 3987   1.891   0.721   0.302
 1030SOL     OW 3988   3.819   3.015   3.267
 1030SOL    HW1 3989   3.847   2.984   3.358
 1030SOL    HW2 3990   3.720   3.004   3.258
 1031SOL     OW 3991   4.604   5.533   1.118
 1031SOL    HW1 3992   4.527   5.518   1.056
 1031SOL    HW2 3993   4.651   5.446   1.134
 1032SOL     OW 3994   1.996   1.731   5.109
 1032SOL    HW1 3995   1.927   1.800   5.086
 1032SOL    HW2 3996   1.962   1.671   5.181
 1033SOL     OW 3997   1.868   6.714   1.383
 1033SOL    HW1 3998   1.813   6.737   1.304
 1033SOL    HW2 3999   1.896   6.797   1.431
 1034SOL     OW 4000   1.739   6.128   4.641
 1034SOL    HW1 4001   1.792   6.045   4.655
 1034SOL    HW2 4002   1.647   6.105   4.609
 1035SOL     OW 4003   2.634   1.704   3.283
 1035SOL    HW1 4004   2.636   1.604   3.295
 1035SOL    HW2 4005   2.654   1.726   3.187
 1036SOL     OW 4006   3.848   0.472   1.152
 1036SOL    HW1 4007   3.895   0.436   1.233
 1036SOL    HW2 4008   3.914   0.487   1.079
 1037SOL     OW 4009   1.315   1.112   1.329
 1037SOL    HW1 4010   1.231   1.167   1.328
 1037SOL    HW2 4011   1.299   1.028   1.380
 1038SOL     OW 4012   0.567   1.178   5.529
 1038SOL    HW1 4013   0.649   1.235   5.529
 1038SOL    HW2 4014   0.487   1.235   5.547
 1039SOL     OW 4015   4.655   1.690   5.643
 1039SOL    HW1 4016   4.682   1.762   5.708
 1039SOL    HW2 4017   4.694   1.711   5.553
 1040SOL     OW 4018   5.703   3.061   3.127
 1040SOL    HW1 4019   5.765   3.056   3.049
 1040SOL    HW2 4020   5.755   3.080   3.210
 1041SOL     OW 4021   6.513   0.202   4.251
 1041SOL    HW1 4022   6.516   0.279   4.314
 1041SOL    HW2 4023   6.491   0.234   4.159
 1042SOL     OW 4024   4.105   5.189   2.518
 1042SOL    HW1 4025   4.066   5.098   2.533
 1042SOL    HW2 4026   4.204   5.182   2.513
 1043SOL     OW 4027   4.099   0.996   6.538
 1043SOL    HW1 4028   4.144   0.909   6.556
 1043SOL    HW2 4029   4.134   1.065   6.601
 1044SOL     OW 4030   3.909   2.723   1.612
 1044SOL    HW1 4031   3.996   2.754   1.651
 1044SOL    HW2 4032   3.843   2.706   1.685
 1045SOL     OW 4033   3.204   0.422   1.672
 1045SOL    HW1 4034   3.216   0.397   1.768
 1045SOL    HW2 4035   3.111   0.457   1.658
 1046SOL     OW 4036   2.640   6.988   6.082
 1046SOL    HW1 4037   2.670   6.927   6.155
 1046SOL    HW2 4038   2.541   6.998   6.085
 1047SOL     OW 4039   1.439   5.448   2.648
 1047SOL    HW1 4040   1.498   5.516   2.605
 1047SOL    HW2 4041   1.344   5.475   2.639
 1048SOL     OW 4042   4.763   5.609   5.492
 1048SOL    HW1 4043   4.862   5.617   5.482
 1048SOL    HW2 4044   4.733   5.653   5.576
 1049SOL     OW 4045   0.664   3.931   4.846
 1049SOL    HW1 4046   0.741   3.867   4.845
 1049SOL    HW2 4047   0.669   3.990   4.766
 1050SOL     OW 4048   3.376   5.355   0.774
 1050SOL    HW1 4049   3.380   5.409   0.858
 1050SOL    HW2 4050   3.414   5.409   0.698
 1051SOL     OW 4051   3.981   4.322   0.378
 1051SOL    HW1 4052   3.909   4.384   0.348
 1051SOL    HW2 4053   3.981   4.240   0.321
 1052SOL     OW 4054   4.337   0.876   3.856
 1052SOL    HW1 4055   4.257   0.913   3.809
 1052SOL    HW2 4056   4.314   0.788   3.898
 1053SOL     OW 4057   5.863   5.711   3.488
 1053SOL    HW1 4058   5.943   5.665   3.449
 1053SOL    HW2 4059   5.865   5.704   3.588
 1054SOL     OW 4060   2.498   4.787   5.803
 1054SOL    HW1 4061   2.495   4.880   5.767
 1054SOL    HW2 4062   2.406   4.748   5.804
 1055SOL     OW 4063   5.621   5.867   4.681
 1055SOL    HW1 4064   5.684   5.790   4.693
 1055SOL    HW2 4065   5.528   5.839   4.703
 1056SOL     OW 4066   1.500   6.344   5.640
 1056SOL    HW1 4067   1.509   6.443   5.650
 1056SOL    HW2 4068   1.586   6.306   5.605
 1057SOL     OW 4069   3.267   4.141   3.100
 1057SOL    HW1 4070   3.204   4.206   3.057
 1057SOL    HW2 4071   3.214   4.063   3.134
 1058SOL     OW 4072   4.816   1.474   2.501
 1058SOL    HW1 4073   4.798   1.440   2.593
 1058SOL    HW2 4074   4.902   1.525   2.501
 1059SOL     OW 4075   3.694   0.817   1.378
 1059SOL    HW1 4076   3.782   0.853   1.407
 1059SOL    HW2 4077   3.687   0.721   1.403
 1060SOL     OW 4078   7.005   3.539   5.805
 1060SOL    HW1 4079   7.019   3.609   5.875
 1060SOL    HW2 4080   7.020   3.579   5.715
 1061SOL     OW 4081   4.301   4.378   0.815
 1061SOL    HW1 4082   4.294   4.320   0.896
 1061SOL    HW2 4083   4.221   4.365   0.757
 1062SOL     OW 4084   6.745   6.074   5.808
 1062SOL    HW1 4085   6.661   6.084   5.862
 1062SOL    HW2 4086   6.722   6.087   5.711
 1063SOL     OW 4087   1.477   4.146   0.432
 1063SOL    HW1 4088   1.517   4.232   0.401
 1063SOL    HW2 4089   1.547   4.090   0.476
 1064SOL     OW 4090   1.010   3.811   2.713
 1064SOL    HW1 4091   1.083   3.772   2.657
 1064SOL    HW2 4092   0.963   3.883   2.662
 1065SOL     OW 4093   4.807   0.613   4.207
 1065SOL    HW1 4094   4.758   0.642   4.290
 1065SOL    HW2 4095   4.776   0.667   4.129
 1066SOL     OW 4096   5.218   0.307   4.023
 1066SOL    HW1 4097   5.128   0.346   4.006
 1066SOL    HW2 4098   5.281   0.378   4.053
 1067SOL     OW 4099   1.102   2.755   0.856
 1067SOL    HW1 4100   1.031   2.754   0.927
 1067SOL    HW2 4101   1.132   2.661   0.838
 1068SOL     OW 4102   6.562   3.534   1.794
 1068SOL    HW1 4103   6.652   3.578   1.798
 1068SOL    HW2 4104   6.502   3.572   1.864
 1069SOL     OW 4105   4.701   4.354   1.358
 1069SOL    HW1 4106   4.770   4.423   1.334
 1069SOL    HW2 4107   4.737   4.293   1.428
 1070SOL     OW 4108   1.664   0.903   6.375
 1070SOL    HW1 4109   1.628   0.987   6.415
 1070SOL    HW2 4110   1.662   0.830   6.444
 1071SOL     OW 4111   3.680   0.595   3.361
 1071SOL    HW1 4112   3.739   0.645   3.425
 1071SOL    HW2 4113   3.584   0.611   3.385
 1072SOL     OW 4114   2.250   6.415   2.388
 1072SOL    HW1 4115   2.181   6.364   2.336
 1072SOL    HW2 4116   2.208   6.452   2.471
 1073SOL     OW 4117   3.559   5.805   2.275
 1073SOL    HW1 4118   3.555   5.901   2.248
 1073SOL    HW2 4119   3.490   5.788   2.346
 1074SOL     OW 4120   1.856   5.794   1.844
 1074SOL    HW1 4121   1.941   5.743   1.832
 1074SOL    HW2 4122   1.872   5.874   1.903
 1075SOL     OW 4123   4.919   5.095   3.158
 1075SOL    HW1 4124   4.941   5.144   3.242
 1075SOL    HW2 4125   5.003   5.060   3.116
 1076SOL     OW 4126   0.255   4.601   4.779
 1076SOL    HW1 4127   0.208   4.649   4.705
 1076SOL    HW2 4128   0.195   4.596   4.859
 1077SOL     OW 4129   6.093   0.025   0.060
 1077SOL    HW1 4130   6.042   6.993   0.125
 1077SOL    HW2 4131   6.042   0.110   0.042
 1078SOL     OW 4132   1.504   1.177   2.189
 1078SOL    HW1 4133   1.442   1.162   2.113
 1078SOL    HW2 4134   1.580   1.235   2.160
 1079SOL     OW 4135   2.176   4.939   3.646
 1079SOL    HW1 4136   2.193   4.850   3.603
 1079SOL    HW2 4137   2.162   5.008   3.575
 1080SOL     OW 4138   2.239   4.969   3.163
 1080SOL    HW1 4139   2.242   5.042   3.231
 1080SOL    HW2 4140   2.332   4.946   3.134
 1081SOL     OW 4141   0.624   1.619   5.434
 1081SOL    HW1 4142   0.593   1.623   5.528
 1081SOL    HW2 4143   0.549   1.640   5.372
 1082SOL     OW 4144   1.525   0.549   5.507
 1082SOL    HW1 4145   1.509   0.462   5.554
 1082SOL    HW2 4146   1.464   0.619   5.545
 1083SOL     OW 4147   4.140   3.756   2.176
 1083SOL    HW1 4148   4.237   3.742   2.195
 1083SOL    HW2 4149   4.085   3.725   2.254
 1084SOL     OW 4150   6.723   5.739   1.204
 1084SOL    HW1 4151   6.650   5.807   1.201
 1084SOL    HW2 4152   6.754   5.719   1.111
 1085SOL     OW 4153   1.868   4.301   3.882
 1085SOL    HW1 4154   1.808   4.250   3.944
 1085SOL    HW2 4155   1.947   4.336   3.934
 1086SOL     OW 4156   6.045   5.604   3.343
 1086SOL    HW1 4157   6.132   5.652   3.345
 1086SOL    HW2 4158   6.030   5.566   3.251
 1087SOL     OW 4159   4.818   3.006   5.777
 1087SOL    HW1 4160   4.866   2.980   5.861
 1087SOL    HW2 4161   4.719   3.005   5.793
 1088SOL     OW 4162   5.597   4.281   3.495
 1088SOL    HW1 4163   5.510   4.316   3.530
 1088SOL    HW2 4164   5.584   4.189   3.458
 1089SOL     OW 4165   0.426   0.771   4.449
 1089SOL    HW1 4166   0.463   0.848   4.500
 1089SOL    HW2 4167   0.462   0.686   4.486
 1090SOL     OW 4168   2.853   1.338   4.657
 1090SOL    HW1 4169   2.828   1.267   4.592
 1090SOL    HW2 4170   2.902   1.411   4.609
 1091SOL     OW 4171   1.628   1.705   3.883
 1091SOL    HW1 4172   1.688   1.777   3.920
 1091SOL    HW2 4173   1.621   1.716   3.784
 1092SOL     OW 4174   2.257   3.705   1.550
 1092SOL    HW1 4175   2.312   3.682   1.470
 1092SOL    HW2 4176   2.215   3.795   1.536
 1093SOL     OW 4177   1.565   1.655   2.644
 1093SOL    HW1 4178   1.662   1.630   2.646
 1093SOL    HW2 4179   1.512   1.577   2.610
 1094SOL     OW 4180   0.330   6.340   1.786
 1094SOL    HW1 4181   0.266   6.418   1.787
 1094SOL    HW2 4182   0.407   6.361   1.726
 1095SOL     OW 4183   6.111   2.260   6.324
 1095SOL    HW1 4184   6.041   2.239   6.255
 1095SOL    HW2 4185   6.201   2.259   6.280
 1096SOL     OW 4186   3.721   5.228   1.489
 1096SOL    HW1 4187   3.653   5.206   1.558
 1096SOL    HW2 4188   3.813   5.205   1.524
 1097SOL     OW 4189   1.312   5.109   5.014
 1097SOL    HW1 4190   1.262   5.173   5.073
 1097SOL    HW2 4191   1.315   5.145   4.921
 1098SOL     OW 4192   5.321   2.363   1.183
 1098SOL    HW1 4193   5.243   2.301   1.187
 1098SOL    HW2 4194   5.294   2.449   1.140
 1099SOL     OW 4195   4.392   1.839   4.663
 1099SOL    HW1 4196   4.318   1.862   4.600
 1099SOL    HW2 4197   4.465   1.791   4.612
 1100SOL     OW 4198   0.605   1.507   6.459
 1100SOL    HW1 4199   0.620   1.545   6.550
 1100SOL    HW2 4200   0.553   1.422   6.467
 1101SOL     OW 4201   5.466   3.551   1.522
 1101SOL    HW1 4202   5.565   3.558   1.505
 1101SOL    HW2 4203   5.451   3.520   1.616
 1102SOL     OW 4204   0.788   4.712   4.180
 1102SOL    HW1 4205   0.875   4.761   4.189
 1102SOL    HW2 4206   0.797   4.643   4.109
 1103SOL     OW 4207   2.059   1.837   1.627
 1103SOL    HW1 4208   2.159   1.832   1.619
 1103SOL    HW2 4209   2.029   1.930   1.606
 1104SOL     OW 4210   1.818   4.126   5.646
 1104SOL    HW1 4211   1.880   4.164   5.578
 1104SOL    HW2 4212   1.853   4.037   5.676
 1105SOL     OW 4213   4.806   4.064   6.773
 1105SOL    HW1 4214   4.840   4.106   6.689
 1105SOL    HW2 4215   4.820   4.126   6.850
 1106SOL     OW 4216   0.687   2.041   6.358
 1106SOL    HW1 4217   0.786   2.041   6.346
 1106SOL    HW2 4218   0.648   2.120   6.311
 1107SOL     OW 4219   0.982   0.290   6.744
 1107SOL    HW1 4220   0.901   0.343   6.768
 1107SOL    HW2 4221   1.042   0.344   6.685
 1108SOL     OW 4222   2.537   0.617   5.138
 1108SOL    HW1 4223   2.469   0.550   5.109
 1108SOL    HW2 4224   2.542   0.690   5.070
 1109SOL     OW 4225   3.797   5.590   4.628
 1109SOL    HW1 4226   3.863   5.515   4.626
 1109SOL    HW2 4227   3.713   5.562   4.581
 1110SOL     OW 4228   2.857   2.104   1.667
 1110SOL    HW1 4229   2.949   2.080   1.634
 1110SOL    HW2 4230   2.853   2.202   1.685
 1111SOL     OW 4231   5.147   6.694   6.546
 1111SOL    HW1 4232   5.130   6.635   6.468
 1111SOL    HW2 4233   5.225   6.753   6.527
 1112SOL     OW 4234   5.982   0.987   3.195
 1112SOL    HW1 4235   5.964   1.084   3.183
 1112SOL    HW2 4236   5.999   0.968   3.292
 1113SOL     OW 4237   6.178   3.141   2.190
 1113SOL    HW1 4238   6.139   3.214   2.135
 1113SOL    HW2 4239   6.112   3.111   2.259
 1114SOL     OW 4240   4.973   0.552   6.370
 1114SOL    HW1 4241   5.008   0.620   6.305
 1114SOL    HW2 4242   5.043   0.534   6.439
 1115SOL     OW 4243   4.141   2.172   0.427
 1115SOL    HW1 4244   4.184   2.100   0.481
 1115SOL    HW2 4245   4.212   2.225   0.381
 1116SOL     OW 4246   5.545   5.444   4.046
 1116SOL    HW1 4247   5.610   5.472   3.975
 1116SOL    HW2 4248   5.525   5.523   4.106
 1117SOL     OW 4249   2.597   2.836   1.398
 1117SOL    HW1 4250   2.674   2.774   1.380
 1117SOL    HW2 4251   2.629   2.930   1.389
 1118SOL     OW 4252   1.027   5.031   2.865
 1118SOL    HW1 4253   0.972   5.103   2.822
 1118SOL    HW2 4254   1.027   5.044   2.964
 1119SOL     OW 4255   4.035   4.306   1.667
 1119SOL    HW1 4256   4.095   4.385   1.664
 1119SOL    HW2 4257   4.043   4.254   1.582
 1120SOL     OW 4258   5.393   6.841   5.788
 1120SOL    HW1 4259   5.404   6.889   5.875
 1120SOL    HW2 4260   5.482   6.829   5.745
 1121SOL     OW 4261   5.204   2.816   2.428
 1121SOL    HW1 4262   5.121   2.760   2.442
 1121SOL    HW2 4263   5.256   2.778   2.351
 1122SOL     OW 4264   5.224   3.004   6.662
 1122SOL    HW1 4265   5.143   2.984   6.607
 1122SOL    HW2 4266   5.228   3.102   6.681
 1123SOL     OW 4267   4.605   1.425   1.787
 1123SOL    HW1 4268   4.697   1.402   1.818
 1123SOL    HW2 4269   4.538   1.372   1.840
 1124SOL     OW 4270   6.657   3.654   4.623
 1124SOL    HW1 4271   6.698   3.591   4.689
 1124SOL    HW2 4272   6.686   3.629   4.531
 1125SOL     OW 4273   2.936   1.955   5.173
 1125SOL    HW1 4274   2.923   2.013   5.093
 1125SOL    HW2 4275   2.854   1.959   5.231
 1126SOL     OW 4276   4.649   6.869   6.697
 1126SOL    HW1 4277   4.659   6.943   6.763
 1126SOL    HW2 4278   4.735   6.818   6.691
 1127SOL     OW 4279   2.900   4.139   5.919
 1127SOL    HW1 4280   2.857   4.102   5.836
 1127SOL    HW2 4281   2.837   4.203   5.963
 1128SOL     OW 4282   4.315   2.279   4.504
 1128SOL    HW1 4283   4.371   2.340   4.448
 1128SOL    HW2 4284   4.231   2.256   4.455
 1129SOL     OW 4285   3.768   0.015   0.082
 1129SOL    HW1 4286   3.746   0.066   7.023
 1129SOL    HW2 4287   3.683   7.013   0.128
 1130SOL     OW 4288   1.935   4.275   1.341
 1130SOL    HW1 4289   1.899   4.185   1.368
 1130SOL    HW2 4290   1.876   4.347   1.379
 1131SOL     OW 4291   0.653   6.161   5.933
 1131SOL    HW1 4292   0.654   6.063   5.910
 1131SOL    HW2 4293   0.697   6.213   5.861
 1132SOL     OW 4294   5.223   0.349   6.459
 1132SOL    HW1 4295   5.202   0.363   6.362
 1132SOL    HW2 4296   5.322   0.341   6.471
 1133SOL     OW 4297   6.895   2.068   1.765
 1133SOL    HW1 4298   6.946   2.153   1.774
 1133SOL    HW2 4299   6.830   2.059   1.840
 1134SOL     OW 4300   5.652   2.304   6.870
 1134SOL    HW1 4301   5.620   2.399   6.872
 1134SOL    HW2 4302   5.739   2.299   6.821
 1135SOL     OW 4303   3.019   2.165   3.067
 1135SOL    HW1 4304   3.111   2.176   3.029
 1135SOL    HW2 4305   2.954   2.213   3.008
 1136SOL     OW 4306   2.882   5.100   4.206
 1136SOL    HW1 4307   2.889   5.121   4.108
 1136SOL    HW2 4308   2.788   5.113   4.236
 1137SOL     OW 4309   0.934   2.167   6.623
 1137SOL    HW1 4310   0.836   2.147   6.630
 1137SOL    HW2 4311   0.982   2.128   6.702
 1138SOL     OW 4312   2.119   2.858   6.192
 1138SOL    HW1 4313   2.100   2.947   6.152
 1138SOL    HW2 4314   2.191   2.866   6.260
 1139SOL     OW 4315   1.811   6.090   2.956
 1139SOL    HW1 4316   1.782   6.075   3.051
 1139SOL    HW2 4317   1.856   6.008   2.921
 1140SOL     OW 4318   3.948   2.104   3.027
 1140SOL    HW1 4319   3.952   2.139   2.934
 1140SOL    HW2 4320   4.040   2.099   3.065
 1141SOL     OW 4321   5.589   5.560   5.954
 1141SOL    HW1 4322   5.530   5.496   6.003
 1141SOL    HW2 4323   5.532   5.629   5.910
 1142SOL     OW 4324   5.304   0.259   4.441
 1142SOL    HW1 4325   5.373   0.203   4.487
 1142SOL    HW2 4326   5.255   0.314   4.509
 1143SOL     OW 4327   4.013   2.051   2.261
 1143SOL    HW1 4328   3.913   2.051   2.252
 1143SOL    HW2 4329   4.053   2.111   2.192
 1144SOL     OW 4330   0.166   4.408   4.347
 1144SOL    HW1 4331   0.231   4.410   4.423
 1144SOL    HW2 4332   0.075   4.384   4.382
 1145SOL     OW 4333   0.178   5.380   3.264
 1145SOL    HW1 4334   0.163   5.408   3.169
 1145SOL    HW2 4335   0.141   5.288   3.277
 1146SOL     OW 4336   5.108   1.458   1.228
 1146SOL    HW1 4337   5.155   1.546   1.228
 1146SOL    HW2 4338   5.009   1.474   1.217
 1147SOL     OW 4339   1.239   3.769   1.247
 1147SOL    HW1 4340   1.219   3.683   1.200
 1147SOL    HW2 4341   1.220   3.759   1.345
 1148SOL     OW 4342   3.414   5.809   6.075
 1148SOL    HW1 4343   3.461   5.727   6.108
 1148SOL    HW2 4344   3.396   5.801   5.977
 1149SOL     OW 4345   5.926   3.473   2.759
 1149SOL    HW1 4346   5.832   3.464   2.792
 1149SOL    HW2 4347   5.984   3.407   2.808
 1150SOL     OW 4348   2.618   4.427   0.829
 1150SOL    HW1 4349   2.681   4.380   0.892
 1150SOL    HW2 4350   2.552   4.480   0.882
 1151SOL     OW 4351   5.601   5.648   6.430
 1151SOL    HW1 4352   5.682   5.604   6.469
 1151SOL    HW2 4353   5.617   5.670   6.334
 1152SOL     OW 4354   1.241   6.852   4.854
 1152SOL    HW1 4355   1.277   6.936   4.893
 1152SOL    HW2 4356   1.141   6.853   4.859
 1153SOL     OW 4357   2.107   6.635   2.933
 1153SOL    HW1 4358   2.021   6.628   2.884
 1153SOL    HW2 4359   2.113   6.725   2.977
 1154SOL     OW 4360   0.373   3.705   1.264
 1154SOL    HW1 4361   0.386   3.802   1.282
 1154SOL    HW2 4362   0.279   3.689   1.232
 1155SOL     OW 4363   3.470   5.984   7.012
 1155SOL    HW1 4364   3.492   5.898   6.965
 1155SOL    HW2 4365   3.547   6.010   0.045
 1156SOL     OW 4366   2.158   0.262   3.667
 1156SOL    HW1 4367   2.211   0.313   3.599
 1156SOL    HW2 4368   2.061   0.272   3.646
 1157SOL     OW 4369   0.100   2.316   4.964
 1157SOL    HW1 4370   0.059   2.405   4.986
 1157SOL    HW2 4371   0.088   2.297   4.867
 1158SOL     OW 4372   6.152   5.078   5.401
 1158SOL    HW1 4373   6.191   5.156   5.352
 1158SOL    HW2 4374   6.127   5.006   5.336
 1159SOL     OW 4375   4.212   0.359   2.689
 1159SOL    HW1 4376   4.166   0.276   2.658
 1159SOL    HW2 4377   4.150   0.411   2.748
 1160SOL     OW 4378   4.024   3.773   1.934
 1160SOL    HW1 4379   4.063   3.849   1.881
 1160SOL    HW2 4380   4.075   3.762   2.019
 1161SOL     OW 4381   5.695   0.388   5.386
 1161SOL    HW1 4382   5.729   0.427   5.300
 1161SOL    HW2 4383   5.600   0.416   5.400
 1162SOL     OW 4384   3.669   2.780   1.009
 1162SOL    HW1 4385   3.678   2.689   1.050
 1162SOL    HW2 4386   3.666   2.849   1.081
 1163SOL     OW 4387   5.301   2.165   1.996
 1163SOL    HW1 4388   5.387   2.209   2.023
 1163SOL    HW2 4389   5.225   2.203   2.049
 1164SOL     OW 4390   5.304   2.573   3.419
 1164SOL    HW1 4391   5.238   2.623   3.363
 1164SOL    HW2 4392   5.363   2.518   3.360
 1165SOL     OW 4393   1.591   3.467   4.015
 1165SOL    HW1 4394   1.559   3.435   3.925
 1165SOL    HW2 4395   1.630   3.391   4.066
 1166SOL     OW 4396   4.355   1.934   6.599
 1166SOL    HW1 4397   4.256   1.917   6.598
 1166SOL    HW2 4398   4.396   1.894   6.517
 1167SOL     OW 4399   3.462   6.968   5.705
 1167SOL    HW1 4400   3.435   6.876   5.735
 1167SOL    HW2 4401   3.467   6.971   5.606
 1168SOL     OW 4402   5.933   6.969   2.573
 1168SOL    HW1 4403   5.927   0.015   2.503
 1168SOL    HW2 4404   5.998   6.899   2.544
 1169SOL     OW 4405   0.112   3.016   0.578
 1169SOL    HW1 4406   0.075   2.926   0.601
 1169SOL    HW2 4407   0.046   3.087   0.603
 1170SOL     OW 4408   3.958   0.603   2.202
 1170SOL    HW1 4409   3.972   0.576   2.297
 1170SOL    HW2 4410   3.861   0.616   2.184
 1171SOL     OW 4411   2.893   5.758   1.056
 1171SOL    HW1 4412   2.803   5.727   1.085
 1171SOL    HW2 4413   2.931   5.820   1.125
 1172SOL     OW 4414   3.067   3.833   3.835
 1172SOL    HW1 4415   3.091   3.764   3.767
 1172SOL    HW2 4416   3.118   3.917   3.815
 1173SOL     OW 4417   3.478   0.220   5.697
 1173SOL    HW1 4418   3.431   0.257   5.616
 1173SOL    HW2 4419   3.483   0.121   5.690
 1174SOL     OW 4420   2.344   5.957   0.594
 1174SOL    HW1 4421   2.306   5.867   0.617
 1174SOL    HW2 4422   2.443   5.950   0.585
 1175SOL     OW 4423   5.512   5.042   7.015
 1175SOL    HW1 4424   5.529   5.131   0.033
 1175SOL    HW2 4425   5.595   4.986   7.021
 1176SOL     OW 4426   5.742   5.402   0.989
 1176SOL    HW1 4427   5.835   5.366   0.989
 1176SOL    HW2 4428   5.743   5.499   1.014
 1177SOL     OW 4429   0.092   2.516   5.343
 1177SOL    HW1 4430   0.145   2.439   5.379
 1177SOL    HW2 4431   0.028   2.547   5.413
 1178SOL     OW 4432   4.749   4.277   2.096
 1178SOL    HW1 4433   4.671   4.272   2.034
 1178SOL    HW2 4434   4.784   4.185   2.113
 1179SOL     OW 4435   1.869   4.284   0.628
 1179SOL    HW1 4436   1.924   4.364   0.601
 1179SOL    HW2 4437   1.817   4.252   0.549
 1180SOL     OW 4438   2.395   0.673   3.648
 1180SOL    HW1 4439   2.310   0.657   3.698
 1180SOL    HW2 4440   2.389   0.761   3.600
 1181SOL     OW 4441   0.974   4.409   4.591
 1181SOL    HW1 4442   0.919   4.484   4.555
 1181SOL    HW2 4443   1.014   4.357   4.516
 1182SOL     OW 4444   2.006   4.243   3.217
 1182SOL    HW1 4445   1.933   4.176   3.232
 1182SOL    HW2 4446   2.051   4.265   3.303
 1183SOL     OW 4447   4.365   5.586   1.796
 1183SOL    HW1 4448   4.337   5.682   1.788
 1183SOL    HW2 4449   4.462   5.581   1.819
 1184SOL     OW 4450   3.153   3.358   5.433
 1184SOL    HW1 4451   3.153   3.453   5.400
 1184SOL    HW2 4452   3.059   3.324   5.436
 1185SOL     OW 4453   2.159   0.501   0.265
 1185SOL    HW1 4454   2.112   0.417   0.237
 1185SOL    HW2 4455   2.092   0.573   0.281
 1186SOL     OW 4456   6.129   0.479   5.454
 1186SOL    HW1 4457   6.073   0.422   5.394
 1186SOL    HW2 4458   6.217   0.496   5.409
 1187SOL     OW 4459   5.456   5.955   4.987
 1187SOL    HW1 4460   5.398   6.023   4.941
 1187SOL    HW2 4461   5.457   5.975   5.085
 1188SOL     OW 4462   2.997   6.850   6.230
 1188SOL    HW1 4463   3.070   6.789   6.260
 1188SOL    HW2 4464   3.027   6.945   6.237
 1189SOL     OW 4465   5.054   1.579   2.486
 1189SOL    HW1 4466   5.049   1.645   2.412
 1189SOL    HW2 4467   5.072   1.627   2.572
 1190SOL     OW 4468   3.831   5.357   3.630
 1190SOL    HW1 4469   3.846   5.328   3.536
 1190SOL    HW2 4470   3.901   5.315   3.689
 1191SOL     OW 4471   3.922   5.354   6.053
 1191SOL    HW1 4472   3.948   5.385   6.144
 1191SOL    HW2 4473   3.823   5.336   6.052
 1192SOL     OW 4474   5.824   4.458   2.946
 1192SOL    HW1 4475   5.761   4.417   3.011
 1192SOL    HW2 4476   5.855   4.547   2.981
 1193SOL     OW 4477   5.554   0.105   4.464
 1193SOL    HW1 4478   5.604   0.050   4.397
 1193SOL    HW2 4479   5.534   0.049   4.545
 1194SOL     OW 4480   0.269   0.801   0.610
 1194SOL    HW1 4481   0.196   0.841   0.554
 1194SOL    HW2 4482   0.296   0.713   0.572
 1195SOL     OW 4483   6.152   1.300   6.800
 1195SOL    HW1 4484   6.130   1.254   6.714
 1195SOL    HW2 4485   6.239   1.348   6.791
 1196SOL     OW 4486   6.910   4.955   2.196
 1196SOL    HW1 4487   6.848   4.896   2.247
 1196SOL    HW2 4488   6.975   4.899   2.144
 1197SOL     OW 4489   4.053   5.840   5.654
 1197SOL    HW1 4490   4.092   5.751   5.678
 1197SOL    HW2 4491   4.126   5.908   5.648
 1198SOL     OW 4492   2.283   2.739   2.116
 1198SOL    HW1 4493   2.274   2.709   2.211
 1198SOL    HW2 4494   2.367   2.702   2.077
 1199SOL     OW 4495   3.949   3.978   2.840
 1199SOL    HW1 4496   4.038   4.020   2.856
 1199SOL    HW2 4497   3.940   3.954   2.744
 1200SOL     OW 4498   4.130   3.892   5.330
 1200SOL    HW1 4499   4.121   3.990   5.311
 1200SOL    HW2 4500   4.226   3.867   5.331
 1201SOL     OW 4501   1.378   1.527   4.856
 1201SOL    HW1 4502   1.334   1.485   4.935
 1201SOL    HW2 4503   1.386   1.460   4.783
 1202SOL     OW 4504   5.710   0.203   5.995
 1202SOL    HW1 4505   5.771   0.130   6.025
 1202SOL    HW2 4506   5.719   0.282   6.056
 1203SOL     OW 4507   5.456   0.100   1.055
 1203SOL    HW1 4508   5.424   0.190   1.087
 1203SOL    HW2 4509   5.413   0.079   0.967
 1204SOL     OW 4510   3.777   1.344   0.526
 1204SOL    HW1 4511   3.706   1.327   0.595
 1204SOL    HW2 4512   3.816   1.435   0.541
 1205SOL     OW 4513   5.552   2.937   0.027
 1205SOL    HW1 4514   5.556   2.976   6.959
 1205SOL    HW2 4515   5.459   2.946   0.063
 1206SOL     OW 4516   1.694   1.825   4.824
 1206SOL    HW1 4517   1.597   1.801   4.823
 1206SOL    HW2 4518   1.748   1.743   4.809
 1207SOL     OW 4519   6.519   6.366   0.701
 1207SOL    HW1 4520   6.521   6.428   0.779
 1207SOL    HW2 4521   6.572   6.406   0.626
 1208SOL     OW 4522   3.576   4.096   2.737
 1208SOL    HW1 4523   3.477   4.088   2.749
 1208SOL    HW2 4524   3.622   4.066   2.820
 1209SOL     OW 4525   6.505   5.849   5.602
 1209SOL    HW1 4526   6.482   5.859   5.699
 1209SOL    HW2 4527   6.436   5.895   5.547
 1210SOL     OW 4528   4.028   0.497   2.811
 1210SOL    HW1 4529   4.063   0.591   2.811
 1210SOL    HW2 4530   3.933   0.497   2.779
 1211SOL     OW 4531   1.578   3.554   3.608
 1211SOL    HW1 4532   1.659   3.580   3.660
 1211SOL    HW2 4533   1.605   3.495   3.532
 1212SOL     OW 4534   1.349   3.011   5.578
 1212SOL    HW1 4535   1.444   3.025   5.551
 1212SOL    HW2 4536   1.341   3.016   5.678
 1213SOL     OW 4537   6.218   2.823   5.022
 1213SOL    HW1 4538   6.218   2.846   4.925
 1213SOL    HW2 4539   6.158   2.745   5.038
 1214SOL     OW 4540   1.835   3.618   4.398
 1214SOL    HW1 4541   1.848   3.650   4.304
 1214SOL    HW2 4542   1.909   3.554   4.422
 1215SOL     OW 4543   2.282   4.196   2.793
 1215SOL    HW1 4544   2.241   4.283   2.766
 1215SOL    HW2 4545   2.328   4.206   2.881
 1216SOL     OW 4546   0.189   6.816   1.677
 1216SOL    HW1 4547   0.131   6.891   1.707
 1216SOL    HW2 4548   0.261   6.800   1.746
 1217SOL     OW 4549   0.985   6.271   0.470
 1217SOL    HW1 4550   0.963   6.360   0.430
 1217SOL    HW2 4551   1.039   6.218   0.405
 1218SOL     OW 4552   1.457   3.032   5.278
 1218SOL    HW1 4553   1.518   3.111   5.288
 1218SOL    HW2 4554   1.369   3.052   5.323
 1219SOL     OW 4555   4.518   5.036   0.804
 1219SOL    HW1 4556   4.459   5.038   0.723
 1219SOL    HW2 4557   4.465   5.064   0.885
 1220SOL     OW 4558   5.586   3.502   2.620
 1220SOL    HW1 4559   5.496   3.510   2.577
 1220SOL    HW2 4560   5.586   3.551   2.707
 1221SOL     OW 4561   5.839   3.896   6.982
 1221SOL    HW1 4562   5.818   3.854   0.046
 1221SOL    HW2 4563   5.935   3.924   6.980
 1222SOL     OW 4564   7.020   6.747   0.783
 1222SOL    HW1 4565   6.962   6.669   0.802
 1222SOL    HW2 4566   6.967   6.831   0.791
 1223SOL     OW 4567   5.910   0.212   7.011
 1223SOL    HW1 4568   5.928   0.233   6.915
 1223SOL    HW2 4569   5.811   0.213   0.003
 1224SOL     OW 4570   4.184   6.146   6.775
 1224SOL    HW1 4571   4.203   6.114   6.683
 1224SOL    HW2 4572   4.133   6.232   6.771
 1225SOL     OW 4573   3.875   1.539   0.889
 1225SOL    HW1 4574   3.908   1.596   0.814
 1225SOL    HW2 4575   3.886   1.442   0.865
 1226SOL     OW 4576   5.766   6.417   0.819
 1226SOL    HW1 4577   5.836   6.483   0.849
 1226SOL    HW2 4578   5.678   6.441   0.860
 1227SOL     OW 4579   5.830   4.675   5.337
 1227SOL    HW1 4580   5.742   4.721   5.353
 1227SOL    HW2 4581   5.847   4.609   5.409
 1228SOL     OW 4582   3.766   2.818   1.872
 1228SOL    HW1 4583   3.696   2.887   1.885
 1228SOL    HW2 4584   3.856   2.860   1.879
 1229SOL     OW 4585   0.667   6.926   2.159
 1229SOL    HW1 4586   0.624   6.836   2.172
 1229SOL    HW2 4587   0.678   6.944   2.062
 1230SOL     OW 4588   5.364   5.513   3.040
 1230SOL    HW1 4589   5.276   5.553   3.066
 1230SOL    HW2 4590   5.433   5.585   3.038
 1231SOL     OW 4591   1.643   2.668   6.023
 1231SOL    HW1 4592   1.568   2.699   6.083
 1231SOL    HW2 4593   1.729   2.670   6.074
 1232SOL     OW 4594   3.943   1.484   4.381
 1232SOL    HW1 4595   3.924   1.433   4.297
 1232SOL    HW2 4596   3.856   1.510   4.424
 1233SOL     OW 4597   1.168   4.653   3.603
 1233SOL    HW1 4598   1.185   4.569   3.551
 1233SOL    HW2 4599   1.102   4.709   3.553
 1234SOL     OW 4600   6.563   3.037   6.868
 1234SOL    HW1 4601   6.486   3.047   6.805
 1234SOL    HW2 4602   6.534   3.061   6.961
 1235SOL     OW 4603   6.001   5.085   6.967
 1235SOL    HW1 4604   6.065   5.029   6.915
 1235SOL    HW2 4605   5.937   5.026   7.016
 1236SOL     OW 4606   3.420   1.565   0.444
 1236SOL    HW1 4607   3.507   1.596   0.406
 1236SOL    HW2 4608   3.413   1.465   0.435
 1237SOL     OW 4609   1.515   0.299   4.677
 1237SOL    HW1 4610   1.599   0.273   4.723
 1237SOL    HW2 4611   1.535   0.332   4.585
 1238SOL     OW 4612   0.510   0.137   2.807
 1238SOL    HW1 4613   0.496   0.214   2.869
 1238SOL    HW2 4614   0.597   0.092   2.829
 1239SOL     OW 4615   6.899   4.887   4.462
 1239SOL    HW1 4616   6.821   4.949   4.468
 1239SOL    HW2 4617   6.866   4.792   4.461
 1240SOL     OW 4618   5.956   5.723   2.909
 1240SOL    HW1 4619   5.906   5.708   2.824
 1240SOL    HW2 4620   6.041   5.772   2.889
 1241SOL     OW 4621   6.771   5.188   4.176
 1241SOL    HW1 4622   6.691   5.128   4.170
 1241SOL    HW2 4623   6.742   5.283   4.172
 1242SOL     OW 4624   2.098   3.649   6.890
 1242SOL    HW1 4625   2.173   3.694   6.939
 1242SOL    HW2 4626   2.013   3.697   6.909
 1243SOL     OW 4627   0.657   2.874   5.734
 1243SOL    HW1 4628   0.640   2.942   5.663
 1243SOL    HW2 4629   0.713   2.800   5.697
 1244SOL     OW 4630   5.871   6.590   5.317
 1244SOL    HW1 4631   5.788   6.552   5.276
 1244SOL    HW2 4632   5.949   6.567   5.259
 1245SOL     OW 4633   5.572   5.699   1.264
 1245SOL    HW1 4634   5.629   5.719   1.343
 1245SOL    HW2 4635   5.586   5.604   1.234
 1246SOL     OW 4636   4.961   0.707   1.272
 1246SOL    HW1 4637   5.059   0.724   1.272
 1246SOL    HW2 4638   4.919   0.750   1.352
 1247SOL     OW 4639   6.749   6.690   4.081
 1247SOL    HW1 4640   6.758   6.666   4.178
 1247SOL    HW2 4641   6.686   6.768   4.072
 1248SOL     OW 4642   0.273   6.554   4.433
 1248SOL    HW1 4643   0.249   6.461   4.462
 1248SOL    HW2 4644   0.217   6.620   4.482
 1249SOL     OW 4645   0.465   4.314   1.452
 1249SOL    HW1 4646   0.522   4.252   1.398
 1249SOL    HW2 4647   0.412   4.261   1.519
 1250SOL     OW 4648   5.961   3.563   5.021
 1250SOL    HW1 4649   6.055   3.534   5.038
 1250SOL    HW2 4650   5.958   3.619   4.938
 1251SOL     OW 4651   2.396   1.645   2.777
 1251SOL    HW1 4652   2.411   1.719   2.712
 1251SOL    HW2 4653   2.466   1.576   2.766
 1252SOL     OW 4654   3.032   5.640   6.900
 1252SOL    HW1 4655   3.048   5.645   6.802
 1252SOL    HW2 4656   3.093   5.704   6.947
 1253SOL     OW 4657   2.889   0.920   0.762
 1253SOL    HW1 4658   2.813   0.854   0.766
 1253SOL    HW2 4659   2.966   0.879   0.714
 1254SOL     OW 4660   5.908   1.423   3.155
 1254SOL    HW1 4661   5.948   1.470   3.077
 1254SOL    HW2 4662   5.823   1.470   3.182
 1255SOL     OW 4663   5.640   2.526   4.904
 1255SOL    HW1 4664   5.729   2.482   4.914
 1255SOL    HW2 4665   5.650   2.625   4.919
 1256SOL     OW 4666   6.492   5.861   3.374
 1256SOL    HW1 4667   6.580   5.814   3.382
 1256SOL    HW2 4668   6.506   5.960   3.384
 1257SOL     OW 4669   0.478   4.603   4.217
 1257SOL    HW1 4670   0.482   4.647   4.128
 1257SOL    HW2 4671   0.568   4.562   4.237
 1258SOL     OW 4672   1.886   5.705   3.505
 1258SOL    HW1 4673   1.921   5.655   3.584
 1258SOL    HW2 4674   1.837   5.786   3.536
 1259SOL     OW 4675   4.558   0.114   5.363
 1259SOL    HW1 4676   4.557   0.068   5.452
 1259SOL    HW2 4677   4.465   0.135   5.335
 1260SOL     OW 4678   2.871   0.615   2.233
 1260SOL    HW1 4679   2.881   0.690   2.298
 1260SOL    HW2 4680   2.825   0.648   2.151
 1261SOL     OW 4681   0.248   3.971   0.081
 1261SOL    HW1 4682   0.346   3.990   0.080
 1261SOL    HW2 4683   0.202   4.026   0.012
 1262SOL     OW 4684   4.533   5.086   1.136
 1262SOL    HW1 4685   4.437   5.069   1.113
 1262SOL    HW2 4686   4.570   5.006   1.183
 1263SOL     OW 4687   6.541   2.284   1.177
 1263SOL    HW1 4688   6.537   2.383   1.165
 1263SOL    HW2 4689   6.569   2.241   1.091
 1264SOL     OW 4690   0.241   4.332   3.654
 1264SOL    HW1 4691   0.271   4.315   3.748
 1264SOL    HW2 4692   0.284   4.265   3.593
 1265SOL     OW 4693   0.555   3.950   3.928
 1265SOL    HW1 4694   0.600   3.903   3.852
 1265SOL    HW2 4695   0.457   3.958   3.909
 1266SOL     OW 4696   2.658   1.789   4.983
 1266SOL    HW1 4697   2.753   1.760   4.969
 1266SOL    HW2 4698   2.620   1.740   5.062
 1267SOL     OW 4699   6.650   5.911   2.638
 1267SOL    HW1 4700   6.708   5.833   2.663
 1267SOL    HW2 4701   6.708   5.990   2.614
 1268SOL     OW 4702   5.742   2.408   0.523
 1268SOL    HW1 4703   5.670   2.343   0.548
 1268SOL    HW2 4704   5.701   2.485   0.474
 1269SOL     OW 4705   6.669   6.750   5.525
 1269SOL    HW1 4706   6.628   6.827   5.475
 1269SOL    HW2 4707   6.751   6.719   5.477
 1270SOL     OW 4708   1.984   4.398   4.918
 1270SOL    HW1 4709   1.923   4.320   4.929
 1270SOL    HW2 4710   1.960   4.469   4.984
 1271SOL     OW 4711   3.371   1.902   3.321
 1271SOL    HW1 4712   3.299   1.853   3.370
 1271SOL    HW2 4713   3.366   1.881   3.223
 1272SOL     OW 4714   0.174   5.964   0.723
 1272SOL    HW1 4715   0.246   6.034   0.733
 1272SOL    HW2 4716   0.101   6.000   0.666
 1273SOL     OW 4717   2.020   4.046   0.349
 1273SOL    HW1 4718   2.077   4.014   0.273
 1273SOL    HW2 4719   2.026   4.146   0.355
 1274SOL     OW 4720   0.323   3.027   1.808
 1274SOL    HW1 4721   0.337   3.105   1.746
 1274SOL    HW2 4722   0.283   3.060   1.894
 1275SOL     OW 4723   4.347   0.461   3.750
 1275SOL    HW1 4724   4.397   0.541   3.785
 1275SOL    HW2 4725   4.258   0.455   3.796
 1276SOL     OW 4726   7.022   0.240   3.192
 1276SOL    HW1 4727   6.931   0.199   3.180
 1276SOL    HW2 4728   7.015   0.321   3.250
 1277SOL     OW 4729   0.471   1.046   4.591
 1277SOL    HW1 4730   0.457   0.981   4.665
 1277SOL    HW2 4731   0.569   1.060   4.577
 1278SOL     OW 4732   2.126   2.149   5.362
 1278SOL    HW1 4733   2.139   2.127   5.265
 1278SOL    HW2 4734   2.069   2.230   5.370
 1279SOL     OW 4735   2.627   0.134   0.861
 1279SOL    HW1 4736   2.530   0.114   0.874
 1279SOL    HW2 4737   2.682   0.069   0.913
 1280SOL     OW 4738   2.605   0.080   3.036
 1280SOL    HW1 4739   2.556   0.016   2.978
 1280SOL    HW2 4740   2.540   0.132   3.092
 1281SOL     OW 4741   1.058   5.393   2.926
 1281SOL    HW1 4742   1.147   5.347   2.923
 1281SOL    HW2 4743   0.986   5.325   2.943
 1282SOL     OW 4744   0.749   0.944   0.979
 1282SOL    HW1 4745   0.798   0.888   1.046
 1282SOL    HW2 4746   0.739   0.894   0.893
 1283SOL     OW 4747   5.664   3.589   5.462
 1283SOL    HW1 4748   5.719   3.547   5.534
 1283SOL    HW2 4749   5.723   3.646   5.405
 1284SOL     OW 4750   3.232   2.753   1.596
 1284SOL    HW1 4751   3.173   2.703   1.660
 1284SOL    HW2 4752   3.227   2.710   1.505
 1285SOL     OW 4753   5.517   3.515   6.560
 1285SOL    HW1 4754   5.433   3.469   6.591
 1285SOL    HW2 4755   5.564   3.554   6.639
 1286SOL     OW 4756   4.679   4.787   2.264
 1286SOL    HW1 4757   4.721   4.697   2.250
 1286SOL    HW2 4758   4.584   4.785   2.232
 1287SOL     OW 4759   5.581   4.748   6.846
 1287SOL    HW1 4760   5.630   4.823   6.802
 1287SOL    HW2 4761   5.483   4.765   6.842
 1288SOL     OW 4762   6.932   2.805   0.607
 1288SOL    HW1 4763   6.980   2.759   0.682
 1288SOL    HW2 4764   6.866   2.870   0.644
 1289SOL     OW 4765   0.171   5.789   1.407
 1289SOL    HW1 4766   0.215   5.701   1.420
 1289SOL    HW2 4767   0.117   5.812   1.489
 1290SOL     OW 4768   0.673   0.895   0.088
 1290SOL    HW1 4769   0.665   0.795   0.095
 1290SOL    HW2 4770   0.767   0.922   0.109
 1291SOL     OW 4771   1.745   4.771   6.322
 1291SOL    HW1 4772   1.748   4.722   6.235
 1291SOL    HW2 4773   1.779   4.863   6.310
 1292SOL     OW 4774   6.920   4.598   1.973
 1292SOL    HW1 4775   6.948   4.579   2.067
 1292SOL    HW2 4776   6.905   4.512   1.925
 1293SOL     OW 4777   2.929   1.208   5.913
 1293SOL    HW1 4778   3.014   1.236   5.867
 1293SOL    HW2 4779   2.881   1.141   5.857
 1294SOL     OW 4780   0.065   3.062   1.633
 1294SOL    HW1 4781   0.145   3.015   1.672
 1294SOL    HW2 4782   7.008   3.039   1.685
 1295SOL     OW 4783   6.269   3.642   2.764
 1295SOL    HW1 4784   6.209   3.716   2.795
 1295SOL    HW2 4785   6.360   3.679   2.745
 1296SOL     OW 4786   3.665   1.653   6.339
 1296SOL    HW1 4787   3.736   1.583   6.342
 1296SOL    HW2 4788   3.575   1.609   6.333
 1297SOL     OW 4789   5.598   1.139   6.133
 1297SOL    HW1 4790   5.573   1.129   6.037
 1297SOL    HW2 4791   5.667   1.211   6.142
 1298SOL     OW 4792   5.813   3.228   3.616
 1298SOL    HW1 4793   5.906   3.199   3.591
 1298SOL    HW2 4794   5.813   3.258   3.711
 1299SOL     OW 4795   1.843   4.036   3.268
 1299SOL    HW1 4796   1.783   4.070   3.341
 1299SOL    HW2 4797   1.787   4.014   3.188
 1300SOL     OW 4798   2.946   3.770   2.287
 1300SOL    HW1 4799   2.990   3.810   2.206
 1300SOL    HW2 4800   2.855   3.809   2.298
 1301SOL     OW 4801   0.940   6.647   2.553
 1301SOL    HW1 4802   0.888   6.624   2.635
 1301SOL    HW2 4803   0.915   6.584   2.479
 1302SOL     OW 4804   2.370   6.701   4.570
 1302SOL    HW1 4805   2.442   6.719   4.504
 1302SOL    HW2 4806   2.359   6.781   4.629
 1303SOL     OW 4807   3.907   0.830   0.839
 1303SOL    HW1 4808   3.822   0.882   0.838
 1303SOL    HW2 4809   3.984   0.891   0.819
 1304SOL     OW 4810   1.900   1.038   6.349
 1304SOL    HW1 4811   1.891   1.134   6.377
 1304SOL    HW2 4812   1.814   0.990   6.367
 1305SOL     OW 4813   5.721   5.496   5.646
 1305SOL    HW1 4814   5.699   5.515   5.742
 1305SOL    HW2 4815   5.641   5.454   5.601
 1306SOL     OW 4816   0.789   4.311   5.251
 1306SOL    HW1 4817   0.804   4.233   5.312
 1306SOL    HW2 4818   0.756   4.279   5.163
 1307SOL     OW 4819   1.611   3.121   4.500
 1307SOL    HW1 4820   1.663   3.204   4.482
 1307SOL    HW2 4821   1.571   3.125   4.591
 1308SOL     OW 4822   4.395   5.994   4.673
 1308SOL    HW1 4823   4.318   5.979   4.735
 1308SOL    HW2 4824   4.361   6.030   4.586
 1309SOL     OW 4825   5.487   3.399   5.328
 1309SOL    HW1 4826   5.536   3.477   5.366
 1309SOL    HW2 4827   5.535   3.367   5.246
 1310SOL     OW 4828   5.687   3.718   4.853
 1310SOL    HW1 4829   5.761   3.672   4.802
 1310SOL    HW2 4830   5.725   3.794   4.905
 1311SOL     OW 4831   6.169   6.443   3.945
 1311SOL    HW1 4832   6.090   6.489   3.905
 1311SOL    HW2 4833   6.140   6.389   4.024
 1312SOL     OW 4834   0.844   0.724   6.867
 1312SOL    HW1 4835   0.871   0.789   6.938
 1312SOL    HW2 4836   0.785   0.770   6.800
 1313SOL     OW 4837   2.320   5.603   5.671
 1313SOL    HW1 4838   2.415   5.632   5.660
 1313SOL    HW2 4839   2.266   5.636   5.594
 1314SOL     OW 4840   1.751   1.435   5.727
 1314SOL    HW1 4841   1.687   1.511   5.730
 1314SOL    HW2 4842   1.824   1.455   5.662
 1315SOL     OW 4843   0.854   1.066   0.236
 1315SOL    HW1 4844   0.788   1.099   0.304
 1315SOL    HW2 4845   0.925   1.013   0.282
 1316SOL     OW 4846   1.941   6.900   3.024
 1316SOL    HW1 4847   1.957   6.996   3.048
 1316SOL    HW2 4848   1.906   6.894   2.930
 1317SOL     OW 4849   0.539   4.406   4.600
 1317SOL    HW1 4850   0.476   4.482   4.589
 1317SOL    HW2 4851   0.580   4.383   4.512
 1318SOL     OW 4852   0.720   0.848   0.736
 1318SOL    HW1 4853   0.811   0.877   0.706
 1318SOL    HW2 4854   0.653   0.874   0.666
 1319SOL     OW 4855   6.301   1.735   0.022
 1319SOL    HW1 4856   6.379   1.794   0.005
 1319SOL    HW2 4857   6.219   1.790   0.037
 1320SOL     OW 4858   5.600   4.661   0.229
 1320SOL    HW1 4859   5.626   4.757   0.219
 1320SOL    HW2 4860   5.611   4.634   0.324
 1321SOL     OW 4861   4.228   2.747   0.284
 1321SOL    HW1 4862   4.181   2.660   0.268
 1321SOL    HW2 4863   4.327   2.732   0.287
 1322SOL     OW 4864   5.110   0.914   3.247
 1322SOL    HW1 4865   5.017   0.929   3.279
 1322SOL    HW2 4866   5.125   0.965   3.162
 1323SOL     OW 4867   5.561   1.635   5.472
 1323SOL    HW1 4868   5.576   1.661   5.377
 1323SOL    HW2 4869   5.517   1.711   5.521
 1324SOL     OW 4870   1.682   2.188   2.022
 1324SOL    HW1 4871   1.726   2.266   1.978
 1324SOL    HW2 4872   1.585   2.209   2.037
 1325SOL     OW 4873   2.419   0.015   2.817
 1325SOL    HW1 4874   2.372   7.007   2.735
 1325SOL    HW2 4875   2.474   6.965   2.856
 1326SOL     OW 4876   4.693   2.659   4.618
 1326SOL    HW1 4877   4.648   2.571   4.597
 1326SOL    HW2 4878   4.740   2.692   4.537
 1327SOL     OW 4879   2.616   5.545   2.898
 1327SOL    HW1 4880   2.700   5.597   2.880
 1327SOL    HW2 4881   2.606   5.529   2.996
 1328SOL     OW 4882   0.931   2.224   0.270
 1328SOL    HW1 4883   0.859   2.245   0.336
 1328SOL    HW2 4884   1.017   2.208   0.319
 1329SOL     OW 4885   6.639   1.627   0.996
 1329SOL    HW1 4886   6.600   1.622   1.088
 1329SOL    HW2 4887   6.572   1.669   0.934
 1330SOL     OW 4888   6.542   0.218   1.030
 1330SOL    HW1 4889   6.632   0.239   1.068
 1330SOL    HW2 4890   6.485   0.176   1.101
 1331SOL     OW 4891   5.078   2.094   3.316
 1331SOL    HW1 4892   5.095   2.157   3.391
 1331SOL    HW2 4893   5.160   2.040   3.298
 1332SOL     OW 4894   3.575   0.353   1.110
 1332SOL    HW1 4895   3.669   0.386   1.124
 1332SOL    HW2 4896   3.511   0.418   1.151
 1333SOL     OW 4897   3.700   4.320   5.412
 1333SOL    HW1 4898   3.694   4.257   5.490
 1333SOL    HW2 4899   3.762   4.283   5.343
 1334SOL     OW 4900   0.679   3.163   4.701
 1334SOL    HW1 4901   0.678   3.111   4.787
 1334SOL    HW2 4902   0.659   3.102   4.625
 1335SOL     OW 4903   1.877   6.615   2.800
 1335SOL    HW1 4904   1.859   6.531   2.750
 1335SOL    HW2 4905   1.790   6.664   2.816
 1336SOL     OW 4906   1.381   1.465   6.226
 1336SOL    HW1 4907   1.281   1.465   6.219
 1336SOL    HW2 4908   1.409   1.418   6.310
 1337SOL     OW 4909   1.085   2.486   5.120
 1337SOL    HW1 4910   1.115   2.578   5.145
 1337SOL    HW2 4911   0.989   2.475   5.145
 1338SOL     OW 4912   4.297   3.821   6.415
 1338SOL    HW1 4913   4.312   3.762   6.495
 1338SOL    HW2 4914   4.386   3.852   6.380
 1339SOL     OW 4915   6.828   5.130   6.536
 1339SOL    HW1 4916   6.850   5.219   6.496
 1339SOL    HW2 4917   6.885   5.115   6.616
 1340SOL     OW 4918   1.347   1.858   1.376
 1340SOL    HW1 4919   1.300   1.823   1.456
 1340SOL    HW2 4920   1.298   1.830   1.293
 1341SOL     OW 4921   4.410   0.884   5.314
 1341SOL    HW1 4922   4.478   0.883   5.388
 1341SOL    HW2 4923   4.412   0.973   5.268
 1342SOL     OW 4924   1.228   5.439   6.111
 1342SOL    HW1 4925   1.297   5.414   6.179
 1342SOL    HW2 4926   1.190   5.356   6.071
 1343SOL     OW 4927   3.769   6.797   2.328
 1343SOL    HW1 4928   3.702   6.869   2.346
 1343SOL    HW2 4929   3.859   6.839   2.311
 1344SOL     OW 4930   6.894   2.634   3.301
 1344SOL    HW1 4931   6.978   2.580   3.306
 1344SOL    HW2 4932   6.816   2.572   3.290
 1345SOL     OW 4933   0.757   1.267   3.687
 1345SOL    HW1 4934   0.691   1.304   3.622
 1345SOL    HW2 4935   0.845   1.254   3.641
 1346SOL     OW 4936   1.481   0.076   2.748
 1346SOL    HW1 4937   1.559   0.122   2.789
 1346SOL    HW2 4938   1.396   0.112   2.788
 1347SOL     OW 4939   6.070   6.473   3.615
 1347SOL    HW1 4940   6.099   6.556   3.662
 1347SOL    HW2 4941   6.142   6.442   3.554
 1348SOL     OW 4942   5.618   5.174   3.719
 1348SOL    HW1 4943   5.537   5.203   3.667
 1348SOL    HW2 4944   5.666   5.102   3.668
 1349SOL     OW 4945   4.657   2.778   6.846
 1349SOL    HW1 4946   4.583   2.793   6.780
 1349SOL    HW2 4947   4.643   2.690   6.892
 1350SOL     OW 4948   3.612   4.990   6.788
 1350SOL    HW1 4949   3.606   5.089   6.791
 1350SOL    HW2 4950   3.700   4.961   6.825
 1351SOL     OW 4951   0.881   0.947   2.997
 1351SOL    HW1 4952   0.878   0.975   2.901
 1351SOL    HW2 4953   0.925   1.018   3.052
 1352SOL     OW 4954   0.319   6.929   3.630
 1352SOL    HW1 4955   0.260   6.865   3.580
 1352SOL    HW2 4956   0.305   7.022   3.593
 1353SOL     OW 4957   6.517   4.504   5.508
 1353SOL    HW1 4958   6.561   4.584   5.549
 1353SOL    HW2 4959   6.513   4.430   5.574
 1354SOL     OW 4960   6.836   1.303   1.119
 1354SOL    HW1 4961   6.907   1.249   1.074
 1354SOL    HW2 4962   6.759   1.317   1.057
 1355SOL     OW 4963   5.297   3.937   0.289
 1355SOL    HW1 4964   5.261   3.849   0.259
 1355SOL    HW2 4965   5.319   3.933   0.386
 1356SOL     OW 4966   3.517   3.667   3.660
 1356SOL    HW1 4967   3.562   3.599   3.602
 1356SOL    HW2 4968   3.455   3.722   3.604
 1357SOL     OW 4969   2.352   3.378   6.179
 1357SOL    HW1 4970   2.339   3.395   6.082
 1357SOL    HW2 4971   2.266   3.346   6.219
 1358SOL     OW 4972   2.514   2.505   5.751
 1358SOL    HW1 4973   2.552   2.415   5.774
 1358SOL    HW2 4974   2.445   2.494   5.679
 1359SOL     OW 4975   6.901   3.729   1.426
 1359SOL    HW1 4976   6.840   3.734   1.505
 1359SOL    HW2 4977   6.963   3.652   1.437
 1360SOL     OW 4978   3.725   3.565   2.380
 1360SOL    HW1 4979   3.759   3.566   2.474
 1360SOL    HW2 4980   3.696   3.472   2.356
 1361SOL     OW 4981   0.611   0.142   6.016
 1361SOL    HW1 4982   0.646   0.136   5.923
 1361SOL    HW2 4983   0.655   0.073   6.073
 1362SOL     OW 4984   2.821   3.316   5.478
 1362SOL    HW1 4985   2.814   3.401   5.426
 1362SOL    HW2 4986   2.781   3.241   5.426
 1363SOL     OW 4987   6.179   5.701   3.941
 1363SOL    HW1 4988   6.183   5.777   4.005
 1363SOL    HW2 4989   6.255   5.638   3.961
 1364SOL     OW 4990   6.926   2.780   0.174
 1364SOL    HW1 4991   6.854   2.724   0.133
 1364SOL    HW2 4992   6.961   2.734   0.256
 1365SOL     OW 4993   0.763   4.050   5.365
 1365SOL    HW1 4994   0.811   3.993   5.432
 1365SOL    HW2 4995   0.738   3.994   5.286
 1366SOL     OW 4996   6.988   3.163   0.773
 1366SOL    HW1 4997   6.982   3.245   0.717
 1366SOL    HW2 4998   0.037   3.174   0.840
 1367SOL     OW 4999   1.397   4.838   3.554
 1367SOL    HW1 5000   1.371   4.934   3.562
 1367SOL    HW2 5001   1.315   4.781   3.562
 1368SOL     OW 5002   6.574   6.918   4.111
 1368SOL    HW1 5003   6.561   6.936   4.209
 1368SOL    HW2 5004   6.493   6.874   4.074
 1369SOL     OW 5005   2.489   6.110   1.786
 1369SOL    HW1 5006   2.418   6.073   1.725
 1369SOL    HW2 5007   2.524   6.195   1.748
 1370SOL     OW 5008   6.734   1.490   4.229
 1370SOL    HW1 5009   6.658   1.518   4.288
 1370SOL    HW2 5010   6.711   1.511   4.134
 1371SOL     OW 5011   4.844   1.385   5.234
 1371SOL    HW1 5012   4.859   1.381   5.333
 1371SOL    HW2 5013   4.757   1.430   5.215
 1372SOL     OW 5014   6.237   2.329   1.241
 1372SOL    HW1 5015   6.250   2.298   1.147
 1372SOL    HW2 5016   6.326   2.339   1.286
 1373SOL     OW 5017   5.158   1.650   0.767
 1373SOL    HW1 5018   5.123   1.558   0.777
 1373SOL    HW2 5019   5.236   1.663   0.828
 1374SOL     OW 5020   5.292   4.207   0.285
 1374SOL    HW1 5021   5.294   4.108   0.276
 1374SOL    HW2 5022   5.275   4.231   0.380
 1375SOL     OW 5023   0.037   6.265   6.228
 1375SOL    HW1 5024   0.083   6.247   6.141
 1375SOL    HW2 5025   0.078   6.209   6.300
 1376SOL     OW 5026   3.129   4.749   6.089
 1376SOL    HW1 5027   3.200   4.770   6.022
 1376SOL    HW2 5028   3.088   4.834   6.121
 1377SOL     OW 5029   1.288   2.187   4.028
 1377SOL    HW1 5030   1.327   2.275   3.999
 1377SOL    HW2 5031   1.361   2.128   4.063
 1378SOL     OW 5032   4.640   2.565   4.887
 1378SOL    HW1 5033   4.551   2.518   4.886
 1378SOL    HW2 5034   4.667   2.589   4.794
 1379SOL     OW 5035   5.007   5.648   2.899
 1379SOL    HW1 5036   5.068   5.727   2.895
 1379SOL    HW2 5037   5.003   5.614   2.993
 1380SOL     OW 5038   6.958   6.392   2.782
 1380SOL    HW1 5039   6.864   6.398   2.749
 1380SOL    HW2 5040   6.957   6.368   2.879
 1381SOL     OW 5041   5.652   1.904   6.637
 1381SOL    HW1 5042   5.566   1.871   6.598
 1381SOL    HW2 5043   5.653   1.887   6.735
 1382SOL     OW 5044   4.885   3.248   1.596
 1382SOL    HW1 5045   4.789   3.270   1.580
 1382SOL    HW2 5046   4.942   3.328   1.577
 1383SOL     OW 5047   0.656   0.015   1.350
 1383SOL    HW1 5048   0.719   0.083   1.387
 1383SOL    HW2 5049   0.677   7.022   1.254
 1384SOL     OW 5050   4.437   6.930   1.033
 1384SOL    HW1 5051   4.486   6.989   0.968
 1384SOL    HW2 5052   4.339   6.949   1.027
 1385SOL     OW 5053   2.342   4.721   3.832
 1385SOL    HW1 5054   2.271   4.733   3.762
 1385SOL    HW2 5055   2.398   4.803   3.837
 1386SOL     OW 5056   3.262   0.037   3.127
 1386SOL    HW1 5057   3.339   0.035   3.191
 1386SOL    HW2 5058   3.203   6.983   3.143
 1387SOL     OW 5059   2.957   5.712   1.993
 1387SOL    HW1 5060   3.001   5.705   1.903
 1387SOL    HW2 5061   2.906   5.629   2.013
 1388SOL     OW 5062   6.360   6.467   1.097
 1388SOL    HW1 5063   6.385   6.390   1.157
 1388SOL    HW2 5064   6.320   6.540   1.152
 1389SOL     OW 5065   5.796   2.165   3.395
 1389SOL    HW1 5066   5.895   2.161   3.381
 1389SOL    HW2 5067   5.773   2.251   3.440
 1390SOL     OW 5068   0.108   3.940   0.317
 1390SOL    HW1 5069   0.150   3.959   0.228
 1390SOL    HW2 5070   0.014   3.973   0.318
 1391SOL     OW 5071   6.419   0.164   3.899
 1391SOL    HW1 5072   6.377   0.083   3.859
 1391SOL    HW2 5073   6.513   0.172   3.867
 1392SOL     OW 5074   5.212   5.504   6.259
 1392SOL    HW1 5075   5.184   5.600   6.248
 1392SOL    HW2 5076   5.241   5.489   6.354
 1393SOL     OW 5077   6.125   4.895   4.957
 1393SOL    HW1 5078   6.209   4.941   4.986
 1393SOL    HW2 5079   6.105   4.919   4.862
 1394SOL     OW 5080   2.841   6.257   4.992
 1394SOL    HW1 5081   2.783   6.183   5.026
 1394SOL    HW2 5082   2.905   6.220   4.924
 1395SOL     OW 5083   2.570   4.012   5.934
 1395SOL    HW1 5084   2.545   4.060   6.017
 1395SOL    HW2 5085   2.488   3.979   5.887
 1396SOL     OW 5086   2.003   0.829   4.936
 1396SOL    HW1 5087   2.078   0.831   5.001
 1396SOL    HW2 5088   2.025   0.767   4.861
 1397SOL     OW 5089   0.378   0.377   3.905
 1397SOL    HW1 5090   0.320   0.457   3.887
 1397SOL    HW2 5091   0.468   0.408   3.934
 1398SOL     OW 5092   2.694   0.972   5.599
 1398SOL    HW1 5093   2.702   1.068   5.626
 1398SOL    HW2 5094   2.668   0.966   5.503
 1399SOL     OW 5095   3.676   6.264   0.860
 1399SOL    HW1 5096   3.663   6.183   0.918
 1399SOL    HW2 5097   3.662   6.347   0.915
 1400SOL     OW 5098   6.764   1.234   2.760
 1400SOL    HW1 5099   6.689   1.236   2.694
 1400SOL    HW2 5100   6.812   1.147   2.754
 1401SOL     OW 5101   7.015   1.937   4.960
 1401SOL    HW1 5102   6.977   1.997   5.030
 1401SOL    HW2 5103   0.035   1.992   4.890
 1402SOL     OW 5104   0.858   4.160   0.216
 1402SOL    HW1 5105   0.808   4.108   0.147
 1402SOL    HW2 5106   0.799   4.230   0.255
 1403SOL     OW 5107   2.878   1.694   1.681
 1403SOL    HW1 5108   2.965   1.677   1.634
 1403SOL    HW2 5109   2.805   1.643   1.637
 1404SOL     OW 5110   5.538   6.912   6.994
 1404SOL    HW1 5111   5.527   6.835   0.033
 1404SOL    HW2 5112   5.474   6.901   6.918
 1405SOL     OW 5113   2.223   3.705   1.055
 1405SOL    HW1 5114   2.139   3.657   1.029
 1405SOL    HW2 5115   2.204   3.804   1.060
 1406SOL     OW 5116   1.392   5.263   1.436
 1406SOL    HW1 5117   1.452   5.188   1.406
 1406SOL    HW2 5118   1.345   5.301   1.357
 1407SOL     OW 5119   0.669   1.900   2.008
 1407SOL    HW1 5120   0.627   1.892   1.918
 1407SOL    HW2 5121   0.605   1.942   2.072
 1408SOL     OW 5122   5.463   1.423   5.933
 1408SOL    HW1 5123   5.516   1.473   6.002
 1408SOL    HW2 5124   5.518   1.410   5.851
 1409SOL     OW 5125   0.554   0.869   4.822
 1409SOL    HW1 5126   0.603   0.910   4.900
 1409SOL    HW2 5127   0.538   0.772   4.840
 1410SOL     OW 5128   2.040   3.489   6.266
 1410SOL    HW1 5129   2.000   3.398   6.276
 1410SOL    HW2 5130   2.127   3.493   6.315
 1411SOL     OW 5131   2.594   6.517   1.918
 1411SOL    HW1 5132   2.600   6.581   1.995
 1411SOL    HW2 5133   2.664   6.446   1.929
 1412SOL     OW 5134   0.116   1.935   0.971
 1412SOL    HW1 5135   0.184   1.988   0.920
 1412SOL    HW2 5136   0.024   1.970   0.950
 1413SOL     OW 5137   1.844   1.218   5.139
 1413SOL    HW1 5138   1.939   1.226   5.108
 1413SOL    HW2 5139   1.841   1.221   5.239
 1414SOL     OW 5140   2.745   1.257   1.816
 1414SOL    HW1 5141   2.798   1.215   1.742
 1414SOL    HW2 5142   2.652   1.277   1.784
 1415SOL     OW 5143   2.396   0.704   4.795
 1415SOL    HW1 5144   2.428   0.781   4.852
 1415SOL    HW2 5145   2.298   0.714   4.778
 1416SOL     OW 5146   4.631   4.508   4.338
 1416SOL    HW1 5147   4.690   4.427   4.333
 1416SOL    HW2 5148   4.561   4.493   4.408
 1417SOL     OW 5149   3.199   1.538   6.972
 1417SOL    HW1 5150   3.286   1.576   7.005
 1417SOL    HW2 5151   3.209   1.511   6.876
 1418SOL     OW 5152   2.995   3.397   3.463
 1418SOL    HW1 5153   2.931   3.415   3.538
 1418SOL    HW2 5154   3.080   3.359   3.500
 1419SOL     OW 5155   2.434   6.070   5.035
 1419SOL    HW1 5156   2.374   6.149   5.052
 1419SOL    HW2 5157   2.382   5.986   5.046
 1420SOL     OW 5158   2.495   0.230   1.539
 1420SOL    HW1 5159   2.420   0.283   1.499
 1420SOL    HW2 5160   2.458   0.162   1.602
 1421SOL     OW 5161   1.887   3.207   3.458
 1421SOL    HW1 5162   1.957   3.248   3.400
 1421SOL    HW2 5163   1.903   3.108   3.465
 1422SOL     OW 5164   1.893   3.481   1.261
 1422SOL    HW1 5165   1.972   3.433   1.301
 1422SOL    HW2 5166   1.913   3.502   1.165
 1423SOL     OW 5167   5.318   6.478   3.398
 1423SOL    HW1 5168   5.310   6.384   3.430
 1423SOL    HW2 5169   5.229   6.524   3.406
 1424SOL     OW 5170   6.790   4.650   5.264
 1424SOL    HW1 5171   6.870   4.674   5.209
 1424SOL    HW2 5172   6.784   4.551   5.271
 1425SOL     OW 5173   1.095   6.486   4.639
 1425SOL    HW1 5174   1.010   6.527   4.673
 1425SOL    HW2 5175   1.173   6.541   4.668
 1426SOL     OW 5176   1.710   2.262   6.246
 1426SOL    HW1 5177   1.749   2.310   6.168
 1426SOL    HW2 5178   1.702   2.325   6.323
 1427SOL     OW 5179   0.285   6.396   3.516
 1427SOL    HW1 5180   0.244   6.447   3.440
 1427SOL    HW2 5181   0.335   6.459   3.575
 1428SOL     OW 5182   5.520   2.651   0.875
 1428SOL    HW1 5183   5.569   2.683   0.794
 1428SOL    HW2 5184   5.425   2.679   0.870
 1429SOL     OW 5185   5.360   1.778   0.561
 1429SOL    HW1 5186   5.458   1.772   0.582
 1429SOL    HW2 5187   5.309   1.793   0.645
 1430SOL     OW 5188   1.787   4.570   3.786
 1430SOL    HW1 5189   1.812   4.644   3.849
 1430SOL    HW2 5190   1.795   4.483   3.833
 1431SOL     OW 5191   2.469   1.988   0.647
 1431SOL    HW1 5192   2.404   1.917   0.675
 1431SOL    HW2 5193   2.444   2.021   0.556
 1432SOL     OW 5194   3.476   1.273   2.730
 1432SOL    HW1 5195   3.442   1.352   2.677
 1432SOL    HW2 5196   3.552   1.301   2.788
 1433SOL     OW 5197   4.034   1.272   5.061
 1433SOL    HW1 5198   3.992   1.193   5.017
 1433SOL    HW2 5199   3.966   1.344   5.072
 1434SOL     OW 5200   0.085   0.578   5.961
 1434SOL    HW1 5201   0.046   0.487   5.979
 1434SOL    HW2 5202   0.169   0.589   6.014
 1435SOL     OW 5203   6.326   0.358   2.701
 1435SOL    HW1 5204   6.388   0.347   2.623
 1435SOL    HW2 5205   6.317   0.455   2.723
 1436SOL     OW 5206   5.928   3.812   0.441
 1436SOL    HW1 5207   5.874   3.794   0.524
 1436SOL    HW2 5208   6.012   3.861   0.466
 1437SOL     OW 5209   2.592   2.503   3.207
 1437SOL    HW1 5210   2.660   2.449   3.257
 1437SOL    HW2 5211   2.508   2.507   3.260
 1438SOL     OW 5212   3.286   6.251   1.289
 1438SOL    HW1 5213   3.281   6.178   1.221
 1438SOL    HW2 5214   3.286   6.340   1.242
 1439SOL     OW 5215   6.816   5.815   1.430
 1439SOL    HW1 5216   6.878   5.894   1.432
 1439SOL    HW2 5217   6.797   5.790   1.335
 1440SOL     OW 5218   3.174   3.516   0.009
 1440SOL    HW1 5219   3.239   3.572   0.061
 1440SOL    HW2 5220   3.204   3.420   0.013
 1441SOL     OW 5221   5.912   0.875   2.945
 1441SOL    HW1 5222   5.853   0.795   2.963
 1441SOL    HW2 5223   5.935   0.918   3.032
 1442SOL     OW 5224   6.888   5.821   6.894
 1442SOL    HW1 5225   6.951   5.746   6.877
 1442SOL    HW2 5226   6.800   5.784   6.927
 1443SOL     OW 5227   0.415   3.131   2.528
 1443SOL    HW1 5228   0.432   3.048   2.581
 1443SOL    HW2 5229   0.342   3.184   2.572
 1444SOL     OW 5230   5.280   5.985   0.813
 1444SOL    HW1 5231   5.246   6.067   0.860
 1444SOL    HW2 5232   5.217   5.961   0.739
 1445SOL     OW 5233   0.557   2.516   2.428
 1445SOL    HW1 5234   0.553   2.613   2.406
 1445SOL    HW2 5235   0.645   2.494   2.469
 1446SOL     OW 5236   5.836   1.155   0.125
 1446SOL    HW1 5237   5.889   1.154   0.040
 1446SOL    HW2 5238   5.822   1.250   0.155
 1447SOL     OW 5239   6.061   5.756   4.294
 1447SOL    HW1 5240   6.027   5.833   4.348
 1447SOL    HW2 5241   6.135   5.787   4.235
 1448SOL     OW 5242   6.441   2.828   5.469
 1448SOL    HW1 5243   6.474   2.738   5.498
 1448SOL    HW2 5244   6.399   2.875   5.546
 1449SOL     OW 5245   1.367   3.725   5.466
 1449SOL    HW1 5246   1.465   3.738   5.447
 1449SOL    HW2 5247   1.355   3.695   5.560
 1450SOL     OW 5248   0.900   1.940   0.239
 1450SOL    HW1 5249   0.825   1.969   0.297
 1450SOL    HW2 5250   0.956   2.019   0.214
 1451SOL     OW 5251   1.316   6.801   2.441
 1451SOL    HW1 5252   1.219   6.805   2.416
 1451SOL    HW2 5253   1.370   6.853   2.374
 1452SOL     OW 5254   4.323   2.479   5.517
 1452SOL    HW1 5255   4.416   2.482   5.553
 1452SOL    HW2 5256   4.262   2.529   5.578
 1453SOL     OW 5257   0.739   4.087   6.194
 1453SOL    HW1 5258   0.817   4.028   6.171
 1453SOL    HW2 5259   0.753   4.126   6.285
 1454SOL     OW 5260   1.255   2.293   1.751
 1454SOL    HW1 5261   1.253   2.321   1.846
 1454SOL    HW2 5262   1.222   2.199   1.743
 1455SOL     OW 5263   1.879   6.781   2.229
 1455SOL    HW1 5264   1.782   6.767   2.211
 1455SOL    HW2 5265   1.890   6.837   2.311
 1456SOL     OW 5266   6.465   0.643   6.172
 1456SOL    HW1 5267   6.548   0.680   6.130
 1456SOL    HW2 5268   6.460   0.544   6.154
 1457SOL     OW 5269   1.032   5.861   0.795
 1457SOL    HW1 5270   0.944   5.832   0.758
 1457SOL    HW2 5271   1.081   5.916   0.727
 1458SOL     OW 5272   6.055   4.873   5.254
 1458SOL    HW1 5273   6.060   4.874   5.154
 1458SOL    HW2 5274   6.014   4.788   5.285
 1459SOL     OW 5275   4.121   6.567   5.346
 1459SOL    HW1 5276   4.056   6.638   5.372
 1459SOL    HW2 5277   4.199   6.608   5.299
 1460SOL     OW 5278   1.290   6.935   5.476
 1460SOL    HW1 5279   1.375   6.985   5.465
 1460SOL    HW2 5280   1.303   6.840   5.446
 1461SOL     OW 5281   0.186   4.056   2.743
 1461SOL    HW1 5282   0.179   3.977   2.804
 1461SOL    HW2 5283   0.094   4.083   2.713
 1462SOL     OW 5284   0.972   1.188   6.693
 1462SOL    HW1 5285   0.967   1.287   6.706
 1462SOL    HW2 5286   0.883   1.154   6.663
 1463SOL     OW 5287   1.025   5.182   5.730
 1463SOL    HW1 5288   1.076   5.268   5.731
 1463SOL    HW2 5289   1.061   5.123   5.658
 1464SOL     OW 5290   6.536   5.447   2.494
 1464SOL    HW1 5291   6.590   5.517   2.447
 1464SOL    HW2 5292   6.528   5.366   2.435
 1465SOL     OW 5293   1.720   0.909   3.985
 1465SOL    HW1 5294   1.672   0.995   3.967
 1465SOL    HW2 5295   1.749   0.908   4.081
 1466SOL     OW 5296   3.678   1.694   1.999
 1466SOL    HW1 5297   3.584   1.726   1.984
 1466SOL    HW2 5298   3.677   1.619   2.065
 1467SOL     OW 5299   1.627   1.108   3.716
 1467SOL    HW1 5300   1.711   1.062   3.686
 1467SOL    HW2 5301   1.630   1.123   3.815
 1468SOL     OW 5302   2.060   5.776   2.105
 1468SOL    HW1 5303   2.100   5.780   2.196
 1468SOL    HW2 5304   2.132   5.781   2.036
 1469SOL     OW 5305   7.024   6.859   2.593
 1469SOL    HW1 5306   7.007   6.833   2.688
 1469SOL    HW2 5307   0.089   6.823   2.564
 1470SOL     OW 5308   0.606   1.443   2.102
 1470SOL    HW1 5309   0.690   1.483   2.066
 1470SOL    HW2 5310   0.547   1.515   2.139
 1471SOL     OW 5311   0.944   0.060   0.114
 1471SOL    HW1 5312   1.001   0.138   0.088
 1471SOL    HW2 5313   0.924   0.064   0.211
 1472SOL     OW 5314   3.188   5.879   0.018
 1472SOL    HW1 5315   3.271   5.913   6.999
 1472SOL    HW2 5316   3.206   5.860   0.115
 1473SOL     OW 5317   3.415   5.617   5.218
 1473SOL    HW1 5318   3.428   5.715   5.202
 1473SOL    HW2 5319   3.504   5.571   5.215
 1474SOL     OW 5320   5.074   4.241   1.204
 1474SOL    HW1 5321   5.123   4.242   1.117
 1474SOL    HW2 5322   5.040   4.332   1.225
 1475SOL     OW 5323   5.490   0.960   0.688
 1475SOL    HW1 5324   5.465   0.877   0.738
 1475SOL    HW2 5325   5.578   0.945   0.643
 1476SOL     OW 5326   2.257   1.667   1.008
 1476SOL    HW1 5327   2.312   1.602   0.956
 1476SOL    HW2 5328   2.317   1.727   1.061
 1477SOL     OW 5329   3.628   6.173   6.603
 1477SOL    HW1 5330   3.553   6.143   6.661
 1477SOL    HW2 5331   3.659   6.097   6.546
 1478SOL     OW 5332   6.259   5.539   5.374
 1478SOL    HW1 5333   6.275   5.598   5.453
 1478SOL    HW2 5334   6.285   5.587   5.290
 1479SOL     OW 5335   3.183   3.589   1.114
 1479SOL    HW1 5336   3.260   3.539   1.153
 1479SOL    HW2 5337   3.188   3.584   1.014
 1480SOL     OW 5338   2.900   6.656   4.393
 1480SOL    HW1 5339   2.944   6.737   4.354
 1480SOL    HW2 5340   2.842   6.613   4.324
 1481SOL     OW 5341   5.867   3.223   6.073
 1481SOL    HW1 5342   5.850   3.318   6.097
 1481SOL    HW2 5343   5.899   3.174   6.154
 1482SOL     OW 5344   4.584   0.327   1.662
 1482SOL    HW1 5345   4.510   0.268   1.630
 1482SOL    HW2 5346   4.574   0.418   1.623
 1483SOL     OW 5347   5.735   2.277   5.220
 1483SOL    HW1 5348   5.657   2.215   5.220
 1483SOL    HW2 5349   5.703   2.372   5.225
 1484SOL     OW 5350   4.564   4.672   3.676
 1484SOL    HW1 5351   4.641   4.721   3.717
 1484SOL    HW2 5352   4.598   4.611   3.605
 1485SOL     OW 5353   5.282   0.568   4.525
 1485SOL    HW1 5354   5.371   0.554   4.481
 1485SOL    HW2 5355   5.213   0.584   4.455
 1486SOL     OW 5356   4.899   0.638   3.472
 1486SOL    HW1 5357   4.872   0.717   3.527
 1486SOL    HW2 5358   4.993   0.649   3.440
 1487SOL     OW 5359   0.060   2.190   0.007
 1487SOL    HW1 5360   0.050   2.280   6.989
 1487SOL    HW2 5361   6.994   2.151   0.023
 1488SOL     OW 5362   4.450   0.075   3.525
 1488SOL    HW1 5363   4.443   7.022   3.587
 1488SOL    HW2 5364   4.376   0.070   3.457
 1489SOL     OW 5365   3.330   4.598   6.247
 1489SOL    HW1 5366   3.248   4.631   6.202
 1489SOL    HW2 5367   3.405   4.593   6.181
 1490SOL     OW 5368   0.325   3.543   0.967
 1490SOL    HW1 5369   0.372   3.455   0.968
 1490SOL    HW2 5370   0.278   3.555   0.879
 1491SOL     OW 5371   6.546   3.782   2.660
 1491SOL    HW1 5372   6.484   3.858   2.679
 1491SOL    HW2 5373   6.574   3.786   2.564
 1492SOL     OW 5374   5.940   0.141   2.372
 1492SOL    HW1 5375   5.958   0.223   2.427
 1492SOL    HW2 5376   5.856   0.153   2.320
 1493SOL     OW 5377   3.887   0.168   6.105
 1493SOL    HW1 5378   3.844   0.229   6.039
 1493SOL    HW2 5379   3.927   0.090   6.058
 1494SOL     OW 5380   6.130   2.702   6.686
 1494SOL    HW1 5381   6.143   2.801   6.694
 1494SOL    HW2 5382   6.101   2.665   6.775
 1495SOL     OW 5383   0.045   4.191   5.368
 1495SOL    HW1 5384   0.144   4.199   5.380
 1495SOL    HW2 5385   0.023   4.097   5.342
 1496SOL     OW 5386   1.310   0.761   0.161
 1496SOL    HW1 5387   1.363   0.697   0.105
 1496SOL    HW2 5388   1.213   0.736   0.158
 1497SOL     OW 5389   5.106   3.072   2.349
 1497SOL    HW1 5390   5.006   3.069   2.339
 1497SOL    HW2 5391   5.140   2.980   2.368
 1498SOL     OW 5392   2.348   4.583   0.944
 1498SOL    HW1 5393   2.348   4.602   0.846
 1498SOL    HW2 5394   2.256   4.556   0.974
 1499SOL     OW 5395   0.096   3.106   6.033
 1499SOL    HW1 5396   0.165   3.035   6.039
 1499SOL    HW2 5397   0.121   3.182   6.093
 1500SOL     OW 5398   0.497   6.804   0.328
 1500SOL    HW1 5399   0.445   6.822   0.411
 1500SOL    HW2 5400   0.441   6.826   0.248
 1501SOL     OW 5401   5.829   1.994   6.289
 1501SOL    HW1 5402   5.803   2.063   6.357
 1501SOL    HW2 5403   5.882   1.922   6.333
 1502SOL     OW 5404   4.730   1.081   0.112
 1502SOL    HW1 5405   4.815   1.077   0.060
 1502SOL    HW2 5406   4.739   1.026   0.195
 1503SOL     OW 5407   1.453   3.259   2.485
 1503SOL    HW1 5408   1.434   3.181   2.424
 1503SOL    HW2 5409   1.549   3.255   2.514
 1504SOL     OW 5410   0.553   0.081   3.874
 1504SOL    HW1 5411   0.644   0.071   3.834
 1504SOL    HW2 5412   0.491   0.123   3.808
 1505SOL     OW 5413   5.089   6.892   5.439
 1505SOL    HW1 5414   5.032   6.973   5.426
 1505SOL    HW2 5415   5.155   6.910   5.512
 1506SOL     OW 5416   1.064   6.873   0.010
 1506SOL    HW1 5417   1.031   6.840   6.946
 1506SOL    HW2 5418   1.005   6.948   0.041
 1507SOL     OW 5419   0.224   2.090   5.326
 1507SOL    HW1 5420   0.303   2.034   5.300
 1507SOL    HW2 5421   0.256   2.174   5.370
 1508SOL     OW 5422   6.046   1.544   1.599
 1508SOL    HW1 5423   6.118   1.604   1.632
 1508SOL    HW2 5424   6.027   1.473   1.667
 1509SOL     OW 5425   4.910   2.055   5.171
 1509SOL    HW1 5426   4.818   2.032   5.203
 1509SOL    HW2 5427   4.914   2.151   5.145
 1510SOL     OW 5428   5.568   7.004   4.709
 1510SOL    HW1 5429   5.493   0.029   4.753
 1510SOL    HW2 5430   5.581   6.917   4.756
 1511SOL     OW 5431   4.124   3.690   4.119
 1511SOL    HW1 5432   4.138   3.595   4.146
 1511SOL    HW2 5433   4.130   3.749   4.200
 1512SOL     OW 5434   6.541   5.773   1.507
 1512SOL    HW1 5435   6.530   5.688   1.560
 1512SOL    HW2 5436   6.637   5.785   1.483
 1513SOL     OW 5437   3.697   0.383   4.493
 1513SOL    HW1 5438   3.677   0.364   4.589
 1513SOL    HW2 5439   3.715   0.481   4.481
 1514SOL     OW 5440   3.924   2.768   5.991
 1514SOL    HW1 5441   3.925   2.669   5.998
 1514SOL    HW2 5442   3.901   2.808   6.080
 1515SOL     OW 5443   5.728   1.534   2.797
 1515SOL    HW1 5444   5.736   1.448   2.848
 1515SOL    HW2 5445   5.632   1.562   2.792
 1516SOL     OW 5446   5.875   5.262   5.707
 1516SOL    HW1 5447   5.872   5.182   5.647
 1516SOL    HW2 5448   5.800   5.325   5.684
 1517SOL     OW 5449   4.113   5.953   2.673
 1517SOL    HW1 5450   4.212   5.961   2.672
 1517SOL    HW2 5451   4.071   6.042   2.652
 1518SOL     OW 5452   6.663   2.764   0.404
 1518SOL    HW1 5453   6.697   2.730   0.491
 1518SOL    HW2 5454   6.711   2.849   0.380
 1519SOL     OW 5455   6.244   4.625   1.024
 1519SOL    HW1 5456   6.316   4.623   1.094
 1519SOL    HW2 5457   6.230   4.719   0.994
 1520SOL     OW 5458   0.507   4.701   1.593
 1520SOL    HW1 5459   0.579   4.649   1.637
 1520SOL    HW2 5460   0.421   4.650   1.597
 1521SOL     OW 5461   2.552   4.451   6.529
 1521SOL    HW1 5462   2.465   4.421   6.490
 1521SOL    HW2 5463   2.578   4.390   6.603
 1522SOL     OW 5464   6.476   5.680   4.977
 1522SOL    HW1 5465   6.399   5.621   5.001
 1522SOL    HW2 5466   6.533   5.635   4.908
 1523SOL     OW 5467   3.657   6.465   7.023
 1523SOL    HW1 5468   3.746   6.424   7.004
 1523SOL    HW2 5469   3.589   6.430   6.959
 1524SOL     OW 5470   2.595   1.668   2.027
 1524SOL    HW1 5471   2.646   1.582   2.020
 1524SOL    HW2 5472   2.644   1.731   2.087
 1525SOL     OW 5473   6.268   3.119   0.671
 1525SOL    HW1 5474   6.193   3.053   0.677
 1525SOL    HW2 5475   6.230   3.212   0.673
 1526SOL     OW 5476   6.828   1.103   0.053
 1526SOL    HW1 5477   6.917   1.082   0.014
 1526SOL    HW2 5478   6.760   1.040   0.015
 1527SOL     OW 5479   3.310   1.064   4.072
 1527SOL    HW1 5480   3.368   1.124   4.127
 1527SOL    HW2 5481   3.223   1.110   4.054
 1528SOL     OW 5482   4.350   4.660   2.605
 1528SOL    HW1 5483   4.412   4.732   2.637
 1528SOL    HW2 5484   4.397   4.572   2.606
 1529SOL     OW 5485   4.547   0.767   0.060
 1529SOL    HW1 5486   4.465   0.809   0.021
 1529SOL    HW2 5487   4.582   0.825   0.133
 1530SOL     OW 5488   3.829   1.596   1.783
 1530SOL    HW1 5489   3.843   1.498   1.775
 1530SOL    HW2 5490   3.762   1.615   1.855
 1531SOL     OW 5491   4.668   0.780   4.764
 1531SOL    HW1 5492   4.730   0.722   4.711
 1531SOL    HW2 5493   4.615   0.723   4.827
 1532SOL     OW 5494   3.840   3.761   5.842
 1532SOL    HW1 5495   3.866   3.837   5.902
 1532SOL    HW2 5496   3.872   3.675   5.882
 1533SOL     OW 5497   6.135   5.489   0.367
 1533SOL    HW1 5498   6.129   5.579   0.410
 1533SOL    HW2 5499   6.108   5.495   0.271
 1534SOL     OW 5500   3.082   6.181   5.985
 1534SOL    HW1 5501   3.135   6.258   5.948
 1534SOL    HW2 5502   3.100   6.173   6.083
 1535SOL     OW 5503   5.222   5.706   4.492
 1535SOL    HW1 5504   5.205   5.765   4.414
 1535SOL    HW2 5505   5.140   5.650   4.510
 1536SOL     OW 5506   4.243   5.536   6.240
 1536SOL    HW1 5507   4.305   5.566   6.313
 1536SOL    HW2 5508   4.225   5.438   6.250
 1537SOL     OW 5509   4.575   5.916   3.913
 1537SOL    HW1 5510   4.549   5.978   3.987
 1537SOL    HW2 5511   4.498   5.905   3.850
 1538SOL     OW 5512   3.370   6.564   6.669
 1538SOL    HW1 5513   3.271   6.553   6.654
 1538SOL    HW2 5514   3.418   6.544   6.584
 1539SOL     OW 5515   4.848   3.610   1.797
 1539SOL    HW1 5516   4.780   3.620   1.724
 1539SOL    HW2 5517   4.865   3.513   1.814
 1540SOL     OW 5518   0.416   6.879   5.451
 1540SOL    HW1 5519   0.408   6.798   5.509
 1540SOL    HW2 5520   0.435   6.851   5.357
 1541SOL     OW 5521   3.413   2.872   4.295
 1541SOL    HW1 5522   3.323   2.901   4.328
 1541SOL    HW2 5523   3.449   2.801   4.356
 1542SOL     OW 5524   6.435   0.237   2.433
 1542SOL    HW1 5525   6.385   0.235   2.347
 1542SOL    HW2 5526   6.492   0.155   2.440
 1543SOL     OW 5527   3.659   4.930   4.889
 1543SOL    HW1 5528   3.675   4.881   4.803
 1543SOL    HW2 5529   3.561   4.930   4.909
 1544SOL     OW 5530   3.333   3.418   3.230
 1544SOL    HW1 5531   3.356   3.452   3.139
 1544SOL    HW2 5532   3.306   3.322   3.223
 1545SOL     OW 5533   4.286   0.659   3.103
 1545SOL    HW1 5534   4.203   0.605   3.086
 1545SOL    HW2 5535   4.349   0.647   3.026
 1546SOL     OW 5536   5.153   6.432   5.339
 1546SOL    HW1 5537   5.155   6.512   5.400
 1546SOL    HW2 5538   5.059   6.402   5.327
 1547SOL     OW 5539   1.732   3.894   1.232
 1547SOL    HW1 5540   1.632   3.897   1.235
 1547SOL    HW2 5541   1.765   3.945   1.153
 1548SOL     OW 5542   5.367   3.930   6.876
 1548SOL    HW1 5543   5.280   3.974   6.899
 1548SOL    HW2 5544   5.440   3.998   6.879
 1549SOL     OW 5545   4.002   1.734   1.434
 1549SOL    HW1 5546   3.916   1.750   1.483
 1549SOL    HW2 5547   3.983   1.717   1.337
 1550SOL     OW 5548   2.897   3.850   0.685
 1550SOL    HW1 5549   2.824   3.816   0.626
 1550SOL    HW2 5550   2.873   3.941   0.720
 1551SOL     OW 5551   2.044   4.233   6.276
 1551SOL    HW1 5552   2.007   4.199   6.363
 1551SOL    HW2 5553   2.138   4.264   6.289
 1552SOL     OW 5554   2.492   5.579   0.832
 1552SOL    HW1 5555   2.551   5.499   0.825
 1552SOL    HW2 5556   2.546   5.662   0.824
 1553SOL     OW 5557   5.971   1.419   6.983
 1553SOL    HW1 5558   6.009   1.367   6.907
 1553SOL    HW2 5559   6.036   1.419   0.035
 1554SOL     OW 5560   3.357   1.868   3.732
 1554SOL    HW1 5561   3.259   1.879   3.746
 1554SOL    HW2 5562   3.401   1.958   3.730
 1555SOL     OW 5563   5.697   3.236   0.193
 1555SOL    HW1 5564   5.614   3.283   0.223
 1555SOL    HW2 5565   5.692   3.219   0.095
 1556SOL     OW 5566   2.097   2.195   6.911
 1556SOL    HW1 5567   2.171   2.181   6.844
 1556SOL    HW2 5568   2.136   2.192   7.003
 1557SOL     OW 5569   1.718   2.411   4.982
 1557SOL    HW1 5570   1.643   2.426   5.047
 1557SOL    HW2 5571   1.731   2.494   4.927
 1558SOL     OW 5572   6.332   0.486   4.597
 1558SOL    HW1 5573   6.270   0.560   4.572
 1558SOL    HW2 5574   6.357   0.494   4.694
 1559SOL     OW 5575   1.760   3.019   6.630
 1559SOL    HW1 5576   1.852   3.059   6.627
 1559SOL    HW2 5577   1.714   3.048   6.714
 1560SOL     OW 5578   6.893   0.637   6.378
 1560SOL    HW1 5579   6.805   0.655   6.421
 1560SOL    HW2 5580   6.890   0.663   6.282
 1561SOL     OW 5581   5.103   6.133   3.713
 1561SOL    HW1 5582   5.048   6.211   3.685
 1561SOL    HW2 5583   5.128   6.141   3.809
 1562SOL     OW 5584   5.025   6.204   2.545
 1562SOL    HW1 5585   4.930   6.183   2.520
 1562SOL    HW2 5586   5.031   6.216   2.644
 1563SOL     OW 5587   2.502   0.082   4.569
 1563SOL    HW1 5588   2.578   0.045   4.514
 1563SOL    HW2 5589   2.504   0.181   4.565
 1564SOL     OW 5590   1.350   1.694   3.287
 1564SOL    HW1 5591   1.290   1.627   3.242
 1564SOL    HW2 5592   1.377   1.659   3.376
 1565SOL     OW 5593   5.063   4.167   3.277
 1565SOL    HW1 5594   5.056   4.252   3.226
 1565SOL    HW2 5595   5.143   4.116   3.246
 1566SOL     OW 5596   5.859   4.462   2.481
 1566SOL    HW1 5597   5.829   4.479   2.387
 1566SOL    HW2 5598   5.827   4.536   2.541
 1567SOL     OW 5599   6.690   6.135   0.649
 1567SOL    HW1 5600   6.649   6.047   0.624
 1567SOL    HW2 5601   6.618   6.204   0.656
 1568SOL     OW 5602   1.590   6.590   0.023
 1568SOL    HW1 5603   1.570   6.610   6.952
 1568SOL    HW2 5604   1.659   6.518   0.028
 1569SOL     OW 5605   4.429   5.979   3.527
 1569SOL    HW1 5606   4.399   5.944   3.438
 1569SOL    HW2 5607   4.452   6.076   3.519
 1570SOL     OW 5608   1.835   0.346   0.688
 1570SOL    HW1 5609   1.772   0.274   0.718
 1570SOL    HW2 5610   1.857   0.332   0.591
 1571SOL     OW 5611   5.703   2.493   0.967
 1571SOL    HW1 5612   5.631   2.555   0.936
 1571SOL    HW2 5613   5.740   2.525   1.054
 1572SOL     OW 5614   0.281   6.982   1.368
 1572SOL    HW1 5615   0.343   0.009   1.428
 1572SOL    HW2 5616   0.326   6.898   1.338
 1573SOL     OW 5617   5.366   2.157   2.335
 1573SOL    HW1 5618   5.438   2.226   2.345
 1573SOL    HW2 5619   5.407   2.068   2.315
 1574SOL     OW 5620   6.172   1.170   2.158
 1574SOL    HW1 5621   6.078   1.197   2.140
 1574SOL    HW2 5622   6.226   1.252   2.180
 1575SOL     OW 5623   3.141   1.166   0.239
 1575SOL    HW1 5624   3.116   1.262   0.228
 1575SOL    HW2 5625   3.108   1.133   0.328
 1576SOL     OW 5626   6.745   5.976   4.014
 1576SOL    HW1 5627   6.800   6.059   4.029
 1576SOL    HW2 5628   6.792   5.916   3.949
 1577SOL     OW 5629   3.237   1.744   4.199
 1577SOL    HW1 5630   3.332   1.722   4.222
 1577SOL    HW2 5631   3.234   1.830   4.147
 1578SOL     OW 5632   6.047   3.622   5.913
 1578SOL    HW1 5633   6.146   3.607   5.916
 1578SOL    HW2 5634   6.002   3.541   5.878
 1579SOL     OW 5635   6.880   1.542   3.106
 1579SOL    HW1 5636   6.922   1.528   3.016
 1579SOL    HW2 5637   6.809   1.473   3.121
 1580SOL     OW 5638   2.773   3.571   5.357
 1580SOL    HW1 5639   2.716   3.622   5.293
 1580SOL    HW2 5640   2.870   3.584   5.333
 1581SOL     OW 5641   0.170   4.580   5.066
 1581SOL    HW1 5642   0.257   4.614   5.101
 1581SOL    HW2 5643   0.154   4.488   5.104
 1582SOL     OW 5644   1.530   6.702   4.397
 1582SOL    HW1 5645   1.538   6.674   4.493
 1582SOL    HW2 5646   1.523   6.621   4.340
 1583SOL     OW 5647   0.793   3.172   3.867
 1583SOL    HW1 5648   0.890   3.162   3.890
 1583SOL    HW2 5649   0.751   3.081   3.861
 1584SOL     OW 5650   1.583   6.652   4.652
 1584SOL    HW1 5651   1.629   6.737   4.677
 1584SOL    HW2 5652   1.619   6.578   4.709
 1585SOL     OW 5653   5.561   1.713   3.388
 1585SOL    HW1 5654   5.658   1.737   3.392
 1585SOL    HW2 5655   5.506   1.796   3.392
 1586SOL     OW 5656   3.512   4.232   1.300
 1586SOL    HW1 5657   3.546   4.324   1.320
 1586SOL    HW2 5658   3.550   4.168   1.367
 1587SOL     OW 5659   3.260   5.053   0.055
 1587SOL    HW1 5660   3.218   5.060   6.989
 1587SOL    HW2 5661   3.355   5.023   0.044
 1588SOL     OW 5662   4.807   1.189   3.018
 1588SOL    HW1 5663   4.844   1.281   3.013
 1588SOL    HW2 5664   4.756   1.178   3.103
 1589SOL     OW 5665   5.578   4.020   3.424
 1589SOL    HW1 5666   5.633   3.960   3.365
 1589SOL    HW2 5667   5.578   3.984   3.517
 1590SOL     OW 5668   2.392   6.766   5.935
 1590SOL    HW1 5669   2.366   6.671   5.947
 1590SOL    HW2 5670   2.365   6.796   5.843
 1591SOL     OW 5671   0.647   4.992   2.778
 1591SOL    HW1 5672   0.690   4.974   2.866
 1591SOL    HW2 5673   0.652   5.090   2.757
 1592SOL     OW 5674   2.484   4.752   1.588
 1592SOL    HW1 5675   2.482   4.715   1.495
 1592SOL    HW2 5676   2.554   4.705   1.641
 1593SOL     OW 5677   1.064   6.259   3.736
 1593SOL    HW1 5678   1.162   6.250   3.722
 1593SOL    HW2 5679   1.016   6.221   3.657
 1594SOL     OW 5680   0.009   5.077   2.986
 1594SOL    HW1 5681   0.070   5.027   3.048
 1594SOL    HW2 5682   0.001   5.027   2.900
 1595SOL     OW 5683   0.832   4.959   6.291
 1595SOL    HW1 5684   0.854   4.941   6.195
 1595SOL    HW2 5685   0.772   5.039   6.298
 1596SOL     OW 5686   0.847   2.698   5.621
 1596SOL    HW1 5687   0.898   2.725   5.539
 1596SOL    HW2 5688   0.827   2.600   5.618
 1597SOL     OW 5689   2.994   5.663   0.577
 1597SOL    HW1 5690   3.025   5.696   0.666
 1597SOL    HW2 5691   2.910   5.610   0.588
 1598SOL     OW 5692   0.696   4.070   6.968
 1598SOL    HW1 5693   0.670   4.166   6.976
 1598SOL    HW2 5694   0.649   4.029   6.889
 1599SOL     OW 5695   4.871   4.141   6.148
 1599SOL    HW1 5696   4.781   4.103   6.127
 1599SOL    HW2 5697   4.916   4.084   6.217
 1600SOL     OW 5698   5.361   1.895   5.276
 1600SOL    HW1 5699   5.375   1.802   5.243
 1600SOL    HW2 5700   5.279   1.933   5.232
 1601SOL     OW 5701   0.250   5.251   4.337
 1601SOL    HW1 5702   0.195   5.185   4.389
 1601SOL    HW2 5703   0.229   5.243   4.240
 1602SOL     OW 5704   2.126   5.618   3.962
 1602SOL    HW1 5705   2.072   5.629   4.045
 1602SOL    HW2 5706   2.070   5.642   3.882
 1603SOL     OW 5707   0.646   6.393   2.085
 1603SOL    HW1 5708   0.587   6.314   2.105
 1603SOL    HW2 5709   0.742   6.365   2.090
 1604SOL     OW 5710   5.848   4.932   0.108
 1604SOL    HW1 5711   5.909   4.865   0.149
 1604SOL    HW2 5712   5.777   4.958   0.173
 1605SOL     OW 5713   6.204   6.738   1.936
 1605SOL    HW1 5714   6.301   6.757   1.921
 1605SOL    HW2 5715   6.149   6.788   1.869
 1606SOL     OW 5716   4.238   0.390   5.141
 1606SOL    HW1 5717   4.188   0.352   5.063
 1606SOL    HW2 5718   4.287   0.472   5.112
 1607SOL     OW 5719   4.680   2.499   0.900
 1607SOL    HW1 5720   4.611   2.554   0.853
 1607SOL    HW2 5721   4.647   2.405   0.910
 1608SOL     OW 5722   1.469   0.754   5.822
 1608SOL    HW1 5723   1.444   0.842   5.863
 1608SOL    HW2 5724   1.567   0.753   5.802
 1609SOL     OW 5725   4.305   0.793   6.774
 1609SOL    HW1 5726   4.269   0.729   6.842
 1609SOL    HW2 5727   4.345   0.872   6.820
 1610SOL     OW 5728   6.244   3.894   5.413
 1610SOL    HW1 5729   6.224   3.986   5.377
 1610SOL    HW2 5730   6.292   3.841   5.344
 1611SOL     OW 5731   3.419   3.532   1.759
 1611SOL    HW1 5732   3.428   3.594   1.837
 1611SOL    HW2 5733   3.509   3.499   1.732
 1612SOL     OW 5734   3.302   1.157   5.540
 1612SOL    HW1 5735   3.364   1.228   5.575
 1612SOL    HW2 5736   3.339   1.067   5.564
 1613SOL     OW 5737   1.702   5.936   1.516
 1613SOL    HW1 5738   1.771   5.958   1.447
 1613SOL    HW2 5739   1.745   5.888   1.592
 1614SOL     OW 5740   6.587   3.881   0.771
 1614SOL    HW1 5741   6.599   3.972   0.733
 1614SOL    HW2 5742   6.558   3.888   0.867
 1615SOL     OW 5743   6.184   4.915   0.936
 1615SOL    HW1 5744   6.133   4.935   0.852
 1615SOL    HW2 5745   6.240   4.995   0.960
 1616SOL     OW 5746   4.377   2.415   5.949
 1616SOL    HW1 5747   4.432   2.428   5.866
 1616SOL    HW2 5748   4.319   2.334   5.939
 1617SOL     OW 5749   5.400   6.724   1.053
 1617SOL    HW1 5750   5.300   6.728   1.045
 1617SOL    HW2 5751   5.441   6.800   1.003
 1618SOL     OW 5752   0.585   3.984   0.943
 1618SOL    HW1 5753   0.549   3.911   0.884
 1618SOL    HW2 5754   0.619   3.945   1.028
 1619SOL     OW 5755   1.486   2.067   4.447
 1619SOL    HW1 5756   1.456   2.160   4.468
 1619SOL    HW2 5757   1.419   2.002   4.485
 1620SOL     OW 5758   1.959   6.039   0.906
 1620SOL    HW1 5759   1.999   6.022   0.996
 1620SOL    HW2 5760   1.863   6.064   0.917
 1621SOL     OW 5761   0.247   1.069   0.749
 1621SOL    HW1 5762   0.251   0.996   0.818
 1621SOL    HW2 5763   0.291   1.151   0.785
 1622SOL     OW 5764   1.549   2.286   4.267
 1622SOL    HW1 5765   1.552   2.313   4.363
 1622SOL    HW2 5766   1.582   2.361   4.210
 1623SOL     OW 5767   2.369   2.769   5.825
 1623SOL    HW1 5768   2.404   2.803   5.738
 1623SOL    HW2 5769   2.309   2.691   5.810
 1624SOL     OW 5770   3.379   0.839   5.842
 1624SOL    HW1 5771   3.442   0.761   5.839
 1624SOL    HW2 5772   3.285   0.805   5.836
 1625SOL     OW 5773   1.406   5.908   2.129
 1625SOL    HW1 5774   1.467   5.932   2.053
 1625SOL    HW2 5775   1.368   5.817   2.114
 1626SOL     OW 5776   2.875   1.537   6.689
 1626SOL    HW1 5777   2.839   1.568   6.777
 1626SOL    HW2 5778   2.883   1.615   6.627
 1627SOL     OW 5779   6.683   2.598   4.533
 1627SOL    HW1 5780   6.595   2.594   4.581
 1627SOL    HW2 5781   6.737   2.675   4.567
 1628SOL     OW 5782   4.718   5.250   6.797
 1628SOL    HW1 5783   4.707   5.160   6.755
 1628SOL    HW2 5784   4.788   5.246   6.868
 1629SOL     OW 5785   3.465   2.149   4.098
 1629SOL    HW1 5786   3.422   2.194   4.177
 1629SOL    HW2 5787   3.560   2.126   4.119
 1630SOL     OW 5788   1.166   6.206   5.880
 1630SOL    HW1 5789   1.245   6.174   5.828
 1630SOL    HW2 5790   1.083   6.168   5.841
 1631SOL     OW 5791   6.832   0.897   6.179
 1631SOL    HW1 5792   6.898   0.880   6.252
 1631SOL    HW2 5793   6.794   0.989   6.189
 1632SOL     OW 5794   0.329   1.573   6.922
 1632SOL    HW1 5795   0.390   1.588   7.000
 1632SOL    HW2 5796   0.364   1.496   6.868
 1633SOL     OW 5797   5.284   2.172   3.848
 1633SOL    HW1 5798   5.282   2.103   3.776
 1633SOL    HW2 5799   5.364   2.231   3.836
 1634SOL     OW 5800   4.059   5.419   5.426
 1634SOL    HW1 5801   4.149   5.412   5.469
 1634SOL    HW2 5802   3.988   5.396   5.493
 1635SOL     OW 5803   6.343   5.004   5.038
 1635SOL    HW1 5804   6.409   4.930   5.031
 1635SOL    HW2 5805   6.358   5.054   5.123
 1636SOL     OW 5806   2.204   4.215   1.334
 1636SOL    HW1 5807   2.202   4.216   1.234
 1636SOL    HW2 5808   2.111   4.229   1.369
 1637SOL     OW 5809   6.548   0.870   2.839
 1637SOL    HW1 5810   6.534   0.865   2.741
 1637SOL    HW2 5811   6.476   0.924   2.881
 1638SOL     OW 5812   0.861   4.278   3.927
 1638SOL    HW1 5813   0.846   4.248   4.021
 1638SOL    HW2 5814   0.912   4.364   3.928
 1639SOL     OW 5815   4.857   6.535   2.527
 1639SOL    HW1 5816   4.905   6.450   2.503
 1639SOL    HW2 5817   4.776   6.545   2.469
 1640SOL     OW 5818   5.830   1.667   0.714
 1640SOL    HW1 5819   5.859   1.741   0.774
 1640SOL    HW2 5820   5.882   1.584   0.736
 1641SOL     OW 5821   5.762   2.573   3.863
 1641SOL    HW1 5822   5.668   2.590   3.833
 1641SOL    HW2 5823   5.815   2.533   3.788
 1642SOL     OW 5824   6.656   3.500   0.209
 1642SOL    HW1 5825   6.690   3.411   0.179
 1642SOL    HW2 5826   6.710   3.533   0.286
 1643SOL     OW 5827   3.064   6.195   3.849
 1643SOL    HW1 5828   3.058   6.239   3.759
 1643SOL    HW2 5829   3.157   6.162   3.864
 1644SOL     OW 5830   1.667   2.419   1.031
 1644SOL    HW1 5831   1.594   2.406   0.964
 1644SOL    HW2 5832   1.736   2.347   1.019
 1645SOL     OW 5833   3.241   6.187   5.146
 1645SOL    HW1 5834   3.157   6.133   5.143
 1645SOL    HW2 5835   3.218   6.284   5.135
 1646SOL     OW 5836   2.702   5.155   1.074
 1646SOL    HW1 5837   2.626   5.200   1.120
 1646SOL    HW2 5838   2.789   5.193   1.106
 1647SOL     OW 5839   5.314   2.619   4.170
 1647SOL    HW1 5840   5.407   2.637   4.139
 1647SOL    HW2 5841   5.304   2.521   4.187
 1648SOL     OW 5842   6.050   6.178   1.817
 1648SOL    HW1 5843   6.044   6.277   1.822
 1648SOL    HW2 5844   6.136   6.151   1.772
 1649SOL     OW 5845   3.263   0.493   3.288
 1649SOL    HW1 5846   3.205   0.454   3.359
 1649SOL    HW2 5847   3.250   0.592   3.285
 1650SOL     OW 5848   2.803   6.978   4.020
 1650SOL    HW1 5849   2.850   6.893   4.043
 1650SOL    HW2 5850   2.840   0.027   4.076
 1651SOL     OW 5851   0.922   0.849   1.154
 1651SOL    HW1 5852   0.955   0.764   1.194
 1651SOL    HW2 5853   0.982   0.875   1.078
 1652SOL     OW 5854   1.613   2.424   1.821
 1652SOL    HW1 5855   1.604   2.407   1.723
 1652SOL    HW2 5856   1.708   2.443   1.844
 1653SOL     OW 5857   0.742   6.043   1.779
 1653SOL    HW1 5858   0.800   6.052   1.860
 1653SOL    HW2 5859   0.649   6.019   1.806
 1654SOL     OW 5860   0.090   2.901   1.991
 1654SOL    HW1 5861   0.124   2.985   2.034
 1654SOL    HW2 5862   0.006   2.920   1.940
 1655SOL     OW 5863   5.544   3.791   6.066
 1655SOL    HW1 5864   5.626   3.848   6.067
 1655SOL    HW2 5865   5.485   3.818   5.990
 1656SOL     OW 5866   1.380   4.233   3.003
 1656SOL    HW1 5867   1.464   4.273   3.039
 1656SOL    HW2 5868   1.363   4.267   2.911
 1657SOL     OW 5869   6.976   1.467   4.526
 1657SOL    HW1 5870   6.990   1.537   4.456
 1657SOL    HW2 5871   6.879   1.461   4.548
 1658SOL     OW 5872   0.520   0.148   3.227
 1658SOL    HW1 5873   0.530   0.054   3.261
 1658SOL    HW2 5874   0.431   0.157   3.182
 1659SOL     OW 5875   4.078   2.098   6.219
 1659SOL    HW1 5876   4.038   2.174   6.270
 1659SOL    HW2 5877   4.036   2.012   6.249
 1660SOL     OW 5878   1.584   5.061   4.148
 1660SOL    HW1 5879   1.575   4.963   4.133
 1660SOL    HW2 5880   1.651   5.078   4.220
 1661SOL     OW 5881   3.493   1.923   1.642
 1661SOL    HW1 5882   3.465   2.007   1.689
 1661SOL    HW2 5883   3.459   1.844   1.692
 1662SOL     OW 5884   6.213   0.905   3.734
 1662SOL    HW1 5885   6.285   0.865   3.791
 1662SOL    HW2 5886   6.214   1.005   3.746
 1663SOL     OW 5887   2.388   1.137   3.084
 1663SOL    HW1 5888   2.381   1.147   3.184
 1663SOL    HW2 5889   2.361   1.222   3.040
 1664SOL     OW 5890   1.358   0.363   3.870
 1664SOL    HW1 5891   1.288   0.302   3.909
 1664SOL    HW2 5892   1.321   0.456   3.864
 1665SOL     OW 5893   0.112   1.958   2.638
 1665SOL    HW1 5894   0.147   1.876   2.592
 1665SOL    HW2 5895   0.187   2.020   2.658
 1666SOL     OW 5896   6.010   3.481   0.603
 1666SOL    HW1 5897   5.998   3.464   0.701
 1666SOL    HW2 5898   5.922   3.506   0.562
 1667SOL     OW 5899   5.461   6.649   0.636
 1667SOL    HW1 5900   5.376   6.695   0.662
 1667SOL    HW2 5901   5.534   6.716   0.626
 1668SOL     OW 5902   4.883   6.461   5.641
 1668SOL    HW1 5903   4.943   6.531   5.679
 1668SOL    HW2 5904   4.849   6.402   5.714
 1669SOL     OW 5905   6.274   6.621   0.588
 1669SOL    HW1 5906   6.338   6.697   0.607
 1669SOL    HW2 5907   6.246   6.580   0.675
 1670SOL     OW 5908   0.417   5.886   6.037
 1670SOL    HW1 5909   0.426   5.869   6.135
 1670SOL    HW2 5910   0.470   5.818   5.986
 1671SOL     OW 5911   4.356   2.549   1.352
 1671SOL    HW1 5912   4.297   2.470   1.370
 1671SOL    HW2 5913   4.389   2.546   1.258
 1672SOL     OW 5914   1.763   3.800   2.805
 1672SOL    HW1 5915   1.807   3.714   2.832
 1672SOL    HW2 5916   1.816   3.843   2.732
 1673SOL     OW 5917   0.613   2.292   4.536
 1673SOL    HW1 5918   0.609   2.368   4.471
 1673SOL    HW2 5919   0.586   2.208   4.490
 1674SOL     OW 5920   1.672   3.749   1.670
 1674SOL    HW1 5921   1.690   3.749   1.571
 1674SOL    HW2 5922   1.727   3.679   1.714
 1675SOL     OW 5923   4.087   6.680   6.199
 1675SOL    HW1 5924   4.180   6.716   6.207
 1675SOL    HW2 5925   4.068   6.659   6.103
 1676SOL     OW 5926   3.242   1.359   2.252
 1676SOL    HW1 5927   3.258   1.303   2.334
 1676SOL    HW2 5928   3.283   1.449   2.264
 1677SOL     OW 5929   4.544   2.445   5.693
 1677SOL    HW1 5930   4.576   2.351   5.681
 1677SOL    HW2 5931   4.622   2.503   5.718
 1678SOL     OW 5932   5.196   4.667   4.544
 1678SOL    HW1 5933   5.179   4.628   4.454
 1678SOL    HW2 5934   5.111   4.666   4.598
 1679SOL     OW 5935   2.003   3.745   5.364
 1679SOL    HW1 5936   1.953   3.719   5.447
 1679SOL    HW2 5937   1.944   3.800   5.305
 1680SOL     OW 5938   1.290   1.564   4.157
 1680SOL    HW1 5939   1.308   1.570   4.059
 1680SOL    HW2 5940   1.303   1.654   4.199
 1681SOL     OW 5941   6.901   5.876   0.750
 1681SOL    HW1 5942   6.913   5.937   0.671
 1681SOL    HW2 5943   6.988   5.867   0.799
 1682SOL     OW 5944   0.204   3.084   4.660
 1682SOL    HW1 5945   0.264   3.151   4.704
 1682SOL    HW2 5946   0.127   3.064   4.721
 1683SOL     OW 5947   4.126   5.399   1.441
 1683SOL    HW1 5948   4.104   5.460   1.517
 1683SOL    HW2 5949   4.166   5.315   1.476
 1684SOL     OW 5950   1.045   6.529   2.923
 1684SOL    HW1 5951   1.080   6.439   2.899
 1684SOL    HW2 5952   0.992   6.523   3.008
 1685SOL     OW 5953   2.306   1.357   6.268
 1685SOL    HW1 5954   2.404   1.372   6.278
 1685SOL    HW2 5955   2.258   1.444   6.282
 1686SOL     OW 5956   2.283   5.216   5.594
 1686SOL    HW1 5957   2.252   5.271   5.672
 1686SOL    HW2 5958   2.258   5.262   5.509
 1687SOL     OW 5959   1.927   3.175   1.320
 1687SOL    HW1 5960   1.916   3.217   1.230
 1687SOL    HW2 5961   1.937   3.076   1.310
 1688SOL     OW 5962   1.795   1.966   3.626
 1688SOL    HW1 5963   1.750   2.044   3.582
 1688SOL    HW2 5964   1.834   1.906   3.557
 1689SOL     OW 5965   3.402   0.815   1.958
 1689SOL    HW1 5966   3.361   0.883   1.897
 1689SOL    HW2 5967   3.353   0.816   2.046
 1690SOL     OW 5968   1.279   2.915   2.918
 1690SOL    HW1 5969   1.323   2.951   3.000
 1690SOL    HW2 5970   1.209   2.848   2.943
 1691SOL     OW 5971   5.036   3.923   3.084
 1691SOL    HW1 5972   5.015   3.841   3.137
 1691SOL    HW2 5973   4.985   4.001   3.120
 1692SOL     OW 5974   6.738   7.011   1.454
 1692SOL    HW1 5975   6.665   0.036   1.407
 1692SOL    HW2 5976   6.769   6.936   1.397
 1693SOL     OW 5977   1.457   2.602   2.630
 1693SOL    HW1 5978   1.551   2.582   2.658
 1693SOL    HW2 5979   1.457   2.679   2.566
 1694SOL     OW 5980   4.397   6.636   4.122
 1694SOL    HW1 5981   4.407   6.735   4.123
 1694SOL    HW2 5982   4.318   6.609   4.178
 1695SOL     OW 5983   2.499   0.874   4.968
 1695SOL    HW1 5984   2.458   0.915   5.050
 1695SOL    HW2 5985   2.528   0.946   4.906
 1696SOL     OW 5986   5.265   5.436   0.796
 1696SOL    HW1 5987   5.353   5.389   0.805
 1696SOL    HW2 5988   5.281   5.535   0.792
 1697SOL     OW 5989   6.850   6.826   1.640
 1697SOL    HW1 5990   6.782   6.758   1.613
 1697SOL    HW2 5991   6.892   6.866   1.558
 1698SOL     OW 5992   4.416   1.297   0.914
 1698SOL    HW1 5993   4.500   1.243   0.925
 1698SOL    HW2 5994   4.372   1.309   1.003
 1699SOL     OW 5995   3.349   1.622   2.261
 1699SOL    HW1 5996   3.336   1.676   2.344
 1699SOL    HW2 5997   3.287   1.655   2.190
 1700SOL     OW 5998   6.547   2.468   3.550
 1700SOL    HW1 5999   6.563   2.566   3.536
 1700SOL    HW2 6000   6.591   2.439   3.635
 1701SOL     OW 6001   4.941   3.207   5.248
 1701SOL    HW1 6002   4.877   3.190   5.173
 1701SOL    HW2 6003   4.920   3.295   5.291
 1702SOL     OW 6004   6.773   3.791   0.457
 1702SOL    HW1 6005   6.793   3.698   0.425
 1702SOL    HW2 6006   6.820   3.807   0.543
 1703SOL     OW 6007   3.537   4.126   3.328
 1703SOL    HW1 6008   3.459   4.158   3.382
 1703SOL    HW2 6009   3.531   4.163   3.236
 1704SOL     OW 6010   0.685   1.397   1.198
 1704SOL    HW1 6011   0.606   1.427   1.144
 1704SOL    HW2 6012   0.747   1.345   1.139
 1705SOL     OW 6013   3.379   2.096   2.153
 1705SOL    HW1 6014   3.474   2.127   2.152
 1705SOL    HW2 6015   3.347   2.088   2.248
 1706SOL     OW 6016   4.072   6.436   1.015
 1706SOL    HW1 6017   4.038   6.518   1.062
 1706SOL    HW2 6018   4.117   6.376   1.080
 1707SOL     OW 6019   3.848   1.545   2.505
 1707SOL    HW1 6020   3.935   1.499   2.487
 1707SOL    HW2 6021   3.853   1.640   2.474
 1708SOL     OW 6022   5.674   5.678   2.742
 1708SOL    HW1 6023   5.636   5.678   2.650
 1708SOL    HW2 6024   5.608   5.637   2.805
 1709SOL     OW 6025   2.832   5.909   1.833
 1709SOL    HW1 6026   2.864   5.832   1.888
 1709SOL    HW2 6027   2.740   5.934   1.863
 1710SOL     OW 6028   5.998   4.563   3.593
 1710SOL    HW1 6029   5.973   4.498   3.665
 1710SOL    HW2 6030   5.966   4.527   3.505
 1711SOL     OW 6031   1.646   4.694   5.192
 1711SOL    HW1 6032   1.574   4.627   5.173
 1711SOL    HW2 6033   1.679   4.681   5.286
 1712SOL     OW 6034   0.606   3.154   6.516
 1712SOL    HW1 6035   0.551   3.210   6.454
 1712SOL    HW2 6036   0.654   3.213   6.581
 1713SOL     OW 6037   2.780   2.123   1.023
 1713SOL    HW1 6038   2.806   2.151   1.115
 1713SOL    HW2 6039   2.859   2.084   0.976
 1714SOL     OW 6040   3.974   1.639   6.345
 1714SOL    HW1 6041   3.945   1.558   6.293
 1714SOL    HW2 6042   4.067   1.664   6.319
 1715SOL     OW 6043   6.729   3.794   2.867
 1715SOL    HW1 6044   6.684   3.755   2.787
 1715SOL    HW2 6045   6.824   3.817   2.844
 1716SOL     OW 6046   5.447   6.534   1.720
 1716SOL    HW1 6047   5.486   6.519   1.629
 1716SOL    HW2 6048   5.509   6.498   1.790
 1717SOL     OW 6049   2.050   6.509   6.419
 1717SOL    HW1 6050   1.956   6.541   6.431
 1717SOL    HW2 6051   2.082   6.533   6.327
 1718SOL     OW 6052   2.030   2.130   0.724
 1718SOL    HW1 6053   2.038   2.039   0.766
 1718SOL    HW2 6054   2.121   2.170   0.713
 1719SOL     OW 6055   2.742   4.400   1.415
 1719SOL    HW1 6056   2.658   4.455   1.413
 1719SOL    HW2 6057   2.791   4.412   1.329
 1720SOL     OW 6058   6.556   1.457   1.613
 1720SOL    HW1 6059   6.456   1.456   1.605
 1720SOL    HW2 6060   6.596   1.403   1.539
 1721SOL     OW 6061   1.352   6.859   2.702
 1721SOL    HW1 6062   1.416   6.936   2.710
 1721SOL    HW2 6063   1.317   6.854   2.609
 1722SOL     OW 6064   5.167   1.307   3.524
 1722SOL    HW1 6065   5.088   1.325   3.582
 1722SOL    HW2 6066   5.247   1.353   3.561
 1723SOL     OW 6067   6.906   2.201   3.320
 1723SOL    HW1 6068   6.936   2.242   3.233
 1723SOL    HW2 6069   6.829   2.140   3.302
 1724SOL     OW 6070   5.944   1.393   0.502
 1724SOL    HW1 6071   5.977   1.360   0.590
 1724SOL    HW2 6072   5.884   1.325   0.460
 1725SOL     OW 6073   2.859   4.365   0.204
 1725SOL    HW1 6074   2.942   4.373   0.149
 1725SOL    HW2 6075   2.881   4.321   0.291
 1726SOL     OW 6076   0.157   4.948   5.466
 1726SOL    HW1 6077   0.184   4.967   5.372
 1726SOL    HW2 6078   0.057   4.940   5.471
 1727SOL     OW 6079   3.515   3.013   4.082
 1727SOL    HW1 6080   3.472   2.959   4.154
 1727SOL    HW2 6081   3.465   3.099   4.070
 1728SOL     OW 6082   5.162   4.935   4.952
 1728SOL    HW1 6083   5.109   5.016   4.926
 1728SOL    HW2 6084   5.226   4.960   5.025
 1729SOL     OW 6085   2.119   4.114   4.183
 1729SOL    HW1 6086   2.171   4.116   4.098
 1729SOL    HW2 6087   2.182   4.118   4.261
 1730SOL     OW 6088   6.433   0.883   4.886
 1730SOL    HW1 6089   6.471   0.852   4.973
 1730SOL    HW2 6090   6.389   0.972   4.899
 1731SOL     OW 6091   0.953   5.263   2.467
 1731SOL    HW1 6092   0.889   5.190   2.442
 1731SOL    HW2 6093   0.975   5.316   2.385
 1732SOL     OW 6094   2.622   4.158   6.174
 1732SOL    HW1 6095   2.541   4.208   6.204
 1732SOL    HW2 6096   2.659   4.200   6.092
 1733SOL     OW 6097   1.205   3.586   2.625
 1733SOL    HW1 6098   1.301   3.615   2.615
 1733SOL    HW2 6099   1.202   3.489   2.647
 1734SOL     OW 6100   4.725   2.957   1.610
 1734SOL    HW1 6101   4.692   3.009   1.688
 1734SOL    HW2 6102   4.658   2.887   1.586
 1735SOL     OW 6103   5.630   5.438   1.226
 1735SOL    HW1 6104   5.634   5.418   1.128
 1735SOL    HW2 6105   5.540   5.414   1.262
 1736SOL     OW 6106   4.779   1.352   0.293
 1736SOL    HW1 6107   4.733   1.269   0.323
 1736SOL    HW2 6108   4.873   1.352   0.327
 1737SOL     OW 6109   2.946   0.570   4.093
 1737SOL    HW1 6110   2.925   0.483   4.048
 1737SOL    HW2 6111   2.924   0.646   4.032
 1738SOL     OW 6112   2.414   2.279   3.593
 1738SOL    HW1 6113   2.424   2.205   3.659
 1738SOL    HW2 6114   2.490   2.343   3.602
 1739SOL     OW 6115   4.927   2.700   5.406
 1739SOL    HW1 6116   4.837   2.667   5.434
 1739SOL    HW2 6117   4.916   2.783   5.350
 1740SOL     OW 6118   0.226   1.512   6.551
 1740SOL    HW1 6119   0.262   1.445   6.486
 1740SOL    HW2 6120   0.182   1.464   6.627
 1741SOL     OW 6121   2.663   0.898   2.262
 1741SOL    HW1 6122   2.568   0.907   2.292
 1741SOL    HW2 6123   2.665   0.846   2.176
 1742SOL     OW 6124   4.210   6.102   5.660
 1742SOL    HW1 6125   4.178   6.122   5.567
 1742SOL    HW2 6126   4.180   6.174   5.722
 1743SOL     OW 6127   1.979   1.416   2.207
 1743SOL    HW1 6128   2.041   1.341   2.229
 1743SOL    HW2 6129   1.961   1.470   2.289
 1744SOL     OW 6130   0.644   6.908   1.857
 1744SOL    HW1 6131   0.691   6.995   1.865
 1744SOL    HW2 6132   0.648   6.875   1.762
 1745SOL     OW 6133   0.033   1.274   4.362
 1745SOL    HW1 6134   0.028   1.184   4.404
 1745SOL    HW2 6135   0.030   1.344   4.433
 1746SOL     OW 6136   1.967   5.802   5.779
 1746SOL    HW1 6137   1.922   5.732   5.835
 1746SOL    HW2 6138   1.956   5.891   5.824
 1747SOL     OW 6139   4.972   6.769   2.581
 1747SOL    HW1 6140   5.028   6.792   2.501
 1747SOL    HW2 6141   4.920   6.685   2.562
 1748SOL     OW 6142   0.070   0.468   3.610
 1748SOL    HW1 6143   0.138   0.498   3.676
 1748SOL    HW2 6144   0.018   0.391   3.647
 1749SOL     OW 6145   3.165   6.450   5.075
 1749SOL    HW1 6146   3.082   6.482   5.120
 1749SOL    HW2 6147   3.141   6.413   4.985
 1750SOL     OW 6148   5.501   1.006   3.556
 1750SOL    HW1 6149   5.422   1.043   3.507
 1750SOL    HW2 6150   5.515   0.910   3.528
 1751SOL     OW 6151   3.141   5.348   4.777
 1751SOL    HW1 6152   3.233   5.311   4.768
 1751SOL    HW2 6153   3.076   5.274   4.791
 1752SOL     OW 6154   6.633   2.229   2.230
 1752SOL    HW1 6155   6.574   2.149   2.220
 1752SOL    HW2 6156   6.673   2.231   2.322
 1753SOL     OW 6157   0.299   1.361   0.504
 1753SOL    HW1 6158   0.240   1.342   0.426
 1753SOL    HW2 6159   0.244   1.370   0.587
 1754SOL     OW 6160   3.502   3.079   1.419
 1754SOL    HW1 6161   3.416   3.084   1.470
 1754SOL    HW2 6162   3.551   3.165   1.427
 1755SOL     OW 6163   5.968   5.082   1.910
 1755SOL    HW1 6164   5.960   5.058   1.813
 1755SOL    HW2 6165   5.877   5.083   1.951
 1756SOL     OW 6166   4.345   4.430   5.701
 1756SOL    HW1 6167   4.266   4.409   5.759
 1756SOL    HW2 6168   4.313   4.458   5.611
 1757SOL     OW 6169   2.337   6.180   4.719
 1757SOL    HW1 6170   2.265   6.233   4.763
 1757SOL    HW2 6171   2.311   6.084   4.715
 1758SOL     OW 6172   2.613   0.512   3.494
 1758SOL    HW1 6173   2.519   0.522   3.527
 1758SOL    HW2 6174   2.612   0.488   3.397
 1759SOL     OW 6175   1.152   5.142   6.688
 1759SOL    HW1 6176   1.094   5.203   6.634
 1759SOL    HW2 6177   1.097   5.093   6.755
 1760SOL     OW 6178   6.265   1.430   1.845
 1760SOL    HW1 6179   6.249   1.334   1.824
 1760SOL    HW2 6180   6.359   1.443   1.875
 1761SOL     OW 6181   6.995   6.950   0.465
 1761SOL    HW1 6182   0.031   6.871   0.475
 1761SOL    HW2 6183   7.010   7.014   0.540
 1762SOL     OW 6184   6.009   1.293   5.159
 1762SOL    HW1 6185   6.031   1.384   5.124
 1762SOL    HW2 6186   6.071   1.226   5.118
 1763SOL     OW 6187   1.835   3.930   4.716
 1763SOL    HW1 6188   1.919   3.900   4.671
 1763SOL    HW2 6189   1.773   3.968   4.648
 1764SOL     OW 6190   1.684   3.994   3.066
 1764SOL    HW1 6191   1.588   4.020   3.071
 1764SOL    HW2 6192   1.719   4.012   2.974
 1765SOL     OW 6193   3.644   2.084   0.029
 1765SOL    HW1 6194   3.608   2.111   0.118
 1765SOL    HW2 6195   3.613   1.991   0.007
 1766SOL     OW 6196   4.859   2.700   4.394
 1766SOL    HW1 6197   4.902   2.786   4.367
 1766SOL    HW2 6198   4.788   2.677   4.328
 1767SOL     OW 6199   5.651   4.019   2.561
 1767SOL    HW1 6200   5.703   3.970   2.631
 1767SOL    HW2 6201   5.712   4.081   2.511
 1768SOL     OW 6202   3.934   1.196   4.511
 1768SOL    HW1 6203   4.017   1.189   4.456
 1768SOL    HW2 6204   3.940   1.277   4.570
 1769SOL     OW 6205   4.417   2.390   4.883
 1769SOL    HW1 6206   4.343   2.401   4.949
 1769SOL    HW2 6207   4.442   2.293   4.877
 1770SOL     OW 6208   1.220   5.783   4.849
 1770SOL    HW1 6209   1.183   5.782   4.942
 1770SOL    HW2 6210   1.210   5.875   4.810
 1771SOL     OW 6211   2.904   5.202   6.709
 1771SOL    HW1 6212   2.865   5.110   6.702
 1771SOL    HW2 6213   2.833   5.267   6.735
 1772SOL     OW 6214   3.351   6.496   3.650
 1772SOL    HW1 6215   3.354   6.543   3.738
 1772SOL    HW2 6216   3.355   6.563   3.576
 1773SOL     OW 6217   2.475   5.053   5.692
 1773SOL    HW1 6218   2.519   5.085   5.776
 1773SOL    HW2 6219   2.409   5.122   5.660
 1774SOL     OW 6220   4.377   6.220   1.453
 1774SOL    HW1 6221   4.457   6.219   1.513
 1774SOL    HW2 6222   4.405   6.244   1.360
 1775SOL     OW 6223   1.758   4.213   4.109
 1775SOL    HW1 6224   1.669   4.252   4.087
 1775SOL    HW2 6225   1.775   4.222   4.207
 1776SOL     OW 6226   3.088   0.113   3.864
 1776SOL    HW1 6227   3.033   0.096   3.782
 1776SOL    HW2 6228   3.173   0.159   3.839
 1777SOL     OW 6229   3.690   5.217   5.696
 1777SOL    HW1 6230   3.627   5.140   5.697
 1777SOL    HW2 6231   3.638   5.302   5.696
 1778SOL     OW 6232   4.288   3.485   5.252
 1778SOL    HW1 6233   4.370   3.541   5.256
 1778SOL    HW2 6234   4.210   3.541   5.226
 1779SOL     OW 6235   4.199   1.104   4.434
 1779SOL    HW1 6236   4.185   1.033   4.365
 1779SOL    HW2 6237   4.277   1.079   4.492
 1780SOL     OW 6238   3.334   2.894   6.684
 1780SOL    HW1 6239   3.319   2.976   6.631
 1780SOL    HW2 6240   3.401   2.835   6.637
 1781SOL     OW 6241   4.757   5.699   3.955
 1781SOL    HW1 6242   4.747   5.612   3.907
 1781SOL    HW2 6243   4.673   5.753   3.943
 1782SOL     OW 6244   3.370   1.873   3.048
 1782SOL    HW1 6245   3.433   1.917   2.983
 1782SOL    HW2 6246   3.367   1.775   3.028
 1783SOL     OW 6247   1.197   4.826   6.074
 1783SOL    HW1 6248   1.211   4.739   6.028
 1783SOL    HW2 6249   1.228   4.819   6.169
 1784SOL     OW 6250   3.540   0.900   6.293
 1784SOL    HW1 6251   3.626   0.934   6.255
 1784SOL    HW2 6252   3.560   0.829   6.361
 1785SOL     OW 6253   6.399   4.371   3.190
 1785SOL    HW1 6254   6.371   4.444   3.252
 1785SOL    HW2 6255   6.319   4.335   3.142
 1786SOL     OW 6256   1.716   2.410   0.460
 1786SOL    HW1 6257   1.637   2.410   0.521
 1786SOL    HW2 6258   1.751   2.503   0.451
 1787SOL     OW 6259   2.847   0.898   4.948
 1787SOL    HW1 6260   2.917   0.948   4.999
 1787SOL    HW2 6261   2.785   0.963   4.903
 1788SOL     OW 6262   3.434   2.981   0.709
 1788SOL    HW1 6263   3.500   3.040   0.756
 1788SOL    HW2 6264   3.483   2.922   0.644
 1789SOL     OW 6265   6.103   2.213   3.363
 1789SOL    HW1 6266   6.111   2.313   3.356
 1789SOL    HW2 6267   6.171   2.179   3.429
 1790SOL     OW 6268   3.973   6.020   4.265
 1790SOL    HW1 6269   3.992   6.081   4.188
 1790SOL    HW2 6270   3.926   6.072   4.336
 1791SOL     OW 6271   6.328   0.686   3.543
 1791SOL    HW1 6272   6.282   0.702   3.455
 1791SOL    HW2 6273   6.287   0.743   3.614
 1792SOL     OW 6274   0.011   2.850   5.129
 1792SOL    HW1 6275   6.976   2.852   5.049
 1792SOL    HW2 6276   0.106   2.840   5.099
 1793SOL     OW 6277   0.152   6.668   3.567
 1793SOL    HW1 6278   0.074   6.730   3.561
 1793SOL    HW2 6279   0.149   6.618   3.654
 1794SOL     OW 6280   5.679   6.261   6.269
 1794SOL    HW1 6281   5.589   6.217   6.258
 1794SOL    HW2 6282   5.666   6.356   6.298
 1795SOL     OW 6283   1.380   2.635   0.838
 1795SOL    HW1 6284   1.370   2.665   0.933
 1795SOL    HW2 6285   1.469   2.662   0.803
 1796SOL     OW 6286   2.321   0.664   4.268
 1796SOL    HW1 6287   2.256   0.650   4.193
 1796SOL    HW2 6288   2.414   0.659   4.233
 1797SOL     OW 6289   1.692   6.863   6.891
 1797SOL    HW1 6290   1.595   6.883   6.903
 1797SOL    HW2 6291   1.718   6.880   6.795
 1798SOL     OW 6292   5.514   2.244   4.160
 1798SOL    HW1 6293   5.559   2.319   4.113
 1798SOL    HW2 6294   5.516   2.162   4.103
 1799SOL     OW 6295   6.738   1.607   5.997
 1799SOL    HW1 6296   6.822   1.659   5.980
 1799SOL    HW2 6297   6.731   1.586   6.095
 1800SOL     OW 6298   3.926   4.991   2.026
 1800SOL    HW1 6299   3.842   4.977   2.078
 1800SOL    HW2 6300   3.968   5.077   2.055
 1801SOL     OW 6301   0.215   0.487   2.240
 1801SOL    HW1 6302   0.217   0.568   2.181
 1801SOL    HW2 6303   0.125   0.443   2.234
 1802SOL     OW 6304   5.601   5.279   3.073
 1802SOL    HW1 6305   5.507   5.258   3.044
 1802SOL    HW2 6306   5.647   5.330   3.000
 1803SOL     OW 6307   0.792   6.132   6.964
 1803SOL    HW1 6308   0.764   6.067   0.009
 1803SOL    HW2 6309   0.883   6.107   6.931
 1804SOL     OW 6310   2.563   3.804   5.314
 1804SOL    HW1 6311   2.541   3.797   5.411
 1804SOL    HW2 6312   2.505   3.873   5.271
 1805SOL     OW 6313   6.162   3.886   5.724
 1805SOL    HW1 6314   6.109   3.963   5.761
 1805SOL    HW2 6315   6.117   3.851   5.642
 1806SOL     OW 6316   0.433   0.771   0.383
 1806SOL    HW1 6317   0.459   0.819   0.467
 1806SOL    HW2 6318   0.411   0.676   0.405
 1807SOL     OW 6319   5.229   2.624   5.585
 1807SOL    HW1 6320   5.311   2.643   5.531
 1807SOL    HW2 6321   5.159   2.693   5.566
 1808SOL     OW 6322   0.667   4.211   6.460
 1808SOL    HW1 6323   0.585   4.267   6.454
 1808SOL    HW2 6324   0.677   4.177   6.554
 1809SOL     OW 6325   2.161   2.452   4.508
 1809SOL    HW1 6326   2.068   2.488   4.514
 1809SOL    HW2 6327   2.172   2.379   4.576
 1810SOL     OW 6328   3.212   6.937   3.435
 1810SOL    HW1 6329   3.282   7.007   3.418
 1810SOL    HW2 6330   3.139   6.946   3.367
 1811SOL     OW 6331   5.849   5.042   3.344
 1811SOL    HW1 6332   5.766   5.091   3.371
 1811SOL    HW2 6333   5.865   4.967   3.408
 1812SOL     OW 6334   4.548   6.441   5.168
 1812SOL    HW1 6335   4.597   6.528   5.165
 1812SOL    HW2 6336   4.603   6.370   5.123
 1813SOL     OW 6337   6.569   5.492   1.276
 1813SOL    HW1 6338   6.620   5.409   1.299
 1813SOL    HW2 6339   6.624   5.573   1.296
 1814SOL     OW 6340   6.041   1.184   0.759
 1814SOL    HW1 6341   6.129   1.164   0.716
 1814SOL    HW2 6342   6.024   1.121   0.834
 1815SOL     OW 6343   6.950   2.128   2.331
 1815SOL    HW1 6344   6.946   2.227   2.314
 1815SOL    HW2 6345   6.953   2.111   2.429
 1816SOL     OW 6346   2.828   3.477   1.034
 1816SOL    HW1 6347   2.743   3.508   1.077
 1816SOL    HW2 6348   2.905   3.530   1.071
 1817SOL     OW 6349   3.263   0.000   2.615
 1817SOL    HW1 6350   3.322   0.061   2.562
 1817SOL    HW2 6351   3.273   0.021   2.713
 1818SOL     OW 6352   1.624   6.731   2.880
 1818SOL    HW1 6353   1.639   6.666   2.954
 1818SOL    HW2 6354   1.557   6.694   2.815
 1819SOL     OW 6355   1.348   4.868   1.701
 1819SOL    HW1 6356   1.300   4.840   1.618
 1819SOL    HW2 6357   1.282   4.881   1.775
 1820SOL     OW 6358   4.707   0.844   2.362
 1820SOL    HW1 6359   4.633   0.789   2.324
 1820SOL    HW2 6360   4.757   0.889   2.288
 1821SOL     OW 6361   0.685   1.183   2.145
 1821SOL    HW1 6362   0.712   1.138   2.060
 1821SOL    HW2 6363   0.668   1.280   2.128
 1822SOL     OW 6364   2.584   3.172   1.132
 1822SOL    HW1 6365   2.628   3.204   1.048
 1822SOL    HW2 6366   2.488   3.201   1.132
 1823SOL     OW 6367   3.133   5.837   2.832
 1823SOL    HW1 6368   3.090   5.804   2.748
 1823SOL    HW2 6369   3.222   5.792   2.844
 1824SOL     OW 6370   3.246   2.620   1.367
 1824SOL    HW1 6371   3.304   2.544   1.396
 1824SOL    HW2 6372   3.293   2.673   1.297
 1825SOL     OW 6373   1.494   1.828   2.834
 1825SOL    HW1 6374   1.530   1.803   2.924
 1825SOL    HW2 6375   1.515   1.755   2.769
 1826SOL     OW 6376   3.405   0.511   1.291
 1826SOL    HW1 6377   3.349   0.429   1.301
 1826SOL    HW2 6378   3.348   0.592   1.303
 1827SOL     OW 6379   0.082   5.272   2.479
 1827SOL    HW1 6380   0.031   5.188   2.500
 1827SOL    HW2 6381   0.177   5.248   2.456
 1828SOL     OW 6382   1.047   2.178   0.532
 1828SOL    HW1 6383   1.104   2.221   0.462
 1828SOL    HW2 6384   0.953   2.211   0.524
 1829SOL     OW 6385   3.869   0.256   3.679
 1829SOL    HW1 6386   3.901   0.338   3.726
 1829SOL    HW2 6387   3.934   0.232   3.606
 1830SOL     OW 6388   5.745   5.992   3.916
 1830SOL    HW1 6389   5.791   5.918   3.965
 1830SOL    HW2 6390   5.797   6.015   3.833
 1831SOL     OW 6391   6.000   0.381   2.491
 1831SOL    HW1 6392   5.955   0.438   2.560
 1831SOL    HW2 6393   6.040   0.440   2.421
 1832SOL     OW 6394   5.165   1.388   0.866
 1832SOL    HW1 6395   5.186   1.460   0.933
 1832SOL    HW2 6396   5.087   1.335   0.897
 1833SOL     OW 6397   5.515   0.722   5.316
 1833SOL    HW1 6398   5.609   0.743   5.289
 1833SOL    HW2 6399   5.473   0.665   5.246
 1834SOL     OW 6400   2.889   3.567   0.470
 1834SOL    HW1 6401   2.885   3.659   0.430
 1834SOL    HW2 6402   2.906   3.575   0.568
 1835SOL     OW 6403   1.358   4.350   1.474
 1835SOL    HW1 6404   1.351   4.258   1.435
 1835SOL    HW2 6405   1.438   4.355   1.533
 1836SOL     OW 6406   5.325   1.271   1.102
 1836SOL    HW1 6407   5.368   1.341   1.044
 1836SOL    HW2 6408   5.254   1.313   1.158
 1837SOL     OW 6409   0.849   2.389   4.212
 1837SOL    HW1 6410   0.848   2.355   4.117
 1837SOL    HW2 6411   0.943   2.410   4.239
 1838SOL     OW 6412   6.955   2.229   4.096
 1838SOL    HW1 6413   6.928   2.312   4.146
 1838SOL    HW2 6414   6.882   2.161   4.102
 1839SOL     OW 6415   4.608   2.809   5.073
 1839SOL    HW1 6416   4.543   2.870   5.028
 1839SOL    HW2 6417   4.602   2.718   5.032
 1840SOL     OW 6418   3.832   5.838   1.401
 1840SOL    HW1 6419   3.775   5.760   1.376
 1840SOL    HW2 6420   3.927   5.818   1.379
 1841SOL     OW 6421   2.366   2.359   4.286
 1841SOL    HW1 6422   2.455   2.352   4.332
 1841SOL    HW2 6423   2.300   2.403   4.346
 1842SOL     OW 6424   0.809   5.646   0.665
 1842SOL    HW1 6425   0.838   5.653   0.570
 1842SOL    HW2 6426   0.780   5.553   0.684
 1843SOL     OW 6427   0.446   1.662   4.559
 1843SOL    HW1 6428   0.372   1.603   4.590
 1843SOL    HW2 6429   0.513   1.673   4.632
 1844SOL     OW 6430   3.755   0.925   5.610
 1844SOL    HW1 6431   3.729   1.020   5.628
 1844SOL    HW2 6432   3.774   0.878   5.696
 1845SOL     OW 6433   2.219   6.522   5.116
 1845SOL    HW1 6434   2.251   6.557   5.029
 1845SOL    HW2 6435   2.276   6.557   5.190
 1846SOL     OW 6436   4.394   2.118   0.588
 1846SOL    HW1 6437   4.447   2.086   0.667
 1846SOL    HW2 6438   4.313   2.166   0.621
 1847SOL     OW 6439   1.415   0.680   6.183
 1847SOL    HW1 6440   1.461   0.606   6.231
 1847SOL    HW2 6441   1.483   0.738   6.138
 1848SOL     OW 6442   0.741   0.035   2.362
 1848SOL    HW1 6443   0.674   0.043   2.435
 1848SOL    HW2 6444   0.715   6.985   2.300
 1849SOL     OW 6445   3.313   1.881   0.710
 1849SOL    HW1 6446   3.301   1.937   0.628
 1849SOL    HW2 6447   3.381   1.810   0.693
 1850SOL     OW 6448   6.661   3.093   2.380
 1850SOL    HW1 6449   6.636   3.020   2.316
 1850SOL    HW2 6450   6.597   3.169   2.370
 1851SOL     OW 6451   0.984   1.828   1.271
 1851SOL    HW1 6452   0.926   1.885   1.213
 1851SOL    HW2 6453   1.072   1.812   1.225
 1852SOL     OW 6454   5.773   3.300   1.814
 1852SOL    HW1 6455   5.800   3.337   1.903
 1852SOL    HW2 6456   5.706   3.228   1.827
 1853SOL     OW 6457   0.171   3.071   2.846
 1853SOL    HW1 6458   0.262   3.052   2.882
 1853SOL    HW2 6459   0.153   3.011   2.768
 1854SOL     OW 6460   2.481   6.227   2.873
 1854SOL    HW1 6461   2.494   6.165   2.796
 1854SOL    HW2 6462   2.514   6.184   2.957
 1855SOL     OW 6463   4.497   4.139   0.150
 1855SOL    HW1 6464   4.437   4.080   0.204
 1855SOL    HW2 6465   4.591   4.105   0.156
 1856SOL     OW 6466   6.550   3.794   5.044
 1856SOL    HW1 6467   6.531   3.745   4.958
 1856SOL    HW2 6468   6.649   3.801   5.057
 1857SOL     OW 6469   3.457   0.562   6.247
 1857SOL    HW1 6470   3.429   0.610   6.164
 1857SOL    HW2 6471   3.407   0.600   6.325
 1858SOL     OW 6472   6.082   2.641   3.788
 1858SOL    HW1 6473   5.996   2.688   3.809
 1858SOL    HW2 6474   6.062   2.552   3.747
 1859SOL     OW 6475   4.460   1.434   3.162
 1859SOL    HW1 6476   4.474   1.381   3.079
 1859SOL    HW2 6477   4.364   1.457   3.172
 1860SOL     OW 6478   6.310   0.392   3.462
 1860SOL    HW1 6479   6.326   0.462   3.393
 1860SOL    HW2 6480   6.293   0.304   3.417
 1861SOL     OW 6481   5.386   0.018   2.743
 1861SOL    HW1 6482   5.340   6.967   2.789
 1861SOL    HW2 6483   5.477   0.031   2.783
 1862SOL     OW 6484   2.593   0.462   6.279
 1862SOL    HW1 6485   2.553   0.525   6.345
 1862SOL    HW2 6486   2.596   0.370   6.317
 1863SOL     OW 6487   1.854   1.709   7.022
 1863SOL    HW1 6488   1.860   1.753   6.933
 1863SOL    HW2 6489   1.829   1.777   0.067
 1864SOL     OW 6490   0.808   6.980   5.683
 1864SOL    HW1 6491   0.883   6.973   5.617
 1864SOL    HW2 6492   0.834   6.931   5.767
 1865SOL     OW 6493   3.660   7.011   5.941
 1865SOL    HW1 6494   3.629   0.063   5.998
 1865SOL    HW2 6495   3.588   6.988   5.876
 1866SOL     OW 6496   4.675   4.977   3.082
 1866SOL    HW1 6497   4.669   4.878   3.095
 1866SOL    HW2 6498   4.766   5.009   3.108
 1867SOL     OW 6499   1.009   4.437   0.211
 1867SOL    HW1 6500   0.960   4.485   0.138
 1867SOL    HW2 6501   1.040   4.348   0.178
 1868SOL     OW 6502   5.167   3.744   0.715
 1868SOL    HW1 6503   5.083   3.698   0.685
 1868SOL    HW2 6504   5.144   3.823   0.771
 1869SOL     OW 6505   6.312   2.683   5.766
 1869SOL    HW1 6506   6.344   2.768   5.807
 1869SOL    HW2 6507   6.236   2.702   5.705
 1870SOL     OW 6508   1.914   2.853   5.722
 1870SOL    HW1 6509   1.944   2.948   5.732
 1870SOL    HW2 6510   1.816   2.851   5.702
 1871SOL     OW 6511   0.246   0.742   6.531
 1871SOL    HW1 6512   0.313   0.812   6.506
 1871SOL    HW2 6513   0.249   0.727   6.630
 1872SOL     OW 6514   3.669   3.030   0.296
 1872SOL    HW1 6515   3.587   3.069   0.252
 1872SOL    HW2 6516   3.743   3.024   0.229
 1873SOL     OW 6517   4.600   1.427   5.649
 1873SOL    HW1 6518   4.634   1.518   5.675
 1873SOL    HW2 6519   4.654   1.392   5.573
 1874SOL     OW 6520   3.152   1.103   1.166
 1874SOL    HW1 6521   3.140   1.202   1.167
 1874SOL    HW2 6522   3.250   1.082   1.163
 1875SOL     OW 6523   0.545   1.456   0.348
 1875SOL    HW1 6524   0.544   1.366   0.304
 1875SOL    HW2 6525   0.467   1.464   0.410
 1876SOL     OW 6526   3.901   6.910   5.929
 1876SOL    HW1 6527   3.805   6.931   5.917
 1876SOL    HW2 6528   3.957   6.984   5.890
 1877SOL     OW 6529   0.463   0.530   2.959
 1877SOL    HW1 6530   0.535   0.587   2.920
 1877SOL    HW2 6531   0.473   0.526   3.058
 1878SOL     OW 6532   6.616   1.784   3.765
 1878SOL    HW1 6533   6.641   1.768   3.670
 1878SOL    HW2 6534   6.699   1.797   3.820
 1879SOL     OW 6535   1.222   4.269   4.370
 1879SOL    HW1 6536   1.200   4.363   4.344
 1879SOL    HW2 6537   1.321   4.255   4.362
 1880SOL     OW 6538   6.963   1.744   4.749
 1880SOL    HW1 6539   6.992   1.806   4.821
 1880SOL    HW2 6540   7.011   1.765   4.664
 1881SOL     OW 6541   5.857   1.766   2.888
 1881SOL    HW1 6542   5.790   1.707   2.843
 1881SOL    HW2 6543   5.817   1.856   2.904
 1882SOL     OW 6544   1.642   4.102   6.378
 1882SOL    HW1 6545   1.699   4.097   6.296
 1882SOL    HW2 6546   1.558   4.051   6.363
 1883SOL     OW 6547   6.691   1.937   3.462
 1883SOL    HW1 6548   6.620   1.872   3.438
 1883SOL    HW2 6549   6.777   1.910   3.420
 1884SOL     OW 6550   0.194   1.672   0.545
 1884SOL    HW1 6551   0.158   1.754   0.589
 1884SOL    HW2 6552   0.185   1.593   0.606
 1885SOL     OW 6553   1.818   1.763   6.082
 1885SOL    HW1 6554   1.813   1.862   6.086
 1885SOL    HW2 6555   1.738   1.723   6.127
 1886SOL     OW 6556   1.355   0.417   1.626
 1886SOL    HW1 6557   1.420   0.488   1.654
 1886SOL    HW2 6558   1.345   0.419   1.526
 1887SOL     OW 6559   1.094   5.553   5.235
 1887SOL    HW1 6560   0.998   5.548   5.261
 1887SOL    HW2 6561   1.151   5.521   5.310
 1888SOL     OW 6562   2.950   2.320   6.705
 1888SOL    HW1 6563   2.890   2.279   6.774
 1888SOL    HW2 6564   2.989   2.404   6.742
 1889SOL     OW 6565   0.482   3.444   5.371
 1889SOL    HW1 6566   0.526   3.356   5.354
 1889SOL    HW2 6567   0.429   3.439   5.456
 1890SOL     OW 6568   1.524   5.827   3.877
 1890SOL    HW1 6569   1.619   5.854   3.886
 1890SOL    HW2 6570   1.482   5.878   3.801
 1891SOL     OW 6571   5.187   2.514   1.915
 1891SOL    HW1 6572   5.128   2.556   1.983
 1891SOL    HW2 6573   5.133   2.490   1.834
 1892SOL     OW 6574   1.707   0.659   2.455
 1892SOL    HW1 6575   1.647   0.712   2.516
 1892SOL    HW2 6576   1.783   0.716   2.425
 1893SOL     OW 6577   3.103   3.725   1.423
 1893SOL    HW1 6578   3.109   3.689   1.516
 1893SOL    HW2 6579   3.195   3.742   1.388
 1894SOL     OW 6580   3.853   4.046   3.745
 1894SOL    HW1 6581   3.907   3.976   3.791
 1894SOL    HW2 6582   3.837   4.123   3.808
 1895SOL     OW 6583   4.464   0.391   1.287
 1895SOL    HW1 6584   4.473   0.418   1.192
 1895SOL    HW2 6585   4.516   0.453   1.345
 1896SOL     OW 6586   5.184   1.305   1.545
 1896SOL    HW1 6587   5.230   1.220   1.521
 1896SOL    HW2 6588   5.168   1.308   1.643
 1897SOL     OW 6589   2.163   5.268   1.250
 1897SOL    HW1 6590   2.208   5.247   1.337
 1897SOL    HW2 6591   2.103   5.192   1.224
 1898SOL     OW 6592   2.218   5.139   3.799
 1898SOL    HW1 6593   2.195   5.125   3.895
 1898SOL    HW2 6594   2.213   5.051   3.750
 1899SOL     OW 6595   0.530   1.226   1.383
 1899SOL    HW1 6596   0.511   1.139   1.338
 1899SOL    HW2 6597   0.610   1.268   1.340
 1900SOL     OW 6598   2.286   0.656   6.940
 1900SOL    HW1 6599   2.188   0.663   6.925
 1900SOL    HW2 6600   2.335   0.706   6.868
 1901SOL     OW 6601   1.770   1.996   0.551
 1901SOL    HW1 6602   1.687   2.048   0.533
 1901SOL    HW2 6603   1.832   2.050   0.607
 1902SOL     OW 6604   2.080   0.317   4.993
 1902SOL    HW1 6605   2.042   0.364   5.072
 1902SOL    HW2 6606   2.073   0.377   4.913
 1903SOL     OW 6607   0.164   3.605   3.111
 1903SOL    HW1 6608   0.254   3.600   3.155
 1903SOL    HW2 6609   0.171   3.572   3.017
 1904SOL     OW 6610   6.231   5.273   3.839
 1904SOL    HW1 6611   6.236   5.221   3.753
 1904SOL    HW2 6612   6.186   5.361   3.822
 1905SOL     OW 6613   0.891   7.007   3.376
 1905SOL    HW1 6614   0.846   6.978   3.291
 1905SOL    HW2 6615   0.885   0.082   3.385
 1906SOL     OW 6616   2.683   6.992   5.154
 1906SOL    HW1 6617   2.636   6.984   5.066
 1906SOL    HW2 6618   2.778   6.959   5.144
 1907SOL     OW 6619   4.398   1.898   1.857
 1907SOL    HW1 6620   4.342   1.957   1.800
 1907SOL    HW2 6621   4.364   1.899   1.950
 1908SOL     OW 6622   3.686   6.287   5.903
 1908SOL    HW1 6623   3.693   6.224   5.981
 1908SOL    HW2 6624   3.695   6.236   5.818
 1909SOL     OW 6625   0.905   3.317   3.466
 1909SOL    HW1 6626   0.869   3.397   3.512
 1909SOL    HW2 6627   0.847   3.238   3.485
 1910SOL     OW 6628   0.218   5.402   6.064
 1910SOL    HW1 6629   0.313   5.431   6.071
 1910SOL    HW2 6630   0.162   5.477   6.029
 1911SOL     OW 6631   0.025   3.514   4.587
 1911SOL    HW1 6632   0.056   3.506   4.492
 1911SOL    HW2 6633   6.993   3.435   4.610
 1912SOL     OW 6634   2.892   6.135   1.543
 1912SOL    HW1 6635   2.856   6.182   1.463
 1912SOL    HW2 6636   2.982   6.171   1.566
 1913SOL     OW 6637   2.944   0.518   4.525
 1913SOL    HW1 6638   2.991   0.600   4.555
 1913SOL    HW2 6639   2.934   0.454   4.602
 1914SOL     OW 6640   3.420   2.686   6.458
 1914SOL    HW1 6641   3.324   2.660   6.444
 1914SOL    HW2 6642   3.461   2.710   6.370
 1915SOL     OW 6643   3.934   2.584   5.525
 1915SOL    HW1 6644   3.925   2.635   5.440
 1915SOL    HW2 6645   3.991   2.635   5.589
 1916SOL     OW 6646   4.118   5.840   1.369
 1916SOL    HW1 6647   4.171   5.760   1.340
 1916SOL    HW2 6648   4.154   5.921   1.324
 1917SOL     OW 6649   2.333   3.285   6.956
 1917SOL    HW1 6650   2.345   3.384   6.948
 1917SOL    HW2 6651   2.382   3.252   0.012
 1918SOL     OW 6652   1.440   1.409   4.618
 1918SOL    HW1 6653   1.530   1.447   4.598
 1918SOL    HW2 6654   1.373   1.443   4.552
 1919SOL     OW 6655   1.444   1.863   1.731
 1919SOL    HW1 6656   1.470   1.901   1.820
 1919SOL    HW2 6657   1.525   1.858   1.673
 1920SOL     OW 6658   6.518   4.121   3.261
 1920SOL    HW1 6659   6.449   4.191   3.246
 1920SOL    HW2 6660   6.521   4.059   3.183
 1921SOL     OW 6661   2.064   3.247   6.991
 1921SOL    HW1 6662   2.163   3.262   6.988
 1921SOL    HW2 6663   2.022   3.280   6.907
 1922SOL     OW 6664   3.033   3.676   1.884
 1922SOL    HW1 6665   3.078   3.731   1.954
 1922SOL    HW2 6666   2.934   3.684   1.893
 1923SOL     OW 6667   4.071   1.943   6.516
 1923SOL    HW1 6668   4.009   1.902   6.449
 1923SOL    HW2 6669   4.039   2.034   6.540
 1924SOL     OW 6670   4.634   6.734   0.402
 1924SOL    HW1 6671   4.546   6.706   0.364
 1924SOL    HW2 6672   4.678   6.800   0.341
 1925SOL     OW 6673   1.264   4.940   1.163
 1925SOL    HW1 6674   1.164   4.943   1.176
 1925SOL    HW2 6675   1.285   4.882   1.085
 1926SOL     OW 6676   3.280   0.030   2.116
 1926SOL    HW1 6677   3.186   7.021   2.114
 1926SOL    HW2 6678   3.280   0.129   2.101
 1927SOL     OW 6679   2.309   4.487   0.248
 1927SOL    HW1 6680   2.370   4.408   0.251
 1927SOL    HW2 6681   2.343   4.557   0.311
 1928SOL     OW 6682   5.777   4.131   4.940
 1928SOL    HW1 6683   5.691   4.094   4.905
 1928SOL    HW2 6684   5.825   4.179   4.867
 1929SOL     OW 6685   2.409   0.666   1.587
 1929SOL    HW1 6686   2.453   0.726   1.521
 1929SOL    HW2 6687   2.327   0.710   1.624
 1930SOL     OW 6688   5.280   3.397   6.724
 1930SOL    HW1 6689   5.295   3.483   6.772
 1930SOL    HW2 6690   5.184   3.389   6.697
 1931SOL     OW 6691   0.897   1.703   0.369
 1931SOL    HW1 6692   0.902   1.781   0.307
 1931SOL    HW2 6693   0.812   1.652   0.353
 1932SOL     OW 6694   4.731   2.651   3.624
 1932SOL    HW1 6695   4.745   2.632   3.526
 1932SOL    HW2 6696   4.669   2.583   3.663
 1933SOL     OW 6697   1.181   2.677   0.543
 1933SOL    HW1 6698   1.226   2.632   0.620
 1933SOL    HW2 6699   1.157   2.608   0.474
 1934SOL     OW 6700   0.021   1.262   4.896
 1934SOL    HW1 6701   6.989   1.258   4.978
 1934SOL    HW2 6702   7.004   1.207   4.824
 1935SOL     OW 6703   4.175   4.722   3.966
 1935SOL    HW1 6704   4.111   4.668   4.021
 1935SOL    HW2 6705   4.262   4.673   3.959
 1936SOL     OW 6706   4.850   3.623   3.814
 1936SOL    HW1 6707   4.901   3.560   3.754
 1936SOL    HW2 6708   4.809   3.695   3.758
 1937SOL     OW 6709   4.270   6.317   0.003
 1937SOL    HW1 6710   4.272   6.414   0.029
 1937SOL    HW2 6711   4.306   6.308   6.935
 1938SOL     OW 6712   1.765   1.879   1.061
 1938SOL    HW1 6713   1.802   1.836   1.143
 1938SOL    HW2 6714   1.779   1.978   1.066
 1939SOL     OW 6715   6.832   6.570   4.311
 1939SOL    HW1 6716   6.845   6.617   4.398
 1939SOL    HW2 6717   6.886   6.486   4.310
 1940SOL     OW 6718   6.355   4.343   1.174
 1940SOL    HW1 6719   6.451   4.316   1.172
 1940SOL    HW2 6720   6.298   4.264   1.194
 1941SOL     OW 6721   1.667   2.830   3.764
 1941SOL    HW1 6722   1.593   2.837   3.832
 1941SOL    HW2 6723   1.711   2.919   3.754
 1942SOL     OW 6724   5.293   3.373   2.739
 1942SOL    HW1 6725   5.370   3.330   2.786
 1942SOL    HW2 6726   5.319   3.396   2.645
 1943SOL     OW 6727   0.899   0.787   2.420
 1943SOL    HW1 6728   0.832   0.794   2.493
 1943SOL    HW2 6729   0.943   0.697   2.424
 1944SOL     OW 6730   6.123   4.390   0.171
 1944SOL    HW1 6731   6.134   4.453   0.248
 1944SOL    HW2 6732   6.042   4.415   0.119
 1945SOL     OW 6733   3.784   6.082   0.494
 1945SOL    HW1 6734   3.820   6.009   0.552
 1945SOL    HW2 6735   3.803   6.171   0.535
 1946SOL     OW 6736   5.754   6.688   1.304
 1946SOL    HW1 6737   5.767   6.643   1.392
 1946SOL    HW2 6738   5.777   6.624   1.231
 1947SOL     OW 6739   5.876   5.766   4.077
 1947SOL    HW1 6740   5.877   5.674   4.040
 1947SOL    HW2 6741   5.946   5.775   4.147
 1948SOL     OW 6742   5.835   5.203   2.651
 1948SOL    HW1 6743   5.927   5.166   2.663
 1948SOL    HW2 6744   5.836   5.302   2.662
 1949SOL     OW 6745   4.139   3.628   0.328
 1949SOL    HW1 6746   4.131   3.535   0.292
 1949SOL    HW2 6747   4.133   3.693   0.253
 1950SOL     OW 6748   4.111   3.429   3.371
 1950SOL    HW1 6749   4.127   3.523   3.341
 1950SOL    HW2 6750   4.030   3.393   3.324
 1951SOL     OW 6751   0.018   4.442   6.019
 1951SOL    HW1 6752   7.015   4.513   6.083
 1951SOL    HW2 6753   0.116   4.449   6.001
 1952SOL     OW 6754   5.804   5.092   1.041
 1952SOL    HW1 6755   5.852   5.164   1.090
 1952SOL    HW2 6756   5.711   5.122   1.021
 1953SOL     OW 6757   6.738   1.567   6.278
 1953SOL    HW1 6758   6.837   1.561   6.272
 1953SOL    HW2 6759   6.708   1.534   6.368
 1954SOL     OW 6760   5.552   6.870   1.395
 1954SOL    HW1 6761   5.592   6.959   1.373
 1954SOL    HW2 6762   5.614   6.797   1.366
 1955SOL     OW 6763   0.356   0.980   1.652
 1955SOL    HW1 6764   0.263   0.977   1.617
 1955SOL    HW2 6765   0.404   0.896   1.626
 1956SOL     OW 6766   4.741   6.914   2.638
 1956SOL    HW1 6767   4.830   6.874   2.616
 1956SOL    HW2 6768   4.676   6.842   2.660
 1957SOL     OW 6769   5.151   4.314   3.765
 1957SOL    HW1 6770   5.127   4.220   3.786
 1957SOL    HW2 6771   5.098   4.376   3.823
 1958SOL     OW 6772   4.686   0.901   1.767
 1958SOL    HW1 6773   4.755   0.858   1.824
 1958SOL    HW2 6774   4.596   0.868   1.793
 1959SOL     OW 6775   0.067   6.359   3.891
 1959SOL    HW1 6776   0.067   6.325   3.797
 1959SOL    HW2 6777   0.079   6.458   3.891
 1960SOL     OW 6778   0.278   3.472   2.458
 1960SOL    HW1 6779   0.207   3.487   2.526
 1960SOL    HW2 6780   0.238   3.430   2.377
 1961SOL     OW 6781   6.011   4.512   4.618
 1961SOL    HW1 6782   5.966   4.549   4.699
 1961SOL    HW2 6783   6.099   4.559   4.605
 1962SOL     OW 6784   1.113   6.275   2.830
 1962SOL    HW1 6785   1.170   6.318   2.759
 1962SOL    HW2 6786   1.169   6.209   2.881
 1963SOL     OW 6787   1.486   2.075   1.258
 1963SOL    HW1 6788   1.475   2.056   1.160
 1963SOL    HW2 6789   1.412   2.031   1.309
 1964SOL     OW 6790   4.929   4.835   1.902
 1964SOL    HW1 6791   4.988   4.762   1.870
 1964SOL    HW2 6792   4.945   4.918   1.848
 1965SOL     OW 6793   1.911   2.681   4.179
 1965SOL    HW1 6794   1.831   2.698   4.236
 1965SOL    HW2 6795   1.906   2.588   4.142
 1966SOL     OW 6796   1.674   5.362   0.964
 1966SOL    HW1 6797   1.694   5.454   0.928
 1966SOL    HW2 6798   1.579   5.358   0.994
 1967SOL     OW 6799   6.238   2.526   4.452
 1967SOL    HW1 6800   6.325   2.555   4.491
 1967SOL    HW2 6801   6.175   2.502   4.526
 1968SOL     OW 6802   2.652   0.988   5.308
 1968SOL    HW1 6803   2.561   1.004   5.271
 1968SOL    HW2 6804   2.665   0.890   5.326
 1969SOL     OW 6805   3.472   0.474   1.588
 1969SOL    HW1 6806   3.482   0.522   1.502
 1969SOL    HW2 6807   3.374   0.459   1.607
 1970SOL     OW 6808   0.280   0.309   5.397
 1970SOL    HW1 6809   0.217   0.311   5.475
 1970SOL    HW2 6810   0.359   0.253   5.420
 1971SOL     OW 6811   0.501   0.759   5.359
 1971SOL    HW1 6812   0.450   0.682   5.397
 1971SOL    HW2 6813   0.456   0.791   5.276
 1972SOL     OW 6814   6.015   2.696   1.622
 1972SOL    HW1 6815   6.060   2.622   1.673
 1972SOL    HW2 6816   5.917   2.680   1.619
 1973SOL     OW 6817   2.589   4.275   1.618
 1973SOL    HW1 6818   2.630   4.308   1.533
 1973SOL    HW2 6819   2.491   4.297   1.618
 1974SOL     OW 6820   4.441   6.804   4.533
 1974SOL    HW1 6821   4.367   6.845   4.480
 1974SOL    HW2 6822   4.505   6.759   4.470
 1975SOL     OW 6823   2.191   2.297   3.907
 1975SOL    HW1 6824   2.186   2.377   3.967
 1975SOL    HW2 6825   2.276   2.249   3.924
 1976SOL     OW 6826   5.115   6.446   6.671
 1976SOL    HW1 6827   5.155   6.525   6.624
 1976SOL    HW2 6828   5.172   6.420   6.749
 1977SOL     OW 6829   2.018   2.996   5.251
 1977SOL    HW1 6830   2.108   3.040   5.246
 1977SOL    HW2 6831   2.029   2.897   5.260
 1978SOL     OW 6832   1.758   6.132   2.595
 1978SOL    HW1 6833   1.795   6.083   2.516
 1978SOL    HW2 6834   1.658   6.133   2.590
 1979SOL     OW 6835   5.267   5.368   0.047
 1979SOL    HW1 6836   5.363   5.358   0.073
 1979SOL    HW2 6837   5.261   5.374   6.972
 1980SOL     OW 6838   3.656   0.605   2.901
 1980SOL    HW1 6839   3.572   0.557   2.927
 1980SOL    HW2 6840   3.725   0.592   2.972
 1981SOL     OW 6841   5.531   2.699   2.451
 1981SOL    HW1 6842   5.480   2.715   2.535
 1981SOL    HW2 6843   5.625   2.731   2.463
 1982SOL     OW 6844   6.689   3.949   3.690
 1982SOL    HW1 6845   6.634   3.929   3.609
 1982SOL    HW2 6846   6.771   4.000   3.663
 1983SOL     OW 6847   0.978   0.332   1.584
 1983SOL    HW1 6848   0.970   0.431   1.582
 1983SOL    HW2 6849   1.025   0.301   1.501
 1984SOL     OW 6850   4.688   2.565   5.460
 1984SOL    HW1 6851   4.619   2.635   5.481
 1984SOL    HW2 6852   4.666   2.523   5.371
 1985SOL     OW 6853   6.652   5.681   2.388
 1985SOL    HW1 6854   6.671   5.740   2.310
 1985SOL    HW2 6855   6.721   5.695   2.459
 1986SOL     OW 6856   2.880   1.599   5.987
 1986SOL    HW1 6857   2.968   1.638   5.960
 1986SOL    HW2 6858   2.893   1.539   6.067
 1987SOL     OW 6859   1.999   1.480   3.579
 1987SOL    HW1 6860   1.993   1.485   3.679
 1987SOL    HW2 6861   2.071   1.540   3.546
 1988SOL     OW 6862   0.185   1.678   1.013
 1988SOL    HW1 6863   0.169   1.771   0.980
 1988SOL    HW2 6864   0.202   1.679   1.111
 1989SOL     OW 6865   2.369   5.908   3.928
 1989SOL    HW1 6866   2.275   5.942   3.927
 1989SOL    HW2 6867   2.369   5.808   3.921
 1990SOL     OW 6868   3.542   6.897   0.632
 1990SOL    HW1 6869   3.471   6.861   0.572
 1990SOL    HW2 6870   3.504   6.971   0.688
 1991SOL     OW 6871   2.281   5.165   0.203
 1991SOL    HW1 6872   2.190   5.174   0.244
 1991SOL    HW2 6873   2.303   5.248   0.153
 1992SOL     OW 6874   6.672   0.249   0.439
 1992SOL    HW1 6875   6.749   0.265   0.500
 1992SOL    HW2 6876   6.617   0.332   0.431
 1993SOL     OW 6877   3.517   2.035   4.711
 1993SOL    HW1 6878   3.435   2.086   4.736
 1993SOL    HW2 6879   3.568   2.011   4.793
 1994SOL     OW 6880   4.733   1.770   1.011
 1994SOL    HW1 6881   4.655   1.827   0.986
 1994SOL    HW2 6882   4.799   1.769   0.936
 1995SOL     OW 6883   5.472   3.473   4.262
 1995SOL    HW1 6884   5.466   3.375   4.279
 1995SOL    HW2 6885   5.533   3.491   4.184
 1996SOL     OW 6886   2.473   1.445   1.288
 1996SOL    HW1 6887   2.469   1.364   1.347
 1996SOL    HW2 6888   2.437   1.524   1.338
 1997SOL     OW 6889   3.150   1.463   3.937
 1997SOL    HW1 6890   3.118   1.478   4.030
 1997SOL    HW2 6891   3.244   1.494   3.928
 1998SOL     OW 6892   1.540   3.884   0.768
 1998SOL    HW1 6893   1.465   3.922   0.822
 1998SOL    HW2 6894   1.528   3.785   0.759
 1999SOL     OW 6895   0.514   0.503   4.544
 1999SOL    HW1 6896   0.593   0.509   4.483
 1999SOL    HW2 6897   0.464   0.419   4.525
 2000SOL     OW 6898   4.259   3.364   6.221
 2000SOL    HW1 6899   4.161   3.370   6.237
 2000SOL    HW2 6900   4.278   3.365   6.123
 2001SOL     OW 6901   1.513   1.696   7.006
 2001SOL    HW1 6902   1.493   1.670   0.076
 2001SOL    HW2 6903   1.508   1.796   6.998
 2002SOL     OW 6904   0.767   5.742   0.917
 2002SOL    HW1 6905   0.787   5.686   0.837
 2002SOL    HW2 6906   0.755   5.837   0.888
 2003SOL     OW 6907   6.810   5.257   1.899
 2003SOL    HW1 6908   6.837   5.216   1.812
 2003SOL    HW2 6909   6.884   5.246   1.965
 2004SOL     OW 6910   4.368   1.074   4.706
 2004SOL    HW1 6911   4.352   1.171   4.724
 2004SOL    HW2 6912   4.453   1.046   4.751
 2005SOL     OW 6913   6.740   5.088   6.828
 2005SOL    HW1 6914   6.830   5.044   6.828
 2005SOL    HW2 6915   6.751   5.187   6.839
 2006SOL     OW 6916   5.698   6.785   4.229
 2006SOL    HW1 6917   5.650   6.733   4.300
 2006SOL    HW2 6918   5.679   6.745   4.140
 2007SOL     OW 6919   5.602   3.973   1.605
 2007SOL    HW1 6920   5.523   3.915   1.583
 2007SOL    HW2 6921   5.595   4.059   1.555
 2008SOL     OW 6922   2.187   3.225   3.755
 2008SOL    HW1 6923   2.197   3.323   3.769
 2008SOL    HW2 6924   2.175   3.179   3.843
 2009SOL     OW 6925   5.405   6.518   2.115
 2009SOL    HW1 6926   5.491   6.514   2.063
 2009SOL    HW2 6927   5.330   6.487   2.057
 2010SOL     OW 6928   1.719   1.823   1.605
 2010SOL    HW1 6929   1.774   1.894   1.649
 2010SOL    HW2 6930   1.776   1.743   1.587
 2011SOL     OW 6931   0.204   0.673   4.837
 2011SOL    HW1 6932   0.241   0.676   4.930
 2011SOL    HW2 6933   0.166   0.582   4.820
 2012SOL     OW 6934   1.197   3.720   1.832
 2012SOL    HW1 6935   1.289   3.759   1.840
 2012SOL    HW2 6936   1.197   3.649   1.762
 2013SOL     OW 6937   6.851   3.359   3.176
 2013SOL    HW1 6938   6.936   3.306   3.176
 2013SOL    HW2 6939   6.774   3.298   3.157
 2014SOL     OW 6940   3.082   0.348   2.890
 2014SOL    HW1 6941   3.010   0.379   2.952
 2014SOL    HW2 6942   3.170   0.349   2.937
 2015SOL     OW 6943   3.367   6.503   1.186
 2015SOL    HW1 6944   3.460   6.496   1.222
 2015SOL    HW2 6945   3.339   6.599   1.185
 2016SOL     OW 6946   1.744   5.676   5.390
 2016SOL    HW1 6947   1.714   5.771   5.395
 2016SOL    HW2 6948   1.825   5.663   5.447
 2017SOL     OW 6949   4.080   0.548   3.371
 2017SOL    HW1 6950   4.061   0.549   3.272
 2017SOL    HW2 6951   4.003   0.588   3.420
 2018SOL     OW 6952   6.795   2.610   3.918
 2018SOL    HW1 6953   6.811   2.706   3.897
 2018SOL    HW2 6954   6.883   2.564   3.932
 2019SOL     OW 6955   6.080   4.266   6.173
 2019SOL    HW1 6956   6.035   4.326   6.239
 2019SOL    HW2 6957   6.141   4.202   6.221
 2020SOL     OW 6958   1.938   6.375   5.811
 2020SOL    HW1 6959   1.919   6.322   5.728
 2020SOL    HW2 6960   1.859   6.433   5.832
 2021SOL     OW 6961   6.141   6.713   3.707
 2021SOL    HW1 6962   6.196   6.733   3.788
 2021SOL    HW2 6963   6.181   6.757   3.627
 2022SOL     OW 6964   2.042   4.644   4.593
 2022SOL    HW1 6965   2.096   4.723   4.564
 2022SOL    HW2 6966   2.006   4.596   4.513
 2023SOL     OW 6967   0.245   0.011   6.694
 2023SOL    HW1 6968   0.152   0.047   6.700
 2023SOL    HW2 6969   0.291   0.052   6.615
 2024SOL     OW 6970   0.065   5.780   3.961
 2024SOL    HW1 6971   0.066   5.693   4.010
 2024SOL    HW2 6972   0.155   5.798   3.921
 2025SOL     OW 6973   3.176   0.762   3.295
 2025SOL    HW1 6974   3.208   0.850   3.330
 2025SOL    HW2 6975   3.083   0.744   3.328
 2026SOL     OW 6976   6.427   2.081   6.588
 2026SOL    HW1 6977   6.493   2.050   6.656
 2026SOL    HW2 6978   6.406   2.007   6.524
 2027SOL     OW 6979   0.594   6.414   1.645
 2027SOL    HW1 6980   0.545   6.464   1.574
 2027SOL    HW2 6981   0.595   6.467   1.729
 2028SOL     OW 6982   3.432   5.927   2.724
 2028SOL    HW1 6983   3.419   5.855   2.792
 2028SOL    HW2 6984   3.381   6.008   2.752
 2029SOL     OW 6985   6.670   2.248   0.161
 2029SOL    HW1 6986   6.576   2.227   0.134
 2029SOL    HW2 6987   6.673   2.339   0.202
 2030SOL     OW 6988   3.145   6.715   2.285
 2030SOL    HW1 6989   3.109   6.643   2.225
 2030SOL    HW2 6990   3.212   6.770   2.235
 2031SOL     OW 6991   6.879   6.165   2.356
 2031SOL    HW1 6992   6.948   6.237   2.359
 2031SOL    HW2 6993   6.839   6.153   2.447
 2032SOL     OW 6994   3.277   1.029   0.688
 2032SOL    HW1 6995   3.307   1.078   0.771
 2032SOL    HW2 6996   3.357   0.991   0.641
 2033SOL     OW 6997   1.823   1.288   0.819
 2033SOL    HW1 6998   1.797   1.235   0.900
 2033SOL    HW2 6999   1.914   1.259   0.788
 2034SOL     OW 7000   1.771   5.257   5.588
 2034SOL    HW1 7001   1.750   5.192   5.660
 2034SOL    HW2 7002   1.718   5.236   5.506
 2035SOL     OW 7003   6.553   6.682   2.256
 2035SOL    HW1 7004   6.497   6.629   2.319
 2035SOL    HW2 7005   6.583   6.624   2.181
 2036SOL     OW 7006   1.613   3.484   3.241
 2036SOL    HW1 7007   1.639   3.580   3.236
 2036SOL    HW2 7008   1.514   3.475   3.227
 2037SOL     OW 7009   6.599   2.852   6.252
 2037SOL    HW1 7010   6.536   2.915   6.208
 2037SOL    HW2 7011   6.562   2.759   6.246
 2038SOL     OW 7012   2.829   0.951   0.055
 2038SOL    HW1 7013   2.808   0.999   6.994
 2038SOL    HW2 7014   2.761   0.973   0.124
 2039SOL     OW 7015   6.816   5.702   2.637
 2039SOL    HW1 7016   6.899   5.746   2.604
 2039SOL    HW2 7017   6.834   5.606   2.656
 2040SOL     OW 7018   1.818   2.092   6.897
 2040SOL    HW1 7019   1.910   2.126   6.916
 2040SOL    HW2 7020   1.825   2.011   6.838
 2041SOL     OW 7021   1.381   0.167   5.317
 2041SOL    HW1 7022   1.295   0.191   5.272
 2041SOL    HW2 7023   1.458   0.186   5.255
 2042SOL     OW 7024   4.701   6.927   6.231
 2042SOL    HW1 7025   4.775   6.938   6.298
 2042SOL    HW2 7026   4.623   6.984   6.259
 2043SOL     OW 7027   6.153   2.666   2.171
 2043SOL    HW1 7028   6.250   2.688   2.170
 2043SOL    HW2 7029   6.137   2.581   2.121
 2044SOL     OW 7030   5.957   1.046   1.774
 2044SOL    HW1 7031   5.929   0.964   1.724
 2044SOL    HW2 7032   5.880   1.081   1.828
 2045SOL     OW 7033   1.239   6.070   4.802
 2045SOL    HW1 7034   1.185   6.094   4.721
 2045SOL    HW2 7035   1.284   6.152   4.837
 2046SOL     OW 7036   6.648   2.127   5.526
 2046SOL    HW1 7037   6.629   2.175   5.612
 2046SOL    HW2 7038   6.739   2.153   5.493
 2047SOL     OW 7039   6.105   2.055   1.283
 2047SOL    HW1 7040   6.153   2.143   1.286
 2047SOL    HW2 7041   6.170   1.982   1.264
 2048SOL     OW 7042   0.290   1.246   4.830
 2048SOL    HW1 7043   0.190   1.245   4.831
 2048SOL    HW2 7044   0.322   1.325   4.778
 2049SOL     OW 7045   4.785   1.424   4.631
 2049SOL    HW1 7046   4.716   1.469   4.689
 2049SOL    HW2 7047   4.872   1.421   4.679
 2050SOL     OW 7048   7.017   2.154   5.209
 2050SOL    HW1 7049   0.004   2.215   5.131
 2050SOL    HW2 7050   0.082   2.134   5.249
 2051SOL     OW 7051   2.043   5.936   0.046
 2051SOL    HW1 7052   2.088   5.993   7.002
 2051SOL    HW2 7053   1.987   5.992   0.106
 2052SOL     OW 7054   1.213   3.002   0.794
 2052SOL    HW1 7055   1.171   3.056   0.867
 2052SOL    HW2 7056   1.185   2.907   0.803
 2053SOL     OW 7057   0.722   5.407   4.167
 2053SOL    HW1 7058   0.671   5.330   4.206
 2053SOL    HW2 7059   0.697   5.491   4.214
 2054SOL     OW 7060   3.174   3.205   2.753
 2054SOL    HW1 7061   3.164   3.294   2.708
 2054SOL    HW2 7062   3.271   3.181   2.756
 2055SOL     OW 7063   6.917   2.767   5.393
 2055SOL    HW1 7064   6.832   2.815   5.415
 2055SOL    HW2 7065   6.939   2.781   5.297
 2056SOL     OW 7066   4.600   4.845   1.251
 2056SOL    HW1 7067   4.533   4.783   1.293
 2056SOL    HW2 7068   4.654   4.794   1.184
 2057SOL     OW 7069   5.330   2.988   4.568
 2057SOL    HW1 7070   5.295   2.918   4.507
 2057SOL    HW2 7071   5.272   2.994   4.650
 2058SOL     OW 7072   0.547   6.677   2.634
 2058SOL    HW1 7073   0.458   6.653   2.596
 2058SOL    HW2 7074   0.553   6.645   2.728
 2059SOL     OW 7075   2.603   0.742   5.367
 2059SOL    HW1 7076   2.526   0.758   5.430
 2059SOL    HW2 7077   2.569   0.698   5.284
 2060SOL     OW 7078   0.629   3.009   1.164
 2060SOL    HW1 7079   0.546   2.996   1.219
 2060SOL    HW2 7080   0.627   2.949   1.085
 2061SOL     OW 7081   1.793   2.850   2.284
 2061SOL    HW1 7082   1.853   2.837   2.205
 2061SOL    HW2 7083   1.726   2.921   2.263
 2062SOL     OW 7084   6.674   5.280   5.653
 2062SOL    HW1 7085   6.763   5.320   5.632
 2062SOL    HW2 7086   6.619   5.273   5.569
 2063SOL     OW 7087   1.566   6.355   4.737
 2063SOL    HW1 7088   1.599   6.408   4.815
 2063SOL    HW2 7089   1.637   6.292   4.706
 2064SOL     OW 7090   1.095   3.407   4.157
 2064SOL    HW1 7091   1.078   3.488   4.102
 2064SOL    HW2 7092   1.144   3.339   4.102
 2065SOL     OW 7093   5.394   3.009   6.269
 2065SOL    HW1 7094   5.435   2.924   6.235
 2065SOL    HW2 7095   5.304   3.022   6.228
 2066SOL     OW 7096   6.754   3.815   5.582
 2066SOL    HW1 7097   6.677   3.782   5.636
 2066SOL    HW2 7098   6.720   3.854   5.497
 2067SOL     OW 7099   6.047   4.819   1.688
 2067SOL    HW1 7100   6.103   4.824   1.771
 2067SOL    HW2 7101   6.006   4.728   1.681
 2068SOL     OW 7102   3.478   1.408   4.027
 2068SOL    HW1 7103   3.418   1.430   4.104
 2068SOL    HW2 7104   3.469   1.480   3.958
 2069SOL     OW 7105   0.040   1.812   4.485
 2069SOL    HW1 7106   0.024   1.739   4.419
 2069SOL    HW2 7107   0.139   1.828   4.494
 2070SOL     OW 7108   1.428   2.704   1.122
 2070SOL    HW1 7109   1.512   2.753   1.096
 2070SOL    HW2 7110   1.449   2.639   1.195
 2071SOL     OW 7111   6.036   1.491   6.447
 2071SOL    HW1 7112   5.954   1.447   6.483
 2071SOL    HW2 7113   6.013   1.583   6.415
 2072SOL     OW 7114   3.964   5.098   5.534
 2072SOL    HW1 7115   3.942   5.110   5.631
 2072SOL    HW2 7116   3.880   5.108   5.480
 2073SOL     OW 7117   3.687   6.177   6.160
 2073SOL    HW1 7118   3.779   6.155   6.194
 2073SOL    HW2 7119   3.624   6.104   6.184
 2074SOL     OW 7120   1.550   2.736   6.249
 2074SOL    HW1 7121   1.450   2.744   6.244
 2074SOL    HW2 7122   1.580   2.757   6.342
 2075SOL     OW 7123   6.496   1.946   2.615
 2075SOL    HW1 7124   6.594   1.963   2.623
 2075SOL    HW2 7125   6.448   2.032   2.604
 2076SOL     OW 7126   6.182   0.087   5.043
 2076SOL    HW1 7127   6.162   0.035   4.961
 2076SOL    HW2 7128   6.213   0.179   5.018
 2077SOL     OW 7129   6.696   2.080   1.986
 2077SOL    HW1 7130   6.750   2.120   2.061
 2077SOL    HW2 7131   6.611   2.042   2.023
 2078SOL     OW 7132   1.532   4.980   6.046
 2078SOL    HW1 7133   1.509   4.994   6.143
 2078SOL    HW2 7134   1.459   4.926   6.003
 2079SOL     OW 7135   5.559   0.836   2.399
 2079SOL    HW1 7136   5.611   0.779   2.335
 2079SOL    HW2 7137   5.558   0.931   2.366
 2080SOL     OW 7138   3.329   2.206   4.350
 2080SOL    HW1 7139   3.274   2.144   4.407
 2080SOL    HW2 7140   3.316   2.300   4.381
 2081SOL     OW 7141   0.627   6.438   3.235
 2081SOL    HW1 7142   0.539   6.401   3.203
 2081SOL    HW2 7143   0.610   6.509   3.303
 2082SOL     OW 7144   1.145   5.916   3.151
 2082SOL    HW1 7145   1.150   5.829   3.199
 2082SOL    HW2 7146   1.086   5.979   3.202
 2083SOL     OW 7147   0.481   5.624   3.763
 2083SOL    HW1 7148   0.567   5.573   3.756
 2083SOL    HW2 7149   0.444   5.639   3.672
 2084SOL     OW 7150   1.450   1.939   0.997
 2084SOL    HW1 7151   1.533   1.884   0.991
 2084SOL    HW2 7152   1.463   2.026   0.949
 2085SOL     OW 7153   4.828   5.716   0.464
 2085SOL    HW1 7154   4.872   5.730   0.553
 2085SOL    HW2 7155   4.890   5.664   0.405
 2086SOL     OW 7156   3.249   6.489   0.022
 2086SOL    HW1 7157   3.253   6.576   0.072
 2086SOL    HW2 7158   3.244   6.414   0.087
 2087SOL     OW 7159   4.333   2.163   7.013
 2087SOL    HW1 7160   4.361   2.245   6.964
 2087SOL    HW2 7161   4.283   2.102   6.951
 2088SOL     OW 7162   0.969   6.101   5.733
 2088SOL    HW1 7163   0.886   6.144   5.768
 2088SOL    HW2 7164   0.975   6.115   5.634
 2089SOL     OW 7165   3.904   2.735   5.292
 2089SOL    HW1 7166   3.971   2.686   5.235
 2089SOL    HW2 7167   3.888   2.826   5.252
 2090SOL     OW 7168   4.581   3.170   5.623
 2090SOL    HW1 7169   4.545   3.083   5.657
 2090SOL    HW2 7170   4.654   3.202   5.684
 2091SOL     OW 7171   6.954   6.128   1.310
 2091SOL    HW1 7172   0.000   6.111   1.378
 2091SOL    HW2 7173   6.994   6.124   1.219
 2092SOL     OW 7174   5.210   3.481   1.204
 2092SOL    HW1 7175   5.255   3.393   1.214
 2092SOL    HW2 7176   5.165   3.486   1.116
 2093SOL     OW 7177   3.731   2.063   2.263
 2093SOL    HW1 7178   3.702   2.102   2.176
 2093SOL    HW2 7179   3.655   2.067   2.328
 2094SOL     OW 7180   6.037   2.679   0.417
 2094SOL    HW1 7181   6.137   2.688   0.415
 2094SOL    HW2 7182   5.999   2.721   0.334
 2095SOL     OW 7183   5.916   6.227   3.220
 2095SOL    HW1 7184   5.820   6.249   3.237
 2095SOL    HW2 7185   5.969   6.239   3.304
 2096SOL     OW 7186   4.584   6.060   2.865
 2096SOL    HW1 7187   4.493   6.094   2.887
 2096SOL    HW2 7188   4.606   5.983   2.924
 2097SOL     OW 7189   2.977   4.276   6.269
 2097SOL    HW1 7190   2.955   4.368   6.237
 2097SOL    HW2 7191   3.071   4.273   6.301
 2098SOL     OW 7192   4.124   6.146   3.521
 2098SOL    HW1 7193   4.177   6.076   3.473
 2098SOL    HW2 7194   4.050   6.101   3.572
 2099SOL     OW 7195   4.193   1.917   0.102
 2099SOL    HW1 7196   4.094   1.929   0.093
 2099SOL    HW2 7197   4.232   1.996   0.148
 2100SOL     OW 7198   5.099   0.983   0.655
 2100SOL    HW1 7199   5.115   1.082   0.663
 2100SOL    HW2 7200   5.166   0.943   0.593
 2101SOL     OW 7201   0.405   6.165   0.561
 2101SOL    HW1 7202   0.402   6.157   0.660
 2101SOL    HW2 7203   0.402   6.261   0.535
 2102SOL     OW 7204   3.701   3.497   1.242
 2102SOL    HW1 7205   3.797   3.478   1.222
 2102SOL    HW2 7206   3.695   3.560   1.319
 2103SOL     OW 7207   3.206   4.329   0.270
 2103SOL    HW1 7208   3.251   4.344   0.359
 2103SOL    HW2 7209   3.168   4.237   0.267
 2104SOL     OW 7210   1.846   4.777   2.459
 2104SOL    HW1 7211   1.850   4.874   2.434
 2104SOL    HW2 7212   1.778   4.764   2.532
 2105SOL     OW 7213   4.688   4.398   0.637
 2105SOL    HW1 7214   4.608   4.444   0.597
 2105SOL    HW2 7215   4.660   4.341   0.713
 2106SOL     OW 7216   5.434   3.636   1.274
 2106SOL    HW1 7217   5.430   3.603   1.368
 2106SOL    HW2 7218   5.363   3.591   1.220
 2107SOL     OW 7219   5.498   3.534   6.031
 2107SOL    HW1 7220   5.568   3.525   5.960
 2107SOL    HW2 7221   5.493   3.629   6.060
 2108SOL     OW 7222   5.905   6.505   6.156
 2108SOL    HW1 7223   5.893   6.418   6.107
 2108SOL    HW2 7224   6.001   6.532   6.153
 2109SOL     OW 7225   3.056   5.172   1.925
 2109SOL    HW1 7226   3.070   5.114   1.844
 2109SOL    HW2 7227   2.985   5.131   1.983
 2110SOL     OW 7228   4.099   0.726   6.608
 2110SOL    HW1 7229   4.101   0.654   6.539
 2110SOL    HW2 7230   4.183   0.724   6.662
 2111SOL     OW 7231   1.172   2.380   5.749
 2111SOL    HW1 7232   1.081   2.423   5.755
 2111SOL    HW2 7233   1.196   2.340   5.837
 2112SOL     OW 7234   5.886   1.672   6.921
 2112SOL    HW1 7235   5.921   1.589   6.964
 2112SOL    HW2 7236   5.802   1.700   6.967
 2113SOL     OW 7237   2.168   6.314   4.503
 2113SOL    HW1 7238   2.087   6.341   4.555
 2113SOL    HW2 7239   2.249   6.354   4.545
 2114SOL     OW 7240   2.918   2.923   0.296
 2114SOL    HW1 7241   2.913   2.849   0.363
 2114SOL    HW2 7242   3.008   2.967   0.301
 2115SOL     OW 7243   1.172   4.325   2.207
 2115SOL    HW1 7244   1.260   4.280   2.192
 2115SOL    HW2 7245   1.173   4.414   2.161
 2116SOL     OW 7246   0.655   2.862   0.931
 2116SOL    HW1 7247   0.727   2.871   0.862
 2116SOL    HW2 7248   0.668   2.777   0.981
 2117SOL     OW 7249   5.294   3.023   1.799
 2117SOL    HW1 7250   5.226   3.013   1.728
 2117SOL    HW2 7251   5.270   2.965   1.877
 2118SOL     OW 7252   6.695   3.806   2.389
 2118SOL    HW1 7253   6.666   3.887   2.339
 2118SOL    HW2 7254   6.654   3.725   2.347
 2119SOL     OW 7255   1.905   0.511   6.766
 2119SOL    HW1 7256   1.832   0.526   6.832
 2119SOL    HW2 7257   1.986   0.475   6.812
 2120SOL     OW 7258   6.609   2.029   3.001
 2120SOL    HW1 7259   6.596   1.930   3.010
 2120SOL    HW2 7260   6.706   2.049   2.993
 2121SOL     OW 7261   2.257   1.468   5.988
 2121SOL    HW1 7262   2.185   1.411   5.949
 2121SOL    HW2 7263   2.324   1.411   6.034
 2122SOL     OW 7264   5.818   7.008   5.677
 2122SOL    HW1 7265   5.916   0.002   5.668
 2122SOL    HW2 7266   5.769   0.069   5.690
 2123SOL     OW 7267   0.193   6.411   2.663
 2123SOL    HW1 7268   0.225   6.489   2.609
 2123SOL    HW2 7269   0.105   6.432   2.705
 2124SOL     OW 7270   3.139   2.706   5.618
 2124SOL    HW1 7271   3.195   2.787   5.606
 2124SOL    HW2 7272   3.124   2.661   5.530
 2125SOL     OW 7273   1.675   5.999   3.193
 2125SOL    HW1 7274   1.596   5.943   3.218
 2125SOL    HW2 7275   1.733   6.013   3.273
 2126SOL     OW 7276   3.829   3.217   0.454
 2126SOL    HW1 7277   3.762   3.285   0.485
 2126SOL    HW2 7278   3.782   3.136   0.421
 2127SOL     OW 7279   6.850   2.883   6.116
 2127SOL    HW1 7280   6.891   2.949   6.179
 2127SOL    HW2 7281   6.765   2.848   6.156
 2128SOL     OW 7282   5.624   3.808   0.878
 2128SOL    HW1 7283   5.656   3.802   0.972
 2128SOL    HW2 7284   5.603   3.716   0.844
 2129SOL     OW 7285   5.018   4.003   3.783
 2129SOL    HW1 7286   4.953   3.964   3.719
 2129SOL    HW2 7287   5.074   3.930   3.822
 2130SOL     OW 7288   2.335   1.808   1.621
 2130SOL    HW1 7289   2.387   1.723   1.623
 2130SOL    HW2 7290   2.370   1.870   1.691
 2131SOL     OW 7291   5.232   2.020   6.164
 2131SOL    HW1 7292   5.325   2.012   6.200
 2131SOL    HW2 7293   5.197   1.929   6.141
 2132SOL     OW 7294   3.114   1.435   6.349
 2132SOL    HW1 7295   3.100   1.336   6.355
 2132SOL    HW2 7296   3.131   1.461   6.254
 2133SOL     OW 7297   2.543   1.716   1.371
 2133SOL    HW1 7298   2.545   1.725   1.271
 2133SOL    HW2 7299   2.533   1.806   1.412
 2134SOL     OW 7300   0.401   0.261   4.166
 2134SOL    HW1 7301   0.315   0.246   4.215
 2134SOL    HW2 7302   0.382   0.290   4.073
 2135SOL     OW 7303   0.493   2.234   3.907
 2135SOL    HW1 7304   0.502   2.260   3.811
 2135SOL    HW2 7305   0.486   2.135   3.915
 2136SOL     OW 7306   1.148   3.607   5.074
 2136SOL    HW1 7307   1.207   3.547   5.128
 2136SOL    HW2 7308   1.113   3.681   5.132
 2137SOL     OW 7309   0.746   6.668   5.541
 2137SOL    HW1 7310   0.696   6.754   5.546
 2137SOL    HW2 7311   0.753   6.628   5.633
 2138SOL     OW 7312   6.749   2.272   1.610
 2138SOL    HW1 7313   6.773   2.190   1.661
 2138SOL    HW2 7314   6.758   2.254   1.512
 2139SOL     OW 7315   2.920   0.612   3.795
 2139SOL    HW1 7316   2.860   0.691   3.805
 2139SOL    HW2 7317   2.865   0.531   3.776
 2140SOL     OW 7318   2.352   6.430   2.668
 2140SOL    HW1 7319   2.443   6.391   2.652
 2140SOL    HW2 7320   2.283   6.363   2.642
 2141SOL     OW 7321   6.936   2.776   1.057
 2141SOL    HW1 7322   6.893   2.692   1.090
 2141SOL    HW2 7323   6.973   2.827   1.134
 2142SOL     OW 7324   1.751   2.002   3.176
 2142SOL    HW1 7325   1.703   2.089   3.169
 2142SOL    HW2 7326   1.814   1.993   3.099
 2143SOL     OW 7327   4.058   6.315   1.366
 2143SOL    HW1 7328   4.102   6.239   1.320
 2143SOL    HW2 7329   4.116   6.347   1.441
 2144SOL     OW 7330   1.193   0.892   3.048
 2144SOL    HW1 7331   1.109   0.880   2.995
 2144SOL    HW2 7332   1.189   0.980   3.095
 2145SOL     OW 7333   3.130   5.528   3.743
 2145SOL    HW1 7334   3.054   5.488   3.691
 2145SOL    HW2 7335   3.108   5.622   3.768
 2146SOL     OW 7336   3.032   3.922   2.081
 2146SOL    HW1 7337   3.036   3.974   1.996
 2146SOL    HW2 7338   3.094   3.963   2.148
 2147SOL     OW 7339   0.146   1.499   0.082
 2147SOL    HW1 7340   0.181   1.486   7.014
 2147SOL    HW2 7341   0.213   1.548   0.137
 2148SOL     OW 7342   4.872   3.546   3.463
 2148SOL    HW1 7343   4.869   3.467   3.401
 2148SOL    HW2 7344   4.913   3.519   3.550
 2149SOL     OW 7345   3.792   0.488   1.820
 2149SOL    HW1 7346   3.702   0.521   1.850
 2149SOL    HW2 7347   3.819   0.538   1.738
 2150SOL     OW 7348   3.801   2.081   2.760
 2150SOL    HW1 7349   3.847   2.001   2.721
 2150SOL    HW2 7350   3.796   2.154   2.692
 2151SOL     OW 7351   3.536   2.559   5.548
 2151SOL    HW1 7352   3.500   2.540   5.639
 2151SOL    HW2 7353   3.484   2.509   5.479
 2152SOL     OW 7354   6.024   6.348   2.219
 2152SOL    HW1 7355   6.071   6.416   2.165
 2152SOL    HW2 7356   6.029   6.372   2.316
 2153SOL     OW 7357   4.648   1.607   4.090
 2153SOL    HW1 7358   4.657   1.668   4.169
 2153SOL    HW2 7359   4.552   1.587   4.074
 2154SOL     OW 7360   2.997   6.042   4.868
 2154SOL    HW1 7361   3.053   5.960   4.863
 2154SOL    HW2 7362   2.916   6.030   4.811
 2155SOL     OW 7363   2.005   5.095   0.274
 2155SOL    HW1 7364   1.980   5.016   0.219
 2155SOL    HW2 7365   1.985   5.179   0.223
 2156SOL     OW 7366   1.837   0.474   1.036
 2156SOL    HW1 7367   1.876   0.499   0.948
 2156SOL    HW2 7368   1.807   0.379   1.034
 2157SOL     OW 7369   6.716   1.396   5.066
 2157SOL    HW1 7370   6.698   1.492   5.049
 2157SOL    HW2 7371   6.770   1.387   5.150
 2158SOL     OW 7372   3.341   6.712   0.761
 2158SOL    HW1 7373   3.288   6.627   0.767
 2158SOL    HW2 7374   3.439   6.691   0.769
 2159SOL     OW 7375   1.225   6.618   5.075
 2159SOL    HW1 7376   1.279   6.665   5.005
 2159SOL    HW2 7377   1.268   6.530   5.096
 2160SOL     OW 7378   4.078   4.119   1.464
 2160SOL    HW1 7379   4.177   4.124   1.474
 2160SOL    HW2 7380   4.055   4.073   1.379
 2161SOL     OW 7381   4.865   3.314   3.273
 2161SOL    HW1 7382   4.841   3.219   3.291
 2161SOL    HW2 7383   4.933   3.318   3.200
 2162SOL     OW 7384   2.255   0.544   6.519
 2162SOL    HW1 7385   2.278   0.605   6.444
 2162SOL    HW2 7386   2.159   0.556   6.543
 2163SOL     OW 7387   1.492   0.307   6.753
 2163SOL    HW1 7388   1.469   0.229   6.695
 2163SOL    HW2 7389   1.410   0.338   6.800
 2164SOL     OW 7390   2.198   0.575   6.146
 2164SOL    HW1 7391   2.200   0.631   6.228
 2164SOL    HW2 7392   2.271   0.603   6.084
 2165SOL     OW 7393   1.499   1.315   2.916
 2165SOL    HW1 7394   1.528   1.308   2.820
 2165SOL    HW2 7395   1.467   1.226   2.948
 2166SOL     OW 7396   1.410   2.249   5.833
 2166SOL    HW1 7397   1.367   2.291   5.753
 2166SOL    HW2 7398   1.474   2.313   5.874
 2167SOL     OW 7399   2.723   0.735   2.028
 2167SOL    HW1 7400   2.693   0.795   1.954
 2167SOL    HW2 7401   2.720   0.640   1.998
 2168SOL     OW 7402   6.308   3.089   5.274
 2168SOL    HW1 7403   6.397   3.126   5.248
 2168SOL    HW2 7404   6.262   3.153   5.337
 2169SOL     OW 7405   5.763   2.790   6.239
 2169SOL    HW1 7406   5.761   2.857   6.165
 2169SOL    HW2 7407   5.737   2.700   6.203
 2170SOL     OW 7408   4.938   4.559   4.950
 2170SOL    HW1 7409   4.898   4.605   5.029
 2170SOL    HW2 7410   4.990   4.480   4.980
 2171SOL     OW 7411   6.699   2.673   0.058
 2171SOL    HW1 7412   6.616   2.691   0.004
 2171SOL    HW2 7413   6.676   2.613   0.134
 2172SOL     OW 7414   2.959   0.901   0.303
 2172SOL    HW1 7415   2.915   0.939   0.222
 2172SOL    HW2 7416   2.987   0.975   0.364
 2173SOL     OW 7417   4.383   0.208   5.876
 2173SOL    HW1 7418   4.313   0.258   5.927
 2173SOL    HW2 7419   4.474   0.236   5.909
 2174SOL     OW 7420   6.633   4.076   5.685
 2174SOL    HW1 7421   6.664   4.002   5.744
 2174SOL    HW2 7422   6.703   4.094   5.615
 2175SOL     OW 7423   3.434   0.476   2.602
 2175SOL    HW1 7424   3.355   0.450   2.546
 2175SOL    HW2 7425   3.442   0.414   2.680
 2176SOL     OW 7426   1.928   2.281   1.746
 2176SOL    HW1 7427   2.001   2.213   1.740
 2176SOL    HW2 7428   1.961   2.363   1.791
 2177SOL     OW 7429   6.938   1.472   1.891
 2177SOL    HW1 7430   6.949   1.571   1.884
 2177SOL    HW2 7431   6.941   1.444   1.987
 2178SOL     OW 7432   1.094   4.888   0.126
 2178SOL    HW1 7433   1.162   4.957   0.102
 2178SOL    HW2 7434   1.099   4.869   0.224
 2179SOL     OW 7435   1.095   5.775   3.728
 2179SOL    HW1 7436   1.016   5.827   3.759
 2179SOL    HW2 7437   1.065   5.687   3.690
 2180SOL     OW 7438   3.463   3.716   2.980
 2180SOL    HW1 7439   3.389   3.724   2.913
 2180SOL    HW2 7440   3.540   3.667   2.940
 2181SOL     OW 7441   4.852   4.708   6.018
 2181SOL    HW1 7442   4.860   4.609   6.009
 2181SOL    HW2 7443   4.758   4.732   6.045
 2182SOL     OW 7444   0.413   3.305   6.827
 2182SOL    HW1 7445   0.405   3.388   6.772
 2182SOL    HW2 7446   0.365   3.317   6.914
 2183SOL     OW 7447   3.168   3.051   0.765
 2183SOL    HW1 7448   3.251   3.001   0.741
 2183SOL    HW2 7449   3.133   3.016   0.852
 2184SOL     OW 7450   3.859   0.916   6.460
 2184SOL    HW1 7451   3.952   0.915   6.498
 2184SOL    HW2 7452   3.855   0.980   6.383
 2185SOL     OW 7453   1.751   0.774   0.389
 2185SOL    HW1 7454   1.666   0.826   0.376
 2185SOL    HW2 7455   1.789   0.795   0.479
 2186SOL     OW 7456   6.967   4.395   2.496
 2186SOL    HW1 7457   7.018   4.309   2.502
 2186SOL    HW2 7458   6.870   4.375   2.479
 2187SOL     OW 7459   6.868   1.329   1.563
 2187SOL    HW1 7460   6.784   1.334   1.509
 2187SOL    HW2 7461   6.846   1.299   1.656
 2188SOL     OW 7462   4.659   6.163   3.751
 2188SOL    HW1 7463   4.715   6.246   3.756
 2188SOL    HW2 7464   4.714   6.087   3.718
 2189SOL     OW 7465   1.616   6.854   5.693
 2189SOL    HW1 7466   1.580   6.925   5.632
 2189SOL    HW2 7467   1.607   6.884   5.788
 2190SOL     OW 7468   6.482   2.918   1.879
 2190SOL    HW1 7469   6.490   3.015   1.902
 2190SOL    HW2 7470   6.393   2.901   1.838
 2191SOL     OW 7471   3.486   2.443   6.797
 2191SOL    HW1 7472   3.545   2.445   6.716
 2191SOL    HW2 7473   3.394   2.471   6.772
 2192SOL     OW 7474   4.292   6.223   5.395
 2192SOL    HW1 7475   4.362   6.280   5.437
 2192SOL    HW2 7476   4.306   6.220   5.296
 2193SOL     OW 7477   0.777   5.168   5.349
 2193SOL    HW1 7478   0.740   5.197   5.261
 2193SOL    HW2 7479   0.824   5.080   5.338
 2194SOL     OW 7480   2.120   6.014   0.435
 2194SOL    HW1 7481   2.217   6.026   0.458
 2194SOL    HW2 7482   2.074   5.967   0.510
 2195SOL     OW 7483   0.934   6.023   1.970
 2195SOL    HW1 7484   1.011   5.969   2.003
 2195SOL    HW2 7485   0.952   6.120   1.987
 2196SOL     OW 7486   3.888   0.686   5.511
 2196SOL    HW1 7487   3.985   0.695   5.485
 2196SOL    HW2 7488   3.851   0.777   5.531
 2197SOL     OW 7489   4.890   4.406   1.597
 2197SOL    HW1 7490   4.848   4.495   1.581
 2197SOL    HW2 7491   4.895   4.388   1.695
 2198SOL     OW 7492   6.758   4.113   6.908
 2198SOL    HW1 7493   6.721   4.177   6.975
 2198SOL    HW2 7494   6.683   4.066   6.862
 2199SOL     OW 7495   4.751   6.984   0.298
 2199SOL    HW1 7496   4.785   0.016   0.374
 2199SOL    HW2 7497   4.819   6.983   0.225
 2200SOL     OW 7498   4.273   0.808   4.686
 2200SOL    HW1 7499   4.192   0.819   4.744
 2200SOL    HW2 7500   4.325   0.893   4.684
 2201SOL     OW 7501   6.081   3.346   1.988
 2201SOL    HW1 7502   5.994   3.376   2.027
 2201SOL    HW2 7503   6.092   3.385   1.897
 2202SOL     OW 7504   3.951   4.872   4.401
 2202SOL    HW1 7505   3.889   4.945   4.372
 2202SOL    HW2 7506   4.015   4.851   4.327
 2203SOL     OW 7507   3.472   2.110   3.683
 2203SOL    HW1 7508   3.471   2.149   3.591
 2203SOL    HW2 7509   3.566   2.111   3.718
 2204SOL     OW 7510   3.574   1.340   6.702
 2204SOL    HW1 7511   3.528   1.332   6.613
 2204SOL    HW2 7512   3.664   1.382   6.689
 2205SOL     OW 7513   1.586   0.075   0.116
 2205SOL    HW1 7514   1.678   0.074   0.077
 2205SOL    HW2 7515   1.561   7.006   0.143
 2206SOL     OW 7516   3.334   3.531   6.457
 2206SOL    HW1 7517   3.286   3.557   6.373
 2206SOL    HW2 7518   3.433   3.541   6.444
 2207SOL     OW 7519   1.219   4.185   6.152
 2207SOL    HW1 7520   1.231   4.278   6.187
 2207SOL    HW2 7521   1.177   4.129   6.223
 2208SOL     OW 7522   0.260   3.434   1.983
 2208SOL    HW1 7523   0.255   3.428   1.883
 2208SOL    HW2 7524   0.356   3.436   2.011
 2209SOL     OW 7525   1.906   5.603   6.467
 2209SOL    HW1 7526   1.969   5.681   6.470
 2209SOL    HW2 7527   1.870   5.592   6.375
 2210SOL     OW 7528   1.109   5.445   3.404
 2210SOL    HW1 7529   1.176   5.417   3.472
 2210SOL    HW2 7530   1.023   5.397   3.420
 2211SOL     OW 7531   6.190   0.974   5.417
 2211SOL    HW1 7532   6.224   1.051   5.363
 2211SOL    HW2 7533   6.169   1.005   5.509
 2212SOL     OW 7534   0.956   0.020   6.008
 2212SOL    HW1 7535   0.881   7.008   6.063
 2212SOL    HW2 7536   1.007   0.086   6.062
 2213SOL     OW 7537   4.256   2.284   3.972
 2213SOL    HW1 7538   4.289   2.283   3.877
 2213SOL    HW2 7539   4.174   2.228   3.979
 2214SOL     OW 7540   5.056   0.656   4.822
 2214SOL    HW1 7541   4.982   0.654   4.754
 2214SOL    HW2 7542   5.071   0.750   4.851
 2215SOL     OW 7543   0.003   1.838   5.702
 2215SOL    HW1 7544   6.936   1.798   5.697
 2215SOL    HW2 7545   0.052   1.821   5.616
 2216SOL     OW 7546   1.316   6.482   1.271
 2216SOL    HW1 7547   1.285   6.463   1.178
 2216SOL    HW2 7548   1.311   6.398   1.326
 2217SOL     OW 7549   3.938   6.627   1.200
 2217SOL    HW1 7550   3.861   6.576   1.238
 2217SOL    HW2 7551   3.962   6.702   1.261
 2218SOL     OW 7552   1.046   5.606   6.293
 2218SOL    HW1 7553   1.141   5.594   6.265
 2218SOL    HW2 7554   1.000   5.517   6.295
 2219SOL     OW 7555   1.302   3.623   3.487
 2219SOL    HW1 7556   1.393   3.616   3.527
 2219SOL    HW2 7557   1.305   3.594   3.392
 2220SOL     OW 7558   0.454   1.962   5.272
 2220SOL    HW1 7559   0.441   1.866   5.299
 2220SOL    HW2 7560   0.546   1.975   5.237
 2221SOL     OW 7561   6.584   1.980   1.554
 2221SOL    HW1 7562   6.585   1.881   1.540
 2221SOL    HW2 7563   6.523   2.003   1.630
 2222SOL     OW 7564   4.692   0.012   1.864
 2222SOL    HW1 7565   4.687   0.051   1.772
 2222SOL    HW2 7566   4.635   0.065   1.926
 2223SOL     OW 7567   5.817   5.229   3.887
 2223SOL    HW1 7568   5.896   5.194   3.837
 2223SOL    HW2 7569   5.736   5.221   3.830
 2224SOL     OW 7570   1.842   5.112   1.455
 2224SOL    HW1 7571   1.863   5.015   1.464
 2224SOL    HW2 7572   1.796   5.129   1.368
 2225SOL     OW 7573   6.394   4.778   2.248
 2225SOL    HW1 7574   6.490   4.775   2.222
 2225SOL    HW2 7575   6.362   4.686   2.269
 2226SOL     OW 7576   3.880   2.796   1.354
 2226SOL    HW1 7577   3.912   2.720   1.297
 2226SOL    HW2 7578   3.903   2.778   1.450
 2227SOL     OW 7579   6.530   4.068   6.324
 2227SOL    HW1 7580   6.432   4.049   6.333
 2227SOL    HW2 7581   6.582   4.005   6.382
 2228SOL     OW 7582   3.092   4.848   6.783
 2228SOL    HW1 7583   3.060   4.812   6.696
 2228SOL    HW2 7584   3.170   4.794   6.815
 2229SOL     OW 7585   4.605   1.255   3.879
 2229SOL    HW1 7586   4.698   1.290   3.867
 2229SOL    HW2 7587   4.542   1.331   3.895
 2230SOL     OW 7588   1.170   5.474   4.537
 2230SOL    HW1 7589   1.216   5.444   4.454
 2230SOL    HW2 7590   1.077   5.504   4.514
 2231SOL     OW 7591   1.830   1.054   1.822
 2231SOL    HW1 7592   1.790   1.143   1.845
 2231SOL    HW2 7593   1.903   1.033   1.887
 2232SOL     OW 7594   0.133   3.233   2.534
 2232SOL    HW1 7595   0.135   3.328   2.566
 2232SOL    HW2 7596   0.046   3.191   2.561
 2233SOL     OW 7597   3.412   5.759   0.475
 2233SOL    HW1 7598   3.335   5.760   0.411
 2233SOL    HW2 7599   3.453   5.850   0.479
 2234SOL     OW 7600   3.627   1.908   0.854
 2234SOL    HW1 7601   3.564   1.846   0.807
 2234SOL    HW2 7602   3.657   1.980   0.791
 2235SOL     OW 7603   1.274   0.076   0.120
 2235SOL    HW1 7604   1.370   0.055   0.140
 2235SOL    HW2 7605   1.217   7.023   0.149
 2236SOL     OW 7606   0.522   4.419   1.038
 2236SOL    HW1 7607   0.620   4.419   1.057
 2236SOL    HW2 7608   0.498   4.339   0.983
 2237SOL     OW 7609   6.855   2.881   4.944
 2237SOL    HW1 7610   6.867   2.857   4.848
 2237SOL    HW2 7611   6.757   2.878   4.967
 2238SOL     OW 7612   0.282   5.592   2.191
 2238SOL    HW1 7613   0.242   5.678   2.161
 2238SOL    HW2 7614   0.212   5.536   2.237
 2239SOL     OW 7615   4.037   4.783   3.477
 2239SOL    HW1 7616   4.067   4.755   3.386
 2239SOL    HW2 7617   4.109   4.764   3.543
 2240SOL     OW 7618   6.771   4.970   3.494
 2240SOL    HW1 7619   6.717   5.038   3.444
 2240SOL    HW2 7620   6.780   4.887   3.439
 2241SOL     OW 7621   0.212   6.367   2.214
 2241SOL    HW1 7622   0.203   6.273   2.180
 2241SOL    HW2 7623   0.257   6.423   2.145
 2242SOL     OW 7624   4.703   2.088   3.196
 2242SOL    HW1 7625   4.701   2.153   3.273
 2242SOL    HW2 7626   4.619   2.099   3.142
 2243SOL     OW 7627   2.145   6.019   4.512
 2243SOL    HW1 7628   2.223   5.983   4.562
 2243SOL    HW2 7629   2.167   6.109   4.475
 2244SOL     OW 7630   3.212   0.384   4.489
 2244SOL    HW1 7631   3.123   0.428   4.476
 2244SOL    HW2 7632   3.208   0.325   4.570
 2245SOL     OW 7633   7.011   2.401   2.679
 2245SOL    HW1 7634   0.082   2.408   2.708
 2245SOL    HW2 7635   7.001   2.443   2.589
 2246SOL     OW 7636   1.530   3.911   5.888
 2246SOL    HW1 7637   1.614   3.891   5.939
 2246SOL    HW2 7638   1.545   3.894   5.791
 2247SOL     OW 7639   2.188   2.251   5.804
 2247SOL    HW1 7640   2.246   2.208   5.735
 2247SOL    HW2 7641   2.107   2.194   5.820
 2248SOL     OW 7642   4.604   4.011   5.468
 2248SOL    HW1 7643   4.701   3.998   5.488
 2248SOL    HW2 7644   4.562   4.068   5.539
 2249SOL     OW 7645   5.255   6.266   3.021
 2249SOL    HW1 7646   5.258   6.363   3.045
 2249SOL    HW2 7647   5.285   6.212   3.099
 2250SOL     OW 7648   5.815   3.811   1.594
 2250SOL    HW1 7649   5.735   3.869   1.581
 2250SOL    HW2 7650   5.818   3.780   1.690
 2251SOL     OW 7651   5.701   1.729   0.099
 2251SOL    HW1 7652   5.614   1.747   0.144
 2251SOL    HW2 7653   5.757   1.670   0.156
 2252SOL     OW 7654   5.356   2.832   5.389
 2252SOL    HW1 7655   5.450   2.844   5.420
 2252SOL    HW2 7656   5.307   2.919   5.399
 2253SOL     OW 7657   2.807   2.981   6.738
 2253SOL    HW1 7658   2.839   2.887   6.750
 2253SOL    HW2 7659   2.885   3.043   6.733
 2254SOL     OW 7660   1.965   3.520   5.966
 2254SOL    HW1 7661   2.003   3.543   6.056
 2254SOL    HW2 7662   1.974   3.422   5.951
 2255SOL     OW 7663   6.118   2.921   2.055
 2255SOL    HW1 7664   6.190   2.860   2.090
 2255SOL    HW2 7665   6.119   3.006   2.106
 2256SOL     OW 7666   4.037   4.799   2.286
 2256SOL    HW1 7667   4.068   4.786   2.191
 2256SOL    HW2 7668   3.948   4.846   2.286
 2257SOL     OW 7669   1.477   3.603   4.361
 2257SOL    HW1 7670   1.515   3.625   4.451
 2257SOL    HW2 7671   1.518   3.663   4.292
 2258SOL     OW 7672   1.947   5.164   5.356
 2258SOL    HW1 7673   1.887   5.086   5.339
 2258SOL    HW2 7674   1.903   5.225   5.423
 2259SOL     OW 7675   5.370   3.661   6.793
 2259SOL    HW1 7676   5.338   3.659   6.698
 2259SOL    HW2 7677   5.379   3.756   6.823
 2260SOL     OW 7678   4.690   4.972   1.861
 2260SOL    HW1 7679   4.727   4.881   1.878
 2260SOL    HW2 7680   4.603   4.982   1.909
 2261SOL     OW 7681   5.039   6.581   0.827
 2261SOL    HW1 7682   5.084   6.649   0.770
 2261SOL    HW2 7683   5.105   6.508   0.849
 2262SOL     OW 7684   5.232   2.306   4.150
 2262SOL    HW1 7685   5.331   2.299   4.137
 2262SOL    HW2 7686   5.192   2.215   4.147
 2263SOL     OW 7687   1.515   5.243   5.969
 2263SOL    HW1 7688   1.421   5.223   5.942
 2263SOL    HW2 7689   1.570   5.159   5.963
 2264SOL     OW 7690   3.100   3.995   3.263
 2264SOL    HW1 7691   3.081   4.016   3.359
 2264SOL    HW2 7692   3.105   3.896   3.250
 2265SOL     OW 7693   0.220   0.731   2.080
 2265SOL    HW1 7694   0.176   0.785   2.009
 2265SOL    HW2 7695   0.309   0.771   2.102
 2266SOL     OW 7696   6.016   0.566   0.949
 2266SOL    HW1 7697   6.047   0.635   1.014
 2266SOL    HW2 7698   6.094   0.531   0.898
 2267SOL     OW 7699   5.862   2.382   4.993
 2267SOL    HW1 7700   5.811   2.345   5.071
 2267SOL    HW2 7701   5.915   2.308   4.950
 2268SOL     OW 7702   0.121   6.436   0.194
 2268SOL    HW1 7703   0.047   6.469   0.135
 2268SOL    HW2 7704   0.105   6.340   0.217
 2269SOL     OW 7705   6.770   5.793   6.180
 2269SOL    HW1 7706   6.847   5.848   6.147
 2269SOL    HW2 7707   6.744   5.726   6.111
 2270SOL     OW 7708   2.925   3.211   2.196
 2270SOL    HW1 7709   3.003   3.178   2.142
 2270SOL    HW2 7710   2.854   3.141   2.197
 2271SOL     OW 7711   5.823   4.744   1.446
 2271SOL    HW1 7712   5.915   4.742   1.407
 2271SOL    HW2 7713   5.760   4.784   1.381
 2272SOL     OW 7714   5.395   1.766   5.631
 2272SOL    HW1 7715   5.307   1.775   5.586
 2272SOL    HW2 7716   5.382   1.727   5.723
 2273SOL     OW 7717   0.731   0.958   3.694
 2273SOL    HW1 7718   0.679   0.966   3.609
 2273SOL    HW2 7719   0.716   1.039   3.750
 2274SOL     OW 7720   1.607   4.000   4.848
 2274SOL    HW1 7721   1.557   3.928   4.800
 2274SOL    HW2 7722   1.704   3.992   4.827
 2275SOL     OW 7723   5.136   5.676   4.879
 2275SOL    HW1 7724   5.230   5.659   4.851
 2275SOL    HW2 7725   5.075   5.613   4.831
 2276SOL     OW 7726   4.299   3.879   0.791
 2276SOL    HW1 7727   4.316   3.931   0.708
 2276SOL    HW2 7728   4.212   3.830   0.783
 2277SOL     OW 7729   3.174   3.248   6.178
 2277SOL    HW1 7730   3.136   3.340   6.186
 2277SOL    HW2 7731   3.113   3.191   6.124
 2278SOL     OW 7732   5.609   6.506   2.336
 2278SOL    HW1 7733   5.543   6.515   2.261
 2278SOL    HW2 7734   5.624   6.409   2.355
 2279SOL     OW 7735   5.826   3.351   4.864
 2279SOL    HW1 7736   5.811   3.409   4.944
 2279SOL    HW2 7737   5.801   3.402   4.781
 2280SOL     OW 7738   6.607   6.163   5.312
 2280SOL    HW1 7739   6.694   6.185   5.268
 2280SOL    HW2 7740   6.580   6.239   5.371
 2281SOL     OW 7741   3.684   2.184   1.628
 2281SOL    HW1 7742   3.762   2.121   1.625
 2281SOL    HW2 7743   3.670   2.214   1.722
 2282SOL     OW 7744   4.257   5.635   3.595
 2282SOL    HW1 7745   4.257   5.536   3.610
 2282SOL    HW2 7746   4.174   5.661   3.545
 2283SOL     OW 7747   6.926   4.088   3.595
 2283SOL    HW1 7748   6.984   4.032   3.535
 2283SOL    HW2 7749   6.923   4.181   3.560
 2284SOL     OW 7750   2.428   2.195   1.504
 2284SOL    HW1 7751   2.455   2.238   1.418
 2284SOL    HW2 7752   2.454   2.256   1.580
 2285SOL     OW 7753   1.500   3.628   0.171
 2285SOL    HW1 7754   1.488   3.709   0.112
 2285SOL    HW2 7755   1.496   3.656   0.267
 2286SOL     OW 7756   5.955   5.570   4.497
 2286SOL    HW1 7757   5.917   5.514   4.424
 2286SOL    HW2 7758   5.998   5.652   4.458
 2287SOL     OW 7759   2.414   2.354   1.257
 2287SOL    HW1 7760   2.505   2.392   1.271
 2287SOL    HW2 7761   2.360   2.415   1.199
 2288SOL     OW 7762   0.336   6.577   3.094
 2288SOL    HW1 7763   0.359   6.650   3.029
 2288SOL    HW2 7764   0.347   6.611   3.187
 2289SOL     OW 7765   5.907   1.331   2.440
 2289SOL    HW1 7766   5.917   1.234   2.416
 2289SOL    HW2 7767   5.812   1.358   2.429
 2290SOL     OW 7768   3.043   3.686   3.571
 2290SOL    HW1 7769   3.088   3.633   3.499
 2290SOL    HW2 7770   2.969   3.633   3.612
 2291SOL     OW 7771   1.964   2.046   1.252
 2291SOL    HW1 7772   2.062   2.051   1.229
 2291SOL    HW2 7773   1.937   1.950   1.261
 2292SOL     OW 7774   4.931   2.161   3.626
 2292SOL    HW1 7775   4.847   2.132   3.673
 2292SOL    HW2 7776   4.995   2.085   3.622
 2293SOL     OW 7777   5.505   1.189   0.822
 2293SOL    HW1 7778   5.419   1.237   0.806
 2293SOL    HW2 7779   5.494   1.092   0.797
 2294SOL     OW 7780   1.370   2.452   6.085
 2294SOL    HW1 7781   1.461   2.436   6.047
 2294SOL    HW2 7782   1.373   2.436   6.184
 2295SOL     OW 7783   6.767   0.129   1.987
 2295SOL    HW1 7784   6.829   0.094   2.057
 2295SOL    HW2 7785   6.819   0.169   1.912
 2296SOL     OW 7786   2.644   5.282   3.170
 2296SOL    HW1 7787   2.690   5.220   3.107
 2296SOL    HW2 7788   2.546   5.283   3.151
 2297SOL     OW 7789   4.854   4.822   5.722
 2297SOL    HW1 7790   4.853   4.803   5.820
 2297SOL    HW2 7791   4.785   4.766   5.676
 2298SOL     OW 7792   3.868   3.014   4.806
 2298SOL    HW1 7793   3.951   2.964   4.779
 2298SOL    HW2 7794   3.862   3.018   4.906
 2299SOL     OW 7795   5.678   3.445   5.103
 2299SOL    HW1 7796   5.757   3.500   5.131
 2299SOL    HW2 7797   5.625   3.496   5.035
 2300SOL     OW 7798   3.735   0.034   3.330
 2300SOL    HW1 7799   3.821   7.010   3.316
 2300SOL    HW2 7800   3.748   0.131   3.312
 2301SOL     OW 7801   3.134   3.224   4.279
 2301SOL    HW1 7802   3.095   3.151   4.223
 2301SOL    HW2 7803   3.120   3.312   4.232
 2302SOL     OW 7804   4.158   1.460   0.495
 2302SOL    HW1 7805   4.175   1.464   0.594
 2302SOL    HW2 7806   4.234   1.502   0.446
 2303SOL     OW 7807   2.824   2.876   0.888
 2303SOL    HW1 7808   2.746   2.876   0.951
 2303SOL    HW2 7809   2.796   2.835   0.801
 2304SOL     OW 7810   6.279   6.003   3.238
 2304SOL    HW1 7811   6.343   5.925   3.243
 2304SOL    HW2 7812   6.195   5.974   3.192
 2305SOL     OW 7813   1.652   1.211   4.690
 2305SOL    HW1 7814   1.642   1.113   4.671
 2305SOL    HW2 7815   1.561   1.253   4.695
 2306SOL     OW 7816   1.905   4.498   3.497
 2306SOL    HW1 7817   1.853   4.578   3.527
 2306SOL    HW2 7818   1.960   4.463   3.573
 2307SOL     OW 7819   1.444   2.665   5.770
 2307SOL    HW1 7820   1.389   2.696   5.848
 2307SOL    HW2 7821   1.384   2.648   5.692
 2308SOL     OW 7822   2.331   4.337   1.580
 2308SOL    HW1 7823   2.271   4.280   1.525
 2308SOL    HW2 7824   2.276   4.405   1.629
 2309SOL     OW 7825   1.337   6.890   4.496
 2309SOL    HW1 7826   1.401   6.834   4.443
 2309SOL    HW2 7827   1.281   6.830   4.553
 2310SOL     OW 7828   4.333   6.521   1.587
 2310SOL    HW1 7829   4.410   6.568   1.631
 2310SOL    HW2 7830   4.363   6.483   1.500
 2311SOL     OW 7831   2.857   6.090   0.662
 2311SOL    HW1 7832   2.809   6.087   0.574
 2311SOL    HW2 7833   2.898   6.181   0.675
 2312SOL     OW 7834   3.436   6.196   2.529
 2312SOL    HW1 7835   3.475   6.144   2.605
 2312SOL    HW2 7836   3.353   6.149   2.496
 2313SOL     OW 7837   4.868   4.699   2.957
 2313SOL    HW1 7838   4.781   4.694   3.007
 2313SOL    HW2 7839   4.886   4.793   2.929
 2314SOL     OW 7840   3.123   5.606   3.421
 2314SOL    HW1 7841   3.190   5.633   3.491
 2314SOL    HW2 7842   3.052   5.676   3.415
 2315SOL     OW 7843   4.622   3.085   6.263
 2315SOL    HW1 7844   4.605   3.006   6.323
 2315SOL    HW2 7845   4.536   3.117   6.226
 2316SOL     OW 7846   5.907   3.000   2.960
 2316SOL    HW1 7847   5.947   2.991   2.869
 2316SOL    HW2 7848   5.911   2.912   3.007
 2317SOL     OW 7849   1.719   4.476   2.824
 2317SOL    HW1 7850   1.690   4.539   2.752
 2317SOL    HW2 7851   1.792   4.519   2.878
 2318SOL     OW 7852   6.766   1.526   2.815
 2318SOL    HW1 7853   6.773   1.470   2.733
 2318SOL    HW2 7854   6.847   1.585   2.823
 2319SOL     OW 7855   1.793   4.492   4.718
 2319SOL    HW1 7856   1.764   4.587   4.710
 2319SOL    HW2 7857   1.857   4.483   4.795
 2320SOL     OW 7858   0.124   2.582   3.954
 2320SOL    HW1 7859   0.132   2.643   3.875
 2320SOL    HW2 7860   0.119   2.487   3.923
 2321SOL     OW 7861   2.721   6.820   4.645
 2321SOL    HW1 7862   2.744   6.912   4.612
 2321SOL    HW2 7863   2.694   6.762   4.568
 2322SOL     OW 7864   1.385   1.069   5.273
 2322SOL    HW1 7865   1.389   0.980   5.318
 2322SOL    HW2 7866   1.319   1.065   5.198
 2323SOL     OW 7867   4.539   5.518   2.990
 2323SOL    HW1 7868   4.456   5.463   2.979
 2323SOL    HW2 7869   4.604   5.469   3.048
 2324SOL     OW 7870   0.795   6.082   2.521
 2324SOL    HW1 7871   0.845   6.033   2.449
 2324SOL    HW2 7872   0.803   6.033   2.607
 2325SOL     OW 7873   1.363   4.052   0.927
 2325SOL    HW1 7874   1.288   4.043   0.993
 2325SOL    HW2 7875   1.352   4.138   0.877
 2326SOL     OW 7876   1.476   4.970   6.707
 2326SOL    HW1 7877   1.484   5.069   6.703
 2326SOL    HW2 7878   1.567   4.929   6.711
 2327SOL     OW 7879   4.870   2.600   4.068
 2327SOL    HW1 7880   4.899   2.543   3.992
 2327SOL    HW2 7881   4.949   2.648   4.106
 2328SOL     OW 7882   4.766   1.515   3.088
 2328SOL    HW1 7883   4.674   1.555   3.098
 2328SOL    HW2 7884   4.826   1.554   3.158
 2329SOL     OW 7885   1.266   5.830   3.975
 2329SOL    HW1 7886   1.363   5.808   3.973
 2329SOL    HW2 7887   1.221   5.790   3.895
 2330SOL     OW 7888   0.705   4.498   2.361
 2330SOL    HW1 7889   0.788   4.540   2.324
 2330SOL    HW2 7890   0.675   4.549   2.441
 2331SOL     OW 7891   0.537   4.144   5.470
 2331SOL    HW1 7892   0.616   4.094   5.437
 2331SOL    HW2 7893   0.467   4.147   5.399
 2332SOL     OW 7894   5.711   2.408   5.754
 2332SOL    HW1 7895   5.639   2.448   5.809
 2332SOL    HW2 7896   5.800   2.428   5.795
 2333SOL     OW 7897   1.256   5.221   3.237
 2333SOL    HW1 7898   1.346   5.223   3.195
 2333SOL    HW2 7899   1.238   5.309   3.283
 2334SOL     OW 7900   3.218   7.018   6.709
 2334SOL    HW1 7901   3.128   0.034   6.725
 2334SOL    HW2 7902   3.250   6.975   6.793
 2335SOL     OW 7903   4.979   0.027   3.298
 2335SOL    HW1 7904   4.886   0.012   3.332
 2335SOL    HW2 7905   5.019   0.105   3.345
 2336SOL     OW 7906   4.848   0.933   6.169
 2336SOL    HW1 7907   4.826   0.914   6.265
 2336SOL    HW2 7908   4.914   1.008   6.164
 2337SOL     OW 7909   5.235   0.346   3.272
 2337SOL    HW1 7910   5.200   0.285   3.343
 2337SOL    HW2 7911   5.174   0.343   3.193
 2338SOL     OW 7912   0.304   6.823   6.882
 2338SOL    HW1 7913   0.233   6.808   6.951
 2338SOL    HW2 7914   0.279   6.900   6.824
 2339SOL     OW 7915   3.848   4.694   6.716
 2339SOL    HW1 7916   3.937   4.650   6.707
 2339SOL    HW2 7917   3.843   4.772   6.653
 2340SOL     OW 7918   3.509   5.534   4.585
 2340SOL    HW1 7919   3.428   5.493   4.543
 2340SOL    HW2 7920   3.489   5.560   4.679
 2341SOL     OW 7921   5.502   5.308   0.837
 2341SOL    HW1 7922   5.478   5.212   0.850
 2341SOL    HW2 7923   5.582   5.331   0.893
 2342SOL     OW 7924   6.524   0.202   5.166
 2342SOL    HW1 7925   6.489   0.273   5.227
 2342SOL    HW2 7926   6.623   0.196   5.174
 2343SOL     OW 7927   1.253   5.429   1.235
 2343SOL    HW1 7928   1.157   5.425   1.262
 2343SOL    HW2 7929   1.277   5.523   1.212
 2344SOL     OW 7930   2.183   2.261   2.608
 2344SOL    HW1 7931   2.175   2.260   2.508
 2344SOL    HW2 7932   2.204   2.354   2.639
 2345SOL     OW 7933   1.708   0.587   4.246
 2345SOL    HW1 7934   1.691   0.584   4.147
 2345SOL    HW2 7935   1.807   0.594   4.262
 2346SOL     OW 7936   5.318   3.414   5.833
 2346SOL    HW1 7937   5.285   3.324   5.859
 2346SOL    HW2 7938   5.374   3.452   5.906
 2347SOL     OW 7939   1.598   3.070   1.873
 2347SOL    HW1 7940   1.547   3.036   1.952
 2347SOL    HW2 7941   1.674   3.127   1.905
 2348SOL     OW 7942   2.793   6.219   2.830
 2348SOL    HW1 7943   2.799   6.291   2.761
 2348SOL    HW2 7944   2.717   6.239   2.892
 2349SOL     OW 7945   6.829   6.547   6.081
 2349SOL    HW1 7946   6.755   6.585   6.026
 2349SOL    HW2 7947   6.835   6.448   6.065
 2350SOL     OW 7948   2.820   0.634   5.452
 2350SOL    HW1 7949   2.885   0.691   5.502
 2350SOL    HW2 7950   2.734   0.683   5.439
 2351SOL     OW 7951   2.899   4.787   3.724
 2351SOL    HW1 7952   2.954   4.704   3.709
 2351SOL    HW2 7953   2.821   4.765   3.782
 2352SOL     OW 7954   0.052   4.130   3.289
 2352SOL    HW1 7955   0.005   4.216   3.307
 2352SOL    HW2 7956   0.031   4.099   3.197
 2353SOL     OW 7957   2.832   4.328   5.596
 2353SOL    HW1 7958   2.775   4.280   5.664
 2353SOL    HW2 7959   2.777   4.348   5.515
 2354SOL     OW 7960   3.653   2.138   0.703
 2354SOL    HW1 7961   3.584   2.210   0.698
 2354SOL    HW2 7962   3.684   2.114   0.611
 2355SOL     OW 7963   0.274   6.709   0.164
 2355SOL    HW1 7964   0.326   6.627   0.190
 2355SOL    HW2 7965   0.178   6.698   0.193
 2356SOL     OW 7966   2.661   5.053   2.736
 2356SOL    HW1 7967   2.583   5.087   2.682
 2356SOL    HW2 7968   2.742   5.048   2.678
 2357SOL     OW 7969   5.801   4.562   1.946
 2357SOL    HW1 7970   5.789   4.579   1.848
 2357SOL    HW2 7971   5.767   4.640   1.998
 2358SOL     OW 7972   3.819   0.366   5.928
 2358SOL    HW1 7973   3.750   0.330   5.866
 2358SOL    HW2 7974   3.901   0.392   5.876
 2359SOL     OW 7975   2.371   1.651   5.336
 2359SOL    HW1 7976   2.316   1.677   5.415
 2359SOL    HW2 7977   2.377   1.728   5.273
 2360SOL     OW 7978   4.113   5.078   1.244
 2360SOL    HW1 7979   4.094   4.982   1.226
 2360SOL    HW2 7980   4.071   5.134   1.172
 2361SOL     OW 7981   3.411   6.668   2.119
 2361SOL    HW1 7982   3.499   6.626   2.098
 2361SOL    HW2 7983   3.424   6.764   2.142
 2362SOL     OW 7984   4.713   5.576   4.683
 2362SOL    HW1 7985   4.655   5.656   4.696
 2362SOL    HW2 7986   4.674   5.517   4.612
 2363SOL     OW 7987   3.106   3.241   0.140
 2363SOL    HW1 7988   3.161   3.225   0.058
 2363SOL    HW2 7989   3.106   3.158   0.196
 2364SOL     OW 7990   4.656   1.779   2.141
 2364SOL    HW1 7991   4.644   1.698   2.198
 2364SOL    HW2 7992   4.601   1.770   2.058
 2365SOL     OW 7993   5.436   3.215   3.944
 2365SOL    HW1 7994   5.460   3.127   3.903
 2365SOL    HW2 7995   5.419   3.202   4.042
 2366SOL     OW 7996   2.404   4.133   5.520
 2366SOL    HW1 7997   2.391   4.116   5.423
 2366SOL    HW2 7998   2.366   4.222   5.544
 2367SOL     OW 7999   0.680   3.746   6.218
 2367SOL    HW1 8000   0.694   3.838   6.183
 2367SOL    HW2 8001   0.632   3.691   6.149
 2368SOL     OW 8002   5.436   0.150   3.944
 2368SOL    HW1 8003   5.345   0.184   3.969
 2368SOL    HW2 8004   5.506   0.205   3.990
 2369SOL     OW 8005   3.148   1.590   3.695
 2369SOL    HW1 8006   3.165   1.552   3.785
 2369SOL    HW2 8007   3.228   1.577   3.637
 2370SOL     OW 8008   5.220   2.826   1.235
 2370SOL    HW1 8009   5.243   2.889   1.309
 2370SOL    HW2 8010   5.292   2.758   1.225
 2371SOL     OW 8011   1.148   6.789   3.038
 2371SOL    HW1 8012   1.132   6.706   2.984
 2371SOL    HW2 8013   1.148   6.869   2.978
 2372SOL     OW 8014   6.526   1.437   5.946
 2372SOL    HW1 8015   6.477   1.503   5.890
 2372SOL    HW2 8016   6.620   1.469   5.961
 2373SOL     OW 8017   6.190   0.593   6.333
 2373SOL    HW1 8018   6.157   0.628   6.245
 2373SOL    HW2 8019   6.288   0.573   6.327
 2374SOL     OW 8020   5.995   5.966   3.172
 2374SOL    HW1 8021   5.918   5.903   3.182
 2374SOL    HW2 8022   5.975   6.052   3.219
 2375SOL     OW 8023   1.049   0.345   3.843
 2375SOL    HW1 8024   1.076   0.418   3.904
 2375SOL    HW2 8025   0.984   0.380   3.775
 2376SOL     OW 8026   6.350   2.565   3.180
 2376SOL    HW1 8027   6.254   2.558   3.151
 2376SOL    HW2 8028   6.372   2.487   3.240
 2377SOL     OW 8029   4.254   4.849   6.013
 2377SOL    HW1 8030   4.245   4.859   5.914
 2377SOL    HW2 8031   4.235   4.755   6.039
 2378SOL     OW 8032   6.254   1.917   0.611
 2378SOL    HW1 8033   6.220   1.889   0.700
 2378SOL    HW2 8034   6.346   1.957   0.621
 2379SOL     OW 8035   6.978   5.046   0.225
 2379SOL    HW1 8036   7.021   5.065   0.137
 2379SOL    HW2 8037   6.882   5.074   0.221
 2380SOL     OW 8038   5.303   3.563   5.472
 2380SOL    HW1 8039   5.368   3.487   5.470
 2380SOL    HW2 8040   5.334   3.632   5.537
 2381SOL     OW 8041   2.407   4.851   5.188
 2381SOL    HW1 8042   2.348   4.921   5.147
 2381SOL    HW2 8043   2.433   4.879   5.280
 2382SOL     OW 8044   1.705   6.028   2.288
 2382SOL    HW1 8045   1.727   6.124   2.271
 2382SOL    HW2 8046   1.644   5.995   2.216
 2383SOL     OW 8047   5.467   5.967   5.377
 2383SOL    HW1 8048   5.408   5.928   5.448
 2383SOL    HW2 8049   5.411   6.023   5.316
 2384SOL     OW 8050   1.027   1.976   1.506
 2384SOL    HW1 8051   0.998   2.006   1.414
 2384SOL    HW2 8052   1.039   1.877   1.507
 2385SOL     OW 8053   0.635   2.004   0.385
 2385SOL    HW1 8054   0.550   2.057   0.385
 2385SOL    HW2 8055   0.626   1.928   0.320
 2386SOL     OW 8056   3.554   5.411   4.183
 2386SOL    HW1 8057   3.576   5.352   4.105
 2386SOL    HW2 8058   3.459   5.442   4.175
 2387SOL     OW 8059   0.783   2.292   3.718
 2387SOL    HW1 8060   0.725   2.212   3.725
 2387SOL    HW2 8061   0.826   2.295   3.628
 2388SOL     OW 8062   0.006   2.142   6.339
 2388SOL    HW1 8063   6.931   2.154   6.336
 2388SOL    HW2 8064   0.049   2.227   6.369
 2389SOL     OW 8065   5.086   5.090   4.235
 2389SOL    HW1 8066   5.150   5.122   4.305
 2389SOL    HW2 8067   5.120   5.116   4.144
 2390SOL     OW 8068   4.633   3.552   6.362
 2390SOL    HW1 8069   4.690   3.470   6.367
 2390SOL    HW2 8070   4.679   3.627   6.410
 2391SOL     OW 8071   3.548   3.852   6.218
 2391SOL    HW1 8072   3.593   3.780   6.270
 2391SOL    HW2 8073   3.479   3.811   6.158
 2392SOL     OW 8074   3.072   5.615   5.494
 2392SOL    HW1 8075   3.110   5.646   5.581
 2392SOL    HW2 8076   3.011   5.537   5.511
 2393SOL     OW 8077   3.868   5.396   1.310
 2393SOL    HW1 8078   3.820   5.335   1.374
 2393SOL    HW2 8079   3.967   5.385   1.322
 2394SOL     OW 8080   6.973   3.622   3.312
 2394SOL    HW1 8081   6.918   3.680   3.253
 2394SOL    HW2 8082   0.023   3.582   3.259
 2395SOL     OW 8083   0.657   2.887   6.503
 2395SOL    HW1 8084   0.576   2.836   6.475
 2395SOL    HW2 8085   0.640   2.985   6.492
 2396SOL     OW 8086   5.756   0.624   4.789
 2396SOL    HW1 8087   5.769   0.631   4.690
 2396SOL    HW2 8088   5.671   0.669   4.816
 2397SOL     OW 8089   0.911   4.911   5.414
 2397SOL    HW1 8090   0.923   4.821   5.372
 2397SOL    HW2 8091   1.001   4.952   5.431
 2398SOL     OW 8092   2.781   5.567   3.701
 2398SOL    HW1 8093   2.788   5.664   3.679
 2398SOL    HW2 8094   2.780   5.513   3.617
 2399SOL     OW 8095   2.604   2.422   3.734
 2399SOL    HW1 8096   2.683   2.466   3.777
 2399SOL    HW2 8097   2.520   2.462   3.771
 2400SOL     OW 8098   2.072   3.761   0.158
 2400SOL    HW1 8099   2.067   3.665   0.184
 2400SOL    HW2 8100   2.168   3.787   0.146
 2401SOL     OW 8101   3.713   0.338   4.787
 2401SOL    HW1 8102   3.664   0.357   4.872
 2401SOL    HW2 8103   3.759   0.250   4.793
 2402SOL     OW 8104   0.720   2.222   2.406
 2402SOL    HW1 8105   0.795   2.179   2.356
 2402SOL    HW2 8106   0.758   2.291   2.468
 2403SOL     OW 8107   3.934   3.389   1.584
 2403SOL    HW1 8108   3.933   3.486   1.558
 2403SOL    HW2 8109   4.024   3.367   1.623
 2404SOL     OW 8110   6.693   1.380   1.347
 2404SOL    HW1 8111   6.743   1.354   1.265
 2404SOL    HW2 8112   6.604   1.416   1.322
 2405SOL     OW 8113   2.382   4.728   6.923
 2405SOL    HW1 8114   2.353   4.680   6.840
 2405SOL    HW2 8115   2.481   4.723   6.931
 2406SOL     OW 8116   1.893   0.534   3.862
 2406SOL    HW1 8117   1.811   0.477   3.860
 2406SOL    HW2 8118   1.932   0.532   3.954
 2407SOL     OW 8119   3.995   2.066   3.434
 2407SOL    HW1 8120   3.998   1.966   3.432
 2407SOL    HW2 8121   4.086   2.102   3.411
 2408SOL     OW 8122   2.283   5.906   3.461
 2408SOL    HW1 8123   2.227   5.900   3.378
 2408SOL    HW2 8124   2.282   5.817   3.508
 2409SOL     OW 8125   2.457   2.615   1.052
 2409SOL    HW1 8126   2.487   2.699   1.006
 2409SOL    HW2 8127   2.535   2.555   1.065
 2410SOL     OW 8128   5.998   3.304   5.876
 2410SOL    HW1 8129   5.968   3.255   5.958
 2410SOL    HW2 8130   5.951   3.265   5.796
 2411SOL     OW 8131   2.818   3.811   6.457
 2411SOL    HW1 8132   2.849   3.892   6.406
 2411SOL    HW2 8133   2.844   3.821   6.553
 2412SOL     OW 8134   3.260   2.526   6.692
 2412SOL    HW1 8135   3.207   2.575   6.761
 2412SOL    HW2 8136   3.215   2.537   6.603
 2413SOL     OW 8137   6.973   3.505   6.296
 2413SOL    HW1 8138   6.980   3.599   6.331
 2413SOL    HW2 8139   6.929   3.447   6.365
 2414SOL     OW 8140   5.476   2.937   4.163
 2414SOL    HW1 8141   5.545   2.872   4.196
 2414SOL    HW2 8142   5.473   2.934   4.063
 2415SOL     OW 8143   2.223   6.717   1.264
 2415SOL    HW1 8144   2.270   6.637   1.300
 2415SOL    HW2 8145   2.159   6.689   1.192
 2416SOL     OW 8146   0.286   3.648   2.855
 2416SOL    HW1 8147   0.327   3.557   2.851
 2416SOL    HW2 8148   0.327   3.707   2.785
 2417SOL     OW 8149   4.667   2.530   6.931
 2417SOL    HW1 8150   4.600   2.457   6.943
 2417SOL    HW2 8151   4.753   2.490   6.899
 2418SOL     OW 8152   4.076   4.136   5.243
 2418SOL    HW1 8153   4.124   4.223   5.229
 2418SOL    HW2 8154   4.003   4.126   5.175
 2419SOL     OW 8155   2.169   6.621   4.426
 2419SOL    HW1 8156   2.091   6.597   4.483
 2419SOL    HW2 8157   2.249   6.636   4.484
 2420SOL     OW 8158   3.378   5.397   2.208
 2420SOL    HW1 8159   3.339   5.454   2.136
 2420SOL    HW2 8160   3.343   5.427   2.297
 2421SOL     OW 8161   3.386   6.714   4.361
 2421SOL    HW1 8162   3.434   6.800   4.350
 2421SOL    HW2 8163   3.452   6.639   4.370
 2422SOL     OW 8164   3.722   6.972   1.970
 2422SOL    HW1 8165   3.626   6.992   1.955
 2422SOL    HW2 8166   3.767   6.955   1.883
 2423SOL     OW 8167   2.058   5.223   1.824
 2423SOL    HW1 8168   2.097   5.247   1.913
 2423SOL    HW2 8169   1.959   5.212   1.832
 2424SOL     OW 8170   5.291   0.111   6.860
 2424SOL    HW1 8171   5.298   0.100   6.959
 2424SOL    HW2 8172   5.260   0.025   6.819
 2425SOL     OW 8173   4.520   5.400   5.704
 2425SOL    HW1 8174   4.458   5.417   5.781
 2425SOL    HW2 8175   4.610   5.438   5.725
 2426SOL     OW 8176   1.471   5.911   5.171
 2426SOL    HW1 8177   1.449   5.833   5.112
 2426SOL    HW2 8178   1.523   5.978   5.118
 2427SOL     OW 8179   4.994   6.625   6.237
 2427SOL    HW1 8180   4.941   6.662   6.314
 2427SOL    HW2 8181   5.086   6.603   6.267
 2428SOL     OW 8182   7.024   1.445   3.442
 2428SOL    HW1 8183   6.989   1.386   3.370
 2428SOL    HW2 8184   0.052   1.391   3.507
 2429SOL     OW 8185   5.167   4.886   2.492
 2429SOL    HW1 8186   5.077   4.841   2.493
 2429SOL    HW2 8187   5.162   4.969   2.437
 2430SOL     OW 8188   5.597   1.999   0.732
 2430SOL    HW1 8189   5.578   2.076   0.671
 2430SOL    HW2 8190   5.676   2.020   0.788
 2431SOL     OW 8191   6.143   1.706   2.031
 2431SOL    HW1 8192   6.044   1.691   2.025
 2431SOL    HW2 8193   6.163   1.768   2.107
 2432SOL     OW 8194   3.272   5.266   1.702
 2432SOL    HW1 8195   3.292   5.357   1.665
 2432SOL    HW2 8196   3.282   5.268   1.801
 2433SOL     OW 8197   0.145   5.699   0.147
 2433SOL    HW1 8198   0.176   5.692   0.242
 2433SOL    HW2 8199   0.049   5.671   0.141
 2434SOL     OW 8200   4.305   1.765   2.661
 2434SOL    HW1 8201   4.344   1.847   2.619
 2434SOL    HW2 8202   4.307   1.775   2.760
 2435SOL     OW 8203   5.400   6.556   6.877
 2435SOL    HW1 8204   5.307   6.592   6.873
 2435SOL    HW2 8205   5.428   6.544   6.972
 2436SOL     OW 8206   1.461   1.296   1.498
 2436SOL    HW1 8207   1.482   1.371   1.436
 2436SOL    HW2 8208   1.402   1.230   1.451
 2437SOL     OW 8209   6.133   6.068   2.289
 2437SOL    HW1 8210   6.033   6.063   2.280
 2437SOL    HW2 8211   6.162   6.013   2.367
 2438SOL     OW 8212   3.534   1.735   4.279
 2438SOL    HW1 8213   3.554   1.800   4.206
 2438SOL    HW2 8214   3.558   1.643   4.249
 2439SOL     OW 8215   0.223   5.717   6.909
 2439SOL    HW1 8216   0.322   5.717   6.924
 2439SOL    HW2 8217   0.177   5.733   6.997
 2440SOL     OW 8218   3.992   1.143   3.949
 2440SOL    HW1 8219   3.962   1.068   3.890
 2440SOL    HW2 8220   4.086   1.169   3.925
 2441SOL     OW 8221   5.682   0.698   6.898
 2441SOL    HW1 8222   5.693   0.733   6.991
 2441SOL    HW2 8223   5.772   0.689   6.855
 2442SOL     OW 8224   5.179   3.749   2.274
 2442SOL    HW1 8225   5.176   3.830   2.216
 2442SOL    HW2 8226   5.128   3.767   2.358
 2443SOL     OW 8227   2.525   1.153   7.019
 2443SOL    HW1 8228   2.561   1.186   0.081
 2443SOL    HW2 8229   2.470   1.071   0.010
 2444SOL     OW 8230   4.516   4.597   0.555
 2444SOL    HW1 8231   4.583   4.660   0.515
 2444SOL    HW2 8232   4.464   4.552   0.483
 2445SOL     OW 8233   6.700   1.748   2.058
 2445SOL    HW1 8234   6.601   1.737   2.057
 2445SOL    HW2 8235   6.725   1.810   2.133
 2446SOL     OW 8236   1.183   2.775   2.017
 2446SOL    HW1 8237   1.198   2.738   1.926
 2446SOL    HW2 8238   1.139   2.865   2.010
 2447SOL     OW 8239   2.273   1.063   0.261
 2447SOL    HW1 8240   2.177   1.041   0.277
 2447SOL    HW2 8241   2.300   1.030   0.170
 2448SOL     OW 8242   6.135   2.132   4.155
 2448SOL    HW1 8243   6.115   2.211   4.212
 2448SOL    HW2 8244   6.208   2.078   4.196
 2449SOL     OW 8245   1.441   3.829   1.800
 2449SOL    HW1 8246   1.526   3.829   1.747
 2449SOL    HW2 8247   1.428   3.919   1.842
 2450SOL     OW 8248   3.137   5.109   6.837
 2450SOL    HW1 8249   3.067   5.162   6.789
 2450SOL    HW2 8250   3.126   5.012   6.815
 2451SOL     OW 8251   0.770   6.931   4.189
 2451SOL    HW1 8252   0.732   7.022   4.171
 2451SOL    HW2 8253   0.869   6.934   4.179
 2452SOL     OW 8254   2.207   2.486   2.962
 2452SOL    HW1 8255   2.193   2.407   3.021
 2452SOL    HW2 8256   2.257   2.557   3.013
 2453SOL     OW 8257   6.580   2.105   0.933
 2453SOL    HW1 8258   6.660   2.112   0.873
 2453SOL    HW2 8259   6.530   2.021   0.911
 2454SOL     OW 8260   3.162   5.602   0.352
 2454SOL    HW1 8261   3.103   5.655   0.291
 2454SOL    HW2 8262   3.137   5.620   0.447
 2455SOL     OW 8263   3.408   1.246   0.180
 2455SOL    HW1 8264   3.310   1.230   0.172
 2455SOL    HW2 8265   3.437   1.315   0.114
 2456SOL     OW 8266   0.915   3.653   6.857
 2456SOL    HW1 8267   0.901   3.603   6.771
 2456SOL    HW2 8268   0.834   3.645   6.914
 2457SOL     OW 8269   5.566   1.059   5.879
 2457SOL    HW1 8270   5.512   0.975   5.878
 2457SOL    HW2 8271   5.571   1.098   5.787
 2458SOL     OW 8272   0.967   1.167   3.162
 2458SOL    HW1 8273   0.991   1.126   3.250
 2458SOL    HW2 8274   0.895   1.235   3.177
 2459SOL     OW 8275   2.561   5.804   5.854
 2459SOL    HW1 8276   2.526   5.758   5.937
 2459SOL    HW2 8277   2.562   5.903   5.869
 2460SOL     OW 8278   1.042   0.632   0.132
 2460SOL    HW1 8279   1.075   0.555   0.077
 2460SOL    HW2 8280   1.033   0.603   0.227
 2461SOL     OW 8281   4.646   6.678   4.036
 2461SOL    HW1 8282   4.644   6.757   3.975
 2461SOL    HW2 8283   4.552   6.644   4.049
 2462SOL     OW 8284   0.651   5.402   0.784
 2462SOL    HW1 8285   0.638   5.348   0.867
 2462SOL    HW2 8286   0.739   5.378   0.742
 2463SOL     OW 8287   6.477   1.705   0.789
 2463SOL    HW1 8288   6.558   1.742   0.743
 2463SOL    HW2 8289   6.417   1.664   0.720
 2464SOL     OW 8290   0.967   2.731   2.784
 2464SOL    HW1 8291   0.880   2.688   2.807
 2464SOL    HW2 8292   1.015   2.757   2.867
 2465SOL     OW 8293   6.830   6.165   6.334
 2465SOL    HW1 8294   6.756   6.232   6.343
 2465SOL    HW2 8295   6.906   6.206   6.283
 2466SOL     OW 8296   1.515   1.896   2.473
 2466SOL    HW1 8297   1.539   1.810   2.428
 2466SOL    HW2 8298   1.560   1.901   2.562
 2467SOL     OW 8299   4.496   2.059   5.969
 2467SOL    HW1 8300   4.534   1.976   5.929
 2467SOL    HW2 8301   4.441   2.035   6.050
 2468SOL     OW 8302   3.986   0.209   6.635
 2468SOL    HW1 8303   3.932   0.143   6.687
 2468SOL    HW2 8304   4.029   0.164   6.557
 2469SOL     OW 8305   3.944   3.080   5.726
 2469SOL    HW1 8306   3.987   3.050   5.640
 2469SOL    HW2 8307   3.966   3.176   5.743
 2470SOL     OW 8308   4.090   4.975   6.613
 2470SOL    HW1 8309   4.075   4.985   6.515
 2470SOL    HW2 8310   4.003   4.980   6.661
 2471SOL     OW 8311   3.310   0.121   0.558
 2471SOL    HW1 8312   3.391   0.179   0.547
 2471SOL    HW2 8313   3.234   0.159   0.506
 2472SOL     OW 8314   4.353   2.402   3.331
 2472SOL    HW1 8315   4.423   2.459   3.288
 2472SOL    HW2 8316   4.344   2.426   3.427
 2473SOL     OW 8317   1.033   4.562   5.517
 2473SOL    HW1 8318   1.077   4.595   5.433
 2473SOL    HW2 8319   0.941   4.530   5.496
 2474SOL     OW 8320   1.131   5.503   0.564
 2474SOL    HW1 8321   1.188   5.562   0.507
 2474SOL    HW2 8322   1.139   5.531   0.660
 2475SOL     OW 8323   4.771   0.143   1.625
 2475SOL    HW1 8324   4.826   0.147   1.542
 2475SOL    HW2 8325   4.695   0.207   1.617
 2476SOL     OW 8326   5.753   0.279   2.632
 2476SOL    HW1 8327   5.715   0.224   2.706
 2476SOL    HW2 8328   5.759   0.224   2.549
 2477SOL     OW 8329   3.751   1.029   3.218
 2477SOL    HW1 8330   3.763   1.023   3.317
 2477SOL    HW2 8331   3.767   0.939   3.177
 2478SOL     OW 8332   4.930   0.867   1.917
 2478SOL    HW1 8333   4.883   0.933   1.975
 2478SOL    HW2 8334   4.929   0.777   1.961
 2479SOL     OW 8335   1.296   2.568   1.489
 2479SOL    HW1 8336   1.217   2.533   1.541
 2479SOL    HW2 8337   1.310   2.511   1.408
 2480SOL     OW 8338   3.989   2.605   1.178
 2480SOL    HW1 8339   3.964   2.602   1.082
 2480SOL    HW2 8340   3.983   2.514   1.218
 2481SOL     OW 8341   2.985   0.516   1.315
 2481SOL    HW1 8342   2.974   0.420   1.338
 2481SOL    HW2 8343   2.953   0.533   1.222
 2482SOL     OW 8344   5.138   3.702   0.202
 2482SOL    HW1 8345   5.222   3.655   0.228
 2482SOL    HW2 8346   5.109   3.672   0.111
 2483SOL     OW 8347   1.580   1.610   0.305
 2483SOL    HW1 8348   1.666   1.661   0.301
 2483SOL    HW2 8349   1.550   1.602   0.400
 2484SOL     OW 8350   3.641   0.806   0.143
 2484SOL    HW1 8351   3.568   0.812   0.211
 2484SOL    HW2 8352   3.657   0.896   0.103
 2485SOL     OW 8353   4.999   3.005   0.611
 2485SOL    HW1 8354   5.012   3.030   0.707
 2485SOL    HW2 8355   5.068   3.052   0.555
 2486SOL     OW 8356   1.117   5.458   5.775
 2486SOL    HW1 8357   1.150   5.524   5.843
 2486SOL    HW2 8358   1.036   5.496   5.729
 2487SOL     OW 8359   4.315   6.453   6.719
 2487SOL    HW1 8360   4.224   6.432   6.685
 2487SOL    HW2 8361   4.372   6.488   6.644
 2488SOL     OW 8362   0.762   3.454   1.787
 2488SOL    HW1 8363   0.734   3.530   1.846
 2488SOL    HW2 8364   0.684   3.393   1.773
 2489SOL     OW 8365   1.390   5.823   3.327
 2489SOL    HW1 8366   1.300   5.780   3.339
 2489SOL    HW2 8367   1.417   5.816   3.231
 2490SOL     OW 8368   0.427   5.839   0.973
 2490SOL    HW1 8369   0.469   5.748   0.980
 2490SOL    HW2 8370   0.350   5.844   1.036
 2491SOL     OW 8371   3.624   4.595   1.049
 2491SOL    HW1 8372   3.532   4.598   1.011
 2491SOL    HW2 8373   3.628   4.651   1.132
 2492SOL     OW 8374   4.252   3.429   0.970
 2492SOL    HW1 8375   4.327   3.377   0.930
 2492SOL    HW2 8376   4.255   3.419   1.070
 2493SOL     OW 8377   6.634   7.001   1.788
 2493SOL    HW1 8378   6.687   0.024   1.858
 2493SOL    HW2 8379   6.697   6.955   1.725
 2494SOL     OW 8380   5.739   4.074   2.197
 2494SOL    HW1 8381   5.770   4.124   2.117
 2494SOL    HW2 8382   5.639   4.069   2.198
 2495SOL     OW 8383   5.222   5.671   3.580
 2495SOL    HW1 8384   5.173   5.600   3.629
 2495SOL    HW2 8385   5.262   5.633   3.496
 2496SOL     OW 8386   0.108   3.099   7.002
 2496SOL    HW1 8387   0.019   3.139   6.976
 2496SOL    HW2 8388   0.125   3.018   6.946
 2497SOL     OW 8389   0.488   0.347   0.777
 2497SOL    HW1 8390   0.504   0.279   0.849
 2497SOL    HW2 8391   0.391   0.372   0.777
 2498SOL     OW 8392   3.074   2.145   5.317
 2498SOL    HW1 8393   3.053   2.086   5.239
 2498SOL    HW2 8394   3.110   2.233   5.284
 2499SOL     OW 8395   5.953   3.527   2.486
 2499SOL    HW1 8396   5.919   3.525   2.580
 2499SOL    HW2 8397   6.015   3.450   2.472
 2500SOL     OW 8398   3.393   4.530   6.664
 2500SOL    HW1 8399   3.367   4.493   6.752
 2500SOL    HW2 8400   3.491   4.513   6.647
 2501SOL     OW 8401   5.533   5.865   0.157
 2501SOL    HW1 8402   5.602   5.878   0.086
 2501SOL    HW2 8403   5.575   5.821   0.237
 2502SOL     OW 8404   1.155   0.236   4.502
 2502SOL    HW1 8405   1.175   0.174   4.577
 2502SOL    HW2 8406   1.121   0.323   4.538
 2503SOL     OW 8407   2.504   6.869   4.137
 2503SOL    HW1 8408   2.542   6.947   4.087
 2503SOL    HW2 8409   2.439   6.903   4.205
 2504SOL     OW 8410   3.404   5.524   3.630
 2504SOL    HW1 8411   3.441   5.609   3.667
 2504SOL    HW2 8412   3.321   5.499   3.680
 2505SOL     OW 8413   0.426   6.869   3.028
 2505SOL    HW1 8414   0.364   6.945   3.051
 2505SOL    HW2 8415   0.494   6.858   3.100
 2506SOL     OW 8416   6.550   3.438   6.415
 2506SOL    HW1 8417   6.477   3.442   6.483
 2506SOL    HW2 8418   6.574   3.343   6.398
 2507SOL     OW 8419   6.088   3.339   0.305
 2507SOL    HW1 8420   6.183   3.357   0.277
 2507SOL    HW2 8421   6.073   3.375   0.396
 2508SOL     OW 8422   2.861   1.570   3.628
 2508SOL    HW1 8423   2.961   1.564   3.639
 2508SOL    HW2 8424   2.840   1.633   3.553
 2509SOL     OW 8425   6.989   4.621   0.950
 2509SOL    HW1 8426   0.053   4.635   0.907
 2509SOL    HW2 8427   6.931   4.702   0.935
 2510SOL     OW 8428   2.722   4.880   1.034
 2510SOL    HW1 8429   2.706   4.864   1.131
 2510SOL    HW2 8430   2.675   4.963   1.005
 2511SOL     OW 8431   3.266   1.994   3.982
 2511SOL    HW1 8432   3.184   2.034   3.941
 2511SOL    HW2 8433   3.333   2.067   3.998
 2512SOL     OW 8434   4.414   3.860   5.361
 2512SOL    HW1 8435   4.454   3.771   5.383
 2512SOL    HW2 8436   4.483   3.931   5.374
 2513SOL     OW 8437   1.961   4.973   4.772
 2513SOL    HW1 8438   1.979   5.039   4.845
 2513SOL    HW2 8439   1.865   4.977   4.747
 2514SOL     OW 8440   0.516   3.576   5.113
 2514SOL    HW1 8441   0.516   3.675   5.126
 2514SOL    HW2 8442   0.510   3.531   5.202
 2515SOL     OW 8443   1.647   6.397   0.520
 2515SOL    HW1 8444   1.631   6.299   0.533
 2515SOL    HW2 8445   1.580   6.449   0.573
 2516SOL     OW 8446   5.035   1.209   2.823
 2516SOL    HW1 8447   5.107   1.230   2.757
 2516SOL    HW2 8448   4.947   1.208   2.776
 2517SOL     OW 8449   1.367   0.336   6.134
 2517SOL    HW1 8450   1.388   0.360   6.229
 2517SOL    HW2 8451   1.341   0.419   6.085
 2518SOL     OW 8452   1.317   5.301   0.531
 2518SOL    HW1 8453   1.304   5.274   0.436
 2518SOL    HW2 8454   1.242   5.360   0.560
 2519SOL     OW 8455   4.024   6.957   2.328
 2519SOL    HW1 8456   4.118   6.986   2.310
 2519SOL    HW2 8457   3.960   7.021   2.285
 2520SOL     OW 8458   3.435   1.618   1.063
 2520SOL    HW1 8459   3.453   1.716   1.062
 2520SOL    HW2 8460   3.373   1.595   0.988
 2521SOL     OW 8461   3.146   0.429   5.341
 2521SOL    HW1 8462   3.169   0.500   5.408
 2521SOL    HW2 8463   3.047   0.411   5.345
 2522SOL     OW 8464   0.897   2.265   5.423
 2522SOL    HW1 8465   0.840   2.347   5.428
 2522SOL    HW2 8466   0.883   2.220   5.335
 2523SOL     OW 8467   1.042   2.473   0.980
 2523SOL    HW1 8468   0.986   2.470   1.064
 2523SOL    HW2 8469   1.134   2.440   1.001
 2524SOL     OW 8470   0.178   6.452   5.116
 2524SOL    HW1 8471   0.234   6.380   5.075
 2524SOL    HW2 8472   0.083   6.440   5.088
 2525SOL     OW 8473   1.182   2.219   5.499
 2525SOL    HW1 8474   1.086   2.219   5.471
 2525SOL    HW2 8475   1.189   2.243   5.596
 2526SOL     OW 8476   1.372   5.046   6.275
 2526SOL    HW1 8477   1.390   4.952   6.306
 2526SOL    HW2 8478   1.302   5.088   6.333
 2527SOL     OW 8479   6.178   6.516   6.078
 2527SOL    HW1 8480   6.227   6.603   6.085
 2527SOL    HW2 8481   6.144   6.505   5.985
 2528SOL     OW 8482   6.403   5.247   6.772
 2528SOL    HW1 8483   6.454   5.260   6.687
 2528SOL    HW2 8484   6.466   5.246   6.850
 2529SOL     OW 8485   6.210   6.420   6.487
 2529SOL    HW1 8486   6.233   6.328   6.519
 2529SOL    HW2 8487   6.294   6.467   6.458
 2530SOL     OW 8488   2.605   6.060   4.801
 2530SOL    HW1 8489   2.578   6.110   4.884
 2530SOL    HW2 8490   2.525   6.053   4.741
 2531SOL     OW 8491   5.796   5.894   4.463
 2531SOL    HW1 8492   5.885   5.933   4.486
 2531SOL    HW2 8493   5.739   5.889   4.545
 2532SOL     OW 8494   0.651   6.068   0.421
 2532SOL    HW1 8495   0.633   5.985   0.473
 2532SOL    HW2 8496   0.565   6.108   0.389
 2533SOL     OW 8497   3.917   6.885   3.889
 2533SOL    HW1 8498   3.943   6.908   3.795
 2533SOL    HW2 8499   3.979   6.815   3.924
 2534SOL     OW 8500   3.800   1.268   2.076
 2534SOL    HW1 8501   3.845   1.184   2.046
 2534SOL    HW2 8502   3.725   1.290   2.014
 2535SOL     OW 8503   3.152   3.175   5.744
 2535SOL    HW1 8504   3.194   3.205   5.658
 2535SOL    HW2 8505   3.085   3.103   5.725
 2536SOL     OW 8506   1.138   1.384   5.192
 2536SOL    HW1 8507   1.179   1.360   5.104
 2536SOL    HW2 8508   1.192   1.457   5.235
 2537SOL     OW 8509   3.333   0.138   6.315
 2537SOL    HW1 8510   3.343   0.068   6.386
 2537SOL    HW2 8511   3.423   0.161   6.279
 2538SOL     OW 8512   0.664   3.998   3.278
 2538SOL    HW1 8513   0.706   3.907   3.272
 2538SOL    HW2 8514   0.667   4.030   3.373
 2539SOL     OW 8515   5.718   0.948   4.656
 2539SOL    HW1 8516   5.626   0.984   4.670
 2539SOL    HW2 8517   5.768   0.951   4.742
 2540SOL     OW 8518   3.969   1.892   2.650
 2540SOL    HW1 8519   4.007   1.799   2.650
 2540SOL    HW2 8520   4.040   1.957   2.625
 2541SOL     OW 8521   3.028   0.757   4.645
 2541SOL    HW1 8522   3.054   0.853   4.629
 2541SOL    HW2 8523   3.079   0.722   4.723
 2542SOL     OW 8524   3.008   2.864   5.904
 2542SOL    HW1 8525   2.951   2.781   5.902
 2542SOL    HW2 8526   3.100   2.840   5.935
 2543SOL     OW 8527   0.647   1.004   3.418
 2543SOL    HW1 8528   0.620   0.964   3.330
 2543SOL    HW2 8529   0.578   1.070   3.447
 2544SOL     OW 8530   0.664   6.015   1.050
 2544SOL    HW1 8531   0.596   5.944   1.031
 2544SOL    HW2 8532   0.635   6.070   1.127
 2545SOL     OW 8533   1.054   6.886   1.989
 2545SOL    HW1 8534   1.008   6.812   1.940
 2545SOL    HW2 8535   1.090   6.952   1.923
 2546SOL     OW 8536   6.980   1.241   2.074
 2546SOL    HW1 8537   0.012   1.259   1.994
 2546SOL    HW2 8538   6.981   1.144   2.095
 2547SOL     OW 8539   6.812   4.320   0.427
 2547SOL    HW1 8540   6.829   4.298   0.523
 2547SOL    HW2 8541   6.732   4.269   0.395
 2548SOL     OW 8542   0.751   0.083   5.333
 2548SOL    HW1 8543   0.815   0.119   5.401
 2548SOL    HW2 8544   0.752   0.142   5.252
 2549SOL     OW 8545   1.100   0.283   0.785
 2549SOL    HW1 8546   1.158   0.331   0.718
 2549SOL    HW2 8547   1.004   0.304   0.766
 2550SOL     OW 8548   0.272   0.629   6.796
 2550SOL    HW1 8549   0.211   0.644   6.874
 2550SOL    HW2 8550   0.342   0.561   6.821
 2551SOL     OW 8551   3.769   4.763   0.341
 2551SOL    HW1 8552   3.682   4.750   0.389
 2551SOL    HW2 8553   3.762   4.843   0.281
 2552SOL     OW 8554   1.920   6.108   4.164
 2552SOL    HW1 8555   1.885   6.121   4.071
 2552SOL    HW2 8556   1.960   6.194   4.196
 2553SOL     OW 8557   4.520   3.554   5.934
 2553SOL    HW1 8558   4.453   3.483   5.913
 2553SOL    HW2 8559   4.495   3.597   6.021
 2554SOL     OW 8560   2.651   0.055   0.538
 2554SOL    HW1 8561   2.572   0.098   0.494
 2554SOL    HW2 8562   2.654   0.081   0.635
 2555SOL     OW 8563   5.675   0.190   4.873
 2555SOL    HW1 8564   5.751   0.169   4.934
 2555SOL    HW2 8565   5.643   0.106   4.830
 2556SOL     OW 8566   3.937   6.109   0.037
 2556SOL    HW1 8567   3.958   6.185   0.099
 2556SOL    HW2 8568   4.017   6.051   0.028
 2557SOL     OW 8569   2.177   4.460   6.899
 2557SOL    HW1 8570   2.207   4.500   6.986
 2557SOL    HW2 8571   2.221   4.509   6.824
 2558SOL     OW 8572   4.944   1.650   5.567
 2558SOL    HW1 8573   5.029   1.695   5.542
 2558SOL    HW2 8574   4.872   1.675   5.502
 2559SOL     OW 8575   0.439   3.820   5.219
 2559SOL    HW1 8576   0.468   3.894   5.160
 2559SOL    HW2 8577   0.339   3.824   5.231
 2560SOL     OW 8578   5.575   3.104   5.133
 2560SOL    HW1 8579   5.650   3.039   5.123
 2560SOL    HW2 8580   5.565   3.157   5.049
 2561SOL     OW 8581   3.000   6.021   5.151
 2561SOL    HW1 8582   2.974   6.040   5.056
 2561SOL    HW2 8583   3.058   5.939   5.153
 2562SOL     OW 8584   2.314   5.076   1.496
 2562SOL    HW1 8585   2.363   5.143   1.552
 2562SOL    HW2 8586   2.261   5.015   1.556
 2563SOL     OW 8587   3.273   2.061   0.518
 2563SOL    HW1 8588   3.358   2.081   0.469
 2563SOL    HW2 8589   3.198   2.113   0.478
 2564SOL     OW 8590   2.584   5.779   6.392
 2564SOL    HW1 8591   2.493   5.790   6.432
 2564SOL    HW2 8592   2.589   5.692   6.343
 2565SOL     OW 8593   1.396   6.919   6.795
 2565SOL    HW1 8594   1.341   6.835   6.794
 2565SOL    HW2 8595   1.340   6.995   6.828
 2566SOL     OW 8596   2.184   0.077   1.234
 2566SOL    HW1 8597   2.154   0.173   1.232
 2566SOL    HW2 8598   2.284   0.073   1.231
 2567SOL     OW 8599   1.401   0.323   0.601
 2567SOL    HW1 8600   1.436   0.379   0.675
 2567SOL    HW2 8601   1.407   0.373   0.515
 2568SOL     OW 8602   4.183   1.176   6.955
 2568SOL    HW1 8603   4.181   1.178   6.855
 2568SOL    HW2 8604   4.096   1.141   6.990
 2569SOL     OW 8605   3.155   0.653   2.333
 2569SOL    HW1 8606   3.083   0.621   2.272
 2569SOL    HW2 8607   3.131   0.743   2.370
 2570SOL     OW 8608   5.458   0.071   6.270
 2570SOL    HW1 8609   5.435   0.168   6.255
 2570SOL    HW2 8610   5.557   0.061   6.276
 2571SOL     OW 8611   2.398   4.478   5.167
 2571SOL    HW1 8612   2.386   4.411   5.094
 2571SOL    HW2 8613   2.337   4.556   5.151
 2572SOL     OW 8614   2.507   6.062   0.945
 2572SOL    HW1 8615   2.509   6.061   1.045
 2572SOL    HW2 8616   2.575   5.998   0.909
 2573SOL     OW 8617   6.880   1.827   1.653
 2573SOL    HW1 8618   6.889   1.926   1.668
 2573SOL    HW2 8619   6.911   1.778   1.734
 2574SOL     OW 8620   5.826   4.128   0.558
 2574SOL    HW1 8621   5.888   4.075   0.500
 2574SOL    HW2 8622   5.874   4.208   0.594
 2575SOL     OW 8623   4.940   5.659   0.781
 2575SOL    HW1 8624   4.989   5.737   0.822
 2575SOL    HW2 8625   4.848   5.687   0.758
 2576SOL     OW 8626   4.511   6.621   4.771
 2576SOL    HW1 8627   4.488   6.699   4.714
 2576SOL    HW2 8628   4.603   6.633   4.808
 2577SOL     OW 8629   4.158   6.658   2.414
 2577SOL    HW1 8630   4.126   6.689   2.324
 2577SOL    HW2 8631   4.100   6.582   2.445
 2578SOL     OW 8632   4.573   1.529   4.751
 2578SOL    HW1 8633   4.498   1.580   4.794
 2578SOL    HW2 8634   4.539   1.479   4.672
 2579SOL     OW 8635   1.238   6.513   3.604
 2579SOL    HW1 8636   1.142   6.504   3.577
 2579SOL    HW2 8637   1.296   6.469   3.535
 2580SOL     OW 8638   3.000   4.697   6.553
 2580SOL    HW1 8639   2.957   4.686   6.463
 2580SOL    HW2 8640   3.099   4.683   6.544
 2581SOL     OW 8641   2.205   4.850   2.160
 2581SOL    HW1 8642   2.220   4.751   2.156
 2581SOL    HW2 8643   2.282   4.897   2.117
 2582SOL     OW 8644   0.365   4.483   1.255
 2582SOL    HW1 8645   0.411   4.465   1.168
 2582SOL    HW2 8646   0.393   4.415   1.322
 2583SOL     OW 8647   1.186   1.600   6.574
 2583SOL    HW1 8648   1.135   1.650   6.643
 2583SOL    HW2 8649   1.272   1.568   6.613
 2584SOL     OW 8650   5.029   5.342   6.096
 2584SOL    HW1 8651   5.050   5.261   6.042
 2584SOL    HW2 8652   5.109   5.367   6.152
 2585SOL     OW 8653   3.644   3.277   1.044
 2585SOL    HW1 8654   3.646   3.370   1.009
 2585SOL    HW2 8655   3.661   3.278   1.143
 2586SOL     OW 8656   3.355   0.571   5.226
 2586SOL    HW1 8657   3.286   0.501   5.243
 2586SOL    HW2 8658   3.402   0.550   5.140
 2587SOL     OW 8659   5.769   0.948   3.634
 2587SOL    HW1 8660   5.782   0.850   3.646
 2587SOL    HW2 8661   5.675   0.966   3.605
 2588SOL     OW 8662   4.384   2.223   6.386
 2588SOL    HW1 8663   4.298   2.271   6.367
 2588SOL    HW2 8664   4.455   2.257   6.324
 2589SOL     OW 8665   1.510   6.609   5.711
 2589SOL    HW1 8666   1.410   6.610   5.719
 2589SOL    HW2 8667   1.543   6.703   5.701
 2590SOL     OW 8668   4.032   4.817   0.183
 2590SOL    HW1 8669   3.941   4.854   0.201
 2590SOL    HW2 8670   4.055   4.751   0.254
 2591SOL     OW 8671   6.652   4.489   3.086
 2591SOL    HW1 8672   6.675   4.572   3.136
 2591SOL    HW2 8673   6.572   4.446   3.128
 2592SOL     OW 8674   3.380   4.568   0.203
 2592SOL    HW1 8675   3.282   4.548   0.201
 2592SOL    HW2 8676   3.429   4.495   0.251
 2593SOL     OW 8677   4.176   5.987   7.021
 2593SOL    HW1 8678   4.217   5.896   7.015
 2593SOL    HW2 8679   4.220   6.048   6.955
 2594SOL     OW 8680   1.944   3.902   5.697
 2594SOL    HW1 8681   1.933   3.807   5.667
 2594SOL    HW2 8682   2.033   3.936   5.666
 2595SOL     OW 8683   6.823   0.529   4.163
 2595SOL    HW1 8684   6.851   0.522   4.258
 2595SOL    HW2 8685   6.805   0.438   4.126
 2596SOL     OW 8686   2.861   2.391   1.652
 2596SOL    HW1 8687   2.938   2.400   1.589
 2596SOL    HW2 8688   2.892   2.409   1.745
 2597SOL     OW 8689   0.406   5.094   6.186
 2597SOL    HW1 8690   0.423   5.192   6.179
 2597SOL    HW2 8691   0.439   5.061   6.275
 2598SOL     OW 8692   6.261   1.433   2.687
 2598SOL    HW1 8693   6.344   1.446   2.739
 2598SOL    HW2 8694   6.230   1.520   2.649
 2599SOL     OW 8695   1.330   5.857   0.820
 2599SOL    HW1 8696   1.384   5.773   0.822
 2599SOL    HW2 8697   1.235   5.835   0.799
 2600SOL     OW 8698   5.491   2.775   4.689
 2600SOL    HW1 8699   5.431   2.698   4.669
 2600SOL    HW2 8700   5.464   2.854   4.634
 2601SOL     OW 8701   1.527   1.653   1.476
 2601SOL    HW1 8702   1.443   1.699   1.447
 2601SOL    HW2 8703   1.566   1.702   1.555
 2602SOL     OW 8704   1.226   4.842   4.988
 2602SOL    HW1 8705   1.242   4.809   5.081
 2602SOL    HW2 8706   1.212   4.940   4.990
 2603SOL     OW 8707   3.060   1.356   2.881
 2603SOL    HW1 8708   3.026   1.434   2.828
 2603SOL    HW2 8709   2.983   1.296   2.904
 2604SOL     OW 8710   4.531   2.006   2.984
 2604SOL    HW1 8711   4.582   2.002   2.898
 2604SOL    HW2 8712   4.503   2.100   3.003
 2605SOL     OW 8713   1.487   3.520   2.664
 2605SOL    HW1 8714   1.511   3.507   2.760
 2605SOL    HW2 8715   1.453   3.434   2.626
 2606SOL     OW 8716   6.269   5.212   1.840
 2606SOL    HW1 8717   6.322   5.288   1.879
 2606SOL    HW2 8718   6.331   5.152   1.789
 2607SOL     OW 8719   0.859   1.242   1.025
 2607SOL    HW1 8720   0.953   1.259   0.995
 2607SOL    HW2 8721   0.828   1.154   0.990
 2608SOL     OW 8722   3.503   5.438   0.538
 2608SOL    HW1 8723   3.534   5.520   0.490
 2608SOL    HW2 8724   3.488   5.364   0.472
 2609SOL     OW 8725   5.978   1.428   1.878
 2609SOL    HW1 8726   5.944   1.518   1.907
 2609SOL    HW2 8727   6.078   1.428   1.884
 2610SOL     OW 8728   0.738   4.645   4.642
 2610SOL    HW1 8729   0.798   4.720   4.616
 2610SOL    HW2 8730   0.709   4.596   4.560
 2611SOL     OW 8731   4.556   6.217   0.278
 2611SOL    HW1 8732   4.494   6.282   0.323
 2611SOL    HW2 8733   4.577   6.142   0.340
 2612SOL     OW 8734   5.677   6.363   4.703
 2612SOL    HW1 8735   5.660   6.270   4.735
 2612SOL    HW2 8736   5.685   6.424   4.782
 2613SOL     OW 8737   2.319   5.381   6.362
 2613SOL    HW1 8738   2.304   5.361   6.458
 2613SOL    HW2 8739   2.231   5.389   6.315
 2614SOL     OW 8740   6.511   1.775   0.233
 2614SOL    HW1 8741   6.483   1.867   0.257
 2614SOL    HW2 8742   6.513   1.717   0.315
 2615SOL     OW 8743   1.118   3.470   1.616
 2615SOL    HW1 8744   1.207   3.501   1.581
 2615SOL    HW2 8745   1.051   3.543   1.603
 2616SOL     OW 8746   1.796   1.928   5.665
 2616SOL    HW1 8747   1.886   1.906   5.703
 2616SOL    HW2 8748   1.764   1.851   5.610
 2617SOL     OW 8749   4.646   1.148   0.905
 2617SOL    HW1 8750   4.689   1.106   0.825
 2617SOL    HW2 8751   4.716   1.179   0.969
 2618SOL     OW 8752   0.036   6.402   4.308
 2618SOL    HW1 8753   0.054   6.336   4.380
 2618SOL    HW2 8754   0.121   6.425   4.260
 2619SOL     OW 8755   4.599   1.708   1.850
 2619SOL    HW1 8756   4.535   1.784   1.845
 2619SOL    HW2 8757   4.549   1.622   1.837
 2620SOL     OW 8758   6.850   0.095   2.504
 2620SOL    HW1 8759   6.760   0.053   2.491
 2620SOL    HW2 8760   6.911   0.031   2.550
 2621SOL     OW 8761   0.958   4.608   2.261
 2621SOL    HW1 8762   0.996   4.700   2.267
 2621SOL    HW2 8763   0.996   4.561   2.181
 2622SOL     OW 8764   2.742   3.445   5.910
 2622SOL    HW1 8765   2.806   3.445   5.987
 2622SOL    HW2 8766   2.793   3.440   5.824
 2623SOL     OW 8767   0.980   0.812   4.908
 2623SOL    HW1 8768   0.997   0.900   4.952
 2623SOL    HW2 8769   0.885   0.784   4.924
 2624SOL     OW 8770   6.769   2.032   5.178
 2624SOL    HW1 8771   6.845   2.096   5.189
 2624SOL    HW2 8772   6.731   2.040   5.086
 2625SOL     OW 8773   2.345   3.608   5.579
 2625SOL    HW1 8774   2.398   3.686   5.611
 2625SOL    HW2 8775   2.261   3.640   5.535
 2626SOL     OW 8776   6.612   0.238   6.006
 2626SOL    HW1 8777   6.660   0.178   5.942
 2626SOL    HW2 8778   6.571   0.184   6.079
 2627SOL     OW 8779   1.423   1.003   5.886
 2627SOL    HW1 8780   1.471   1.005   5.974
 2627SOL    HW2 8781   1.355   1.076   5.884
 2628SOL     OW 8782   1.904   3.971   5.231
 2628SOL    HW1 8783   1.830   4.030   5.263
 2628SOL    HW2 8784   1.902   3.968   5.131
 2629SOL     OW 8785   4.189   3.411   2.805
 2629SOL    HW1 8786   4.276   3.369   2.780
 2629SOL    HW2 8787   4.167   3.388   2.900
 2630SOL     OW 8788   3.516   1.821   3.525
 2630SOL    HW1 8789   3.462   1.827   3.609
 2630SOL    HW2 8790   3.461   1.854   3.448
 2631SOL     OW 8791   5.268   1.073   6.623
 2631SOL    HW1 8792   5.356   1.111   6.594
 2631SOL    HW2 8793   5.280   1.018   6.705
 2632SOL     OW 8794   5.878   3.703   0.761
 2632SOL    HW1 8795   5.956   3.656   0.802
 2632SOL    HW2 8796   5.799   3.694   0.822
 2633SOL     OW 8797   6.741   2.052   4.921
 2633SOL    HW1 8798   6.744   2.145   4.883
 2633SOL    HW2 8799   6.768   1.986   4.851
 2634SOL     OW 8800   0.372   5.631   3.528
 2634SOL    HW1 8801   0.363   5.677   3.440
 2634SOL    HW2 8802   0.283   5.600   3.559
 2635SOL     OW 8803   6.416   5.574   4.022
 2635SOL    HW1 8804   6.400   5.526   4.108
 2635SOL    HW2 8805   6.454   5.665   4.042
 2636SOL     OW 8806   3.842   0.636   6.729
 2636SOL    HW1 8807   3.891   0.607   6.811
 2636SOL    HW2 8808   3.907   0.678   6.665
 2637SOL     OW 8809   6.263   1.519   4.083
 2637SOL    HW1 8810   6.176   1.566   4.072
 2637SOL    HW2 8811   6.338   1.580   4.059
 2638SOL     OW 8812   0.088   6.792   4.520
 2638SOL    HW1 8813   0.180   6.787   4.558
 2638SOL    HW2 8814   0.026   6.835   4.586
 2639SOL     OW 8815   5.884   5.378   5.961
 2639SOL    HW1 8816   5.798   5.424   5.985
 2639SOL    HW2 8817   5.868   5.312   5.888
 2640SOL     OW 8818   6.803   0.059   5.220
 2640SOL    HW1 8819   6.882   7.023   5.223
 2640SOL    HW2 8820   6.816   0.133   5.286
 2641SOL     OW 8821   4.819   2.134   1.159
 2641SOL    HW1 8822   4.723   2.159   1.172
 2641SOL    HW2 8823   4.829   2.081   1.075
 2642SOL     OW 8824   6.634   0.348   3.548
 2642SOL    HW1 8825   6.545   0.352   3.594
 2642SOL    HW2 8826   6.706   0.359   3.616
 2643SOL     OW 8827   1.584   3.128   3.937
 2643SOL    HW1 8828   1.651   3.106   3.865
 2643SOL    HW2 8829   1.514   3.189   3.900
 2644SOL     OW 8830   4.551   5.563   4.965
 2644SOL    HW1 8831   4.541   5.650   5.014
 2644SOL    HW2 8832   4.630   5.568   4.905
 2645SOL     OW 8833   5.346   4.619   3.629
 2645SOL    HW1 8834   5.254   4.597   3.595
 2645SOL    HW2 8835   5.339   4.661   3.720
 2646SOL     OW 8836   0.192   3.337   0.026
 2646SOL    HW1 8837   0.113   3.398   0.025
 2646SOL    HW2 8838   0.165   3.246   7.019
 2647SOL     OW 8839   5.966   6.890   1.753
 2647SOL    HW1 8840   5.919   6.978   1.744
 2647SOL    HW2 8841   5.899   6.816   1.747
 2648SOL     OW 8842   0.005   6.815   4.258
 2648SOL    HW1 8843   7.012   6.727   4.214
 2648SOL    HW2 8844   0.061   6.802   4.340
 2649SOL     OW 8845   5.890   3.339   1.586
 2649SOL    HW1 8846   5.860   3.346   1.681
 2649SOL    HW2 8847   5.860   3.252   1.547
 2650SOL     OW 8848   2.338   5.916   4.700
 2650SOL    HW1 8849   2.401   5.846   4.668
 2650SOL    HW2 8850   2.267   5.873   4.756
 2651SOL     OW 8851   3.412   1.012   6.896
 2651SOL    HW1 8852   3.368   1.087   6.946
 2651SOL    HW2 8853   3.362   0.927   6.911
 2652SOL     OW 8854   4.730   3.383   5.837
 2652SOL    HW1 8855   4.642   3.423   5.863
 2652SOL    HW2 8856   4.776   3.442   5.771
 2653SOL     OW 8857   4.482   6.100   5.725
 2653SOL    HW1 8858   4.519   6.193   5.728
 2653SOL    HW2 8859   4.389   6.102   5.686
 2654SOL     OW 8860   5.150   6.171   0.973
 2654SOL    HW1 8861   5.081   6.101   0.955
 2654SOL    HW2 8862   5.156   6.187   1.072
 2655SOL     OW 8863   4.569   5.299   3.651
 2655SOL    HW1 8864   4.557   5.200   3.652
 2655SOL    HW2 8865   4.557   5.334   3.558
 2656SOL     OW 8866   3.457   4.942   3.519
 2656SOL    HW1 8867   3.445   5.031   3.563
 2656SOL    HW2 8868   3.554   4.919   3.515
 2657SOL     OW 8869   1.948   3.343   0.828
 2657SOL    HW1 8870   1.853   3.327   0.804
 2657SOL    HW2 8871   2.006   3.323   0.749
 2658SOL     OW 8872   4.951   4.430   0.531
 2658SOL    HW1 8873   5.029   4.459   0.586
 2658SOL    HW2 8874   4.871   4.421   0.590
 2659SOL     OW 8875   4.718   3.163   5.398
 2659SOL    HW1 8876   4.656   3.162   5.477
 2659SOL    HW2 8877   4.801   3.213   5.422
 2660SOL     OW 8878   0.786   1.017   1.321
 2660SOL    HW1 8879   0.853   0.986   1.254
 2660SOL    HW2 8880   0.694   0.999   1.287
 2661SOL     OW 8881   1.829   0.338   1.676
 2661SOL    HW1 8882   1.926   0.327   1.651
 2661SOL    HW2 8883   1.776   0.357   1.594
 2662SOL     OW 8884   2.469   0.205   3.621
 2662SOL    HW1 8885   2.464   0.136   3.549
 2662SOL    HW2 8886   2.453   0.296   3.581
 2663SOL     OW 8887   4.754   5.502   5.887
 2663SOL    HW1 8888   4.748   5.585   5.943
 2663SOL    HW2 8889   4.850   5.484   5.866
 2664SOL     OW 8890   4.114   3.002   5.489
 2664SOL    HW1 8891   4.132   3.065   5.414
 2664SOL    HW2 8892   4.162   2.916   5.473
 2665SOL     OW 8893   2.299   3.158   5.311
 2665SOL    HW1 8894   2.265   3.225   5.246
 2665SOL    HW2 8895   2.370   3.102   5.269
 2666SOL     OW 8896   1.588   3.683   2.071
 2666SOL    HW1 8897   1.552   3.695   1.979
 2666SOL    HW2 8898   1.584   3.771   2.120
 2667SOL     OW 8899   0.912   5.233   3.876
 2667SOL    HW1 8900   0.893   5.168   3.951
 2667SOL    HW2 8901   0.921   5.325   3.914
 2668SOL     OW 8902   5.649   3.071   4.615
 2668SOL    HW1 8903   5.605   3.085   4.526
 2668SOL    HW2 8904   5.748   3.070   4.603
 2669SOL     OW 8905   3.378   5.684   6.708
 2669SOL    HW1 8906   3.433   5.699   6.790
 2669SOL    HW2 8907   3.386   5.588   6.680
 2670SOL     OW 8908   6.505   2.532   4.922
 2670SOL    HW1 8909   6.485   2.471   4.845
 2670SOL    HW2 8910   6.583   2.496   4.973
 2671SOL     OW 8911   5.025   5.509   5.842
 2671SOL    HW1 8912   5.052   5.602   5.867
 2671SOL    HW2 8913   5.061   5.445   5.909
 2672SOL     OW 8914   3.297   0.118   1.606
 2672SOL    HW1 8915   3.388   0.157   1.591
 2672SOL    HW2 8916   3.235   0.188   1.640
 2673SOL     OW 8917   5.727   1.796   2.499
 2673SOL    HW1 8918   5.808   1.838   2.538
 2673SOL    HW2 8919   5.668   1.761   2.572
 2674SOL     OW 8920   1.348   4.495   3.820
 2674SOL    HW1 8921   1.431   4.518   3.768
 2674SOL    HW2 8922   1.270   4.545   3.782
 2675SOL     OW 8923   0.266   6.483   4.177
 2675SOL    HW1 8924   0.325   6.533   4.114
 2675SOL    HW2 8925   0.267   6.528   4.267
 2676SOL     OW 8926   3.790   3.672   2.638
 2676SOL    HW1 8927   3.844   3.748   2.602
 2676SOL    HW2 8928   3.816   3.656   2.734
 2677SOL     OW 8929   3.090   4.822   1.189
 2677SOL    HW1 8930   3.048   4.865   1.109
 2677SOL    HW2 8931   3.052   4.862   1.272
 2678SOL     OW 8932   6.999   2.703   2.175
 2678SOL    HW1 8933   7.016   2.734   2.269
 2678SOL    HW2 8934   0.030   2.757   2.112
 2679SOL     OW 8935   2.045   5.109   2.335
 2679SOL    HW1 8936   1.979   5.035   2.344
 2679SOL    HW2 8937   2.085   5.129   2.425
 2680SOL     OW 8938   1.482   2.555   0.326
 2680SOL    HW1 8939   1.563   2.610   0.305
 2680SOL    HW2 8940   1.401   2.595   0.283
 2681SOL     OW 8941   1.415   2.624   4.881
 2681SOL    HW1 8942   1.513   2.635   4.867
 2681SOL    HW2 8943   1.382   2.696   4.943
 2682SOL     OW 8944   5.514   4.062   2.970
 2682SOL    HW1 8945   5.528   4.123   2.892
 2682SOL    HW2 8946   5.530   3.968   2.942
 2683SOL     OW 8947   2.326   4.318   2.493
 2683SOL    HW1 8948   2.308   4.303   2.396
 2683SOL    HW2 8949   2.415   4.363   2.504
 2684SOL     OW 8950   5.064   6.902   1.420
 2684SOL    HW1 8951   5.137   6.888   1.488
 2684SOL    HW2 8952   5.094   6.867   1.332
 2685SOL     OW 8953   6.471   4.774   4.993
 2685SOL    HW1 8954   6.487   4.710   5.069
 2685SOL    HW2 8955   6.395   4.740   4.938
 2686SOL     OW 8956   1.176   0.977   5.078
 2686SOL    HW1 8957   1.094   0.949   5.129
 2686SOL    HW2 8958   1.232   0.896   5.060
 2687SOL     OW 8959   3.649   6.553   1.302
 2687SOL    HW1 8960   3.642   6.622   1.374
 2687SOL    HW2 8961   3.642   6.462   1.343
 2688SOL     OW 8962   3.021   2.106   0.864
 2688SOL    HW1 8963   3.047   2.089   0.769
 2688SOL    HW2 8964   3.103   2.111   0.921
 2689SOL     OW 8965   0.392   3.856   2.697
 2689SOL    HW1 8966   0.307   3.830   2.650
 2689SOL    HW2 8967   0.370   3.890   2.789
 2690SOL     OW 8968   3.063   3.105   6.722
 2690SOL    HW1 8969   3.126   3.092   6.645
 2690SOL    HW2 8970   3.106   3.073   6.806
 2691SOL     OW 8971   0.326   4.244   3.903
 2691SOL    HW1 8972   0.426   4.246   3.904
 2691SOL    HW2 8973   0.291   4.252   3.996
 2692SOL     OW 8974   1.975   6.293   3.061
 2692SOL    HW1 8975   2.067   6.283   3.022
 2692SOL    HW2 8976   1.908   6.253   2.999
 2693SOL     OW 8977   1.853   4.655   4.073
 2693SOL    HW1 8978   1.819   4.612   4.157
 2693SOL    HW2 8979   1.932   4.712   4.094
 2694SOL     OW 8980   4.301   6.959   3.053
 2694SOL    HW1 8981   4.255   6.871   3.068
 2694SOL    HW2 8982   4.245   7.016   2.993
 2695SOL     OW 8983   6.209   0.002   2.855
 2695SOL    HW1 8984   6.252   6.997   2.941
 2695SOL    HW2 8985   6.168   0.093   2.869
 2696SOL     OW 8986   4.513   4.073   6.397
 2696SOL    HW1 8987   4.581   4.111   6.459
 2696SOL    HW2 8988   4.551   4.069   6.304
 2697SOL     OW 8989   4.560   1.156   2.203
 2697SOL    HW1 8990   4.612   1.151   2.288
 2697SOL    HW2 8991   4.533   1.250   2.186
 2698SOL     OW 8992   1.984   4.883   6.695
 2698SOL    HW1 8993   2.003   4.840   6.606
 2698SOL    HW2 8994   2.007   4.819   6.768
 2699SOL     OW 8995   2.655   5.641   1.105
 2699SOL    HW1 8996   2.557   5.657   1.116
 2699SOL    HW2 8997   2.689   5.589   1.183
 2700SOL     OW 8998   2.853   1.572   1.209
 2700SOL    HW1 8999   2.793   1.576   1.289
 2700SOL    HW2 9000   2.822   1.639   1.141
 2701SOL     OW 9001   5.213   2.557   5.840
 2701SOL    HW1 9002   5.218   2.573   5.741
 2701SOL    HW2 9003   5.239   2.641   5.888
 2702SOL     OW 9004   1.188   2.425   3.440
 2702SOL    HW1 9005   1.257   2.357   3.462
 2702SOL    HW2 9006   1.217   2.479   3.361
 2703SOL     OW 9007   1.630   5.542   1.350
 2703SOL    HW1 9008   1.729   5.548   1.341
 2703SOL    HW2 9009   1.602   5.446   1.340
 2704SOL     OW 9010   6.676   5.554   2.900
 2704SOL    HW1 9011   6.705   5.471   2.853
 2704SOL    HW2 9012   6.597   5.594   2.853
 2705SOL     OW 9013   6.398   1.447   5.226
 2705SOL    HW1 9014   6.376   1.349   5.231
 2705SOL    HW2 9015   6.469   1.469   5.293
 2706SOL     OW 9016   5.991   4.153   4.748
 2706SOL    HW1 9017   5.987   4.102   4.662
 2706SOL    HW2 9018   6.075   4.207   4.752
 2707SOL     OW 9019   4.068   6.767   4.208
 2707SOL    HW1 9020   4.060   6.741   4.112
 2707SOL    HW2 9021   4.038   6.862   4.219
 2708SOL     OW 9022   6.656   2.539   0.689
 2708SOL    HW1 9023   6.638   2.634   0.717
 2708SOL    HW2 9024   6.586   2.479   0.727
 2709SOL     OW 9025   4.933   6.953   6.388
 2709SOL    HW1 9026   5.023   6.934   6.349
 2709SOL    HW2 9027   4.940   0.000   6.456
 2710SOL     OW 9028   1.987   2.566   3.602
 2710SOL    HW1 9029   1.944   2.594   3.688
 2710SOL    HW2 9030   1.922   2.511   3.550
 2711SOL     OW 9031   3.291   1.579   3.302
 2711SOL    HW1 9032   3.244   1.655   3.347
 2711SOL    HW2 9033   3.231   1.538   3.233
 2712SOL     OW 9034   2.947   5.435   1.901
 2712SOL    HW1 9035   2.991   5.345   1.898
 2712SOL    HW2 9036   2.979   5.490   1.824
 2713SOL     OW 9037   4.200   4.181   6.619
 2713SOL    HW1 9038   4.163   4.131   6.540
 2713SOL    HW2 9039   4.249   4.117   6.678
 2714SOL     OW 9040   3.943   4.148   0.020
 2714SOL    HW1 9041   4.041   4.163   0.010
 2714SOL    HW2 9042   3.922   4.124   0.115
 2715SOL     OW 9043   5.108   2.159   0.898
 2715SOL    HW1 9044   5.163   2.076   0.888
 2715SOL    HW2 9045   5.115   2.192   0.992
 2716SOL     OW 9046   4.754   2.708   3.128
 2716SOL    HW1 9047   4.796   2.622   3.099
 2716SOL    HW2 9048   4.793   2.736   3.215
 2717SOL     OW 9049   0.569   6.978   2.547
 2717SOL    HW1 9050   0.614   6.896   2.513
 2717SOL    HW2 9051   0.515   6.955   2.628
 2718SOL     OW 9052   6.805   0.908   4.973
 2718SOL    HW1 9053   6.705   0.914   4.981
 2718SOL    HW2 9054   6.829   0.825   4.924
 2719SOL     OW 9055   1.422   4.296   2.095
 2719SOL    HW1 9056   1.422   4.373   2.032
 2719SOL    HW2 9057   1.516   4.268   2.115
 2720SOL     OW 9058   1.115   0.129   4.253
 2720SOL    HW1 9059   1.160   0.199   4.198
 2720SOL    HW2 9060   1.127   0.149   4.350
 2721SOL     OW 9061   3.340   6.601   2.949
 2721SOL    HW1 9062   3.406   6.637   2.883
 2721SOL    HW2 9063   3.250   6.595   2.906
 2722SOL     OW 9064   4.936   5.117   6.588
 2722SOL    HW1 9065   4.904   5.188   6.525
 2722SOL    HW2 9066   4.988   5.048   6.537
 2723SOL     OW 9067   2.647   6.381   6.515
 2723SOL    HW1 9068   2.703   6.462   6.493
 2723SOL    HW2 9069   2.607   6.392   6.606
 2724SOL     OW 9070   1.359   5.769   6.642
 2724SOL    HW1 9071   1.259   5.773   6.636
 2724SOL    HW2 9072   1.398   5.788   6.552
 2725SOL     OW 9073   5.477   3.882   4.429
 2725SOL    HW1 9074   5.398   3.878   4.367
 2725SOL    HW2 9075   5.453   3.841   4.517
 2726SOL     OW 9076   0.565   2.208   1.810
 2726SOL    HW1 9077   0.498   2.272   1.848
 2726SOL    HW2 9078   0.608   2.249   1.729
 2727SOL     OW 9079   1.811   3.983   4.439
 2727SOL    HW1 9080   1.896   3.933   4.423
 2727SOL    HW2 9081   1.830   4.082   4.439
 2728SOL     OW 9082   5.040   5.706   6.669
 2728SOL    HW1 9083   5.050   5.608   6.652
 2728SOL    HW2 9084   5.126   5.752   6.648
 2729SOL     OW 9085   6.810   6.495   0.020
 2729SOL    HW1 9086   6.803   6.584   0.067
 2729SOL    HW2 9087   6.718   6.460   0.003
 2730SOL     OW 9088   0.819   5.659   1.333
 2730SOL    HW1 9089   0.874   5.678   1.414
 2730SOL    HW2 9090   0.757   5.736   1.316
 2731SOL     OW 9091   3.236   3.477   2.948
 2731SOL    HW1 9092   3.138   3.474   2.965
 2731SOL    HW2 9093   3.257   3.549   2.882
 2732SOL     OW 9094   5.646   2.114   1.824
 2732SOL    HW1 9095   5.580   2.058   1.775
 2732SOL    HW2 9096   5.737   2.101   1.783
 2733SOL     OW 9097   0.103   1.538   4.975
 2733SOL    HW1 9098   0.073   1.457   4.925
 2733SOL    HW2 9099   0.139   1.605   4.910
 2734SOL     OW 9100   3.650   5.897   1.659
 2734SOL    HW1 9101   3.669   5.994   1.641
 2734SOL    HW2 9102   3.691   5.841   1.587
 2735SOL     OW 9103   1.493   2.186   0.837
 2735SOL    HW1 9104   1.417   2.174   0.773
 2735SOL    HW2 9105   1.552   2.260   0.805
 2736SOL     OW 9106   6.234   6.455   4.555
 2736SOL    HW1 9107   6.162   6.481   4.490
 2736SOL    HW2 9108   6.295   6.388   4.513
 2737SOL     OW 9109   2.719   2.989   5.924
 2737SOL    HW1 9110   2.688   2.897   5.898
 2737SOL    HW2 9111   2.668   3.057   5.871
 2738SOL     OW 9112   6.482   6.666   2.648
 2738SOL    HW1 9113   6.403   6.722   2.671
 2738SOL    HW2 9114   6.462   6.612   2.566
 2739SOL     OW 9115   0.515   5.286   1.000
 2739SOL    HW1 9116   0.517   5.251   1.094
 2739SOL    HW2 9117   0.442   5.240   0.950
 2740SOL     OW 9118   6.971   5.224   2.128
 2740SOL    HW1 9119   6.976   5.280   2.211
 2740SOL    HW2 9120   6.936   5.133   2.150
 2741SOL     OW 9121   0.276   1.904   5.055
 2741SOL    HW1 9122   0.188   1.906   5.007
 2741SOL    HW2 9123   0.301   1.996   5.085
 2742SOL     OW 9124   2.468   5.382   1.478
 2742SOL    HW1 9125   2.521   5.317   1.424
 2742SOL    HW2 9126   2.452   5.465   1.425
 2743SOL     OW 9127   6.943   4.622   2.617
 2743SOL    HW1 9128   0.004   4.657   2.656
 2743SOL    HW2 9129   6.961   4.537   2.568
 2744SOL     OW 9130   3.872   3.390   1.911
 2744SOL    HW1 9131   3.957   3.420   1.869
 2744SOL    HW2 9132   3.851   3.297   1.883
 2745SOL     OW 9133   6.826   1.380   5.325
 2745SOL    HW1 9134   6.828   1.355   5.422
 2745SOL    HW2 9135   6.787   1.472   5.316
 2746SOL     OW 9136   0.522   2.273   4.175
 2746SOL    HW1 9137   0.578   2.355   4.182
 2746SOL    HW2 9138   0.526   2.237   4.082
 2747SOL     OW 9139   4.726   5.527   6.721
 2747SOL    HW1 9140   4.638   5.557   6.684
 2747SOL    HW2 9141   4.716   5.436   6.761
 2748SOL     OW 9142   4.548   0.585   1.531
 2748SOL    HW1 9143   4.557   0.684   1.520
 2748SOL    HW2 9144   4.627   0.539   1.491
 2749SOL     OW 9145   0.626   5.023   0.687
 2749SOL    HW1 9146   0.706   5.028   0.746
 2749SOL    HW2 9147   0.636   5.089   0.612
 2750SOL     OW 9148   2.014   4.500   1.959
 2750SOL    HW1 9149   2.010   4.586   1.908
 2750SOL    HW2 9150   1.968   4.429   1.906
 2751SOL     OW 9151   1.652   2.199   1.447
 2751SOL    HW1 9152   1.599   2.133   1.393
 2751SOL    HW2 9153   1.589   2.250   1.506
 2752SOL     OW 9154   3.751   4.422   6.231
 2752SOL    HW1 9155   3.700   4.346   6.190
 2752SOL    HW2 9156   3.822   4.385   6.292
 2753SOL     OW 9157   6.847   6.246   5.201
 2753SOL    HW1 9158   6.882   6.329   5.160
 2753SOL    HW2 9159   6.923   6.187   5.228
 2754SOL     OW 9160   0.573   0.090   0.256
 2754SOL    HW1 9161   0.502   0.041   0.205
 2754SOL    HW2 9162   0.616   0.029   0.321
 2755SOL     OW 9163   3.792   0.341   3.308
 2755SOL    HW1 9164   3.758   0.431   3.335
 2755SOL    HW2 9165   3.876   0.320   3.356
 2756SOL     OW 9166   4.240   6.209   0.235
 2756SOL    HW1 9167   4.257   6.239   0.141
 2756SOL    HW2 9168   4.278   6.117   0.247
 2757SOL     OW 9169   1.918   6.557   0.754
 2757SOL    HW1 9170   1.823   6.540   0.727
 2757SOL    HW2 9171   1.976   6.484   0.717
 2758SOL     OW 9172   4.936   0.068   4.959
 2758SOL    HW1 9173   4.920   0.117   4.874
 2758SOL    HW2 9174   5.000   0.121   5.016
 2759SOL     OW 9175   5.284   6.539   4.936
 2759SOL    HW1 9176   5.193   6.500   4.951
 2759SOL    HW2 9177   5.312   6.592   5.016
 2760SOL     OW 9178   1.150   5.638   1.423
 2760SOL    HW1 9179   1.207   5.672   1.348
 2760SOL    HW2 9180   1.079   5.579   1.386
 2761SOL     OW 9181   2.290   4.765   4.336
 2761SOL    HW1 9182   2.368   4.703   4.327
 2761SOL    HW2 9183   2.305   4.828   4.412
 2762SOL     OW 9184   0.848   1.107   4.977
 2762SOL    HW1 9185   0.875   1.155   4.894
 2762SOL    HW2 9186   0.752   1.127   4.998
 2763SOL     OW 9187   5.637   1.535   3.832
 2763SOL    HW1 9188   5.585   1.615   3.800
 2763SOL    HW2 9189   5.680   1.490   3.753
 2764SOL     OW 9190   6.261   0.690   1.322
 2764SOL    HW1 9191   6.216   0.718   1.407
 2764SOL    HW2 9192   6.207   0.618   1.278
 2765SOL     OW 9193   5.659   0.260   0.701
 2765SOL    HW1 9194   5.607   0.316   0.765
 2765SOL    HW2 9195   5.596   0.211   0.641
 2766SOL     OW 9196   5.107   2.393   0.761
 2766SOL    HW1 9197   5.144   2.347   0.680
 2766SOL    HW2 9198   5.082   2.324   0.829
 2767SOL     OW 9199   6.821   4.875   6.464
 2767SOL    HW1 9200   6.836   4.969   6.493
 2767SOL    HW2 9201   6.757   4.873   6.387
 2768SOL     OW 9202   5.090   0.780   0.084
 2768SOL    HW1 9203   5.010   0.721   0.074
 2768SOL    HW2 9204   5.068   0.871   0.048
 2769SOL     OW 9205   6.744   4.314   3.859
 2769SOL    HW1 9206   6.690   4.378   3.914
 2769SOL    HW2 9207   6.694   4.229   3.847
 2770SOL     OW 9208   2.056   5.395   6.264
 2770SOL    HW1 9209   2.045   5.431   6.171
 2770SOL    HW2 9210   1.966   5.373   6.301
 2771SOL     OW 9211   5.449   1.530   2.183
 2771SOL    HW1 9212   5.392   1.515   2.102
 2771SOL    HW2 9213   5.522   1.462   2.185
 2772SOL     OW 9214   4.410   1.813   1.100
 2772SOL    HW1 9215   4.440   1.789   1.192
 2772SOL    HW2 9216   4.378   1.731   1.053
 2773SOL     OW 9217   5.440   3.120   5.386
 2773SOL    HW1 9218   5.509   3.096   5.318
 2773SOL    HW2 9219   5.402   3.210   5.365
 2774SOL     OW 9220   6.749   3.274   2.864
 2774SOL    HW1 9221   6.696   3.233   2.938
 2774SOL    HW2 9222   6.828   3.321   2.903
 2775SOL     OW 9223   6.959   5.348   0.110
 2775SOL    HW1 9224   7.003   5.365   0.198
 2775SOL    HW2 9225   6.864   5.318   0.125
 2776SOL     OW 9226   4.920   5.088   5.676
 2776SOL    HW1 9227   4.877   5.138   5.602
 2776SOL    HW2 9228   4.888   4.994   5.676
 2777SOL     OW 9229   2.815   1.038   2.000
 2777SOL    HW1 9230   2.784   1.122   1.955
 2777SOL    HW2 9231   2.856   1.060   2.089
 2778SOL     OW 9232   1.277   1.041   4.571
 2778SOL    HW1 9233   1.228   1.086   4.647
 2778SOL    HW2 9234   1.348   0.981   4.608
 2779SOL     OW 9235   4.812   6.922   0.906
 2779SOL    HW1 9236   4.743   6.988   0.875
 2779SOL    HW2 9237   4.855   6.880   0.826
 2780SOL     OW 9238   6.995   5.655   6.299
 2780SOL    HW1 9239   0.006   5.748   6.296
 2780SOL    HW2 9240   6.898   5.656   6.273
 2781SOL     OW 9241   6.006   5.752   1.733
 2781SOL    HW1 9242   5.968   5.844   1.744
 2781SOL    HW2 9243   6.105   5.758   1.724
 2782SOL     OW 9244   3.046   2.314   5.670
 2782SOL    HW1 9245   2.954   2.327   5.634
 2782SOL    HW2 9246   3.087   2.232   5.631
 2783SOL     OW 9247   5.966   3.127   4.818
 2783SOL    HW1 9248   6.037   3.124   4.889
 2783SOL    HW2 9249   5.900   3.198   4.840
 2784SOL     OW 9250   3.029   1.879   1.108
 2784SOL    HW1 9251   3.111   1.901   1.056
 2784SOL    HW2 9252   3.029   1.782   1.132
 2785SOL     OW 9253   5.606   1.449   0.524
 2785SOL    HW1 9254   5.603   1.430   0.622
 2785SOL    HW2 9255   5.562   1.374   0.474
 2786SOL     OW 9256   4.116   5.897   1.631
 2786SOL    HW1 9257   4.094   5.874   1.536
 2786SOL    HW2 9258   4.208   5.863   1.653
 2787SOL     OW 9259   2.628   2.709   6.866
 2787SOL    HW1 9260   2.592   2.702   6.959
 2787SOL    HW2 9261   2.595   2.793   6.824
 2788SOL     OW 9262   2.224   4.144   0.125
 2788SOL    HW1 9263   2.323   4.136   0.116
 2788SOL    HW2 9264   2.203   4.205   0.202
 2789SOL     OW 9265   1.964   2.954   3.471
 2789SOL    HW1 9266   2.035   2.949   3.401
 2789SOL    HW2 9267   2.006   2.945   3.561
 2790SOL     OW 9268   2.862   5.530   2.599
 2790SOL    HW1 9269   2.776   5.487   2.572
 2790SOL    HW2 9270   2.846   5.625   2.623
 2791SOL     OW 9271   1.242   4.113   4.766
 2791SOL    HW1 9272   1.259   4.206   4.733
 2791SOL    HW2 9273   1.273   4.105   4.860
 2792SOL     OW 9274   0.808   6.650   4.966
 2792SOL    HW1 9275   0.750   6.728   4.989
 2792SOL    HW2 9276   0.782   6.572   5.023
 2793SOL     OW 9277   4.664   2.646   2.623
 2793SOL    HW1 9278   4.631   2.680   2.711
 2793SOL    HW2 9279   4.669   2.722   2.558
 2794SOL     OW 9280   7.009   2.279   0.936
 2794SOL    HW1 9281   6.962   2.192   0.948
 2794SOL    HW2 9282   6.978   2.323   0.852
 2795SOL     OW 9283   2.331   3.397   0.709
 2795SOL    HW1 9284   2.319   3.418   0.805
 2795SOL    HW2 9285   2.321   3.480   0.654
 2796SOL     OW 9286   6.454   5.039   2.906
 2796SOL    HW1 9287   6.448   4.994   2.995
 2796SOL    HW2 9288   6.362   5.062   2.874
 2797SOL     OW 9289   4.960   5.631   4.469
 2797SOL    HW1 9290   4.915   5.665   4.386
 2797SOL    HW2 9291   4.890   5.611   4.538
 2798SOL     OW 9292   0.934   4.673   1.830
 2798SOL    HW1 9293   0.928   4.727   1.746
 2798SOL    HW2 9294   0.995   4.595   1.816
 2799SOL     OW 9295   0.300   6.121   6.951
 2799SOL    HW1 9296   0.242   6.068   6.888
 2799SOL    HW2 9297   0.245   6.193   6.993
 2800SOL     OW 9298   4.287   5.077   6.766
 2800SOL    HW1 9299   4.296   5.021   6.849
 2800SOL    HW2 9300   4.215   5.040   6.708
 2801SOL     OW 9301   4.574   5.701   4.399
 2801SOL    HW1 9302   4.492   5.644   4.406
 2801SOL    HW2 9303   4.593   5.743   4.488
 2802SOL     OW 9304   4.785   3.304   6.389
 2802SOL    HW1 9305   4.729   3.323   6.470
 2802SOL    HW2 9306   4.750   3.222   6.343
 2803SOL     OW 9307   3.490   5.994   6.244
 2803SOL    HW1 9308   3.468   5.934   6.167
 2803SOL    HW2 9309   3.418   6.063   6.254
 2804SOL     OW 9310   0.098   4.695   4.549
 2804SOL    HW1 9311   0.027   4.644   4.500
 2804SOL    HW2 9312   0.059   4.779   4.587
 2805SOL     OW 9313   4.488   2.837   1.475
 2805SOL    HW1 9314   4.488   2.776   1.396
 2805SOL    HW2 9315   4.443   2.792   1.552
 2806SOL     OW 9316   6.106   5.142   4.304
 2806SOL    HW1 9317   6.062   5.113   4.388
 2806SOL    HW2 9318   6.108   5.065   4.239
 2807SOL     OW 9319   5.775   5.100   4.121
 2807SOL    HW1 9320   5.730   5.165   4.182
 2807SOL    HW2 9321   5.778   5.137   4.028
 2808SOL     OW 9322   4.986   2.620   2.455
 2808SOL    HW1 9323   5.028   2.604   2.544
 2808SOL    HW2 9324   4.976   2.533   2.406
 2809SOL     OW 9325   6.166   2.418   2.055
 2809SOL    HW1 9326   6.097   2.370   2.000
 2809SOL    HW2 9327   6.256   2.380   2.035
 2810SOL     OW 9328   3.153   6.649   4.520
 2810SOL    HW1 9329   3.058   6.635   4.491
 2810SOL    HW2 9330   3.207   6.681   4.443
 2811SOL     OW 9331   0.320   1.081   3.203
 2811SOL    HW1 9332   0.400   1.137   3.226
 2811SOL    HW2 9333   0.342   0.985   3.219
 2812SOL     OW 9334   5.784   3.489   0.449
 2812SOL    HW1 9335   5.820   3.494   0.356
 2812SOL    HW2 9336   5.718   3.563   0.463
 2813SOL     OW 9337   6.384   0.399   6.017
 2813SOL    HW1 9338   6.366   0.466   5.945
 2813SOL    HW2 9339   6.456   0.336   5.986
 2814SOL     OW 9340   4.729   2.969   0.005
 2814SOL    HW1 9341   4.785   3.035   6.980
 2814SOL    HW2 9342   4.678   2.912   6.965
 2815SOL     OW 9343   0.013   1.588   5.461
 2815SOL    HW1 9344   6.977   1.667   5.450
 2815SOL    HW2 9345   0.049   1.560   5.372
 2816SOL     OW 9346   6.706   6.319   3.786
 2816SOL    HW1 9347   6.769   6.363   3.722
 2816SOL    HW2 9348   6.754   6.294   3.869
 2817SOL     OW 9349   2.146   0.318   1.186
 2817SOL    HW1 9350   2.077   0.326   1.258
 2817SOL    HW2 9351   2.205   0.398   1.187
 2818SOL     OW 9352   0.092   6.343   6.822
 2818SOL    HW1 9353   0.055   6.314   6.734
 2818SOL    HW2 9354   0.049   6.291   6.896
 2819SOL     OW 9355   0.248   1.343   1.378
 2819SOL    HW1 9356   0.191   1.398   1.438
 2819SOL    HW2 9357   0.333   1.319   1.425
 2820SOL     OW 9358   0.916   2.131   2.902
 2820SOL    HW1 9359   0.849   2.090   2.840
 2820SOL    HW2 9360   1.004   2.138   2.856
 2821SOL     OW 9361   4.020   3.750   0.118
 2821SOL    HW1 9362   4.022   3.774   0.021
 2821SOL    HW2 9363   3.926   3.758   0.153
 2822SOL     OW 9364   4.216   2.612   6.848
 2822SOL    HW1 9365   4.278   2.604   6.926
 2822SOL    HW2 9366   4.239   2.542   6.780
 2823SOL     OW 9367   3.184   6.899   0.667
 2823SOL    HW1 9368   3.255   6.831   0.687
 2823SOL    HW2 9369   3.226   6.983   0.634
 2824SOL     OW 9370   2.806   1.152   4.483
 2824SOL    HW1 9371   2.788   1.186   4.391
 2824SOL    HW2 9372   2.736   1.085   4.509
 2825SOL     OW 9373   6.825   0.755   6.918
 2825SOL    HW1 9374   6.742   0.783   6.870
 2825SOL    HW2 9375   6.852   0.663   6.887
 2826SOL     OW 9376   5.256   2.004   0.213
 2826SOL    HW1 9377   5.255   2.101   0.191
 2826SOL    HW2 9378   5.275   1.951   0.130
 2827SOL     OW 9379   5.710   0.900   5.076
 2827SOL    HW1 9380   5.757   0.827   5.127
 2827SOL    HW2 9381   5.728   0.988   5.121
 2828SOL     OW 9382   3.250   0.642   0.146
 2828SOL    HW1 9383   3.297   0.555   0.128
 2828SOL    HW2 9384   3.158   0.624   0.179
 2829SOL     OW 9385   3.501   3.785   5.941
 2829SOL    HW1 9386   3.561   3.842   5.885
 2829SOL    HW2 9387   3.407   3.792   5.906
 2830SOL     OW 9388   0.837   3.327   6.969
 2830SOL    HW1 9389   0.779   3.408   6.966
 2830SOL    HW2 9390   0.910   3.340   0.011
 2831SOL     OW 9391   0.311   5.831   3.858
 2831SOL    HW1 9392   0.344   5.898   3.925
 2831SOL    HW2 9393   0.352   5.741   3.878
 2832SOL     OW 9394   0.391   1.289   2.017
 2832SOL    HW1 9395   0.418   1.214   1.956
 2832SOL    HW2 9396   0.473   1.336   2.050
 2833SOL     OW 9397   4.951   2.334   2.412
 2833SOL    HW1 9398   5.037   2.322   2.364
 2833SOL    HW2 9399   4.876   2.296   2.357
 2834SOL     OW 9400   2.631   7.016   5.762
 2834SOL    HW1 9401   2.684   6.976   5.687
 2834SOL    HW2 9402   2.676   6.996   5.849
 2835SOL     OW 9403   6.974   0.628   2.035
 2835SOL    HW1 9404   6.918   0.566   2.091
 2835SOL    HW2 9405   0.023   0.666   2.091
 2836SOL     OW 9406   6.463   6.787   1.874
 2836SOL    HW1 9407   6.498   6.834   1.955
 2836SOL    HW2 9408   6.484   6.842   1.793
 2837SOL     OW 9409   5.942   3.503   3.311
 2837SOL    HW1 9410   5.968   3.562   3.388
 2837SOL    HW2 9411   6.023   3.480   3.258
 2838SOL     OW 9412   1.796   4.046   1.467
 2838SOL    HW1 9413   1.849   3.977   1.516
 2838SOL    HW2 9414   1.772   4.010   1.376
 2839SOL     OW 9415   5.928   1.240   2.092
 2839SOL    HW1 9416   5.918   1.306   2.017
 2839SOL    HW2 9417   5.863   1.264   2.165
 2840SOL     OW 9418   1.007   1.233   3.572
 2840SOL    HW1 9419   1.083   1.196   3.625
 2840SOL    HW2 9420   1.033   1.323   3.536
 2841SOL     OW 9421   6.953   0.815   5.541
 2841SOL    HW1 9422   6.918   0.758   5.615
 2841SOL    HW2 9423   6.932   0.911   5.559
 2842SOL     OW 9424   0.148   2.790   4.421
 2842SOL    HW1 9425   0.140   2.699   4.379
 2842SOL    HW2 9426   0.101   2.857   4.364
 2843SOL     OW 9427   2.813   1.791   3.502
 2843SOL    HW1 9428   2.761   1.773   3.419
 2843SOL    HW2 9429   2.771   1.867   3.552
 2844SOL     OW 9430   1.281   5.535   0.298
 2844SOL    HW1 9431   1.346   5.547   0.222
 2844SOL    HW2 9432   1.246   5.441   0.297
 2845SOL     OW 9433   0.720   2.688   1.136
 2845SOL    HW1 9434   0.812   2.726   1.152
 2845SOL    HW2 9435   0.723   2.589   1.148
 2846SOL     OW 9436   4.434   1.196   6.508
 2846SOL    HW1 9437   4.489   1.210   6.590
 2846SOL    HW2 9438   4.433   1.280   6.454
 2847SOL     OW 9439   5.016   3.153   3.110
 2847SOL    HW1 9440   5.003   3.078   3.175
 2847SOL    HW2 9441   4.943   3.152   3.042
 2848SOL     OW 9442   1.172   3.634   6.744
 2848SOL    HW1 9443   1.168   3.595   6.652
 2848SOL    HW2 9444   1.080   3.638   6.783
 2849SOL     OW 9445   4.055   6.773   1.550
 2849SOL    HW1 9446   4.038   6.807   1.458
 2849SOL    HW2 9447   4.005   6.687   1.564
 2850SOL     OW 9448   3.436   6.906   2.261
 2850SOL    HW1 9449   3.390   6.969   2.198
 2850SOL    HW2 9450   3.515   6.952   2.303
 2851SOL     OW 9451   0.179   3.338   5.865
 2851SOL    HW1 9452   0.105   3.405   5.855
 2851SOL    HW2 9453   0.144   3.257   5.910
 2852SOL     OW 9454   5.664   4.530   0.481
 2852SOL    HW1 9455   5.627   4.437   0.471
 2852SOL    HW2 9456   5.651   4.562   0.574
 2853SOL     OW 9457   2.386   2.450   0.436
 2853SOL    HW1 9458   2.442   2.527   0.407
 2853SOL    HW2 9459   2.370   2.389   0.358
 2854SOL     OW 9460   3.780   1.677   4.607
 2854SOL    HW1 9461   3.694   1.626   4.608
 2854SOL    HW2 9462   3.762   1.773   4.588
 2855SOL     OW 9463   2.513   0.950   5.833
 2855SOL    HW1 9464   2.561   0.988   5.912
 2855SOL    HW2 9465   2.579   0.934   5.759
 2856SOL     OW 9466   1.930   2.714   6.052
 2856SOL    HW1 9467   1.959   2.681   5.963
 2856SOL    HW2 9468   2.007   2.758   6.098
 2857SOL     OW 9469   3.483   1.881   2.008
 2857SOL    HW1 9470   3.456   1.857   2.101
 2857SOL    HW2 9471   3.453   1.974   1.987
 2858SOL     OW 9472   6.064   3.774   1.512
 2858SOL    HW1 9473   6.125   3.845   1.547
 2858SOL    HW2 9474   5.973   3.786   1.550
 2859SOL     OW 9475   5.174   1.778   0.361
 2859SOL    HW1 9476   5.195   1.798   0.265
 2859SOL    HW2 9477   5.259   1.766   0.412
 2860SOL     OW 9478   3.708   1.924   1.329
 2860SOL    HW1 9479   3.799   1.941   1.293
 2860SOL    HW2 9480   3.714   1.866   1.410
 2861SOL     OW 9481   4.492   4.949   6.173
 2861SOL    HW1 9482   4.525   4.855   6.185
 2861SOL    HW2 9483   4.423   4.950   6.100
 2862SOL     OW 9484   5.365   1.914   3.466
 2862SOL    HW1 9485   5.330   1.947   3.378
 2862SOL    HW2 9486   5.447   1.966   3.490
 2863SOL     OW 9487   5.243   1.432   6.960
 2863SOL    HW1 9488   5.171   1.480   7.010
 2863SOL    HW2 9489   5.319   1.494   6.942
 2864SOL     OW 9490   4.237   1.033   1.447
 2864SOL    HW1 9491   4.290   1.095   1.505
 2864SOL    HW2 9492   4.273   0.940   1.456
 2865SOL     OW 9493   5.468   4.607   5.591
 2865SOL    HW1 9494   5.448   4.623   5.688
 2865SOL    HW2 9495   5.389   4.564   5.547
 2866SOL     OW 9496   6.448   6.370   6.788
 2866SOL    HW1 9497   6.359   6.412   6.772
 2866SOL    HW2 9498   6.464   6.361   6.887
 2867SOL     OW 9499   5.905   3.854   2.241
 2867SOL    HW1 9500   5.855   3.808   2.314
 2867SOL    HW2 9501   5.851   3.930   2.206
 2868SOL     OW 9502   0.336   3.027   5.478
 2868SOL    HW1 9503   0.341   2.984   5.569
 2868SOL    HW2 9504   0.250   3.076   5.469
 2869SOL     OW 9505   5.772   1.150   3.838
 2869SOL    HW1 9506   5.715   1.226   3.807
 2869SOL    HW2 9507   5.771   1.078   3.769
 2870SOL     OW 9508   0.242   1.172   4.207
 2870SOL    HW1 9509   0.155   1.190   4.253
 2870SOL    HW2 9510   0.238   1.083   4.161
 2871SOL     OW 9511   1.234   1.630   0.112
 2871SOL    HW1 9512   1.169   1.697   0.077
 2871SOL    HW2 9513   1.246   1.644   0.210
 2872SOL     OW 9514   2.690   1.426   3.253
 2872SOL    HW1 9515   2.690   1.405   3.156
 2872SOL    HW2 9516   2.781   1.408   3.292
 2873SOL     OW 9517   0.408   4.865   2.811
 2873SOL    HW1 9518   0.402   4.772   2.847
 2873SOL    HW2 9519   0.504   4.887   2.792
 2874SOL     OW 9520   3.564   6.390   3.072
 2874SOL    HW1 9521   3.537   6.479   3.035
 2874SOL    HW2 9522   3.593   6.401   3.167
 2875SOL     OW 9523   4.821   6.321   0.238
 2875SOL    HW1 9524   4.724   6.303   0.218
 2875SOL    HW2 9525   4.827   6.396   0.304
 2876SOL     OW 9526   0.892   0.317   2.035
 2876SOL    HW1 9527   0.868   0.410   2.008
 2876SOL    HW2 9528   0.953   0.319   2.114
 2877SOL     OW 9529   3.859   2.998   5.114
 2877SOL    HW1 9530   3.774   2.970   5.160
 2877SOL    HW2 9531   3.899   3.076   5.163
 2878SOL     OW 9532   3.859   5.200   4.519
 2878SOL    HW1 9533   3.811   5.228   4.436
 2878SOL    HW2 9534   3.798   5.146   4.576
 2879SOL     OW 9535   5.270   4.792   0.863
 2879SOL    HW1 9536   5.245   4.705   0.905
 2879SOL    HW2 9537   5.191   4.854   0.865
 2880SOL     OW 9538   5.528   6.879   0.879
 2880SOL    HW1 9539   5.467   6.948   0.840
 2880SOL    HW2 9540   5.601   6.858   0.813
 2881SOL     OW 9541   5.818   6.523   1.104
 2881SOL    HW1 9542   5.898   6.463   1.097
 2881SOL    HW2 9543   5.821   6.592   1.032
 2882SOL     OW 9544   0.596   4.010   2.555
 2882SOL    HW1 9545   0.509   3.965   2.572
 2882SOL    HW2 9546   0.583   4.084   2.488
 2883SOL     OW 9547   5.388   5.940   4.158
 2883SOL    HW1 9548   5.298   5.898   4.145
 2883SOL    HW2 9549   5.458   5.868   4.160
 2884SOL     OW 9550   0.764   5.766   2.626
 2884SOL    HW1 9551   0.727   5.710   2.551
 2884SOL    HW2 9552   0.859   5.788   2.607
 2885SOL     OW 9553   0.510   3.400   2.060
 2885SOL    HW1 9554   0.523   3.493   2.094
 2885SOL    HW2 9555   0.527   3.335   2.134
 2886SOL     OW 9556   2.312   4.006   6.200
 2886SOL    HW1 9557   2.304   3.939   6.275
 2886SOL    HW2 9558   2.267   3.969   6.118
 2887SOL     OW 9559   1.234   0.048   4.681
 2887SOL    HW1 9560   1.268   0.006   4.597
 2887SOL    HW2 9561   1.144   0.010   4.703
 2888SOL     OW 9562   0.650   4.689   6.860
 2888SOL    HW1 9563   0.684   4.722   6.772
 2888SOL    HW2 9564   0.682   4.750   6.933
 2889SOL     OW 9565   1.865   0.226   2.503
 2889SOL    HW1 9566   1.777   0.179   2.509
 2889SOL    HW2 9567   1.898   0.246   2.595
 2890SOL     OW 9568   2.717   0.777   1.185
 2890SOL    HW1 9569   2.743   0.683   1.163
 2890SOL    HW2 9570   2.797   0.825   1.223
 2891SOL     OW 9571   2.362   4.338   4.172
 2891SOL    HW1 9572   2.291   4.330   4.102
 2891SOL    HW2 9573   2.426   4.411   4.147
 2892SOL     OW 9574   5.621   3.709   0.503
 2892SOL    HW1 9575   5.648   3.803   0.483
 2892SOL    HW2 9576   5.538   3.709   0.559
 2893SOL     OW 9577   0.454   6.529   4.893
 2893SOL    HW1 9578   0.493   6.522   4.985
 2893SOL    HW2 9579   0.369   6.582   4.896
 2894SOL     OW 9580   3.279   2.832   0.166
 2894SOL    HW1 9581   3.297   2.737   0.143
 2894SOL    HW2 9582   3.311   2.850   0.259
 2895SOL     OW 9583   3.896   2.973   6.561
 2895SOL    HW1 9584   3.880   3.071   6.572
 2895SOL    HW2 9585   3.943   2.956   6.474
 2896SOL     OW 9586   3.050   5.375   6.544
 2896SOL    HW1 9587   3.112   5.322   6.486
 2896SOL    HW2 9588   2.986   5.312   6.590
 2897SOL     OW 9589   3.014   5.897   3.065
 2897SOL    HW1 9590   3.043   5.869   2.973
 2897SOL    HW2 9591   3.095   5.903   3.124
 2898SOL     OW 9592   4.460   5.067   3.780
 2898SOL    HW1 9593   4.458   5.035   3.875
 2898SOL    HW2 9594   4.369   5.099   3.754
 2899SOL     OW 9595   0.385   2.091   0.331
 2899SOL    HW1 9596   0.323   2.019   0.298
 2899SOL    HW2 9597   0.335   2.177   0.338
 2900SOL     OW 9598   2.091   4.985   5.573
 2900SOL    HW1 9599   2.045   5.038   5.502
 2900SOL    HW2 9600   2.149   5.045   5.627
 2901SOL     OW 9601   1.835   0.281   3.355
 2901SOL    HW1 9602   1.792   0.360   3.309
 2901SOL    HW2 9603   1.765   0.213   3.376
 2902SOL     OW 9604   5.585   6.107   1.673
 2902SOL    HW1 9605   5.562   6.125   1.577
 2902SOL    HW2 9606   5.510   6.137   1.732
 2903SOL     OW 9607   2.751   0.502   1.144
 2903SOL    HW1 9608   2.807   0.477   1.065
 2903SOL    HW2 9609   2.708   0.420   1.182
 2904SOL     OW 9610   1.913   3.425   5.347
 2904SOL    HW1 9611   1.886   3.421   5.250
 2904SOL    HW2 9612   1.860   3.496   5.393
 2905SOL     OW 9613   1.562   2.701   3.556
 2905SOL    HW1 9614   1.539   2.753   3.474
 2905SOL    HW2 9615   1.601   2.763   3.624
 2906SOL     OW 9616   5.086   5.493   2.699
 2906SOL    HW1 9617   5.056   5.543   2.779
 2906SOL    HW2 9618   5.186   5.494   2.695
 2907SOL     OW 9619   0.487   1.149   4.061
 2907SOL    HW1 9620   0.415   1.170   4.127
 2907SOL    HW2 9621   0.523   1.058   4.079
 2908SOL     OW 9622   4.385   0.096   3.948
 2908SOL    HW1 9623   4.323   0.057   3.880
 2908SOL    HW2 9624   4.445   0.162   3.904
 2909SOL     OW 9625   0.669   5.906   3.632
 2909SOL    HW1 9626   0.664   5.858   3.545
 2909SOL    HW2 9627   0.577   5.919   3.669
 2910SOL     OW 9628   4.550   6.149   4.247
 2910SOL    HW1 9629   4.639   6.153   4.202
 2910SOL    HW2 9630   4.517   6.055   4.247
 2911SOL     OW 9631   1.863   5.370   3.258
 2911SOL    HW1 9632   1.826   5.450   3.305
 2911SOL    HW2 9633   1.843   5.288   3.311
 2912SOL     OW 9634   4.062   6.413   6.624
 2912SOL    HW1 9635   4.044   6.411   6.525
 2912SOL    HW2 9636   3.980   6.384   6.673
 2913SOL     OW 9637   2.110   5.251   2.097
 2913SOL    HW1 9638   2.082   5.197   2.177
 2913SOL    HW2 9639   2.209   5.267   2.101
 2914SOL     OW 9640   6.374   6.214   5.736
 2914SOL    HW1 9641   6.348   6.130   5.688
 2914SOL    HW2 9642   6.422   6.191   5.820
 2915SOL     OW 9643   5.289   1.673   5.143
 2915SOL    HW1 9644   5.207   1.726   5.121
 2915SOL    HW2 9645   5.263   1.577   5.158
 2916SOL     OW 9646   6.410   5.317   5.983
 2916SOL    HW1 9647   6.424   5.323   6.082
 2916SOL    HW2 9648   6.478   5.256   5.943
 2917SOL     OW 9649   4.276   0.166   2.022
 2917SOL    HW1 9650   4.272   0.264   2.001
 2917SOL    HW2 9651   4.371   0.136   2.023
 2918SOL     OW 9652   0.014   3.888   3.425
 2918SOL    HW1 9653   0.032   3.976   3.379
 2918SOL    HW2 9654   6.998   3.825   3.359
 2919SOL     OW 9655   6.479   1.078   0.507
 2919SOL    HW1 9656   6.465   1.089   0.408
 2919SOL    HW2 9657   6.534   0.996   0.524
 2920SOL     OW 9658   3.285   1.810   2.456
 2920SOL    HW1 9659   3.362   1.819   2.519
 2920SOL    HW2 9660   3.264   1.900   2.416
 2921SOL     OW 9661   0.797   0.220   3.187
 2921SOL    HW1 9662   0.703   0.187   3.194
 2921SOL    HW2 9663   0.825   0.219   3.091
 2922SOL     OW 9664   5.947   6.907   6.867
 2922SOL    HW1 9665   5.962   6.969   6.943
 2922SOL    HW2 9666   5.854   6.918   6.832
 2923SOL     OW 9667   0.215   4.610   1.814
 2923SOL    HW1 9668   0.270   4.583   1.735
 2923SOL    HW2 9669   0.147   4.539   1.833
 2924SOL     OW 9670   0.027   2.124   6.664
 2924SOL    HW1 9671   0.030   2.171   6.576
 2924SOL    HW2 9672   0.107   2.064   6.673
 2925SOL     OW 9673   5.121   0.617   3.342
 2925SOL    HW1 9674   5.197   0.682   3.333
 2925SOL    HW2 9675   5.152   0.526   3.316
 2926SOL     OW 9676   0.270   1.256   4.502
 2926SOL    HW1 9677   0.324   1.175   4.525
 2926SOL    HW2 9678   0.218   1.239   4.418
 2927SOL     OW 9679   1.419   1.617   2.332
 2927SOL    HW1 9680   1.501   1.598   2.278
 2927SOL    HW2 9681   1.361   1.536   2.334
 2928SOL     OW 9682   6.590   2.456   5.973
 2928SOL    HW1 9683   6.576   2.510   6.056
 2928SOL    HW2 9684   6.559   2.362   5.989
 2929SOL     OW 9685   0.706   1.250   5.946
 2929SOL    HW1 9686   0.630   1.194   5.912
 2929SOL    HW2 9687   0.694   1.267   6.043
 2930SOL     OW 9688   4.674   6.238   5.019
 2930SOL    HW1 9689   4.762   6.202   4.991
 2930SOL    HW2 9690   4.611   6.239   4.941
 2931SOL     OW 9691   5.666   6.096   0.054
 2931SOL    HW1 9692   5.731   6.022   0.038
 2931SOL    HW2 9693   5.641   6.098   0.151
 2932SOL     OW 9694   1.384   5.225   1.934
 2932SOL    HW1 9695   1.474   5.269   1.939
 2932SOL    HW2 9696   1.364   5.202   1.839
 2933SOL     OW 9697   6.189   3.162   3.310
 2933SOL    HW1 9698   6.286   3.186   3.316
 2933SOL    HW2 9699   6.146   3.213   3.236
 2934SOL     OW 9700   3.836   1.289   0.222
 2934SOL    HW1 9701   3.787   1.333   0.297
 2934SOL    HW2 9702   3.804   1.325   0.134
 2935SOL     OW 9703   6.597   3.395   1.486
 2935SOL    HW1 9704   6.564   3.390   1.581
 2935SOL    HW2 9705   6.569   3.312   1.437
 2936SOL     OW 9706   4.766   5.743   2.249
 2936SOL    HW1 9707   4.859   5.766   2.275
 2936SOL    HW2 9708   4.763   5.651   2.211
 2937SOL     OW 9709   3.997   4.873   0.503
 2937SOL    HW1 9710   3.942   4.819   0.439
 2937SOL    HW2 9711   3.982   4.970   0.487
 2938SOL     OW 9712   5.285   4.608   5.851
 2938SOL    HW1 9713   5.223   4.655   5.788
 2938SOL    HW2 9714   5.297   4.663   5.933
 2939SOL     OW 9715   0.674   0.164   4.568
 2939SOL    HW1 9716   0.727   0.220   4.505
 2939SOL    HW2 9717   0.601   0.118   4.519
 2940SOL     OW 9718   5.738   0.006   6.285
 2940SOL    HW1 9719   5.764   6.987   6.372
 2940SOL    HW2 9720   5.819   0.014   6.227
 2941SOL     OW 9721   2.074   2.029   4.826
 2941SOL    HW1 9722   2.126   2.046   4.742
 2941SOL    HW2 9723   2.118   1.958   4.880
 2942SOL     OW 9724   2.413   1.469   1.620
 2942SOL    HW1 9725   2.399   1.493   1.716
 2942SOL    HW2 9726   2.465   1.385   1.613
 2943SOL     OW 9727   5.810   3.732   2.709
 2943SOL    HW1 9728   5.834   3.636   2.724
 2943SOL    HW2 9729   5.806   3.751   2.611
 2944SOL     OW 9730   2.307   5.773   5.166
 2944SOL    HW1 9731   2.401   5.803   5.183
 2944SOL    HW2 9732   2.247   5.852   5.158
 2945SOL     OW 9733   4.047   3.835   3.882
 2945SOL    HW1 9734   4.106   3.821   3.961
 2945SOL    HW2 9735   4.061   3.761   3.816
 2946SOL     OW 9736   0.333   5.376   6.888
 2946SOL    HW1 9737   0.275   5.447   6.849
 2946SOL    HW2 9738   0.418   5.370   6.835
 2947SOL     OW 9739   0.807   4.502   0.036
 2947SOL    HW1 9740   0.790   4.460   6.971
 2947SOL    HW2 9741   0.723   4.544   0.070
 2948SOL     OW 9742   0.298   4.702   5.379
 2948SOL    HW1 9743   0.353   4.726   5.300
 2948SOL    HW2 9744   0.257   4.784   5.418
 2949SOL     OW 9745   1.995   6.484   1.397
 2949SOL    HW1 9746   1.945   6.570   1.407
 2949SOL    HW2 9747   2.009   6.465   1.299
 2950SOL     OW 9748   4.902   3.804   4.468
 2950SOL    HW1 9749   4.850   3.886   4.446
 2950SOL    HW2 9750   4.912   3.797   4.567
 2951SOL     OW 9751   6.809   2.514   1.051
 2951SOL    HW1 9752   6.864   2.457   0.990
 2951SOL    HW2 9753   6.777   2.458   1.128
 2952SOL     OW 9754   0.880   5.886   4.707
 2952SOL    HW1 9755   0.859   5.904   4.803
 2952SOL    HW2 9756   0.910   5.791   4.697
 2953SOL     OW 9757   4.704   2.813   2.885
 2953SOL    HW1 9758   4.707   2.782   2.980
 2953SOL    HW2 9759   4.762   2.894   2.875
 2954SOL     OW 9760   1.034   5.380   1.921
 2954SOL    HW1 9761   1.105   5.450   1.911
 2954SOL    HW2 9762   1.019   5.335   1.832
 2955SOL     OW 9763   1.209   3.892   0.724
 2955SOL    HW1 9764   1.119   3.926   0.696
 2955SOL    HW2 9765   1.251   3.958   0.787
 2956SOL     OW 9766   6.097   6.117   3.418
 2956SOL    HW1 9767   6.161   6.063   3.363
 2956SOL    HW2 9768   6.021   6.058   3.447
 2957SOL     OW 9769   6.875   3.437   1.449
 2957SOL    HW1 9770   6.780   3.430   1.480
 2957SOL    HW2 9771   6.933   3.376   1.504
 2958SOL     OW 9772   2.621   4.713   4.865
 2958SOL    HW1 9773   2.561   4.634   4.857
 2958SOL    HW2 9774   2.710   4.684   4.898
 2959SOL     OW 9775   4.443   3.936   0.574
 2959SOL    HW1 9776   4.505   3.924   0.652
 2959SOL    HW2 9777   4.458   4.027   0.534
 2960SOL     OW 9778   2.997   0.396   6.893
 2960SOL    HW1 9779   2.999   0.365   6.989
 2960SOL    HW2 9780   3.033   0.489   6.887
 2961SOL     OW 9781   5.463   2.795   4.965
 2961SOL    HW1 9782   5.390   2.863   4.962
 2961SOL    HW2 9783   5.479   2.760   4.872
 2962SOL     OW 9784   4.261   1.193   3.930
 2962SOL    HW1 9785   4.329   1.138   3.978
 2962SOL    HW2 9786   4.288   1.289   3.933
 2963SOL     OW 9787   1.871   1.087   5.741
 2963SOL    HW1 9788   1.894   1.184   5.749
 2963SOL    HW2 9789   1.952   1.031   5.760
 2964SOL     OW 9790   0.451   0.142   2.168
 2964SOL    HW1 9791   0.525   0.101   2.221
 2964SOL    HW2 9792   0.477   0.234   2.140
 2965SOL     OW 9793   6.904   1.064   4.786
 2965SOL    HW1 9794   6.835   1.134   4.802
 2965SOL    HW2 9795   6.891   0.988   4.850
 2966SOL     OW 9796   5.904   4.898   4.315
 2966SOL    HW1 9797   5.833   4.858   4.373
 2966SOL    HW2 9798   5.881   4.993   4.294
 2967SOL     OW 9799   5.933   2.253   4.534
 2967SOL    HW1 9800   5.890   2.184   4.592
 2967SOL    HW2 9801   5.872   2.276   4.458
 2968SOL     OW 9802   1.089   4.109   5.943
 2968SOL    HW1 9803   1.064   4.194   5.896
 2968SOL    HW2 9804   1.154   4.128   6.016
 2969SOL     OW 9805   5.938   1.026   4.297
 2969SOL    HW1 9806   6.024   1.065   4.262
 2969SOL    HW2 9807   5.940   0.926   4.287
 2970SOL     OW 9808   1.055   3.817   6.536
 2970SOL    HW1 9809   1.076   3.737   6.480
 2970SOL    HW2 9810   1.099   3.809   6.625
 2971SOL     OW 9811   5.169   2.917   5.792
 2971SOL    HW1 9812   5.099   2.882   5.729
 2971SOL    HW2 9813   5.172   2.859   5.874
 2972SOL     OW 9814   6.384   5.055   6.289
 2972SOL    HW1 9815   6.433   5.141   6.272
 2972SOL    HW2 9816   6.449   4.980   6.293
 2973SOL     OW 9817   5.448   1.177   4.446
 2973SOL    HW1 9818   5.433   1.169   4.545
 2973SOL    HW2 9819   5.533   1.130   4.422
 2974SOL     OW 9820   0.780   3.672   2.793
 2974SOL    HW1 9821   0.708   3.664   2.725
 2974SOL    HW2 9822   0.852   3.733   2.759
 2975SOL     OW 9823   0.727   2.652   4.946
 2975SOL    HW1 9824   0.702   2.584   5.015
 2975SOL    HW2 9825   0.739   2.606   4.858
 2976SOL     OW 9826   4.113   1.374   2.899
 2976SOL    HW1 9827   4.188   1.351   2.837
 2976SOL    HW2 9828   4.026   1.367   2.850
 2977SOL     OW 9829   1.717   6.898   4.394
 2977SOL    HW1 9830   1.809   6.860   4.386
 2977SOL    HW2 9831   1.649   6.828   4.372
 2978SOL     OW 9832   3.991   5.249   6.580
 2978SOL    HW1 9833   4.039   5.316   6.636
 2978SOL    HW2 9834   4.010   5.157   6.615
 2979SOL     OW 9835   5.116   6.700   4.217
 2979SOL    HW1 9836   5.211   6.728   4.231
 2979SOL    HW2 9837   5.103   6.673   4.121
 2980SOL     OW 9838   1.426   6.126   3.670
 2980SOL    HW1 9839   1.425   6.145   3.768
 2980SOL    HW2 9840   1.387   6.036   3.653
 2981SOL     OW 9841   0.891   0.784   5.701
 2981SOL    HW1 9842   0.816   0.745   5.648
 2981SOL    HW2 9843   0.946   0.711   5.740
 2982SOL     OW 9844   4.940   6.258   3.180
 2982SOL    HW1 9845   4.865   6.201   3.147
 2982SOL    HW2 9846   4.938   6.346   3.133
 2983SOL     OW 9847   0.823   1.674   4.262
 2983SOL    HW1 9848   0.759   1.745   4.234
 2983SOL    HW2 9849   0.881   1.649   4.185
 2984SOL     OW 9850   4.828   5.814   1.794
 2984SOL    HW1 9851   4.850   5.717   1.800
 2984SOL    HW2 9852   4.900   5.868   1.838
 2985SOL     OW 9853   0.906   2.829   5.066
 2985SOL    HW1 9854   0.851   2.752   5.032
 2985SOL    HW2 9855   0.976   2.853   4.999
 2986SOL     OW 9856   2.291   3.787   6.392
 2986SOL    HW1 9857   2.307   3.691   6.416
 2986SOL    HW2 9858   2.361   3.844   6.435
 2987SOL     OW 9859   4.885   0.581   3.790
 2987SOL    HW1 9860   4.909   0.539   3.878
 2987SOL    HW2 9861   4.948   0.549   3.720
 2988SOL     OW 9862   0.776   0.017   2.836
 2988SOL    HW1 9863   0.832   7.000   2.765
 2988SOL    HW2 9864   0.797   7.000   2.924
 2989SOL     OW 9865   6.430   6.146   0.364
 2989SOL    HW1 9866   6.521   6.154   0.323
 2989SOL    HW2 9867   6.397   6.237   0.390
 2990SOL     OW 9868   4.539   1.380   3.415
 2990SOL    HW1 9869   4.520   1.283   3.430
 2990SOL    HW2 9870   4.515   1.404   3.321
 2991SOL     OW 9871   6.690   4.284   0.069
 2991SOL    HW1 9872   6.650   4.227   0.141
 2991SOL    HW2 9873   6.779   4.319   0.101
 2992SOL     OW 9874   2.347   5.119   6.028
 2992SOL    HW1 9875   2.337   5.019   6.020
 2992SOL    HW2 9876   2.299   5.151   6.109
 2993SOL     OW 9877   0.973   5.070   1.808
 2993SOL    HW1 9878   1.017   5.139   1.752
 2993SOL    HW2 9879   0.875   5.091   1.817
 2994SOL     OW 9880   4.241   0.201   0.792
 2994SOL    HW1 9881   4.240   0.238   0.885
 2994SOL    HW2 9882   4.293   0.262   0.732
 2995SOL     OW 9883   1.538   3.572   6.857
 2995SOL    HW1 9884   1.472   3.514   6.906
 2995SOL    HW2 9885   1.522   3.668   6.881
 2996SOL     OW 9886   2.446   6.077   3.346
 2996SOL    HW1 9887   2.395   6.160   3.320
 2996SOL    HW2 9888   2.386   6.017   3.398
 2997SOL     OW 9889   4.997   0.122   1.834
 2997SOL    HW1 9890   4.900   0.098   1.827
 2997SOL    HW2 9891   5.010   0.216   1.804
 2998SOL     OW 9892   5.685   6.508   4.982
 2998SOL    HW1 9893   5.651   6.579   5.044
 2998SOL    HW2 9894   5.663   6.418   5.019
 2999SOL     OW 9895   3.031   5.080   3.699
 2999SOL    HW1 9896   3.089   5.137   3.642
 2999SOL    HW2 9897   3.049   4.983   3.678
 3000SOL     OW 9898   1.898   3.956   0.054
 3000SOL    HW1 9899   1.951   3.880   0.093
 3000SOL    HW2 9900   1.822   3.979   0.114
 3001SOL     OW 9901   5.410   6.785   6.483
 3001SOL    HW1 9902   5.477   6.858   6.471
 3001SOL    HW2 9903   5.447   6.700   6.446
 3002SOL     OW 9904   4.614   0.242   5.988
 3002SOL    HW1 9905   4.665   0.171   5.939
 3002SOL    HW2 9906   4.666   0.328   5.985
 3003SOL     OW 9907   2.643   0.070   6.396
 3003SOL    HW1 9908   2.655   6.998   6.373
 3003SOL    HW2 9909   2.567   0.079   6.461
 3004SOL     OW 9910   0.765   5.184   3.653
 3004SOL    HW1 9911   0.672   5.184   3.690
 3004SOL    HW2 9912   0.830   5.193   3.728
 3005SOL     OW 9913   3.297   2.582   0.033
 3005SOL    HW1 9914   3.231   2.591   6.982
 3005SOL    HW2 9915   3.323   2.486   0.043
 3006SOL     OW 9916   5.916   2.017   6.700
 3006SOL    HW1 9917   5.867   1.933   6.673
 3006SOL    HW2 9918   5.989   2.035   6.634
 3007SOL     OW 9919   6.294   5.045   2.136
 3007SOL    HW1 9920   6.337   5.109   2.200
 3007SOL    HW2 9921   6.314   4.951   2.163
 3008SOL     OW 9922   3.226   0.556   6.464
 3008SOL    HW1 9923   3.164   0.482   6.490
 3008SOL    HW2 9924   3.302   0.560   6.528
 3009SOL     OW 9925   0.160   6.095   2.651
 3009SOL    HW1 9926   0.188   6.178   2.698
 3009SOL    HW2 9927   0.095   6.118   2.578
 3010SOL     OW 9928   3.541   6.552   3.302
 3010SOL    HW1 9929   3.468   6.617   3.322
 3010SOL    HW2 9930   3.591   6.531   3.386
 3011SOL     OW 9931   5.749   1.583   0.327
 3011SOL    HW1 9932   5.703   1.552   0.410
 3011SOL    HW2 9933   5.839   1.619   0.350
 3012SOL     OW 9934   1.293   3.528   5.270
 3012SOL    HW1 9935   1.219   3.466   5.298
 3012SOL    HW2 9936   1.334   3.570   5.351
 3013SOL     OW 9937   5.552   5.556   4.631
 3013SOL    HW1 9938   5.640   5.561   4.679
 3013SOL    HW2 9939   5.527   5.460   4.617
 3014SOL     OW 9940   5.008   2.906   4.304
 3014SOL    HW1 9941   4.996   2.991   4.355
 3014SOL    HW2 9942   5.099   2.869   4.324
 3015SOL     OW 9943   3.115   2.389   0.199
 3015SOL    HW1 9944   3.051   2.439   0.140
 3015SOL    HW2 9945   3.208   2.399   0.162
 3016SOL     OW 9946   2.773   6.128   3.718
 3016SOL    HW1 9947   2.810   6.213   3.754
 3016SOL    HW2 9948   2.740   6.143   3.625
 3017SOL     OW 9949   0.678   5.081   1.891
 3017SOL    HW1 9950   0.653   5.100   1.986
 3017SOL    HW2 9951   0.613   5.016   1.852
 3018SOL     OW 9952   3.091   6.782   4.934
 3018SOL    HW1 9953   3.169   6.726   4.905
 3018SOL    HW2 9954   3.006   6.736   4.908
 3019SOL     OW 9955   1.981   0.014   0.891
 3019SOL    HW1 9956   2.052   0.080   0.914
 3019SOL    HW2 9957   2.021   6.964   0.838
 3020SOL     OW 9958   3.762   4.340   1.718
 3020SOL    HW1 9959   3.857   4.335   1.688
 3020SOL    HW2 9960   3.737   4.435   1.731
 3021SOL     OW 9961   2.995   1.085   6.675
 3021SOL    HW1 9962   2.959   1.170   6.715
 3021SOL    HW2 9963   3.094   1.094   6.662
 3022SOL     OW 9964   3.749   5.738   3.426
 3022SOL    HW1 9965   3.771   5.703   3.517
 3022SOL    HW2 9966   3.695   5.822   3.435
 3023SOL     OW 9967   4.564   6.555   2.464
 3023SOL    HW1 9968   4.500   6.621   2.504
 3023SOL    HW2 9969   4.539   6.539   2.368
 3024SOL     OW 9970   4.487   6.906   5.877
 3024SOL    HW1 9971   4.451   6.999   5.875
 3024SOL    HW2 9972   4.434   6.848   5.816
 3025SOL     OW 9973   3.662   1.919   0.275
 3025SOL    HW1 9974   3.648   1.839   0.333
 3025SOL    HW2 9975   3.670   1.890   0.180
 3026SOL     OW 9976   2.109   2.085   0.135
 3026SOL    HW1 9977   2.164   2.070   0.217
 3026SOL    HW2 9978   2.029   2.025   0.137
 3027SOL     OW 9979   4.441   0.800   2.104
 3027SOL    HW1 9980   4.424   0.866   2.177
 3027SOL    HW2 9981   4.479   0.716   2.144
 3028SOL     OW 9982   1.703   3.626   5.985
 3028SOL    HW1 9983   1.787   3.572   5.988
 3028SOL    HW2 9984   1.725   3.721   6.005
 3029SOL     OW 9985   0.287   5.201   5.282
 3029SOL    HW1 9986   0.357   5.141   5.321
 3029SOL    HW2 9987   0.281   5.285   5.336
 3030SOL     OW 9988   0.721   2.404   6.316
 3030SOL    HW1 9989   0.659   2.408   6.238
 3030SOL    HW2 9990   0.816   2.409   6.283
 3031SOL     OW 9991   0.155   3.480   0.764
 3031SOL    HW1 9992   0.060   3.449   0.762
 3031SOL    HW2 9993   0.206   3.436   0.690
 3032SOL     OW 9994   4.384   6.636   1.058
 3032SOL    HW1 9995   4.400   6.731   1.031
 3032SOL    HW2 9996   4.336   6.633   1.146
 3033SOL     OW 9997   0.790   2.585   1.486
 3033SOL    HW1 9998   0.874   2.635   1.506
 3033SOL    HW2 9999   0.787   2.560   1.390
 3034SOL     OW10000   1.787   5.268   3.015
 3034SOL    HW110001   1.694   5.286   2.982
 3034SOL    HW210002   1.792   5.294   3.112
 3035SOL     OW10003   6.448   3.146   0.311
 3035SOL    HW110004   6.496   3.131   0.397
 3035SOL    HW210005   6.394   3.230   0.316
 3036SOL     OW10006   1.510   3.192   6.370
 3036SOL    HW110007   1.580   3.176   6.440
 3036SOL    HW210008   1.553   3.200   6.280
 3037SOL     OW10009   6.677   5.469   4.102
 3037SOL    HW110010   6.675   5.566   4.080
 3037SOL    HW210011   6.665   5.415   4.019
 3038SOL     OW10012   5.917   6.722   6.488
 3038SOL    HW110013   5.819   6.723   6.472
 3038SOL    HW210014   5.965   6.761   6.409
 3039SOL     OW10015   6.610   4.032   2.256
 3039SOL    HW110016   6.621   4.129   2.235
 3039SOL    HW210017   6.543   3.992   2.193
 3040SOL     OW10018   4.973   3.443   6.235
 3040SOL    HW110019   4.911   3.387   6.291
 3040SOL    HW210020   5.055   3.464   6.288
 3041SOL     OW10021   2.037   2.749   5.361
 3041SOL    HW110022   2.069   2.786   5.449
 3041SOL    HW210023   2.103   2.681   5.328
 3042SOL     OW10024   5.798   6.679   1.773
 3042SOL    HW110025   5.816   6.700   1.869
 3042SOL    HW210026   5.704   6.703   1.750
 3043SOL     OW10027   0.776   4.999   0.976
 3043SOL    HW110028   0.814   5.073   0.921
 3043SOL    HW210029   0.709   4.947   0.922
 3044SOL     OW10030   3.042   4.979   6.155
 3044SOL    HW110031   2.969   5.014   6.214
 3044SOL    HW210032   3.035   5.021   6.065
 3045SOL     OW10033   4.843   0.658   3.194
 3045SOL    HW110034   4.866   0.655   3.291
 3045SOL    HW210035   4.744   0.653   3.182
 3046SOL     OW10036   2.818   1.779   6.568
 3046SOL    HW110037   2.739   1.802   6.623
 3046SOL    HW210038   2.802   1.807   6.473
 3047SOL     OW10039   5.390   6.825   2.547
 3047SOL    HW110040   5.451   6.765   2.599
 3047SOL    HW210041   5.381   6.912   2.594
 3048SOL     OW10042   3.978   2.990   1.920
 3048SOL    HW110043   3.904   3.052   1.893
 3048SOL    HW210044   4.053   2.997   1.854
 3049SOL     OW10045   1.505   6.118   1.607
 3049SOL    HW110046   1.460   6.091   1.692
 3049SOL    HW210047   1.575   6.050   1.583
 3050SOL     OW10048   3.356   1.069   3.139
 3050SOL    HW110049   3.429   1.138   3.135
 3050SOL    HW210050   3.337   1.047   3.234
 3051SOL     OW10051   2.370   3.695   0.319
 3051SOL    HW110052   2.385   3.787   0.357
 3051SOL    HW210053   2.428   3.683   0.238
 3052SOL     OW10054   4.115   0.751   2.548
 3052SOL    HW110055   4.099   0.846   2.521
 3052SOL    HW210056   4.063   0.690   2.488
 3053SOL     OW10057   6.918   0.990   6.792
 3053SOL    HW110058   6.943   0.920   6.859
 3053SOL    HW210059   6.829   0.967   6.752
 3054SOL     OW10060   0.391   2.670   1.260
 3054SOL    HW110061   0.295   2.681   1.283
 3054SOL    HW210062   0.447   2.726   1.320
 3055SOL     OW10063   4.686   6.938   3.915
 3055SOL    HW110064   4.649   6.984   3.995
 3055SOL    HW210065   4.780   6.969   3.899
 3056SOL     OW10066   6.743   1.153   6.215
 3056SOL    HW110067   6.748   1.136   6.314
 3056SOL    HW210068   6.805   1.228   6.191
 3057SOL     OW10069   4.058   5.712   3.403
 3057SOL    HW110070   3.960   5.703   3.419
 3057SOL    HW210071   4.082   5.669   3.316
 3058SOL     OW10072   0.038   5.477   1.019
 3058SOL    HW110073   0.109   5.440   1.078
 3058SOL    HW210074   0.076   5.549   0.961
 3059SOL     OW10075   2.230   2.250   4.659
 3059SOL    HW110076   2.216   2.274   4.755
 3059SOL    HW210077   2.313   2.194   4.650
 3060SOL     OW10078   0.674   6.456   0.519
 3060SOL    HW110079   0.700   6.425   0.428
 3060SOL    HW210080   0.574   6.457   0.527
 3061SOL     OW10081   6.183   1.150   4.978
 3061SOL    HW110082   6.159   1.131   4.883
 3061SOL    HW210083   6.282   1.139   4.990
 3062SOL     OW10084   1.274   6.673   6.828
 3062SOL    HW110085   1.363   6.649   6.789
 3062SOL    HW210086   1.248   6.603   6.895
 3063SOL     OW10087   2.736   5.437   1.258
 3063SOL    HW110088   2.748   5.379   1.339
 3063SOL    HW210089   2.802   5.410   1.188
 3064SOL     OW10090   5.513   3.497   3.891
 3064SOL    HW110091   5.441   3.552   3.932
 3064SOL    HW210092   5.484   3.401   3.886
 3065SOL     OW10093   2.190   1.087   6.752
 3065SOL    HW110094   2.248   1.142   6.812
 3065SOL    HW210095   2.246   1.036   6.688
 3066SOL     OW10096   5.000   4.909   0.910
 3066SOL    HW110097   4.921   4.899   0.850
 3066SOL    HW210098   5.035   5.002   0.905
 3067SOL     OW10099   4.039   2.233   4.372
 3067SOL    HW110100   3.986   2.307   4.331
 3067SOL    HW210101   4.016   2.227   4.470
 3068SOL     OW10102   5.391   5.672   0.847
 3068SOL    HW110103   5.385   5.674   0.946
 3068SOL    HW210104   5.404   5.764   0.812
 3069SOL     OW10105   6.703   6.204   1.900
 3069SOL    HW110106   6.683   6.130   1.836
 3069SOL    HW210107   6.790   6.247   1.875
 3070SOL     OW10108   1.633   0.996   2.380
 3070SOL    HW110109   1.577   1.045   2.314
 3070SOL    HW210110   1.702   0.942   2.332
 3071SOL     OW10111   5.664   6.210   3.563
 3071SOL    HW110112   5.636   6.305   3.548
 3071SOL    HW210113   5.752   6.208   3.610
 3072SOL     OW10114   0.756   6.363   0.943
 3072SOL    HW110115   0.761   6.313   0.856
 3072SOL    HW210116   0.690   6.437   0.935
 3073SOL     OW10117   1.109   3.339   5.308
 3073SOL    HW110118   1.019   3.381   5.311
 3073SOL    HW210119   1.103   3.243   5.338
 3074SOL     OW10120   5.836   2.545   1.196
 3074SOL    HW110121   5.897   2.509   1.266
 3074SOL    HW210122   5.844   2.645   1.192
 3075SOL     OW10123   1.941   6.941   1.537
 3075SOL    HW110124   2.040   6.928   1.537
 3075SOL    HW210125   1.913   6.976   1.626
 3076SOL     OW10126   6.733   1.555   4.600
 3076SOL    HW110127   6.664   1.604   4.546
 3076SOL    HW210128   6.799   1.619   4.637
 3077SOL     OW10129   5.209   5.404   2.439
 3077SOL    HW110130   5.170   5.446   2.520
 3077SOL    HW210131   5.307   5.424   2.435
 3078SOL     OW10132   1.462   3.272   1.099
 3078SOL    HW110133   1.451   3.314   1.009
 3078SOL    HW210134   1.496   3.178   1.088
 3079SOL     OW10135   2.502   1.989   4.064
 3079SOL    HW110136   2.562   1.986   4.145
 3079SOL    HW210137   2.455   1.901   4.055
 3080SOL     OW10138   5.371   4.542   2.808
 3080SOL    HW110139   5.295   4.477   2.813
 3080SOL    HW210140   5.457   4.495   2.830
 3081SOL     OW10141   0.366   3.500   6.210
 3081SOL    HW110142   0.268   3.482   6.202
 3081SOL    HW210143   0.405   3.514   6.119
 3082SOL     OW10144   3.351   6.711   3.477
 3082SOL    HW110145   3.440   6.736   3.515
 3082SOL    HW210146   3.288   6.789   3.483
 3083SOL     OW10147   4.133   6.396   3.609
 3083SOL    HW110148   4.153   6.303   3.577
 3083SOL    HW210149   4.038   6.401   3.639
 3084SOL     OW10150   4.695   4.268   4.634
 3084SOL    HW110151   4.793   4.278   4.652
 3084SOL    HW210152   4.644   4.284   4.719
 3085SOL     OW10153   0.663   4.796   2.161
 3085SOL    HW110154   0.683   4.738   2.240
 3085SOL    HW210155   0.748   4.838   2.129
 3086SOL     OW10156   4.352   1.588   1.947
 3086SOL    HW110157   4.293   1.605   2.026
 3086SOL    HW210158   4.309   1.621   1.864
 3087SOL     OW10159   0.906   5.014   4.094
 3087SOL    HW110160   0.809   5.001   4.110
 3087SOL    HW210161   0.940   4.945   4.030
 3088SOL     OW10162   2.283   4.844   6.016
 3088SOL    HW110163   2.268   4.793   5.932
 3088SOL    HW210164   2.274   4.783   6.095
 3089SOL     OW10165   0.646   3.019   0.618
 3089SOL    HW110166   0.742   3.048   0.611
 3089SOL    HW210167   0.642   2.927   0.656
 3090SOL     OW10168   1.966   2.239   2.162
 3090SOL    HW110169   1.950   2.308   2.091
 3090SOL    HW210170   1.878   2.203   2.192
 3091SOL     OW10171   2.210   6.352   0.178
 3091SOL    HW110172   2.276   6.320   0.110
 3091SOL    HW210173   2.173   6.441   0.150
 3092SOL     OW10174   4.889   0.081   0.090
 3092SOL    HW110175   4.939   0.164   0.067
 3092SOL    HW210176   4.796   0.106   0.118
 3093SOL     OW10177   5.314   5.272   5.885
 3093SOL    HW110178   5.354   5.282   5.976
 3093SOL    HW210179   5.386   5.261   5.817
 3094SOL     OW10180   3.234   6.614   4.151
 3094SOL    HW110181   3.219   6.518   4.175
 3094SOL    HW210182   3.283   6.659   4.225
 3095SOL     OW10183   2.779   5.430   4.360
 3095SOL    HW110184   2.810   5.404   4.451
 3095SOL    HW210185   2.778   5.350   4.300
 3096SOL     OW10186   0.770   0.471   4.388
 3096SOL    HW110187   0.819   0.384   4.377
 3096SOL    HW210188   0.831   0.547   4.365
 3097SOL     OW10189   0.558   2.425   1.290
 3097SOL    HW110190   0.500   2.344   1.294
 3097SOL    HW210191   0.500   2.507   1.287
 3098SOL     OW10192   2.620   3.735   0.956
 3098SOL    HW110193   2.719   3.726   0.966
 3098SOL    HW210194   2.583   3.788   1.033
 3099SOL     OW10195   0.038   5.693   4.864
 3099SOL    HW110196   0.049   5.608   4.916
 3099SOL    HW210197   0.049   5.771   4.926
 3100SOL     OW10198   6.475   0.109   4.776
 3100SOL    HW110199   6.540   0.062   4.717
 3100SOL    HW210200   6.440   0.044   4.845
 3101SOL     OW10201   5.354   6.049   5.661
 3101SOL    HW110202   5.264   6.079   5.629
 3101SOL    HW210203   5.360   5.950   5.656
 3102SOL     OW10204   0.457   4.985   3.097
 3102SOL    HW110205   0.492   5.079   3.094
 3102SOL    HW210206   0.470   4.941   3.008
 3103SOL     OW10207   3.500   1.489   1.463
 3103SOL    HW110208   3.447   1.568   1.433
 3103SOL    HW210209   3.477   1.468   1.558
 3104SOL     OW10210   5.859   6.833   4.967
 3104SOL    HW110211   5.927   6.759   4.966
 3104SOL    HW210212   5.855   6.875   4.876
 3105SOL     OW10213   6.654   4.299   2.261
 3105SOL    HW110214   6.616   4.356   2.188
 3105SOL    HW210215   6.589   4.294   2.337
 3106SOL     OW10216   6.445   1.022   3.066
 3106SOL    HW110217   6.401   0.965   3.135
 3106SOL    HW210218   6.530   1.059   3.101
 3107SOL     OW10219   4.091   0.847   3.742
 3107SOL    HW110220   4.153   0.796   3.683
 3107SOL    HW210221   3.998   0.812   3.731
 3108SOL     OW10222   1.627   0.421   4.436
 3108SOL    HW110223   1.654   0.334   4.396
 3108SOL    HW210224   1.599   0.484   4.363
 3109SOL     OW10225   5.328   5.813   2.686
 3109SOL    HW110226   5.393   5.864   2.742
 3109SOL    HW210227   5.363   5.720   2.672
 3110SOL     OW10228   0.839   1.726   3.598
 3110SOL    HW110229   0.934   1.716   3.569
 3110SOL    HW210230   0.823   1.670   3.680
 3111SOL     OW10231   6.506   5.580   3.741
 3111SOL    HW110232   6.495   5.558   3.838
 3111SOL    HW210233   6.536   5.675   3.732
 3112SOL     OW10234   4.992   2.679   6.516
 3112SOL    HW110235   4.953   2.710   6.603
 3112SOL    HW210236   4.988   2.580   6.510
 3113SOL     OW10237   2.090   6.794   4.848
 3113SOL    HW110238   2.101   6.888   4.815
 3113SOL    HW210239   1.998   6.762   4.827
 3114SOL     OW10240   4.631   3.247   6.910
 3114SOL    HW110241   4.570   3.178   6.948
 3114SOL    HW210242   4.726   3.216   6.916
 3115SOL     OW10243   4.680   3.494   7.001
 3115SOL    HW110244   4.703   3.485   0.073
 3115SOL    HW210245   4.666   3.403   6.961
 3116SOL     OW10246   6.893   3.878   0.028
 3116SOL    HW110247   6.873   3.957   6.994
 3116SOL    HW210248   6.809   3.827   0.045
 3117SOL     OW10249   4.532   3.618   5.361
 3117SOL    HW110250   4.527   3.536   5.418
 3117SOL    HW210251   4.580   3.598   5.276
 3118SOL     OW10252   0.178   4.798   0.084
 3118SOL    HW110253   0.083   4.793   0.053
 3118SOL    HW210254   0.233   4.847   0.016
 3119SOL     OW10255   1.714   3.567   5.488
 3119SOL    HW110256   1.633   3.510   5.500
 3119SOL    HW210257   1.687   3.654   5.447
 3120SOL     OW10258   2.369   6.677   3.976
 3120SOL    HW110259   2.429   6.736   4.030
 3120SOL    HW210260   2.285   6.661   4.028
 3121SOL     OW10261   0.652   1.762   2.479
 3121SOL    HW110262   0.652   1.685   2.543
 3121SOL    HW210263   0.734   1.757   2.422
 3122SOL     OW10264   2.440   5.944   6.082
 3122SOL    HW110265   2.378   5.938   6.159
 3122SOL    HW210266   2.524   5.990   6.111
 3123SOL     OW10267   3.443   6.985   3.927
 3123SOL    HW110268   3.506   6.912   3.900
 3123SOL    HW210269   3.350   6.948   3.936
 3124SOL     OW10270   4.231   6.937   4.369
 3124SOL    HW110271   4.134   6.956   4.359
 3124SOL    HW210272   4.275   6.940   4.279
 3125SOL     OW10273   6.317   2.092   5.692
 3125SOL    HW110274   6.332   2.070   5.595
 3125SOL    HW210275   6.220   2.106   5.708
 3126SOL     OW10276   4.896   4.737   6.521
 3126SOL    HW110277   4.994   4.726   6.537
 3126SOL    HW210278   4.874   4.703   6.430
 3127SOL     OW10279   1.229   2.566   3.192
 3127SOL    HW110280   1.275   2.649   3.223
 3127SOL    HW210281   1.278   2.527   3.114
 3128SOL     OW10282   2.481   0.080   6.630
 3128SOL    HW110283   2.532   0.166   6.629
 3128SOL    HW210284   2.383   0.100   6.636
 3129SOL     OW10285   1.597   4.379   6.383
 3129SOL    HW110286   1.625   4.440   6.457
 3129SOL    HW210287   1.619   4.285   6.409
 3130SOL     OW10288   1.940   4.387   1.716
 3130SOL    HW110289   1.954   4.455   1.645
 3130SOL    HW210290   2.003   4.310   1.702
 3131SOL     OW10291   0.592   2.402   1.583
 3131SOL    HW110292   0.531   2.452   1.645
 3131SOL    HW210293   0.647   2.467   1.532
 3132SOL     OW10294   5.083   5.118   5.930
 3132SOL    HW110295   5.024   5.109   5.850
 3132SOL    HW210296   5.171   5.156   5.903
 3133SOL     OW10297   3.108   2.212   3.592
 3133SOL    HW110298   3.205   2.192   3.606
 3133SOL    HW210299   3.085   2.202   3.495
 3134SOL     OW10300   4.981   4.456   1.344
 3134SOL    HW110301   4.946   4.441   1.436
 3134SOL    HW210302   4.999   4.553   1.330
 3135SOL     OW10303   4.558   1.570   5.278
 3135SOL    HW110304   4.537   1.503   5.206
 3135SOL    HW210305   4.490   1.562   5.351
 3136SOL     OW10306   5.952   0.213   6.713
 3136SOL    HW110307   5.966   0.284   6.644
 3136SOL    HW210308   5.933   0.126   6.668
 3137SOL     OW10309   5.926   6.988   3.633
 3137SOL    HW110310   5.860   6.994   3.708
 3137SOL    HW210311   5.887   6.934   3.559
 3138SOL     OW10312   6.569   2.029   3.974
 3138SOL    HW110313   6.496   2.094   3.996
 3138SOL    HW210314   6.575   2.019   3.875
 3139SOL     OW10315   4.393   0.042   6.803
 3139SOL    HW110316   4.485   0.068   6.833
 3139SOL    HW210317   4.356   0.113   6.743
 3140SOL     OW10318   6.278   6.908   6.335
 3140SOL    HW110319   6.307   6.887   6.429
 3140SOL    HW210320   6.276   7.007   6.322
 3141SOL     OW10321   1.045   6.645   6.162
 3141SOL    HW110322   0.980   6.701   6.110
 3141SOL    HW210323   1.088   6.702   6.232
 3142SOL     OW10324   5.038   5.938   1.423
 3142SOL    HW110325   4.973   6.003   1.384
 3142SOL    HW210326   5.020   5.929   1.521
 3143SOL     OW10327   0.130   2.530   6.667
 3143SOL    HW110328   0.220   2.573   6.665
 3143SOL    HW210329   0.061   2.594   6.633
 3144SOL     OW10330   2.793   4.120   1.023
 3144SOL    HW110331   2.854   4.119   1.102
 3144SOL    HW210332   2.712   4.175   1.044
 3145SOL     OW10333   2.184   4.771   2.583
 3145SOL    HW110334   2.219   4.712   2.656
 3145SOL    HW210335   2.125   4.717   2.523
 3146SOL     OW10336   1.280   6.821   3.419
 3146SOL    HW110337   1.292   6.920   3.428
 3146SOL    HW210338   1.349   6.785   3.356
 3147SOL     OW10339   4.462   5.270   6.870
 3147SOL    HW110340   4.411   5.189   6.843
 3147SOL    HW210341   4.556   5.263   6.837
 3148SOL     OW10342   4.959   5.480   4.778
 3148SOL    HW110343   4.865   5.503   4.753
 3148SOL    HW210344   5.001   5.427   4.704
 3149SOL     OW10345   3.404   0.287   5.403
 3149SOL    HW110346   3.429   0.227   5.328
 3149SOL    HW210347   3.324   0.342   5.378
 3150SOL     OW10348   5.901   5.427   4.210
 3150SOL    HW110349   5.964   5.350   4.204
 3150SOL    HW210350   5.912   5.486   4.130
 3151SOL     OW10351   4.022   0.824   0.133
 3151SOL    HW110352   3.991   0.917   0.115
 3151SOL    HW210353   3.964   0.782   0.203
 3152SOL     OW10354   1.370   5.130   1.679
 3152SOL    HW110355   1.370   5.032   1.660
 3152SOL    HW210356   1.405   5.180   1.600
 3153SOL     OW10357   6.529   3.870   1.774
 3153SOL    HW110358   6.577   3.845   1.690
 3153SOL    HW210359   6.578   3.831   1.853
 3154SOL     OW10360   5.996   1.643   0.383
 3154SOL    HW110361   6.018   1.557   0.428
 3154SOL    HW210362   6.005   1.718   0.448
 3155SOL     OW10363   6.892   5.557   1.501
 3155SOL    HW110364   6.885   5.651   1.468
 3155SOL    HW210365   6.841   5.549   1.586
 3156SOL     OW10366   3.741   3.139   3.896
 3156SOL    HW110367   3.680   3.075   3.942
 3156SOL    HW210368   3.744   3.225   3.948
 3157SOL     OW10369   1.742   3.364   4.817
 3157SOL    HW110370   1.729   3.266   4.803
 3157SOL    HW210371   1.770   3.381   4.911
 3158SOL     OW10372   4.819   0.081   1.119
 3158SOL    HW110373   4.791   0.011   1.054
 3158SOL    HW210374   4.864   0.156   1.070
 3159SOL     OW10375   5.443   0.306   0.228
 3159SOL    HW110376   5.345   0.293   0.211
 3159SOL    HW210377   5.486   0.348   0.149
 3160SOL     OW10378   6.377   5.570   5.900
 3160SOL    HW110379   6.329   5.596   5.984
 3160SOL    HW210380   6.409   5.476   5.908
 3161SOL     OW10381   0.961   1.833   2.778
 3161SOL    HW110382   0.931   1.924   2.749
 3161SOL    HW210383   1.024   1.796   2.710
 3162SOL     OW10384   0.445   5.455   0.096
 3162SOL    HW110385   0.393   5.431   0.013
 3162SOL    HW210386   0.521   5.515   0.071
 3163SOL     OW10387   3.487   2.144   6.826
 3163SOL    HW110388   3.484   2.237   6.790
 3163SOL    HW210389   3.570   2.131   6.881
 3164SOL     OW10390   4.333   4.099   1.438
 3164SOL    HW110391   4.363   4.084   1.532
 3164SOL    HW210392   4.357   4.019   1.382
 3165SOL     OW10393   0.918   6.693   1.816
 3165SOL    HW110394   0.964   6.626   1.757
 3165SOL    HW210395   0.885   6.769   1.760
 3166SOL     OW10396   4.427   2.544   6.486
 3166SOL    HW110397   4.509   2.522   6.540
 3166SOL    HW210398   4.431   2.495   6.398
 3167SOL     OW10399   0.110   4.835   2.060
 3167SOL    HW110400   0.123   4.807   1.965
 3167SOL    HW210401   0.149   4.766   2.121
 3168SOL     OW10402   4.823   2.801   0.596
 3168SOL    HW110403   4.891   2.873   0.614
 3168SOL    HW210404   4.852   2.716   0.639
 3169SOL     OW10405   0.466   3.022   6.269
 3169SOL    HW110406   0.559   3.058   6.260
 3169SOL    HW210407   0.409   3.089   6.317
 3170SOL     OW10408   4.143   0.429   7.014
 3170SOL    HW110409   4.148   0.330   7.023
 3170SOL    HW210410   4.078   0.466   0.056
 3171SOL     OW10411   6.875   6.614   1.107
 3171SOL    HW110412   6.876   6.580   1.013
 3171SOL    HW210413   6.936   6.558   1.163
 3172SOL     OW10414   0.721   5.739   5.507
 3172SOL    HW110415   0.681   5.830   5.518
 3172SOL    HW210416   0.653   5.670   5.531
 3173SOL     OW10417   3.132   1.620   1.121
 3173SOL    HW110418   3.063   1.557   1.156
 3173SOL    HW210419   3.199   1.640   1.192
 3174SOL     OW10420   2.537   2.965   6.801
 3174SOL    HW110421   2.630   2.990   6.776
 3174SOL    HW210422   2.478   2.968   6.720
 3175SOL     OW10423   0.358   6.348   6.780
 3175SOL    HW110424   0.261   6.362   6.799
 3175SOL    HW210425   0.413   6.390   6.851
 3176SOL     OW10426   1.838   5.428   4.837
 3176SOL    HW110427   1.913   5.364   4.852
 3176SOL    HW210428   1.824   5.484   4.918
 3177SOL     OW10429   5.354   5.549   5.596
 3177SOL    HW110430   5.277   5.489   5.616
 3177SOL    HW210431   5.427   5.497   5.551
 3178SOL     OW10432   0.151   3.284   1.133
 3178SOL    HW110433   0.169   3.228   1.052
 3178SOL    HW210434   0.143   3.225   1.213
 3179SOL     OW10435   2.193   2.485   1.563
 3179SOL    HW110436   2.263   2.540   1.517
 3179SOL    HW210437   2.176   2.402   1.509
 3180SOL     OW10438   3.971   0.463   6.224
 3180SOL    HW110439   3.885   0.441   6.179
 3180SOL    HW210440   4.047   0.421   6.174
 3181SOL     OW10441   0.282   0.091   3.099
 3181SOL    HW110442   0.284   0.127   3.005
 3181SOL    HW210443   0.191   0.105   3.138
 3182SOL     OW10444   0.940   0.925   5.220
 3182SOL    HW110445   0.856   0.974   5.196
 3182SOL    HW210446   0.969   0.951   5.312
 3183SOL     OW10447   4.750   4.052   1.465
 3183SOL    HW110448   4.711   4.016   1.380
 3183SOL    HW210449   4.678   4.094   1.520
 3184SOL     OW10450   3.032   2.105   2.227
 3184SOL    HW110451   3.009   2.011   2.202
 3184SOL    HW210452   3.027   2.163   2.146
 3185SOL     OW10453   6.111   0.380   6.527
 3185SOL    HW110454   6.198   0.343   6.559
 3185SOL    HW210455   6.129   0.459   6.467
 3186SOL     OW10456   3.142   1.389   3.172
 3186SOL    HW110457   3.064   1.382   3.234
 3186SOL    HW210458   3.122   1.339   3.087
 3187SOL     OW10459   4.160   4.401   6.854
 3187SOL    HW110460   4.190   4.320   6.804
 3187SOL    HW210461   4.145   4.477   6.791
 3188SOL     OW10462   3.774   6.242   3.444
 3188SOL    HW110463   3.687   6.198   3.463
 3188SOL    HW210464   3.805   6.217   3.352
 3189SOL     OW10465   2.414   1.421   3.022
 3189SOL    HW110466   2.390   1.517   3.005
 3189SOL    HW210467   2.432   1.408   3.119
 3190SOL     OW10468   1.145   6.652   1.406
 3190SOL    HW110469   1.227   6.643   1.350
 3190SOL    HW210470   1.150   6.588   1.483
 3191SOL     OW10471   3.595   0.176   1.342
 3191SOL    HW110472   3.568   0.251   1.282
 3191SOL    HW210473   3.523   0.107   1.343
 3192SOL     OW10474   0.567   1.860   1.095
 3192SOL    HW110475   0.623   1.777   1.088
 3192SOL    HW210476   0.519   1.860   1.183
 3193SOL     OW10477   4.140   2.607   6.346
 3193SOL    HW110478   4.142   2.509   6.368
 3193SOL    HW210479   4.174   2.659   6.424
 3194SOL     OW10480   1.474   2.754   6.779
 3194SOL    HW110481   1.567   2.718   6.790
 3194SOL    HW210482   1.416   2.683   6.741
 3195SOL     OW10483   2.250   2.577   3.251
 3195SOL    HW110484   2.156   2.602   3.229
 3195SOL    HW210485   2.293   2.650   3.304
 3196SOL     OW10486   6.827   0.562   5.257
 3196SOL    HW110487   6.737   0.601   5.272
 3196SOL    HW210488   6.894   0.635   5.244
 3197SOL     OW10489   1.460   5.855   3.006
 3197SOL    HW110490   1.490   5.939   2.962
 3197SOL    HW210491   1.417   5.795   2.938
 3198SOL     OW10492   6.656   2.097   6.810
 3198SOL    HW110493   6.719   2.021   6.826
 3198SOL    HW210494   6.708   2.179   6.788
 3199SOL     OW10495   4.381   2.710   1.692
 3199SOL    HW110496   4.476   2.716   1.724
 3199SOL    HW210497   4.350   2.615   1.697
 3200SOL     OW10498   0.187   2.368   1.458
 3200SOL    HW110499   0.272   2.321   1.482
 3200SOL    HW210500   0.142   2.319   1.383
 3201SOL     OW10501   5.108   3.782   3.903
 3201SOL    HW110502   5.194   3.740   3.933
 3201SOL    HW210503   5.046   3.711   3.871
 3202SOL     OW10504   1.868   4.643   2.225
 3202SOL    HW110505   1.857   4.699   2.306
 3202SOL    HW210506   1.801   4.569   2.226
 3203SOL     OW10507   5.731   0.975   0.914
 3203SOL    HW110508   5.641   0.961   0.953
 3203SOL    HW210509   5.765   0.889   0.875
 3204SOL     OW10510   5.854   5.969   1.705
 3204SOL    HW110511   5.756   5.985   1.712
 3204SOL    HW210512   5.903   6.055   1.714
 3205SOL     OW10513   6.920   4.361   0.177
 3205SOL    HW110514   7.009   4.319   0.195
 3205SOL    HW210515   6.862   4.351   0.257
 3206SOL     OW10516   0.087   7.006   6.146
 3206SOL    HW110517   0.153   0.002   6.219
 3206SOL    HW210518   0.129   0.003   6.057
 3207SOL     OW10519   0.024   1.229   5.877
 3207SOL    HW110520   7.011   1.147   5.835
 3207SOL    HW210521   0.027   1.303   5.810
 3208SOL     OW10522   4.357   6.231   5.121
 3208SOL    HW110523   4.422   6.304   5.099
 3208SOL    HW210524   4.385   6.146   5.076
 3209SOL     OW10525   3.026   6.705   3.631
 3209SOL    HW110526   2.946   6.697   3.573
 3209SOL    HW210527   3.108   6.711   3.574
 3210SOL     OW10528   0.117   3.440   2.222
 3210SOL    HW110529   0.172   3.425   2.140
 3210SOL    HW210530   0.073   3.354   2.249
 3211SOL     OW10531   2.150   4.736   0.180
 3211SOL    HW110532   2.198   4.648   0.182
 3211SOL    HW210533   2.217   4.810   0.181
 3212SOL     OW10534   4.572   1.965   6.769
 3212SOL    HW110535   4.624   1.879   6.773
 3212SOL    HW210536   4.488   1.950   6.717
 3213SOL     OW10537   6.094   5.088   2.633
 3213SOL    HW110538   6.069   5.117   2.540
 3213SOL    HW210539   6.147   5.003   2.628
 3214SOL     OW10540   4.516   6.028   0.074
 3214SOL    HW110541   4.485   6.018   7.004
 3214SOL    HW210542   4.504   6.123   0.103
 3215SOL     OW10543   6.410   2.980   1.043
 3215SOL    HW110544   6.485   2.978   1.109
 3215SOL    HW210545   6.428   3.051   0.974
 3216SOL     OW10546   5.405   5.565   2.701
 3216SOL    HW110547   5.427   5.526   2.611
 3216SOL    HW210548   5.388   5.490   2.766
 3217SOL     OW10549   1.389   4.164   3.442
 3217SOL    HW110550   1.466   4.143   3.383
 3217SOL    HW210551   1.314   4.100   3.425
 3218SOL     OW10552   4.249   6.797   3.395
 3218SOL    HW110553   4.166   6.766   3.442
 3218SOL    HW210554   4.241   6.894   3.374
 3219SOL     OW10555   0.075   0.474   3.340
 3219SOL    HW110556   0.084   0.477   3.440
 3219SOL    HW210557   0.036   0.560   3.308
 3220SOL     OW10558   6.648   4.706   5.658
 3220SOL    HW110559   6.603   4.771   5.720
 3220SOL    HW210560   6.714   4.755   5.601
 3221SOL     OW10561   2.784   6.385   2.244
 3221SOL    HW110562   2.693   6.385   2.284
 3221SOL    HW210563   2.779   6.349   2.150
 3222SOL     OW10564   5.256   2.207   3.500
 3222SOL    HW110565   5.354   2.201   3.519
 3222SOL    HW210566   5.211   2.254   3.576
 3223SOL     OW10567   2.718   5.392   6.842
 3223SOL    HW110568   2.619   5.383   6.854
 3223SOL    HW210569   2.736   5.452   6.764
 3224SOL     OW10570   4.717   5.089   6.201
 3224SOL    HW110571   4.719   5.157   6.128
 3224SOL    HW210572   4.628   5.044   6.204
 3225SOL     OW10573   4.747   2.665   6.336
 3225SOL    HW110574   4.833   2.699   6.375
 3225SOL    HW210575   4.765   2.624   6.247
 3226SOL     OW10576   2.280   1.125   4.351
 3226SOL    HW110577   2.319   1.108   4.441
 3226SOL    HW210578   2.225   1.208   4.353
 3227SOL     OW10579   2.992   1.946   6.712
 3227SOL    HW110580   2.917   1.886   6.682
 3227SOL    HW210581   3.020   2.005   6.636
 3228SOL     OW10582   5.410   3.195   4.226
 3228SOL    HW110583   5.416   3.095   4.224
 3228SOL    HW210584   5.369   3.224   4.312
 3229SOL     OW10585   3.179   1.800   5.699
 3229SOL    HW110586   3.085   1.831   5.690
 3229SOL    HW210587   3.226   1.808   5.611
 3230SOL     OW10588   0.345   1.742   3.219
 3230SOL    HW110589   0.304   1.725   3.130
 3230SOL    HW210590   0.273   1.743   3.289
 3231SOL     OW10591   4.585   5.953   1.797
 3231SOL    HW110592   4.603   6.039   1.750
 3231SOL    HW210593   4.669   5.900   1.803
 3232SOL     OW10594   4.211   5.082   4.939
 3232SOL    HW110595   4.144   5.010   4.919
 3232SOL    HW210596   4.170   5.171   4.921
 3233SOL     OW10597   0.784   4.313   0.640
 3233SOL    HW110598   0.811   4.260   0.720
 3233SOL    HW210599   0.862   4.368   0.609
 3234SOL     OW10600   0.010   2.682   0.391
 3234SOL    HW110601   7.006   2.756   0.452
 3234SOL    HW210602   0.107   2.661   0.408
 3235SOL     OW10603   6.006   6.020   2.879
 3235SOL    HW110604   5.988   6.057   2.970
 3235SOL    HW210605   6.098   5.981   2.877
 3236SOL     OW10606   1.770   3.268   1.918
 3236SOL    HW110607   1.764   3.336   1.845
 3236SOL    HW210608   1.865   3.262   1.950
 3237SOL     OW10609   4.722   6.990   4.213
 3237SOL    HW110610   4.734   0.064   4.228
 3237SOL    HW210611   4.811   6.950   4.190
 3238SOL     OW10612   0.668   5.845   6.741
 3238SOL    HW110613   0.654   5.943   6.726
 3238SOL    HW210614   0.744   5.832   6.805
 3239SOL     OW10615   6.091   1.406   0.200
 3239SOL    HW110616   6.121   1.335   0.264
 3239SOL    HW210617   6.066   1.488   0.250
 3240SOL     OW10618   0.224   6.993   4.862
 3240SOL    HW110619   0.319   7.002   4.831
 3240SOL    HW210620   0.215   0.007   4.954
 3241SOL     OW10621   4.825   1.504   4.376
 3241SOL    HW110622   4.782   1.511   4.466
 3241SOL    HW210623   4.864   1.412   4.365
 3242SOL     OW10624   3.346   5.119   0.554
 3242SOL    HW110625   3.305   5.112   0.463
 3242SOL    HW210626   3.315   5.203   0.599
 3243SOL     OW10627   5.257   4.943   7.019
 3243SOL    HW110628   5.212   4.983   6.939
 3243SOL    HW210629   5.355   4.965   7.016
 3244SOL     OW10630   5.657   5.915   5.667
 3244SOL    HW110631   5.641   5.842   5.734
 3244SOL    HW210632   5.573   5.931   5.615
 3245SOL     OW10633   3.837   2.827   6.247
 3245SOL    HW110634   3.898   2.900   6.276
 3245SOL    HW210635   3.821   2.765   6.324
 3246SOL     OW10636   5.452   0.347   2.963
 3246SOL    HW110637   5.455   0.443   2.934
 3246SOL    HW210638   5.357   0.317   2.970
 3247SOL     OW10639   0.537   4.328   2.723
 3247SOL    HW110640   0.556   4.233   2.749
 3247SOL    HW210641   0.448   4.355   2.760
 3248SOL     OW10642   6.026   3.636   2.134
 3248SOL    HW110643   6.125   3.643   2.136
 3248SOL    HW210644   5.985   3.713   2.183
 3249SOL     OW10645   3.744   4.935   5.460
 3249SOL    HW110646   3.794   4.849   5.450
 3249SOL    HW210647   3.689   4.933   5.544
 3250SOL     OW10648   5.851   0.126   3.015
 3250SOL    HW110649   5.869   0.071   3.096
 3250SOL    HW210650   5.934   0.134   2.960
 3251SOL     OW10651   3.707   1.725   3.160
 3251SOL    HW110652   3.754   1.764   3.081
 3251SOL    HW210653   3.750   1.758   3.244
 3252SOL     OW10654   3.464   0.987   2.698
 3252SOL    HW110655   3.446   1.086   2.704
 3252SOL    HW210656   3.516   0.958   2.778
 3253SOL     OW10657   4.841   2.624   1.699
 3253SOL    HW110658   4.928   2.673   1.688
 3253SOL    HW210659   4.772   2.687   1.733
 3254SOL     OW10660   3.895   4.873   4.061
 3254SOL    HW110661   3.917   4.970   4.072
 3254SOL    HW210662   3.945   4.836   3.982
 3255SOL     OW10663   4.870   5.257   0.454
 3255SOL    HW110664   4.941   5.202   0.409
 3255SOL    HW210665   4.912   5.310   0.529
 3256SOL     OW10666   5.580   6.724   6.106
 3256SOL    HW110667   5.603   6.821   6.119
 3256SOL    HW210668   5.646   6.682   6.044
 3257SOL     OW10669   1.418   1.896   0.686
 3257SOL    HW110670   1.502   1.936   0.649
 3257SOL    HW210671   1.347   1.966   0.690
 3258SOL     OW10672   4.772   6.616   1.677
 3258SOL    HW110673   4.802   6.685   1.743
 3258SOL    HW210674   4.798   6.644   1.585
 3259SOL     OW10675   4.437   5.905   4.231
 3259SOL    HW110676   4.489   5.825   4.260
 3259SOL    HW210677   4.341   5.880   4.219
 3260SOL     OW10678   1.859   1.523   0.344
 3260SOL    HW110679   1.897   1.558   0.430
 3260SOL    HW210680   1.814   1.436   0.361
 3261SOL     OW10681   4.128   6.625   0.713
 3261SOL    HW110682   4.069   6.633   0.633
 3261SOL    HW210683   4.082   6.572   0.784
 3262SOL     OW10684   3.777   1.858   3.403
 3262SOL    HW110685   3.690   1.877   3.449
 3262SOL    HW210686   3.848   1.844   3.472
 3263SOL     OW10687   4.786   6.965   3.104
 3263SOL    HW110688   4.790   6.887   3.043
 3263SOL    HW210689   4.879   6.994   3.128
 3264SOL     OW10690   0.091   5.158   7.021
 3264SOL    HW110691   0.054   5.240   0.041
 3264SOL    HW210692   0.190   5.165   7.014
 3265SOL     OW10693   3.827   2.307   6.425
 3265SOL    HW110694   3.784   2.283   6.338
 3265SOL    HW210695   3.813   2.234   6.491
 3266SOL     OW10696   0.137   2.285   0.269
 3266SOL    HW110697   0.073   2.240   0.331
 3266SOL    HW210698   0.119   2.255   0.175
 3267SOL     OW10699   3.588   2.640   1.420
 3267SOL    HW110700   3.636   2.564   1.462
 3267SOL    HW210701   3.609   2.725   1.470
 3268SOL     OW10702   1.096   4.178   0.103
 3268SOL    HW110703   1.112   4.118   0.025
 3268SOL    HW210704   1.000   4.170   0.131
 3269SOL     OW10705   4.994   5.035   1.750
 3269SOL    HW110706   4.932   5.084   1.688
 3269SOL    HW210707   5.088   5.051   1.721
 3270SOL     OW10708   0.535   5.249   3.804
 3270SOL    HW110709   0.524   5.198   3.889
 3270SOL    HW210710   0.472   5.327   3.804
 3271SOL     OW10711   5.446   1.956   2.698
 3271SOL    HW110712   5.429   1.880   2.635
 3271SOL    HW210713   5.488   2.032   2.649
 3272SOL     OW10714   3.526   6.959   0.220
 3272SOL    HW110715   3.547   6.880   0.162
 3272SOL    HW210716   3.482   6.929   0.304
 3273SOL     OW10717   1.308   6.360   1.797
 3273SOL    HW110718   1.235   6.305   1.757
 3273SOL    HW210719   1.362   6.402   1.724
 3274SOL     OW10720   3.419   1.580   6.262
 3274SOL    HW110721   3.440   1.522   6.183
 3274SOL    HW210722   3.350   1.648   6.236
 3275SOL     OW10723   2.119   0.395   6.926
 3275SOL    HW110724   2.095   0.321   6.989
 3275SOL    HW210725   2.196   0.446   6.964
 3276SOL     OW10726   3.319   5.164   6.639
 3276SOL    HW110727   3.346   5.093   6.574
 3276SOL    HW210728   3.272   5.123   6.717
 3277SOL     OW10729   6.503   0.099   6.223
 3277SOL    HW110730   6.518   0.000   6.211
 3277SOL    HW210731   6.545   0.128   6.309
 3278SOL     OW10732   0.369   1.310   5.212
 3278SOL    HW110733   0.351   1.242   5.142
 3278SOL    HW210734   0.466   1.334   5.212
 3279SOL     OW10735   0.000   6.993   0.964
 3279SOL    HW110736   0.039   0.007   1.047
 3279SOL    HW210737   0.049   6.910   0.939
 3280SOL     OW10738   2.477   5.252   6.900
 3280SOL    HW110739   2.547   5.193   6.940
 3280SOL    HW210740   2.456   5.222   6.807
 3281SOL     OW10741   1.727   5.637   0.944
 3281SOL    HW110742   1.693   5.719   0.990
 3281SOL    HW210743   1.816   5.657   0.902
 3282SOL     OW10744   2.952   6.258   4.260
 3282SOL    HW110745   2.854   6.255   4.275
 3282SOL    HW210746   3.000   6.218   4.339
 3283SOL     OW10747   3.109   1.771   3.390
 3283SOL    HW110748   3.047   1.796   3.463
 3283SOL    HW210749   3.057   1.732   3.314
 3284SOL     OW10750   6.984   6.601   6.839
 3284SOL    HW110751   0.028   6.531   6.817
 3284SOL    HW210752   6.909   6.560   6.889
 3285SOL     OW10753   0.322   2.866   3.477
 3285SOL    HW110754   0.234   2.912   3.469
 3285SOL    HW210755   0.336   2.836   3.571
 3286SOL     OW10756   3.923   3.571   3.975
 3286SOL    HW110757   3.935   3.564   3.876
 3286SOL    HW210758   4.005   3.612   4.015
 3287SOL     OW10759   1.490   5.554   0.091
 3287SOL    HW110760   1.568   5.548   0.154
 3287SOL    HW210761   1.523   5.574   7.023
 3288SOL     OW10762   0.650   6.333   6.571
 3288SOL    HW110763   0.633   6.241   6.607
 3288SOL    HW210764   0.563   6.375   6.545
 3289SOL     OW10765   1.010   6.141   5.456
 3289SOL    HW110766   1.100   6.177   5.434
 3289SOL    HW210767   0.942   6.178   5.392
 3290SOL     OW10768   0.260   6.082   2.214
 3290SOL    HW110769   0.304   6.013   2.271
 3290SOL    HW210770   0.329   6.123   2.154
 3291SOL     OW10771   1.765   6.551   6.430
 3291SOL    HW110772   1.764   6.560   6.331
 3291SOL    HW210773   1.691   6.490   6.459
 3292SOL     OW10774   0.425   0.931   6.478
 3292SOL    HW110775   0.430   1.016   6.531
 3292SOL    HW210776   0.441   0.951   6.381
 3293SOL     OW10777   6.904   1.649   3.584
 3293SOL    HW110778   6.976   1.590   3.548
 3293SOL    HW210779   6.818   1.627   3.540
 3294SOL     OW10780   6.472   1.174   6.798
 3294SOL    HW110781   6.455   1.237   6.874
 3294SOL    HW210782   6.552   1.118   6.819
 3295SOL     OW10783   2.681   2.224   0.485
 3295SOL    HW110784   2.705   2.211   0.581
 3295SOL    HW210785   2.594   2.272   0.479
 3296SOL     OW10786   2.276   6.889   1.910
 3296SOL    HW110787   2.243   6.798   1.933
 3296SOL    HW210788   2.362   6.907   1.958
 3297SOL     OW10789   3.414   2.142   5.146
 3297SOL    HW110790   3.334   2.184   5.103
 3297SOL    HW210791   3.401   2.138   5.245
 3298SOL     OW10792   6.394   3.260   2.947
 3298SOL    HW110793   6.467   3.250   3.015
 3298SOL    HW210794   6.423   3.323   2.875
 3299SOL     OW10795   1.736   0.214   4.049
 3299SOL    HW110796   1.727   0.214   4.149
 3299SOL    HW210797   1.735   0.120   4.016
 3300SOL     OW10798   6.782   0.288   5.613
 3300SOL    HW110799   6.769   0.189   5.620
 3300SOL    HW210800   6.846   0.318   5.684
 3301SOL     OW10801   0.957   4.079   3.760
 3301SOL    HW110802   1.042   4.109   3.717
 3301SOL    HW210803   0.906   4.158   3.793
 3302SOL     OW10804   1.464   4.728   4.368
 3302SOL    HW110805   1.499   4.748   4.277
 3302SOL    HW210806   1.426   4.811   4.408
 3303SOL     OW10807   2.998   3.056   2.582
 3303SOL    HW110808   2.926   3.017   2.639
 3303SOL    HW210809   3.072   3.091   2.640
 3304SOL     OW10810   1.342   5.091   3.459
 3304SOL    HW110811   1.344   5.182   3.501
 3304SOL    HW210812   1.314   5.099   3.363
 3305SOL     OW10813   1.711   1.276   1.883
 3305SOL    HW110814   1.702   1.322   1.971
 3305SOL    HW210815   1.690   1.341   1.809
 3306SOL     OW10816   2.084   3.915   3.347
 3306SOL    HW110817   1.993   3.947   3.323
 3306SOL    HW210818   2.152   3.956   3.286
 3307SOL     OW10819   0.291   6.002   0.350
 3307SOL    HW110820   0.288   5.902   0.348
 3307SOL    HW210821   0.337   6.033   0.433
 3308SOL     OW10822   4.363   5.977   0.287
 3308SOL    HW110823   4.409   5.984   0.199
 3308SOL    HW210824   4.427   5.940   0.355
 3309SOL     OW10825   0.955   4.806   2.578
 3309SOL    HW110826   0.860   4.835   2.570
 3309SOL    HW210827   1.015   4.880   2.550
 3310SOL     OW10828   0.383   3.666   3.261
 3310SOL    HW110829   0.467   3.614   3.277
 3310SOL    HW210830   0.406   3.762   3.248
 3311SOL     OW10831   3.050   5.762   0.839
 3311SOL    HW110832   2.991   5.773   0.919
 3311SOL    HW210833   3.102   5.846   0.824
 3312SOL     OW10834   3.253   4.324   6.289
 3312SOL    HW110835   3.290   4.409   6.253
 3312SOL    HW210836   3.300   4.246   6.248
 3313SOL     OW10837   1.110   4.949   3.736
 3313SOL    HW110838   1.130   5.037   3.780
 3313SOL    HW210839   1.093   4.963   3.639
 3314SOL     OW10840   1.409   3.020   4.785
 3314SOL    HW110841   1.426   3.104   4.836
 3314SOL    HW210842   1.385   2.947   4.848
 3315SOL     OW10843   6.662   2.908   3.677
 3315SOL    HW110844   6.568   2.893   3.709
 3315SOL    HW210845   6.725   2.904   3.754
 3316SOL     OW10846   4.095   2.346   6.404
 3316SOL    HW110847   4.123   2.301   6.488
 3316SOL    HW210848   3.996   2.359   6.404
 3317SOL     OW10849   4.626   2.750   1.813
 3317SOL    HW110850   4.631   2.846   1.842
 3317SOL    HW210851   4.585   2.695   1.885
 3318SOL     OW10852   2.548   6.328   6.201
 3318SOL    HW110853   2.456   6.310   6.234
 3318SOL    HW210854   2.601   6.243   6.202
 3319SOL     OW10855   0.209   6.274   4.497
 3319SOL    HW110856   0.193   6.176   4.486
 3319SOL    HW210857   0.305   6.288   4.524
 3320SOL     OW10858   5.950   1.569   5.201
 3320SOL    HW110859   5.961   1.654   5.252
 3320SOL    HW210860   5.852   1.551   5.186
 3321SOL     OW10861   3.412   3.126   2.449
 3321SOL    HW110862   3.500   3.096   2.411
 3321SOL    HW210863   3.369   3.189   2.385
 3322SOL     OW10864   4.502   2.066   0.988
 3322SOL    HW110865   4.513   1.981   1.039
 3322SOL    HW210866   4.435   2.124   1.034
 3323SOL     OW10867   2.286   4.334   6.484
 3323SOL    HW110868   2.284   4.244   6.528
 3323SOL    HW210869   2.209   4.389   6.516
 3324SOL     OW10870   1.379   3.889   0.481
 3324SOL    HW110871   1.415   3.982   0.471
 3324SOL    HW210872   1.338   3.879   0.572
 3325SOL     OW10873   2.277   3.335   0.385
 3325SOL    HW110874   2.348   3.378   0.441
 3325SOL    HW210875   2.204   3.400   0.368
 3326SOL     OW10876   5.558   2.232   2.055
 3326SOL    HW110877   5.584   2.233   1.958
 3326SOL    HW210878   5.613   2.163   2.103
 3327SOL     OW10879   2.307   6.409   1.858
 3327SOL    HW110880   2.246   6.488   1.865
 3327SOL    HW210881   2.401   6.438   1.873
 3328SOL     OW10882   4.395   0.868   1.834
 3328SOL    HW110883   4.306   0.834   1.805
 3328SOL    HW210884   4.404   0.861   1.933
 3329SOL     OW10885   4.062   0.754   4.917
 3329SOL    HW110886   4.014   0.689   4.974
 3329SOL    HW210887   4.136   0.797   4.970
 3330SOL     OW10888   5.863   6.814   2.031
 3330SOL    HW110889   5.814   6.889   2.074
 3330SOL    HW210890   5.953   6.845   2.002
 3331SOL     OW10891   1.913   3.604   3.150
 3331SOL    HW110892   1.844   3.533   3.136
 3331SOL    HW210893   1.963   3.619   3.064
 3332SOL     OW10894   5.259   4.694   0.162
 3332SOL    HW110895   5.280   4.791   0.152
 3332SOL    HW210896   5.319   4.640   0.103
 3333SOL     OW10897   3.349   3.868   1.357
 3333SOL    HW110898   3.356   3.847   1.260
 3333SOL    HW210899   3.423   3.824   1.407
 3334SOL     OW10900   1.333   2.791   2.462
 3334SOL    HW110901   1.257   2.816   2.522
 3334SOL    HW210902   1.327   2.844   2.377
 3335SOL     OW10903   3.488   4.460   5.887
 3335SOL    HW110904   3.513   4.373   5.930
 3335SOL    HW210905   3.389   4.473   5.894
 3336SOL     OW10906   2.551   0.056   3.973
 3336SOL    HW110907   2.527   0.153   3.976
 3336SOL    HW210908   2.647   0.045   4.001
 3337SOL     OW10909   3.492   3.576   2.630
 3337SOL    HW110910   3.492   3.480   2.658
 3337SOL    HW210911   3.587   3.608   2.624
 3338SOL     OW10912   1.196   2.012   1.713
 3338SOL    HW110913   1.278   1.956   1.707
 3338SOL    HW210914   1.144   2.005   1.628
 3339SOL     OW10915   1.773   0.233   5.580
 3339SOL    HW110916   1.850   0.216   5.519
 3339SOL    HW210917   1.798   0.209   5.673
 3340SOL     OW10918   4.690   0.968   4.207
 3340SOL    HW110919   4.762   1.033   4.184
 3340SOL    HW210920   4.609   0.988   4.153
 3341SOL     OW10921   2.508   4.530   2.425
 3341SOL    HW110922   2.576   4.501   2.357
 3341SOL    HW210923   2.417   4.529   2.384
 3342SOL     OW10924   6.312   0.333   3.046
 3342SOL    HW110925   6.398   0.350   2.998
 3342SOL    HW210926   6.324   0.260   3.112
 3343SOL     OW10927   5.215   5.415   6.815
 3343SOL    HW110928   5.139   5.431   6.751
 3343SOL    HW210929   5.282   5.355   6.771
 3344SOL     OW10930   6.361   2.830   2.138
 3344SOL    HW110931   6.379   2.874   2.226
 3344SOL    HW210932   6.417   2.872   2.067
 3345SOL     OW10933   0.895   3.764   0.749
 3345SOL    HW110934   0.927   3.858   0.733
 3345SOL    HW210935   0.929   3.705   0.676
 3346SOL     OW10936   2.631   1.021   0.228
 3346SOL    HW110937   2.575   0.944   0.260
 3346SOL    HW210938   2.652   1.081   0.306
 3347SOL     OW10939   0.983   3.104   6.352
 3347SOL    HW110940   1.068   3.056   6.331
 3347SOL    HW210941   0.988   3.141   6.445
 3348SOL     OW10942   3.718   4.197   6.415
 3348SOL    HW110943   3.780   4.220   6.490
 3348SOL    HW210944   3.624   4.207   6.446
 3349SOL     OW10945   2.425   4.536   4.007
 3349SOL    HW110946   2.411   4.588   3.923
 3349SOL    HW210947   2.501   4.575   4.058
 3350SOL     OW10948   0.537   4.044   5.751
 3350SOL    HW110949   0.487   4.113   5.803
 3350SOL    HW210950   0.538   4.068   5.654
 3351SOL     OW10951   5.461   0.586   1.389
 3351SOL    HW110952   5.524   0.564   1.315
 3351SOL    HW210953   5.367   0.578   1.356
 3352SOL     OW10954   5.434   2.353   0.767
 3352SOL    HW110955   5.482   2.440   0.782
 3352SOL    HW210956   5.351   2.351   0.822
 3353SOL     OW10957   1.967   0.597   1.336
 3353SOL    HW110958   2.066   0.597   1.344
 3353SOL    HW210959   1.939   0.659   1.262
 3354SOL     OW10960   4.020   3.356   5.787
 3354SOL    HW110961   4.039   3.454   5.781
 3354SOL    HW210962   4.004   3.331   5.882
 3355SOL     OW10963   2.097   1.427   5.014
 3355SOL    HW110964   2.018   1.414   4.954
 3355SOL    HW210965   2.097   1.520   5.050
 3356SOL     OW10966   0.999   6.608   5.771
 3356SOL    HW110967   1.006   6.525   5.715
 3356SOL    HW210968   1.082   6.663   5.758
 3357SOL     OW10969   2.869   3.469   2.207
 3357SOL    HW110970   2.769   3.460   2.211
 3357SOL    HW210971   2.911   3.379   2.201
 3358SOL     OW10972   5.281   1.345   3.244
 3358SOL    HW110973   5.224   1.299   3.312
 3358SOL    HW210974   5.320   1.277   3.181
 3359SOL     OW10975   0.243   5.214   4.012
 3359SOL    HW110976   0.280   5.297   3.970
 3359SOL    HW210977   0.160   5.186   3.964
 3360SOL     OW10978   0.720   2.704   5.971
 3360SOL    HW110979   0.705   2.791   5.924
 3360SOL    HW210980   0.697   2.714   6.068
 3361SOL     OW10981   0.856   0.203   4.357
 3361SOL    HW110982   0.949   0.185   4.324
 3361SOL    HW210983   0.790   0.175   4.288
 3362SOL     OW10984   3.936   1.643   4.061
 3362SOL    HW110985   3.954   1.553   4.102
 3362SOL    HW210986   3.918   1.709   4.134
 3363SOL     OW10987   6.538   3.153   1.356
 3363SOL    HW110988   6.494   3.065   1.371
 3363SOL    HW210989   6.587   3.152   1.269
 3364SOL     OW10990   1.460   4.205   2.612
 3364SOL    HW110991   1.364   4.183   2.632
 3364SOL    HW210992   1.511   4.211   2.698
 3365SOL     OW10993   2.215   3.127   4.613
 3365SOL    HW110994   2.204   3.155   4.709
 3365SOL    HW210995   2.254   3.035   4.610
 3366SOL     OW10996   6.988   3.434   4.323
 3366SOL    HW110997   7.002   3.440   4.225
 3366SOL    HW210998   0.002   3.349   4.358
 3367SOL     OW10999   3.677   3.609   4.424
 3367SOL    HW111000   3.664   3.685   4.489
 3367SOL    HW211001   3.765   3.619   4.378
 3368SOL     OW11002   1.564   6.397   6.568
 3368SOL    HW111003   1.511   6.394   6.484
 3368SOL    HW211004   1.557   6.309   6.615
 3369SOL     OW11005   4.254   1.645   1.454
 3369SOL    HW111006   4.183   1.703   1.415
 3369SOL    HW211007   4.214   1.583   1.522
 3370SOL     OW11008   6.688   6.117   1.400
 3370SOL    HW111009   6.776   6.146   1.363
 3370SOL    HW211010   6.657   6.035   1.352
 3371SOL     OW11011   2.133   3.576   2.434
 3371SOL    HW111012   2.140   3.487   2.389
 3371SOL    HW211013   2.122   3.647   2.365
 3372SOL     OW11014   6.902   3.005   1.301
 3372SOL    HW111015   6.877   3.034   1.394
 3372SOL    HW211016   7.001   3.016   1.289
 3373SOL     OW11017   0.144   1.255   1.846
 3373SOL    HW111018   0.099   1.311   1.777
 3373SOL    HW211019   0.223   1.304   1.883
 3374SOL     OW11020   0.429   6.644   4.034
 3374SOL    HW111021   0.528   6.629   4.025
 3374SOL    HW211022   0.412   6.741   4.050
 3375SOL     OW11023   6.839   4.795   6.743
 3375SOL    HW111024   6.848   4.829   6.649
 3375SOL    HW211025   6.865   4.699   6.747
 3376SOL     OW11026   2.321   3.126   5.575
 3376SOL    HW111027   2.359   3.217   5.591
 3376SOL    HW211028   2.327   3.104   5.478
 3377SOL     OW11029   6.298   5.309   4.383
 3377SOL    HW111030   6.226   5.251   4.345
 3377SOL    HW211031   6.261   5.361   4.460
 3378SOL     OW11032   0.893   6.554   6.809
 3378SOL    HW111033   0.859   6.608   6.886
 3378SOL    HW211034   0.815   6.522   6.755
 3379SOL     OW11035   0.917   3.352   4.336
 3379SOL    HW111036   0.998   3.352   4.277
 3379SOL    HW211037   0.942   3.384   4.427
 3380SOL     OW11038   3.865   4.544   5.805
 3380SOL    HW111039   3.874   4.602   5.885
 3380SOL    HW211040   3.768   4.525   5.788
 3381SOL     OW11041   0.809   3.022   1.787
 3381SOL    HW111042   0.795   3.033   1.688
 3381SOL    HW211043   0.733   2.970   1.826
 3382SOL     OW11044   6.808   2.398   1.304
 3382SOL    HW111045   6.756   2.316   1.330
 3382SOL    HW211046   6.819   2.457   1.384
 3383SOL     OW11047   3.495   4.970   0.308
 3383SOL    HW111048   3.490   4.924   0.219
 3383SOL    HW211049   3.493   4.902   0.381
 3384SOL     OW11050   2.832   4.658   0.210
 3384SOL    HW111051   2.772   4.692   0.282
 3384SOL    HW211052   2.856   4.563   0.228
 3385SOL     OW11053   7.024   2.178   3.589
 3385SOL    HW111054   0.099   2.168   3.592
 3385SOL    HW211055   6.993   2.174   3.494
 3386SOL     OW11056   6.500   4.682   6.839
 3386SOL    HW111057   6.529   4.588   6.859
 3386SOL    HW211058   6.442   4.681   6.757
 3387SOL     OW11059   5.568   0.888   3.138
 3387SOL    HW111060   5.628   0.861   3.213
 3387SOL    HW211061   5.614   0.871   3.051
 3388SOL     OW11062   5.143   4.052   1.416
 3388SOL    HW111063   5.060   4.066   1.469
 3388SOL    HW211064   5.154   4.129   1.352
 3389SOL     OW11065   6.085   6.293   0.345
 3389SOL    HW111066   5.988   6.304   0.368
 3389SOL    HW211067   6.128   6.384   0.339
 3390SOL     OW11068   3.978   6.632   5.708
 3390SOL    HW111069   4.032   6.551   5.685
 3390SOL    HW211070   3.884   6.605   5.729
 3391SOL     OW11071   5.812   3.016   3.865
 3391SOL    HW111072   5.782   3.111   3.861
 3391SOL    HW211073   5.912   3.011   3.862
 3392SOL     OW11074   4.307   6.865   4.903
 3392SOL    HW111075   4.217   6.883   4.941
 3392SOL    HW211076   4.377   6.885   4.971
 3393SOL     OW11077   4.879   0.263   0.668
 3393SOL    HW111078   4.806   0.228   0.726
 3393SOL    HW211079   4.862   0.236   0.573
 3394SOL     OW11080   3.409   5.120   1.041
 3394SOL    HW111081   3.479   5.188   1.062
 3394SOL    HW211082   3.340   5.120   1.113
 3395SOL     OW11083   3.938   0.850   3.042
 3395SOL    HW111084   4.006   0.822   2.974
 3395SOL    HW211085   3.882   0.771   3.066
 3396SOL     OW11086   5.594   0.711   3.815
 3396SOL    HW111087   5.660   0.646   3.854
 3396SOL    HW211088   5.594   0.795   3.869
 3397SOL     OW11089   2.266   5.952   6.288
 3397SOL    HW111090   2.308   5.882   6.346
 3397SOL    HW211091   2.166   5.943   6.293
 3398SOL     OW11092   0.564   1.631   5.699
 3398SOL    HW111093   0.611   1.688   5.766
 3398SOL    HW211094   0.470   1.662   5.687
 3399SOL     OW11095   0.428   4.475   3.174
 3399SOL    HW111096   0.455   4.411   3.246
 3399SOL    HW211097   0.337   4.512   3.195
 3400SOL     OW11098   5.620   3.200   5.793
 3400SOL    HW111099   5.539   3.164   5.746
 3400SOL    HW211100   5.594   3.232   5.884
 3401SOL     OW11101   6.599   3.836   6.473
 3401SOL    HW111102   6.510   3.821   6.515
 3401SOL    HW211103   6.619   3.762   6.409
 3402SOL     OW11104   6.711   5.205   0.989
 3402SOL    HW111105   6.800   5.236   0.955
 3402SOL    HW211106   6.639   5.265   0.956
 3403SOL     OW11107   4.820   6.352   5.890
 3403SOL    HW111108   4.803   6.255   5.871
 3403SOL    HW211109   4.751   6.386   5.954
 3404SOL     OW11110   4.890   3.302   6.027
 3404SOL    HW111111   4.836   3.338   5.951
 3404SOL    HW211112   4.911   3.377   6.090
 3405SOL     OW11113   5.657   6.310   5.932
 3405SOL    HW111114   5.656   6.253   6.013
 3405SOL    HW211115   5.566   6.311   5.890
 3406SOL     OW11116   2.028   4.048   2.293
 3406SOL    HW111117   2.031   4.140   2.255
 3406SOL    HW211118   1.941   4.035   2.341
 3407SOL     OW11119   2.308   4.166   0.787
 3407SOL    HW111120   2.316   4.249   0.731
 3407SOL    HW211121   2.382   4.103   0.763
 3408SOL     OW11122   4.480   2.455   4.032
 3408SOL    HW111123   4.404   2.392   4.013
 3408SOL    HW211124   4.480   2.480   4.128
 3409SOL     OW11125   4.162   6.820   0.289
 3409SOL    HW111126   4.137   6.898   0.230
 3409SOL    HW211127   4.089   6.752   0.287
 3410SOL     OW11128   5.962   6.513   2.811
 3410SOL    HW111129   6.061   6.519   2.797
 3410SOL    HW211130   5.915   6.529   2.724
 3411SOL     OW11131   6.789   1.830   1.107
 3411SOL    HW111132   6.804   1.788   1.197
 3411SOL    HW211133   6.746   1.763   1.046
 3412SOL     OW11134   5.395   3.798   1.585
 3412SOL    HW111135   5.420   3.704   1.561
 3412SOL    HW211136   5.303   3.799   1.625
 3413SOL     OW11137   6.384   1.889   6.413
 3413SOL    HW111138   6.476   1.871   6.378
 3413SOL    HW211139   6.321   1.898   6.335
 3414SOL     OW11140   3.900   3.036   0.117
 3414SOL    HW111141   3.863   2.943   0.113
 3414SOL    HW211142   3.892   3.079   0.027
 3415SOL     OW11143   2.622   2.370   4.382
 3415SOL    HW111144   2.646   2.416   4.467
 3415SOL    HW211145   2.702   2.362   4.323
 3416SOL     OW11146   6.347   0.397   0.156
 3416SOL    HW111147   6.376   0.414   0.250
 3416SOL    HW211148   6.264   0.448   0.136
 3417SOL     OW11149   0.559   0.324   3.424
 3417SOL    HW111150   0.555   0.265   3.343
 3417SOL    HW211151   0.655   0.344   3.446
 3418SOL     OW11152   4.094   5.455   2.778
 3418SOL    HW111153   4.101   5.550   2.808
 3418SOL    HW211154   4.067   5.451   2.682
 3419SOL     OW11155   3.866   5.766   5.477
 3419SOL    HW111156   3.938   5.803   5.536
 3419SOL    HW211157   3.838   5.677   5.511
 3420SOL     OW11158   4.690   2.796   3.990
 3420SOL    HW111159   4.619   2.782   3.921
 3420SOL    HW211160   4.745   2.714   3.999
 3421SOL     OW11161   5.428   1.732   3.774
 3421SOL    HW111162   5.478   1.818   3.781
 3421SOL    HW211163   5.373   1.732   3.690
 3422SOL     OW11164   2.176   0.093   0.207
 3422SOL    HW111165   2.133   0.182   0.194
 3422SOL    HW211166   2.227   0.068   0.125
 3423SOL     OW11167   0.727   4.237   5.968
 3423SOL    HW111168   0.720   4.198   6.060
 3423SOL    HW211169   0.817   4.279   5.957
 3424SOL     OW11170   4.258   6.585   1.300
 3424SOL    HW111171   4.167   6.547   1.283
 3424SOL    HW211172   4.259   6.631   1.388
 3425SOL     OW11173   5.016   4.074   1.685
 3425SOL    HW111174   5.062   4.019   1.755
 3425SOL    HW211175   4.987   4.161   1.725
 3426SOL     OW11176   5.291   3.312   0.878
 3426SOL    HW111177   5.325   3.287   0.968
 3426SOL    HW211178   5.361   3.292   0.809
 3427SOL     OW11179   1.301   2.353   1.020
 3427SOL    HW111180   1.340   2.428   1.074
 3427SOL    HW211181   1.375   2.298   0.982
 3428SOL     OW11182   4.884   5.310   5.464
 3428SOL    HW111183   4.807   5.370   5.481
 3428SOL    HW211184   4.880   5.277   5.369
 3429SOL     OW11185   0.368   1.075   1.046
 3429SOL    HW111186   0.297   1.009   1.021
 3429SOL    HW211187   0.436   1.080   0.973
 3430SOL     OW11188   2.216   4.725   5.757
 3430SOL    HW111189   2.178   4.773   5.678
 3430SOL    HW211190   2.175   4.634   5.764
 3431SOL     OW11191   2.095   6.563   2.545
 3431SOL    HW111192   2.148   6.611   2.615
 3431SOL    HW211193   2.043   6.488   2.587
 3432SOL     OW11194   2.266   4.935   6.799
 3432SOL    HW111195   2.326   4.878   6.855
 3432SOL    HW211196   2.222   4.879   6.729
 3433SOL     OW11197   2.494   0.960   6.298
 3433SOL    HW111198   2.512   0.993   6.205
 3433SOL    HW211199   2.571   0.905   6.329
 3434SOL     OW11200   2.792   2.095   2.014
 3434SOL    HW111201   2.876   2.148   2.025
 3434SOL    HW211202   2.795   2.045   1.928
 3435SOL     OW11203   2.000   0.984   0.227
 3435SOL    HW111204   1.994   0.989   0.327
 3435SOL    HW211205   2.045   0.899   0.201
 3436SOL     OW11206   4.201   5.273   0.223
 3436SOL    HW111207   4.225   5.176   0.227
 3436SOL    HW211208   4.116   5.289   0.274
 3437SOL     OW11209   1.295   6.673   6.074
 3437SOL    HW111210   1.357   6.624   6.135
 3437SOL    HW211211   1.203   6.635   6.082
 3438SOL     OW11212   0.864   3.559   1.315
 3438SOL    HW111213   0.888   3.463   1.332
 3438SOL    HW211214   0.817   3.567   1.227
 3439SOL     OW11215   2.148   5.949   2.664
 3439SOL    HW111216   2.223   5.910   2.611
 3439SOL    HW211217   2.072   5.972   2.603
 3440SOL     OW11218   3.604   2.857   4.905
 3440SOL    HW111219   3.591   2.759   4.920
 3440SOL    HW211220   3.702   2.879   4.911
 3441SOL     OW11221   5.984   5.511   6.187
 3441SOL    HW111222   5.949   5.453   6.112
 3441SOL    HW211223   5.908   5.563   6.226
 3442SOL     OW11224   3.004   4.015   1.439
 3442SOL    HW111225   2.969   4.014   1.532
 3442SOL    HW211226   3.011   3.922   1.405
 3443SOL     OW11227   3.055   5.896   2.566
 3443SOL    HW111228   2.988   5.888   2.492
 3443SOL    HW211229   3.114   5.976   2.548
 3444SOL     OW11230   5.606   4.458   1.267
 3444SOL    HW111231   5.578   4.389   1.200
 3444SOL    HW211232   5.604   4.548   1.225
 3445SOL     OW11233   6.245   4.875   3.908
 3445SOL    HW111234   6.313   4.834   3.969
 3445SOL    HW211235   6.169   4.911   3.962
 3446SOL     OW11236   5.525   6.930   1.861
 3446SOL    HW111237   5.465   6.866   1.814
 3446SOL    HW211238   5.470   6.990   1.920
 3447SOL     OW11239   5.304   0.615   0.125
 3447SOL    HW111240   5.238   0.683   0.093
 3447SOL    HW211241   5.331   0.556   0.049
 3448SOL     OW11242   1.395   6.436   5.260
 3448SOL    HW111243   1.343   6.370   5.314
 3448SOL    HW211244   1.492   6.429   5.283
 3449SOL     OW11245   6.324   5.296   5.250
 3449SOL    HW111246   6.301   5.376   5.305
 3449SOL    HW211247   6.313   5.318   5.153
 3450SOL     OW11248   1.355   0.172   6.513
 3450SOL    HW111249   1.279   0.147   6.453
 3450SOL    HW211250   1.428   0.105   6.504
 3451SOL     OW11251   1.566   5.962   0.719
 3451SOL    HW111252   1.584   6.047   0.767
 3451SOL    HW211253   1.471   5.934   0.735
 3452SOL     OW11254   5.532   1.141   5.388
 3452SOL    HW111255   5.478   1.218   5.355
 3452SOL    HW211256   5.477   1.057   5.382
 3453SOL     OW11257   5.759   6.579   5.887
 3453SOL    HW111258   5.706   6.627   5.816
 3453SOL    HW211259   5.721   6.488   5.900
 3454SOL     OW11260   1.776   2.827   3.078
 3454SOL    HW111261   1.745   2.909   3.030
 3454SOL    HW211262   1.728   2.819   3.166
 3455SOL     OW11263   1.732   2.634   4.858
 3455SOL    HW111264   1.794   2.678   4.923
 3455SOL    HW211265   1.679   2.704   4.811
 3456SOL     OW11266   4.456   4.562   2.081
 3456SOL    HW111267   4.411   4.645   2.112
 3456SOL    HW211268   4.516   4.583   2.004
 3457SOL     OW11269   3.705   5.330   4.940
 3457SOL    HW111270   3.616   5.304   4.901
 3457SOL    HW211271   3.774   5.264   4.911
 3458SOL     OW11272   4.695   1.741   2.464
 3458SOL    HW111273   4.739   1.814   2.412
 3458SOL    HW211274   4.745   1.656   2.450
 3459SOL     OW11275   3.900   1.305   2.750
 3459SOL    HW111276   3.855   1.231   2.800
 3459SOL    HW211277   3.952   1.267   2.673
 3460SOL     OW11278   3.958   1.637   5.659
 3460SOL    HW111279   4.030   1.705   5.651
 3460SOL    HW211280   3.911   1.647   5.747
 3461SOL     OW11281   5.562   4.688   6.557
 3461SOL    HW111282   5.594   4.669   6.650
 3461SOL    HW211283   5.466   4.717   6.559
 3462SOL     OW11284   2.314   3.526   6.448
 3462SOL    HW111285   2.277   3.525   6.541
 3462SOL    HW211286   2.400   3.475   6.445
 3463SOL     OW11287   0.183   3.832   0.884
 3463SOL    HW111288   0.132   3.865   0.964
 3463SOL    HW211289   0.274   3.802   0.912
 3464SOL     OW11290   0.440   4.588   6.461
 3464SOL    HW111291   0.443   4.567   6.559
 3464SOL    HW211292   0.363   4.648   6.442
 3465SOL     OW11293   1.834   1.527   1.490
 3465SOL    HW111294   1.931   1.512   1.506
 3465SOL    HW211295   1.813   1.511   1.394
 3466SOL     OW11296   7.010   4.854   5.834
 3466SOL    HW111297   6.967   4.895   5.914
 3466SOL    HW211298   6.989   4.756   5.831
 3467SOL     OW11299   2.110   2.241   6.514
 3467SOL    HW111300   2.148   2.258   6.424
 3467SOL    HW211301   2.075   2.326   6.553
 3468SOL     OW11302   2.699   6.104   3.443
 3468SOL    HW111303   2.611   6.092   3.397
 3468SOL    HW211304   2.773   6.073   3.383
 3469SOL     OW11305   6.849   2.208   3.780
 3469SOL    HW111306   6.917   2.207   3.853
 3469SOL    HW211307   6.893   2.182   3.693
 3470SOL     OW11308   0.400   5.185   1.255
 3470SOL    HW111309   0.319   5.132   1.280
 3470SOL    HW211310   0.426   5.244   1.331
 3471SOL     OW11311   4.227   5.847   5.093
 3471SOL    HW111312   4.191   5.863   5.185
 3471SOL    HW211313   4.180   5.769   5.052
 3472SOL     OW11314   2.600   0.993   4.560
 3472SOL    HW111315   2.657   0.911   4.566
 3472SOL    HW211316   2.506   0.969   4.584
 3473SOL     OW11317   5.927   1.436   5.740
 3473SOL    HW111318   5.970   1.426   5.650
 3473SOL    HW211319   5.828   1.428   5.730
 3474SOL     OW11320   3.329   4.874   2.180
 3474SOL    HW111321   3.332   4.970   2.152
 3474SOL    HW211322   3.362   4.816   2.105
 3475SOL     OW11323   1.136   6.661   4.057
 3475SOL    HW111324   1.159   6.587   4.119
 3475SOL    HW211325   1.095   6.737   4.108
 3476SOL     OW11326   4.609   1.210   4.542
 3476SOL    HW111327   4.682   1.268   4.576
 3476SOL    HW211328   4.644   1.117   4.529
 3477SOL     OW11329   4.145   5.919   0.984
 3477SOL    HW111330   4.096   5.834   1.003
 3477SOL    HW211331   4.133   5.944   0.888
 3478SOL     OW11332   3.066   5.935   5.884
 3478SOL    HW111333   2.988   5.950   5.824
 3478SOL    HW211334   3.090   6.020   5.931
 3479SOL     OW11335   0.490   0.978   2.260
 3479SOL    HW111336   0.540   0.896   2.232
 3479SOL    HW211337   0.542   1.059   2.234
 3480SOL     OW11338   6.874   1.263   3.723
 3480SOL    HW111339   6.963   1.260   3.676
 3480SOL    HW211340   6.841   1.169   3.736
 3481SOL     OW11341   3.061   6.491   6.343
 3481SOL    HW111342   3.035   6.475   6.248
 3481SOL    HW211343   3.129   6.563   6.347
 3482SOL     OW11344   6.402   1.911   1.772
 3482SOL    HW111345   6.490   1.863   1.772
 3482SOL    HW211346   6.330   1.848   1.744
 3483SOL     OW11347   2.087   0.836   1.692
 3483SOL    HW111348   2.103   0.890   1.775
 3483SOL    HW211349   2.104   0.893   1.612
 3484SOL     OW11350   3.564   2.970   3.206
 3484SOL    HW111351   3.474   3.012   3.216
 3484SOL    HW211352   3.579   2.945   3.110
 3485SOL     OW11353   2.061   2.095   5.100
 3485SOL    HW111354   2.029   2.188   5.082
 3485SOL    HW211355   2.091   2.054   5.014
 3486SOL     OW11356   4.393   1.167   1.621
 3486SOL    HW111357   4.427   1.178   1.714
 3486SOL    HW211358   4.465   1.193   1.556
 3487SOL     OW11359   5.778   1.505   6.563
 3487SOL    HW111360   5.814   1.598   6.565
 3487SOL    HW211361   5.678   1.507   6.573
 3488SOL     OW11362   6.236   3.440   4.095
 3488SOL    HW111363   6.302   3.515   4.108
 3488SOL    HW211364   6.273   3.356   4.135
 3489SOL     OW11365   3.535   6.755   1.011
 3489SOL    HW111366   3.438   6.760   1.035
 3489SOL    HW211367   3.590   6.778   1.091
 3490SOL     OW11368   5.558   3.994   0.269
 3490SOL    HW111369   5.601   3.984   0.179
 3490SOL    HW211370   5.464   3.960   0.266
 3491SOL     OW11371   0.097   3.100   5.532
 3491SOL    HW111372   0.044   3.183   5.550
 3491SOL    HW211373   0.092   3.039   5.611
 3492SOL     OW11374   0.498   5.648   6.759
 3492SOL    HW111375   0.564   5.722   6.744
 3492SOL    HW211376   0.546   5.560   6.755
 3493SOL     OW11377   6.062   5.135   1.226
 3493SOL    HW111378   6.147   5.187   1.229
 3493SOL    HW211379   6.078   5.043   1.261
 3494SOL     OW11380   3.880   0.251   1.726
 3494SOL    HW111381   3.968   0.218   1.760
 3494SOL    HW211382   3.859   0.339   1.769
 3495SOL     OW11383   3.966   5.670   2.138
 3495SOL    HW111384   3.879   5.622   2.155
 3495SOL    HW211385   3.953   5.737   2.065
 3496SOL     OW11386   1.904   2.831   1.002
 3496SOL    HW111387   1.889   2.755   0.939
 3496SOL    HW211388   2.002   2.850   1.011
 3497SOL     OW11389   4.372   1.109   3.180
 3497SOL    HW111390   4.298   1.070   3.126
 3497SOL    HW211391   4.358   1.087   3.277
 3498SOL     OW11392   2.819   1.213   1.255
 3498SOL    HW111393   2.815   1.154   1.175
 3498SOL    HW211394   2.728   1.218   1.298
 3499SOL     OW11395   0.238   3.122   3.947
 3499SOL    HW111396   0.313   3.101   4.011
 3499SOL    HW211397   0.194   3.038   3.918
 3500SOL     OW11398   6.044   3.983   6.514
 3500SOL    HW111399   5.946   3.997   6.524
 3500SOL    HW211400   6.063   3.940   6.425
 3501SOL     OW11401   1.302   4.747   5.224
 3501SOL    HW111402   1.306   4.788   5.315
 3501SOL    HW211403   1.373   4.678   5.215
 3502SOL     OW11404   0.376   1.502   1.601
 3502SOL    HW111405   0.330   1.413   1.598
 3502SOL    HW211406   0.424   1.517   1.515
 3503SOL     OW11407   4.320   5.441   5.491
 3503SOL    HW111408   4.365   5.493   5.419
 3503SOL    HW211409   4.383   5.429   5.568
 3504SOL     OW11410   2.686   3.783   1.373
 3504SOL    HW111411   2.611   3.716   1.372
 3504SOL    HW211412   2.660   3.864   1.321
 3505SOL     OW11413   5.644   6.233   5.010
 3505SOL    HW111414   5.627   6.188   4.922
 3505SOL    HW211415   5.732   6.200   5.046
 3506SOL     OW11416   3.976   5.518   4.024
 3506SOL    HW111417   4.018   5.505   4.114
 3506SOL    HW211418   4.038   5.572   3.966
 3507SOL     OW11419   1.253   0.777   6.379
 3507SOL    HW111420   1.237   0.875   6.369
 3507SOL    HW211421   1.316   0.746   6.308
 3508SOL     OW11422   5.240   2.636   0.693
 3508SOL    HW111423   5.226   2.702   0.767
 3508SOL    HW211424   5.209   2.546   0.724
 3509SOL     OW11425   6.124   6.125   6.982
 3509SOL    HW111426   6.134   6.073   6.898
 3509SOL    HW211427   6.081   6.069   0.027
 3510SOL     OW11428   1.845   2.383   1.382
 3510SOL    HW111429   1.784   2.304   1.391
 3510SOL    HW211430   1.924   2.370   1.442
 3511SOL     OW11431   0.352   2.688   6.661
 3511SOL    HW111432   0.429   2.678   6.724
 3511SOL    HW211433   0.384   2.722   6.573
 3512SOL     OW11434   1.881   3.507   0.302
 3512SOL    HW111435   1.972   3.498   0.263
 3512SOL    HW211436   1.814   3.460   0.244
 3513SOL     OW11437   6.589   4.284   1.095
 3513SOL    HW111438   6.594   4.369   1.042
 3513SOL    HW211439   6.632   4.210   1.043
 3514SOL     OW11440   0.464   6.612   1.519
 3514SOL    HW111441   0.502   6.699   1.552
 3514SOL    HW211442   0.367   6.607   1.546
 3515SOL     OW11443   2.585   6.507   2.929
 3515SOL    HW111444   2.543   6.496   3.019
 3515SOL    HW211445   2.514   6.508   2.859
 3516SOL     OW11446   3.352   0.737   0.449
 3516SOL    HW111447   3.343   0.637   0.445
 3516SOL    HW211448   3.352   0.774   0.357
 3517SOL     OW11449   0.741   1.387   6.973
 3517SOL    HW111450   0.699   1.299   6.995
 3517SOL    HW211451   0.807   1.374   6.899
 3518SOL     OW11452   4.617   3.669   6.817
 3518SOL    HW111453   4.627   3.610   6.897
 3518SOL    HW211454   4.706   3.709   6.794
 3519SOL     OW11455   1.048   6.792   6.747
 3519SOL    HW111456   0.985   6.713   6.743
 3519SOL    HW211457   1.141   6.759   6.763
 3520SOL     OW11458   4.000   4.835   1.225
 3520SOL    HW111459   4.011   4.779   1.307
 3520SOL    HW211460   3.975   4.777   1.148
 3521SOL     OW11461   5.748   2.615   1.675
 3521SOL    HW111462   5.698   2.533   1.648
 3521SOL    HW211463   5.753   2.620   1.774
 3522SOL     OW11464   2.968   4.961   1.696
 3522SOL    HW111465   2.992   4.902   1.620
 3522SOL    HW211466   2.932   4.906   1.772
 3523SOL     OW11467   2.993   4.840   4.930
 3523SOL    HW111468   2.938   4.891   4.863
 3523SOL    HW211469   2.935   4.775   4.979
 3524SOL     OW11470   2.527   0.389   0.783
 3524SOL    HW111471   2.553   0.295   0.808
 3524SOL    HW211472   2.586   0.422   0.710
 3525SOL     OW11473   0.558   2.918   1.833
 3525SOL    HW111474   0.566   2.819   1.843
 3525SOL    HW211475   0.466   2.941   1.800
 3526SOL     OW11476   0.673   0.890   3.176
 3526SOL    HW111477   0.766   0.887   3.139
 3526SOL    HW211478   0.609   0.915   3.104
 3527SOL     OW11479   5.329   2.818   6.496
 3527SOL    HW111480   5.300   2.906   6.533
 3527SOL    HW211481   5.390   2.773   6.562
 3528SOL     OW11482   0.669   5.620   3.147
 3528SOL    HW111483   0.679   5.681   3.068
 3528SOL    HW211484   0.757   5.575   3.166
 3529SOL     OW11485   4.845   6.778   5.528
 3529SOL    HW111486   4.937   6.805   5.500
 3529SOL    HW211487   4.851   6.694   5.582
 3530SOL     OW11488   2.572   5.604   2.590
 3530SOL    HW111489   2.584   5.508   2.616
 3530SOL    HW211490   2.604   5.617   2.496
 3531SOL     OW11491   5.908   4.832   0.518
 3531SOL    HW111492   5.973   4.871   0.583
 3531SOL    HW211493   5.816   4.867   0.538
 3532SOL     OW11494   2.688   0.771   6.914
 3532SOL    HW111495   2.684   0.680   6.872
 3532SOL    HW211496   2.773   0.781   6.965
 3533SOL     OW11497   1.396   1.985   3.507
 3533SOL    HW111498   1.379   1.988   3.606
 3533SOL    HW211499   1.309   1.970   3.460
 3534SOL     OW11500   5.788   2.028   5.551
 3534SOL    HW111501   5.725   2.068   5.484
 3534SOL    HW211502   5.769   2.067   5.641
 3535SOL     OW11503   6.247   5.122   6.540
 3535SOL    HW111504   6.298   5.112   6.454
 3535SOL    HW211505   6.254   5.217   6.572
 3536SOL     OW11506   2.097   3.104   3.096
 3536SOL    HW111507   2.154   3.055   3.030
 3536SOL    HW211508   2.086   3.199   3.067
 3537SOL     OW11509   2.422   5.657   0.530
 3537SOL    HW111510   2.454   5.585   0.468
 3537SOL    HW211511   2.485   5.735   0.525
 3538SOL     OW11512   3.076   6.633   2.537
 3538SOL    HW111513   3.142   6.561   2.556
 3538SOL    HW211514   3.109   6.690   2.462
 3539SOL     OW11515   5.590   4.724   6.203
 3539SOL    HW111516   5.653   4.799   6.183
 3539SOL    HW211517   5.604   4.650   6.137
 3540SOL     OW11518   2.263   3.229   6.674
 3540SOL    HW111519   2.256   3.222   6.774
 3540SOL    HW211520   2.323   3.306   6.651
 3541SOL     OW11521   2.983   3.095   0.974
 3541SOL    HW111522   2.924   3.169   0.943
 3541SOL    HW211523   2.931   3.009   0.974
 3542SOL     OW11524   5.348   2.669   0.009
 3542SOL    HW111525   5.382   2.752   6.990
 3542SOL    HW211526   5.411   2.641   0.082
 3543SOL     OW11527   2.175   2.968   2.884
 3543SOL    HW111528   2.141   2.883   2.844
 3543SOL    HW211529   2.151   3.045   2.825
 3544SOL     OW11530   2.913   4.541   6.150
 3544SOL    HW111531   2.858   4.560   6.232
 3544SOL    HW211532   2.964   4.623   6.125
 3545SOL     OW11533   3.665   6.494   1.004
 3545SOL    HW111534   3.695   6.494   1.100
 3545SOL    HW211535   3.618   6.580   0.984
 3546SOL     OW11536   6.401   3.755   3.100
 3546SOL    HW111537   6.446   3.665   3.098
 3546SOL    HW211538   6.447   3.816   3.035
 3547SOL     OW11539   0.237   3.478   5.221
 3547SOL    HW111540   0.310   3.464   5.287
 3547SOL    HW211541   0.219   3.576   5.211
 3548SOL     OW11542   5.076   1.813   6.087
 3548SOL    HW111543   5.060   1.789   5.991
 3548SOL    HW211544   5.034   1.745   6.146
 3549SOL     OW11545   2.721   5.924   0.194
 3549SOL    HW111546   2.754   5.919   0.100
 3549SOL    HW211547   2.774   5.861   0.251
 3550SOL     OW11548   5.166   1.794   5.490
 3550SOL    HW111549   5.104   1.872   5.492
 3550SOL    HW211550   5.232   1.806   5.416
 3551SOL     OW11551   3.951   2.272   5.535
 3551SOL    HW111552   3.870   2.232   5.494
 3551SOL    HW211553   3.925   2.354   5.586
 3552SOL     OW11554   6.930   5.802   1.978
 3552SOL    HW111555   6.866   5.859   1.927
 3552SOL    HW211556   6.968   5.732   1.917
 3553SOL     OW11557   3.999   5.978   6.093
 3553SOL    HW111558   3.963   5.966   6.186
 3553SOL    HW211559   3.999   6.076   6.070
 3554SOL     OW11560   4.160   3.566   1.335
 3554SOL    HW111561   4.088   3.595   1.271
 3554SOL    HW211562   4.226   3.508   1.288
 3555SOL     OW11563   1.716   2.389   3.775
 3555SOL    HW111564   1.751   2.313   3.721
 3555SOL    HW211565   1.676   2.355   3.860
 3556SOL     OW11566   4.238   0.908   5.062
 3556SOL    HW111567   4.237   1.006   5.042
 3556SOL    HW211568   4.229   0.894   5.160
 3557SOL     OW11569   0.266   0.885   2.356
 3557SOL    HW111570   0.285   0.790   2.382
 3557SOL    HW211571   0.351   0.930   2.329
 3558SOL     OW11572   3.246   6.475   0.717
 3558SOL    HW111573   3.271   6.432   0.804
 3558SOL    HW211574   3.169   6.426   0.677
 3559SOL     OW11575   3.602   6.487   4.814
 3559SOL    HW111576   3.541   6.476   4.735
 3559SOL    HW211577   3.671   6.416   4.813
 3560SOL     OW11578   1.478   5.437   5.111
 3560SOL    HW111579   1.469   5.400   5.019
 3560SOL    HW211580   1.568   5.416   5.148
 3561SOL     OW11581   4.820   4.484   5.230
 3561SOL    HW111582   4.722   4.504   5.224
 3561SOL    HW211583   4.836   4.414   5.299
 3562SOL     OW11584   2.308   1.498   4.857
 3562SOL    HW111585   2.398   1.469   4.890
 3562SOL    HW211586   2.237   1.445   4.904
 3563SOL     OW11587   6.116   2.090   5.982
 3563SOL    HW111588   6.036   2.139   6.018
 3563SOL    HW211589   6.085   2.009   5.932
 3564SOL     OW11590   0.066   4.483   2.881
 3564SOL    HW111591   7.005   4.453   2.923
 3564SOL    HW211592   0.129   4.406   2.877
 3565SOL     OW11593   3.482   5.223   2.910
 3565SOL    HW111594   3.471   5.233   2.811
 3565SOL    HW211595   3.488   5.126   2.933
 3566SOL     OW11596   6.525   1.208   5.487
 3566SOL    HW111597   6.499   1.140   5.556
 3566SOL    HW211598   6.510   1.300   5.523
 3567SOL     OW11599   0.334   4.374   6.987
 3567SOL    HW111600   0.412   4.341   0.015
 3567SOL    HW211601   0.337   4.335   6.895
 3568SOL     OW11602   6.791   3.563   6.006
 3568SOL    HW111603   6.862   3.511   6.055
 3568SOL    HW211604   6.835   3.618   5.935
 3569SOL     OW11605   2.908   1.757   5.568
 3569SOL    HW111606   2.910   1.847   5.524
 3569SOL    HW211607   2.814   1.733   5.590
 3570SOL     OW11608   5.665   0.807   4.266
 3570SOL    HW111609   5.761   0.790   4.243
 3570SOL    HW211610   5.613   0.817   4.182
 3571SOL     OW11611   6.518   5.918   6.616
 3571SOL    HW111612   6.474   6.008   6.623
 3571SOL    HW211613   6.549   5.904   6.522
 3572SOL     OW11614   5.419   3.386   3.628
 3572SOL    HW111615   5.460   3.444   3.699
 3572SOL    HW211616   5.361   3.441   3.568
 3573SOL     OW11617   0.966   4.527   4.007
 3573SOL    HW111618   0.950   4.625   3.994
 3573SOL    HW211619   1.032   4.514   4.081
 3574SOL     OW11620   0.277   4.957   0.290
 3574SOL    HW111621   0.234   4.896   0.224
 3574SOL    HW211622   0.303   4.906   0.372
 3575SOL     OW11623   5.855   5.262   3.191
 3575SOL    HW111624   5.868   5.183   3.251
 3575SOL    HW211625   5.763   5.261   3.153
 3576SOL     OW11626   1.108   1.482   6.180
 3576SOL    HW111627   1.084   1.432   6.096
 3576SOL    HW211628   1.112   1.580   6.160
 3577SOL     OW11629   0.773   2.599   6.704
 3577SOL    HW111630   0.737   2.516   6.662
 3577SOL    HW211631   0.710   2.630   6.776
 3578SOL     OW11632   3.444   4.040   6.771
 3578SOL    HW111633   3.463   4.073   6.863
 3578SOL    HW211634   3.353   4.072   6.742
 3579SOL     OW11635   6.703   3.544   4.890
 3579SOL    HW111636   6.739   3.605   4.961
 3579SOL    HW211637   6.727   3.450   4.913
 3580SOL     OW11638   5.304   1.924   1.864
 3580SOL    HW111639   5.315   2.001   1.926
 3580SOL    HW211640   5.313   1.955   1.769
 3581SOL     OW11641   6.851   0.019   2.825
 3581SOL    HW111642   6.789   6.978   2.783
 3581SOL    HW211643   6.943   7.005   2.829
 3582SOL     OW11644   1.293   1.530   5.532
 3582SOL    HW111645   1.242   1.516   5.617
 3582SOL    HW211646   1.303   1.442   5.485
 3583SOL     OW11647   1.028   4.707   6.944
 3583SOL    HW111648   1.067   4.778   7.003
 3583SOL    HW211649   0.938   4.679   6.978
 3584SOL     OW11650   6.140   6.290   6.240
 3584SOL    HW111651   6.163   6.363   6.175
 3584SOL    HW211652   6.143   6.327   6.333
 3585SOL     OW11653   3.426   5.287   4.936
 3585SOL    HW111654   3.396   5.203   4.891
 3585SOL    HW211655   3.404   5.282   5.034
 3586SOL     OW11656   6.148   2.715   5.323
 3586SOL    HW111657   6.145   2.615   5.324
 3586SOL    HW211658   6.059   2.751   5.296
 3587SOL     OW11659   2.885   6.943   1.257
 3587SOL    HW111660   2.794   6.906   1.270
 3587SOL    HW211661   2.944   6.916   1.333
 3588SOL     OW11662   1.831   2.165   5.532
 3588SOL    HW111663   1.808   2.094   5.599
 3588SOL    HW211664   1.928   2.188   5.540
 3589SOL     OW11665   3.628   0.869   4.379
 3589SOL    HW111666   3.545   0.845   4.329
 3589SOL    HW211667   3.608   0.941   4.446
 3590SOL     OW11668   1.182   4.771   6.358
 3590SOL    HW111669   1.101   4.730   6.398
 3590SOL    HW211670   1.257   4.705   6.359
 3591SOL     OW11671   5.646   3.029   6.414
 3591SOL    HW111672   5.553   2.999   6.431
 3591SOL    HW211673   5.690   2.966   6.350
 3592SOL     OW11674   5.275   3.028   2.875
 3592SOL    HW111675   5.196   3.071   2.832
 3592SOL    HW211676   5.244   2.973   2.953
 3593SOL     OW11677   2.557   6.307   4.537
 3593SOL    HW111678   2.493   6.255   4.594
 3593SOL    HW211679   2.623   6.353   4.596
 3594SOL     OW11680   2.980   1.035   3.273
 3594SOL    HW111681   3.021   1.038   3.182
 3594SOL    HW211682   2.932   0.948   3.285
 3595SOL     OW11683   2.380   6.244   5.406
 3595SOL    HW111684   2.363   6.305   5.484
 3595SOL    HW211685   2.460   6.275   5.356
 3596SOL     OW11686   6.535   0.895   2.568
 3596SOL    HW111687   6.492   0.960   2.505
 3596SOL    HW211688   6.632   0.885   2.545
 3597SOL     OW11689   3.806   6.276   4.432
 3597SOL    HW111690   3.759   6.354   4.392
 3597SOL    HW211691   3.743   6.227   4.493
 3598SOL     OW11692   0.718   0.604   5.508
 3598SOL    HW111693   0.661   0.677   5.470
 3598SOL    HW211694   0.796   0.588   5.448
 3599SOL     OW11695   0.609   1.774   5.945
 3599SOL    HW111696   0.626   1.872   5.951
 3599SOL    HW211697   0.689   1.724   5.979
 3600SOL     OW11698   6.694   3.242   0.586
 3600SOL    HW111699   6.621   3.294   0.629
 3600SOL    HW211700   6.780   3.259   0.634
 3601SOL     OW11701   0.091   4.230   0.767
 3601SOL    HW111702   0.128   4.152   0.717
 3601SOL    HW211703   0.008   4.263   0.722
 3602SOL     OW11704   1.990   1.020   0.512
 3602SOL    HW111705   2.038   1.048   0.595
 3602SOL    HW211706   1.945   0.932   0.528
 3603SOL     OW11707   3.784   5.799   4.115
 3603SOL    HW111708   3.735   5.734   4.057
 3603SOL    HW211709   3.840   5.750   4.181
 3604SOL     OW11710   6.936   3.150   2.640
 3604SOL    HW111711   6.971   3.156   2.734
 3604SOL    HW211712   6.843   3.185   2.637
 3605SOL     OW11713   6.221   4.347   5.927
 3605SOL    HW111714   6.148   4.330   5.992
 3605SOL    HW211715   6.202   4.298   5.842
 3606SOL     OW11716   6.930   4.992   6.060
 3606SOL    HW111717   6.970   4.961   6.146
 3606SOL    HW211718   6.991   5.058   6.016
 3607SOL     OW11719   5.166   0.377   0.299
 3607SOL    HW111720   5.235   0.445   0.325
 3607SOL    HW211721   5.076   0.406   0.332
 3608SOL     OW11722   6.647   1.420   1.874
 3608SOL    HW111723   6.742   1.445   1.892
 3608SOL    HW211724   6.617   1.461   1.788
 3609SOL     OW11725   6.449   1.011   4.295
 3609SOL    HW111726   6.512   1.034   4.369
 3609SOL    HW211727   6.426   0.913   4.300
 3610SOL     OW11728   0.700   0.245   5.102
 3610SOL    HW111729   0.668   0.296   5.182
 3610SOL    HW211730   0.702   0.305   5.022
 3611SOL     OW11731   3.703   5.128   5.275
 3611SOL    HW111732   3.773   5.134   5.204
 3611SOL    HW211733   3.717   5.044   5.328
 3612SOL     OW11734   0.760   6.249   6.184
 3612SOL    HW111735   0.717   6.227   6.096
 3612SOL    HW211736   0.845   6.299   6.168
 3613SOL     OW11737   5.098   5.163   0.877
 3613SOL    HW111738   5.195   5.179   0.900
 3613SOL    HW211739   5.044   5.240   0.910
 3614SOL     OW11740   3.660   3.410   3.114
 3614SOL    HW111741   3.642   3.405   3.213
 3614SOL    HW211742   3.694   3.501   3.092
 3615SOL     OW11743   5.993   5.965   5.736
 3615SOL    HW111744   5.926   6.040   5.731
 3615SOL    HW211745   5.944   5.878   5.739
 3616SOL     OW11746   6.112   2.397   6.887
 3616SOL    HW111747   6.178   2.383   6.813
 3616SOL    HW211748   6.153   2.368   6.974
 3617SOL     OW11749   5.403   1.844   6.492
 3617SOL    HW111750   5.378   1.750   6.470
 3617SOL    HW211751   5.351   1.875   6.572
 3618SOL     OW11752   1.276   1.765   5.412
 3618SOL    HW111753   1.288   1.683   5.467
 3618SOL    HW211754   1.299   1.846   5.467
 3619SOL     OW11755   5.845   2.153   4.088
 3619SOL    HW111756   5.927   2.138   4.144
 3619SOL    HW211757   5.828   2.251   4.080
 3620SOL     OW11758   5.783   6.581   5.575
 3620SOL    HW111759   5.816   6.597   5.482
 3620SOL    HW211760   5.700   6.524   5.571
 3621SOL     OW11761   2.851   2.688   6.073
 3621SOL    HW111762   2.795   2.690   5.990
 3621SOL    HW211763   2.821   2.760   6.136
 3622SOL     OW11764   0.873   2.030   3.189
 3622SOL    HW111765   0.929   2.086   3.129
 3622SOL    HW211766   0.797   1.990   3.138
 3623SOL     OW11767   6.321   5.215   4.078
 3623SOL    HW111768   6.277   5.239   3.992
 3623SOL    HW211769   6.263   5.243   4.154
 3624SOL     OW11770   2.015   6.065   2.458
 3624SOL    HW111771   2.022   6.139   2.391
 3624SOL    HW211772   1.998   5.979   2.410
 3625SOL     OW11773   6.167   2.862   6.378
 3625SOL    HW111774   6.102   2.809   6.323
 3625SOL    HW211775   6.117   2.927   6.435
 3626SOL     OW11776   2.481   3.362   5.591
 3626SOL    HW111777   2.434   3.446   5.563
 3626SOL    HW211778   2.572   3.360   5.550
 3627SOL     OW11779   3.971   3.953   3.490
 3627SOL    HW111780   3.882   3.981   3.454
 3627SOL    HW211781   3.970   3.960   3.590
 3628SOL     OW11782   1.942   6.827   1.878
 3628SOL    HW111783   2.027   6.795   1.921
 3628SOL    HW211784   1.908   6.907   1.928
 3629SOL     OW11785   6.620   1.876   5.350
 3629SOL    HW111786   6.536   1.929   5.364
 3629SOL    HW211787   6.680   1.926   5.286
 3630SOL     OW11788   5.591   2.679   4.134
 3630SOL    HW111789   5.667   2.665   4.071
 3630SOL    HW211790   5.626   2.689   4.227
 3631SOL     OW11791   2.277   0.413   4.461
 3631SOL    HW111792   2.328   0.410   4.547
 3631SOL    HW211793   2.335   0.379   4.386
 3632SOL     OW11794   5.042   0.691   0.784
 3632SOL    HW111795   4.977   0.621   0.754
 3632SOL    HW211796   4.993   0.766   0.829
 3633SOL     OW11797   3.283   2.346   5.840
 3633SOL    HW111798   3.247   2.367   5.931
 3633SOL    HW211799   3.209   2.312   5.782
 3634SOL     OW11800   0.569   5.599   4.319
 3634SOL    HW111801   0.471   5.611   4.335
 3634SOL    HW211802   0.620   5.647   4.390
 3635SOL     OW11803   3.805   0.438   5.487
 3635SOL    HW111804   3.876   0.398   5.429
 3635SOL    HW211805   3.819   0.537   5.492
 3636SOL     OW11806   0.709   5.912   5.788
 3636SOL    HW111807   0.808   5.923   5.783
 3636SOL    HW211808   0.667   5.947   5.704
 3637SOL     OW11809   6.439   1.804   1.283
 3637SOL    HW111810   6.424   1.903   1.291
 3637SOL    HW211811   6.490   1.772   1.363
 3638SOL     OW11812   6.337   4.835   4.392
 3638SOL    HW111813   6.255   4.779   4.380
 3638SOL    HW211814   6.363   4.875   4.303
 3639SOL     OW11815   4.113   3.682   0.998
 3639SOL    HW111816   4.168   3.598   1.001
 3639SOL    HW211817   4.067   3.689   0.910
 3640SOL     OW11818   3.452   6.463   6.456
 3640SOL    HW111819   3.473   6.499   6.366
 3640SOL    HW211820   3.489   6.370   6.464
 3641SOL     OW11821   4.157   2.204   4.942
 3641SOL    HW111822   4.163   2.206   4.842
 3641SOL    HW211823   4.177   2.295   4.979
 3642SOL     OW11824   4.744   1.747   6.109
 3642SOL    HW111825   4.756   1.826   6.169
 3642SOL    HW211826   4.826   1.690   6.111
 3643SOL     OW11827   2.761   5.776   4.517
 3643SOL    HW111828   2.674   5.761   4.564
 3643SOL    HW211829   2.825   5.703   4.542
 3644SOL     OW11830   6.783   0.940   1.496
 3644SOL    HW111831   6.811   0.903   1.585
 3644SOL    HW211832   6.716   0.879   1.454
 3645SOL     OW11833   5.597   0.941   3.984
 3645SOL    HW111834   5.651   1.023   3.964
 3645SOL    HW211835   5.505   0.968   4.010
 3646SOL     OW11836   0.287   4.912   6.034
 3646SOL    HW111837   0.342   4.894   5.952
 3646SOL    HW211838   0.344   4.961   6.101
 3647SOL     OW11839   1.665   4.019   0.568
 3647SOL    HW111840   1.706   3.964   0.495
 3647SOL    HW211841   1.635   3.960   0.642
 3648SOL     OW11842   3.318   5.804   2.496
 3648SOL    HW111843   3.351   5.846   2.580
 3648SOL    HW211844   3.218   5.799   2.497
 3649SOL     OW11845   4.090   3.236   1.328
 3649SOL    HW111846   4.128   3.245   1.236
 3649SOL    HW211847   4.008   3.292   1.335
 3650SOL     OW11848   6.705   5.696   0.892
 3650SOL    HW111849   6.632   5.764   0.900
 3650SOL    HW211850   6.779   5.734   0.836
 3651SOL     OW11851   0.706   5.775   2.896
 3651SOL    HW111852   0.728   5.785   2.798
 3651SOL    HW211853   0.612   5.803   2.912
 3652SOL     OW11854   5.089   6.058   3.298
 3652SOL    HW111855   5.050   6.134   3.246
 3652SOL    HW211856   5.082   6.077   3.396
 3653SOL     OW11857   6.621   0.591   3.158
 3653SOL    HW111858   6.524   0.593   3.184
 3653SOL    HW211859   6.665   0.513   3.202
 3654SOL     OW11860   2.103   6.597   0.086
 3654SOL    HW111861   2.053   6.684   0.086
 3654SOL    HW211862   2.123   6.570   7.016
 3655SOL     OW11863   1.214   6.924   3.877
 3655SOL    HW111864   1.162   6.848   3.837
 3655SOL    HW211865   1.150   6.993   3.911
 3656SOL     OW11866   1.588   2.832   1.313
 3656SOL    HW111867   1.645   2.873   1.384
 3656SOL    HW211868   1.611   2.736   1.302
 3657SOL     OW11869   5.163   5.843   5.877
 3657SOL    HW111870   5.179   5.829   5.974
 3657SOL    HW211871   5.138   5.938   5.860
 3658SOL     OW11872   1.335   5.133   4.028
 3658SOL    HW111873   1.334   5.216   3.972
 3658SOL    HW211874   1.429   5.115   4.058
 3659SOL     OW11875   3.164   3.661   5.555
 3659SOL    HW111876   3.180   3.759   5.570
 3659SOL    HW211877   3.234   3.608   5.603
 3660SOL     OW11878   5.090   6.495   1.935
 3660SOL    HW111879   5.112   6.592   1.932
 3660SOL    HW211880   5.004   6.482   1.984
 3661SOL     OW11881   4.302   2.414   6.687
 3661SOL    HW111882   4.370   2.419   6.614
 3661SOL    HW211883   4.246   2.332   6.676
 3662SOL     OW11884   3.159   0.706   4.211
 3662SOL    HW111885   3.111   0.673   4.130
 3662SOL    HW211886   3.228   0.639   4.239
 3663SOL     OW11887   1.557   1.239   0.466
 3663SOL    HW111888   1.651   1.241   0.434
 3663SOL    HW211889   1.507   1.164   0.422
 3664SOL     OW11890   5.122   1.765   1.446
 3664SOL    HW111891   5.072   1.721   1.521
 3664SOL    HW211892   5.057   1.794   1.376
 3665SOL     OW11893   0.657   6.021   5.546
 3665SOL    HW111894   0.566   6.010   5.506
 3665SOL    HW211895   0.691   6.113   5.527
 3666SOL     OW11896   1.869   4.136   3.675
 3666SOL    HW111897   1.866   4.205   3.747
 3666SOL    HW211898   1.954   4.083   3.683
 3667SOL     OW11899   6.123   0.130   0.418
 3667SOL    HW111900   6.054   0.196   0.388
 3667SOL    HW211901   6.129   0.131   0.518
 3668SOL     OW11902   1.410   0.257   1.383
 3668SOL    HW111903   1.403   0.157   1.385
 3668SOL    HW211904   1.506   0.284   1.375
 3669SOL     OW11905   5.829   1.287   4.673
 3669SOL    HW111906   5.790   1.275   4.764
 3669SOL    HW211907   5.781   1.229   4.608
 3670SOL     OW11908   2.200   5.206   0.703
 3670SOL    HW111909   2.277   5.254   0.746
 3670SOL    HW211910   2.191   5.115   0.743
 3671SOL     OW11911   6.348   0.553   3.205
 3671SOL    HW111912   6.271   0.615   3.218
 3671SOL    HW211913   6.314   0.466   3.169
 3672SOL     OW11914   5.591   1.656   0.930
 3672SOL    HW111915   5.610   1.652   1.028
 3672SOL    HW211916   5.675   1.641   0.878
 3673SOL     OW11917   3.139   0.713   5.772
 3673SOL    HW111918   3.054   0.765   5.777
 3673SOL    HW211919   3.131   0.630   5.827
 3674SOL     OW11920   0.431   0.657   5.728
 3674SOL    HW111921   0.488   0.578   5.751
 3674SOL    HW211922   0.429   0.669   5.629
 3675SOL     OW11923   1.624   3.033   5.041
 3675SOL    HW111924   1.560   3.060   5.113
 3675SOL    HW211925   1.717   3.060   5.067
 3676SOL     OW11926   4.300   5.082   4.410
 3676SOL    HW111927   4.219   5.050   4.458
 3676SOL    HW211928   4.380   5.072   4.469
 3677SOL     OW11929   1.255   6.094   2.977
 3677SOL    HW111930   1.231   6.034   3.053
 3677SOL    HW211931   1.331   6.054   2.925
 3678SOL     OW11932   1.100   3.204   3.850
 3678SOL    HW111933   1.060   3.288   3.814
 3678SOL    HW211934   1.185   3.225   3.897
 3679SOL     OW11935   1.113   1.211   2.652
 3679SOL    HW111936   1.078   1.304   2.648
 3679SOL    HW211937   1.106   1.177   2.746
 3680SOL     OW11938   6.707   3.054   3.448
 3680SOL    HW111939   6.690   3.004   3.533
 3680SOL    HW211940   6.762   2.997   3.387
 3681SOL     OW11941   0.164   0.361   5.630
 3681SOL    HW111942   0.226   0.366   5.708
 3681SOL    HW211943   0.113   0.447   5.623
 3682SOL     OW11944   6.487   2.586   6.209
 3682SOL    HW111945   6.445   2.579   6.300
 3682SOL    HW211946   6.416   2.587   6.139
 3683SOL     OW11947   6.929   0.261   4.442
 3683SOL    HW111948   7.013   0.207   4.450
 3683SOL    HW211949   6.851   0.200   4.431
 3684SOL     OW11950   1.414   3.608   0.477
 3684SOL    HW111951   1.364   3.693   0.461
 3684SOL    HW211952   1.466   3.615   0.562
 3685SOL     OW11953   6.527   6.144   5.956
 3685SOL    HW111954   6.480   6.071   6.005
 3685SOL    HW211955   6.536   6.223   6.017
 3686SOL     OW11956   6.360   5.391   3.376
 3686SOL    HW111957   6.320   5.459   3.438
 3686SOL    HW211958   6.418   5.438   3.309
 3687SOL     OW11959   2.886   6.011   5.674
 3687SOL    HW111960   2.808   6.051   5.723
 3687SOL    HW211961   2.929   6.081   5.617
 3688SOL     OW11962   1.335   3.850   6.736
 3688SOL    HW111963   1.433   3.837   6.726
 3688SOL    HW211964   1.291   3.760   6.749
 3689SOL     OW11965   1.299   0.709   5.582
 3689SOL    HW111966   1.206   0.673   5.571
 3689SOL    HW211967   1.301   0.774   5.659
 3690SOL     OW11968   3.959   6.921   6.193
 3690SOL    HW111969   3.921   6.933   6.101
 3690SOL    HW211970   3.995   6.828   6.201
 3691SOL     OW11971   2.329   2.757   0.156
 3691SOL    HW111972   2.309   2.792   0.247
 3691SOL    HW211973   2.342   2.833   0.093
 3692SOL     OW11974   0.757   5.911   5.083
 3692SOL    HW111975   0.682   5.911   5.149
 3692SOL    HW211976   0.787   5.817   5.067
 3693SOL     OW11977   1.752   3.288   2.485
 3693SOL    HW111978   1.777   3.326   2.396
 3693SOL    HW211979   1.810   3.209   2.505
 3694SOL     OW11980   1.140   5.083   2.508
 3694SOL    HW111981   1.144   5.101   2.606
 3694SOL    HW211982   1.070   5.141   2.466
 3695SOL     OW11983   0.441   2.627   2.715
 3695SOL    HW111984   0.511   2.557   2.704
 3695SOL    HW211985   0.368   2.593   2.774
 3696SOL     OW11986   4.058   5.627   5.008
 3696SOL    HW111987   4.076   5.617   5.106
 3696SOL    HW211988   4.078   5.540   4.962
 3697SOL     OW11989   6.983   5.447   3.905
 3697SOL    HW111990   6.899   5.430   3.956
 3697SOL    HW211991   0.022   5.498   3.962
 3698SOL     OW11992   3.204   6.328   4.821
 3698SOL    HW111993   3.163   6.288   4.739
 3698SOL    HW211994   3.287   6.277   4.844
 3699SOL     OW11995   6.367   3.989   2.702
 3699SOL    HW111996   6.301   4.048   2.750
 3699SOL    HW211997   6.355   3.999   2.603
 3700SOL     OW11998   6.242   0.399   3.879
 3700SOL    HW111999   6.246   0.483   3.934
 3700SOL    HW212000   6.313   0.335   3.910
 3701SOL     OW12001   0.545   1.247   3.233
 3701SOL    HW112002   0.642   1.257   3.210
 3701SOL    HW212003   0.504   1.336   3.250
 3702SOL     OW12004   4.300   0.588   2.466
 3702SOL    HW112005   4.272   0.682   2.447
 3702SOL    HW212006   4.235   0.546   2.531
 3703SOL     OW12007   4.398   3.419   6.472
 3703SOL    HW112008   4.367   3.450   6.383
 3703SOL    HW212009   4.360   3.329   6.491
 3704SOL     OW12010   2.841   0.698   1.512
 3704SOL    HW112011   2.899   0.688   1.430
 3704SOL    HW212012   2.895   0.677   1.593
 3705SOL     OW12013   5.126   6.402   4.204
 3705SOL    HW112014   5.028   6.390   4.214
 3705SOL    HW212015   5.154   6.485   4.253
 3706SOL     OW12016   0.863   2.918   4.623
 3706SOL    HW112017   0.931   2.890   4.555
 3706SOL    HW212018   0.779   2.946   4.576
 3707SOL     OW12019   5.324   3.957   5.274
 3707SOL    HW112020   5.371   4.041   5.248
 3707SOL    HW212021   5.380   3.878   5.249
 3708SOL     OW12022   6.099   0.797   6.522
 3708SOL    HW112023   6.119   0.867   6.453
 3708SOL    HW212024   6.126   0.707   6.488
 3709SOL     OW12025   3.865   0.687   0.299
 3709SOL    HW112026   3.773   0.721   0.276
 3709SOL    HW212027   3.883   0.702   0.396
 3710SOL     OW12028   6.509   5.802   0.193
 3710SOL    HW112029   6.463   5.751   0.266
 3710SOL    HW212030   6.577   5.863   0.233
 3711SOL     OW12031   0.030   5.966   2.329
 3711SOL    HW112032   0.108   5.994   2.274
 3711SOL    HW212033   6.988   6.040   2.334
 3712SOL     OW12034   6.779   5.814   6.646
 3712SOL    HW112035   6.689   5.846   6.677
 3712SOL    HW212036   6.844   5.820   6.721
 3713SOL     OW12037   1.492   6.364   4.470
 3713SOL    HW112038   1.487   6.369   4.570
 3713SOL    HW212039   1.421   6.303   4.436
 3714SOL     OW12040   4.840   5.940   4.633
 3714SOL    HW112041   4.924   5.898   4.668
 3714SOL    HW212042   4.857   6.036   4.612
 3715SOL     OW12043   5.898   3.589   4.430
 3715SOL    HW112044   5.802   3.611   4.413
 3715SOL    HW212045   5.952   3.673   4.431
 3716SOL     OW12046   6.703   6.954   4.674
 3716SOL    HW112047   6.667   6.900   4.750
 3716SOL    HW212048   6.782   7.007   4.705
 3717SOL     OW12049   6.335   5.554   6.840
 3717SOL    HW112050   6.305   5.460   6.824
 3717SOL    HW212051   6.315   5.580   6.935
 3718SOL     OW12052   2.342   6.845   5.670
 3718SOL    HW112053   2.377   6.938   5.652
 3718SOL    HW212054   2.261   6.829   5.615
 3719SOL     OW12055   4.878   4.546   0.849
 3719SOL    HW112056   4.800   4.518   0.794
 3719SOL    HW212057   4.885   4.646   0.850
 3720SOL     OW12058   5.583   2.201   6.016
 3720SOL    HW112059   5.567   2.244   6.105
 3720SOL    HW212060   5.609   2.106   6.029
 3721SOL     OW12061   5.324   4.925   0.586
 3721SOL    HW112062   5.251   4.986   0.615
 3721SOL    HW212063   5.353   4.868   0.662
 3722SOL     OW12064   0.271   0.092   2.592
 3722SOL    HW112065   0.365   0.125   2.604
 3722SOL    HW212066   0.240   0.113   2.499
 3723SOL     OW12067   6.559   6.407   1.740
 3723SOL    HW112068   6.463   6.411   1.765
 3723SOL    HW212069   6.612   6.369   1.816
 3724SOL     OW12070   2.313   5.404   0.047
 3724SOL    HW112071   2.364   5.481   0.085
 3724SOL    HW212072   2.360   5.371   6.990
 3725SOL     OW12073   5.183   6.326   6.904
 3725SOL    HW112074   5.227   6.240   6.877
 3725SOL    HW212075   5.141   6.315   6.994
 3726SOL     OW12076   6.342   4.814   1.595
 3726SOL    HW112077   6.253   4.811   1.642
 3726SOL    HW212078   6.328   4.841   1.499
 3727SOL     OW12079   0.124   3.306   6.216
 3727SOL    HW112080   0.149   3.279   6.309
 3727SOL    HW212081   0.050   3.373   6.220
 3728SOL     OW12082   1.472   3.894   0.083
 3728SOL    HW112083   1.551   3.920   0.138
 3728SOL    HW212084   1.413   3.974   0.071
 3729SOL     OW12085   0.965   2.338   3.922
 3729SOL    HW112086   1.045   2.393   3.943
 3729SOL    HW212087   0.954   2.332   3.823
 3730SOL     OW12088   2.782   5.866   6.755
 3730SOL    HW112089   2.826   5.920   6.827
 3730SOL    HW212090   2.837   5.869   6.672
 3731SOL     OW12091   4.349   0.234   0.375
 3731SOL    HW112092   4.331   0.136   0.384
 3731SOL    HW212093   4.389   0.252   0.285
 3732SOL     OW12094   1.648   2.792   6.496
 3732SOL    HW112095   1.550   2.795   6.517
 3732SOL    HW212096   1.697   2.854   6.557
 3733SOL     OW12097   1.787   3.698   1.414
 3733SOL    HW112098   1.831   3.620   1.371
 3733SOL    HW212099   1.762   3.764   1.343
 3734SOL     OW12100   4.102   1.749   1.771
 3734SOL    HW112101   4.164   1.680   1.734
 3734SOL    HW212102   4.011   1.709   1.782
 3735SOL     OW12103   1.786   1.826   3.365
 3735SOL    HW112104   1.841   1.747   3.338
 3735SOL    HW212105   1.789   1.895   3.293
 3736SOL     OW12106   0.359   3.041   0.511
 3736SOL    HW112107   0.266   3.036   0.547
 3736SOL    HW212108   0.424   3.038   0.587
 3737SOL     OW12109   5.124   0.373   3.016
 3737SOL    HW112110   5.031   0.343   2.994
 3737SOL    HW212111   5.125   0.473   3.026
 3738SOL     OW12112   6.787   6.588   3.367
 3738SOL    HW112113   6.749   6.501   3.338
 3738SOL    HW212114   6.713   6.649   3.397
 3739SOL     OW12115   1.730   4.398   2.312
 3739SOL    HW112116   1.671   4.413   2.391
 3739SOL    HW212117   1.700   4.317   2.263
 3740SOL     OW12118   4.511   0.330   6.846
 3740SOL    HW112119   4.546   0.380   6.767
 3740SOL    HW212120   4.411   0.325   6.840
 3741SOL     OW12121   4.643   3.412   1.572
 3741SOL    HW112122   4.552   3.373   1.558
 3741SOL    HW212123   4.636   3.511   1.585
 3742SOL     OW12124   2.903   2.021   5.519
 3742SOL    HW112125   2.973   2.065   5.464
 3742SOL    HW212126   2.818   2.014   5.467
 3743SOL     OW12127   5.803   4.692   0.819
 3743SOL    HW112128   5.801   4.595   0.843
 3743SOL    HW212129   5.852   4.743   0.889
 3744SOL     OW12130   0.888   5.487   3.183
 3744SOL    HW112131   0.955   5.450   3.248
 3744SOL    HW212132   0.879   5.425   3.106
 3745SOL     OW12133   3.327   5.545   2.443
 3745SOL    HW112134   3.319   5.643   2.463
 3745SOL    HW212135   3.258   5.495   2.495
 3746SOL     OW12136   4.449   1.396   2.146
 3746SOL    HW112137   4.478   1.448   2.226
 3746SOL    HW212138   4.413   1.460   2.077
 3747SOL     OW12139   3.347   0.063   5.943
 3747SOL    HW112140   3.257   0.076   5.984
 3747SOL    HW212141   3.337   0.018   5.854
 3748SOL     OW12142   5.509   0.263   1.712
 3748SOL    HW112143   5.544   0.353   1.686
 3748SOL    HW212144   5.463   0.270   1.801
 3749SOL     OW12145   1.541   6.562   3.867
 3749SOL    HW112146   1.453   6.553   3.914
 3749SOL    HW212147   1.541   6.509   3.783
 3750SOL     OW12148   1.741   4.266   0.350
 3750SOL    HW112149   1.681   4.299   0.277
 3750SOL    HW212150   1.836   4.291   0.330
 3751SOL     OW12151   6.913   3.910   2.556
 3751SOL    HW112152   6.842   3.851   2.515
 3751SOL    HW212153   6.956   3.965   2.484
 3752SOL     OW12154   4.751   0.897   5.117
 3752SOL    HW112155   4.665   0.920   5.071
 3752SOL    HW212156   4.734   0.882   5.214
 3753SOL     OW12157   6.002   0.295   4.943
 3753SOL    HW112158   5.930   0.228   4.960
 3753SOL    HW212159   6.049   0.272   4.858
 3754SOL     OW12160   2.276   1.018   2.019
 3754SOL    HW112161   2.280   1.107   1.974
 3754SOL    HW212162   2.369   0.983   2.031
 3755SOL     OW12163   3.024   5.782   4.704
 3755SOL    HW112164   3.007   5.724   4.624
 3755SOL    HW212165   3.042   5.723   4.784
 3756SOL     OW12166   3.112   5.645   6.630
 3756SOL    HW112167   3.204   5.675   6.654
 3756SOL    HW212168   3.117   5.562   6.574
 3757SOL     OW12169   0.045   5.015   1.810
 3757SOL    HW112170   0.052   5.003   1.909
 3757SOL    HW212171   6.983   4.976   1.778
 3758SOL     OW12172   2.079   1.587   4.704
 3758SOL    HW112173   2.174   1.571   4.733
 3758SOL    HW212174   2.079   1.632   4.615
 3759SOL     OW12175   4.351   0.656   5.041
 3759SOL    HW112176   4.333   0.751   5.064
 3759SOL    HW212177   4.378   0.649   4.945
 3760SOL     OW12178   0.163   0.097   3.412
 3760SOL    HW112179   0.224   0.157   3.464
 3760SOL    HW212180   0.117   0.150   3.341
 3761SOL     OW12181   6.579   1.079   4.528
 3761SOL    HW112182   6.507   1.144   4.552
 3761SOL    HW212183   6.657   1.129   4.490
 3762SOL     OW12184   1.084   4.055   2.095
 3762SOL    HW112185   1.098   4.154   2.108
 3762SOL    HW212186   1.124   4.006   2.173
 3763SOL     OW12187   6.319   3.791   0.483
 3763SOL    HW112188   6.261   3.870   0.503
 3763SOL    HW212189   6.278   3.738   0.408
 3764SOL     OW12190   1.851   0.559   2.971
 3764SOL    HW112191   1.909   0.478   2.972
 3764SOL    HW212192   1.907   0.640   2.987
 3765SOL     OW12193   5.909   1.760   1.520
 3765SOL    HW112194   5.951   1.670   1.529
 3765SOL    HW212195   5.972   1.830   1.555
 3766SOL     OW12196   2.204   2.512   4.068
 3766SOL    HW112197   2.266   2.545   4.138
 3766SOL    HW212198   2.172   2.590   4.012
 3767SOL     OW12199   3.599   4.264   6.049
 3767SOL    HW112200   3.663   4.207   5.996
 3767SOL    HW212201   3.527   4.206   6.086
 3768SOL     OW12202   1.067   0.524   4.488
 3768SOL    HW112203   1.023   0.557   4.405
 3768SOL    HW212204   1.076   0.600   4.553
 3769SOL     OW12205   5.642   5.416   5.070
 3769SOL    HW112206   5.697   5.448   5.147
 3769SOL    HW212207   5.559   5.371   5.104
 3770SOL     OW12208   1.348   1.398   7.011
 3770SOL    HW112209   1.326   1.486   0.028
 3770SOL    HW212210   1.439   1.369   0.016
 3771SOL     OW12211   6.114   5.166   0.339
 3771SOL    HW112212   6.172   5.088   0.364
 3771SOL    HW212213   6.054   5.190   0.415
 3772SOL     OW12214   1.469   6.518   0.275
 3772SOL    HW112215   1.478   6.612   0.307
 3772SOL    HW212216   1.500   6.510   0.181
 3773SOL     OW12217   5.477   4.032   5.666
 3773SOL    HW112218   5.394   4.079   5.634
 3773SOL    HW212219   5.494   4.058   5.761
 3774SOL     OW12220   5.813   5.021   1.659
 3774SOL    HW112221   5.822   4.973   1.572
 3774SOL    HW212222   5.744   4.976   1.715
 3775SOL     OW12223   4.002   4.836   3.791
 3775SOL    HW112224   3.980   4.804   3.699
 3775SOL    HW212225   4.065   4.772   3.835
 3776SOL     OW12226   3.542   2.811   6.238
 3776SOL    HW112227   3.634   2.811   6.200
 3776SOL    HW212228   3.514   2.904   6.258
 3777SOL     OW12229   2.570   6.056   3.124
 3777SOL    HW112230   2.524   6.057   3.213
 3777SOL    HW212231   2.525   5.991   3.063
 3778SOL     OW12232   1.781   6.434   4.371
 3778SOL    HW112233   1.690   6.394   4.382
 3778SOL    HW212234   1.839   6.372   4.320
 3779SOL     OW12235   0.368   5.198   0.505
 3779SOL    HW112236   0.285   5.213   0.452
 3779SOL    HW212237   0.384   5.276   0.565
 3780SOL     OW12238   0.342   2.723   3.044
 3780SOL    HW112239   0.397   2.798   3.008
 3780SOL    HW212240   0.384   2.636   3.020
 3781SOL     OW12241   0.652   6.591   4.735
 3781SOL    HW112242   0.565   6.579   4.782
 3781SOL    HW212243   0.722   6.618   4.801
 3782SOL     OW12244   3.766   6.501   2.305
 3782SOL    HW112245   3.757   6.598   2.329
 3782SOL    HW212246   3.693   6.449   2.351
 3783SOL     OW12247   5.633   4.853   5.016
 3783SOL    HW112248   5.602   4.779   5.074
 3783SOL    HW212249   5.565   4.871   4.945
 3784SOL     OW12250   5.366   2.666   2.244
 3784SOL    HW112251   5.406   2.653   2.335
 3784SOL    HW212252   5.394   2.591   2.185
 3785SOL     OW12253   0.889   3.194   5.076
 3785SOL    HW112254   0.857   3.286   5.051
 3785SOL    HW212255   0.985   3.184   5.051
 3786SOL     OW12256   2.007   2.664   3.096
 3786SOL    HW112257   1.944   2.738   3.117
 3786SOL    HW212258   2.004   2.644   2.998
 3787SOL     OW12259   4.904   0.356   3.215
 3787SOL    HW112260   4.901   0.345   3.314
 3787SOL    HW212261   4.899   0.453   3.192
 3788SOL     OW12262   6.456   4.311   5.097
 3788SOL    HW112263   6.538   4.352   5.057
 3788SOL    HW212264   6.456   4.212   5.079
 3789SOL     OW12265   0.392   3.390   2.819
 3789SOL    HW112266   0.346   3.304   2.842
 3789SOL    HW212267   0.421   3.387   2.724
 3790SOL     OW12268   1.072   5.796   6.688
 3790SOL    HW112269   0.988   5.764   6.734
 3790SOL    HW212270   1.049   5.835   6.599
 3791SOL     OW12271   5.235   1.870   6.710
 3791SOL    HW112272   5.216   1.903   6.802
 3791SOL    HW212273   5.157   1.816   6.677
 3792SOL     OW12274   1.252   1.499   4.410
 3792SOL    HW112275   1.274   1.509   4.313
 3792SOL    HW212276   1.152   1.494   4.421
 3793SOL     OW12277   5.511   6.515   1.197
 3793SOL    HW112278   5.604   6.496   1.167
 3793SOL    HW212279   5.480   6.601   1.156
 3794SOL     OW12280   2.163   2.866   1.468
 3794SOL    HW112281   2.161   2.854   1.568
 3794SOL    HW212282   2.235   2.809   1.429
 3795SOL     OW12283   3.334   5.541   0.968
 3795SOL    HW112284   3.247   5.562   1.013
 3795SOL    HW212285   3.342   5.595   0.885
 3796SOL     OW12286   4.239   1.979   1.196
 3796SOL    HW112287   4.327   1.940   1.167
 3796SOL    HW212288   4.250   2.024   1.285
 3797SOL     OW12289   1.017   3.519   2.809
 3797SOL    HW112290   0.926   3.560   2.819
 3797SOL    HW212291   1.063   3.560   2.730
 3798SOL     OW12292   2.842   6.614   2.404
 3798SOL    HW112293   2.800   6.526   2.380
 3798SOL    HW212294   2.933   6.598   2.444
 3799SOL     OW12295   0.003   2.457   3.621
 3799SOL    HW112296   0.065   2.463   3.543
 3799SOL    HW212297   6.998   2.362   3.633
 3800SOL     OW12298   4.878   1.915   3.352
 3800SOL    HW112299   4.961   1.970   3.345
 3800SOL    HW212300   4.809   1.951   3.289
 3801SOL     OW12301   5.184   6.976   1.688
 3801SOL    HW112302   5.097   7.004   1.728
 3801SOL    HW212303   5.212   6.889   1.727
 3802SOL     OW12304   0.381   1.883   2.532
 3802SOL    HW112305   0.336   1.801   2.566
 3802SOL    HW212306   0.479   1.866   2.523
 3803SOL     OW12307   3.497   3.551   3.939
 3803SOL    HW112308   3.474   3.639   3.980
 3803SOL    HW212309   3.540   3.566   3.850
 3804SOL     OW12310   2.840   1.676   4.078
 3804SOL    HW112311   2.763   1.709   4.133
 3804SOL    HW212312   2.872   1.749   4.018
 3805SOL     OW12313   1.887   2.647   1.604
 3805SOL    HW112314   1.880   2.642   1.704
 3805SOL    HW212315   1.943   2.571   1.570
 3806SOL     OW12316   3.786   3.597   6.616
 3806SOL    HW112317   3.765   3.521   6.677
 3806SOL    HW212318   3.831   3.670   6.667
 3807SOL     OW12319   1.330   4.606   4.584
 3807SOL    HW112320   1.338   4.671   4.659
 3807SOL    HW212321   1.364   4.649   4.500
 3808SOL     OW12322   4.988   0.280   5.630
 3808SOL    HW112323   4.923   0.347   5.667
 3808SOL    HW212324   5.019   0.220   5.704
 3809SOL     OW12325   5.766   1.989   2.113
 3809SOL    HW112326   5.729   1.952   2.027
 3809SOL    HW212327   5.865   2.003   2.103
 3810SOL     OW12328   7.019   2.447   2.994
 3810SOL    HW112329   0.032   2.372   3.048
 3810SOL    HW212330   6.926   2.423   2.966
 3811SOL     OW12331   0.219   6.008   4.533
 3811SOL    HW112332   0.194   5.949   4.611
 3811SOL    HW212333   0.251   5.951   4.457
 3812SOL     OW12334   3.134   5.389   5.977
 3812SOL    HW112335   3.105   5.454   6.048
 3812SOL    HW212336   3.155   5.439   5.893
 3813SOL     OW12337   5.872   4.008   1.034
 3813SOL    HW112338   5.918   3.922   1.012
 3813SOL    HW212339   5.802   3.991   1.103
 3814SOL     OW12340   0.154   7.008   3.896
 3814SOL    HW112341   0.151   7.006   3.796
 3814SOL    HW212342   0.069   6.970   3.933
 3815SOL     OW12343   4.963   2.550   1.147
 3815SOL    HW112344   4.995   2.599   1.228
 3815SOL    HW212345   4.872   2.583   1.121
 3816SOL     OW12346   0.860   5.602   4.670
 3816SOL    HW112347   0.896   5.550   4.592
 3816SOL    HW212348   0.773   5.562   4.699
 3817SOL     OW12349   5.036   3.783   2.507
 3817SOL    HW112350   4.966   3.813   2.571
 3817SOL    HW212351   5.060   3.688   2.526
 3818SOL     OW12352   0.276   0.611   1.045
 3818SOL    HW112353   0.178   0.628   1.039
 3818SOL    HW212354   0.293   0.529   1.099
 3819SOL     OW12355   6.334   4.387   2.663
 3819SOL    HW112356   6.354   4.407   2.759
 3819SOL    HW212357   6.246   4.341   2.657
 3820SOL     OW12358   5.397   6.259   3.741
 3820SOL    HW112359   5.419   6.171   3.785
 3820SOL    HW212360   5.351   6.241   3.654
 3821SOL     OW12361   1.135   0.492   1.137
 3821SOL    HW112362   1.197   0.413   1.133
 3821SOL    HW212363   1.121   0.527   1.044
 3822SOL     OW12364   2.850   0.230   6.452
 3822SOL    HW112365   2.779   0.176   6.407
 3822SOL    HW212366   2.891   0.292   6.385
 3823SOL     OW12367   4.700   4.199   6.533
 3823SOL    HW112368   4.719   4.285   6.487
 3823SOL    HW212369   4.638   4.214   6.610
 3824SOL     OW12370   0.865   2.281   0.851
 3824SOL    HW112371   0.924   2.355   0.885
 3824SOL    HW212372   0.795   2.320   0.791
 3825SOL     OW12373   0.797   4.135   0.857
 3825SOL    HW112374   0.867   4.145   0.928
 3825SOL    HW212375   0.724   4.075   0.890
 3826SOL     OW12376   0.016   3.422   1.711
 3826SOL    HW112377   0.079   3.497   1.693
 3826SOL    HW212378   0.016   3.401   1.809
 3827SOL     OW12379   0.586   0.317   1.239
 3827SOL    HW112380   0.589   0.243   1.306
 3827SOL    HW212381   0.672   0.368   1.242
 3828SOL     OW12382   3.384   3.747   4.599
 3828SOL    HW112383   3.469   3.762   4.650
 3828SOL    HW212384   3.323   3.824   4.614
 3829SOL     OW12385   0.254   5.088   2.091
 3829SOL    HW112386   0.181   5.129   2.146
 3829SOL    HW212387   0.239   4.990   2.082
 3830SOL     OW12388   0.333   1.326   5.510
 3830SOL    HW112389   0.234   1.330   5.520
 3830SOL    HW212390   0.358   1.339   5.414
 3831SOL     OW12391   4.237   2.057   3.040
 3831SOL    HW112392   4.260   1.962   3.062
 3831SOL    HW212393   4.276   2.082   2.952
 3832SOL     OW12394   6.631   0.498   2.666
 3832SOL    HW112395   6.695   0.421   2.677
 3832SOL    HW212396   6.583   0.489   2.579
 3833SOL     OW12397   1.142   6.811   6.356
 3833SOL    HW112398   1.240   6.796   6.363
 3833SOL    HW212399   1.123   6.909   6.359
 3834SOL     OW12400   4.251   4.177   0.989
 3834SOL    HW112401   4.219   4.143   1.078
 3834SOL    HW212402   4.177   4.170   0.922
 3835SOL     OW12403   3.891   6.099   5.182
 3835SOL    HW112404   3.856   6.165   5.115
 3835SOL    HW212405   3.834   6.017   5.181
 3836SOL     OW12406   0.547   4.814   5.700
 3836SOL    HW112407   0.541   4.799   5.799
 3836SOL    HW212408   0.602   4.895   5.682
 3837SOL     OW12409   4.140   5.344   5.173
 3837SOL    HW112410   4.102   5.383   5.258
 3837SOL    HW212411   4.215   5.282   5.196
 3838SOL     OW12412   1.397   2.255   3.427
 3838SOL    HW112413   1.398   2.165   3.471
 3838SOL    HW212414   1.489   2.278   3.397
 3839SOL     OW12415   4.392   1.318   2.732
 3839SOL    HW112416   4.425   1.412   2.732
 3839SOL    HW212417   4.414   1.275   2.819
 3840SOL     OW12418   3.080   1.810   6.385
 3840SOL    HW112419   2.986   1.844   6.386
 3840SOL    HW212420   3.140   1.878   6.428
 3841SOL     OW12421   0.935   3.743   4.921
 3841SOL    HW112422   0.983   3.813   4.973
 3841SOL    HW212423   0.944   3.655   4.968
 3842SOL     OW12424   2.427   2.566   3.877
 3842SOL    HW112425   2.344   2.520   3.846
 3842SOL    HW212426   2.441   2.548   3.975
 3843SOL     OW12427   5.292   3.047   1.379
 3843SOL    HW112428   5.221   3.115   1.357
 3843SOL    HW212429   5.327   3.064   1.471
 3844SOL     OW12430   1.608   3.858   6.688
 3844SOL    HW112431   1.629   3.955   6.681
 3844SOL    HW212432   1.659   3.808   6.618
 3845SOL     OW12433   2.956   5.680   6.271
 3845SOL    HW112434   3.023   5.656   6.199
 3845SOL    HW212435   2.952   5.779   6.281
 3846SOL     OW12436   1.032   3.898   4.133
 3846SOL    HW112437   1.050   3.815   4.187
 3846SOL    HW212438   1.119   3.940   4.106
 3847SOL     OW12439   5.027   2.625   4.581
 3847SOL    HW112440   4.999   2.685   4.656
 3847SOL    HW212441   4.983   2.656   4.497
 3848SOL     OW12442   4.848   4.005   2.095
 3848SOL    HW112443   4.895   3.979   2.010
 3848SOL    HW212444   4.801   3.925   2.133
 3849SOL     OW12445   0.989   0.967   5.891
 3849SOL    HW112446   0.942   0.901   5.833
 3849SOL    HW212447   1.007   1.051   5.839
 3850SOL     OW12448   2.971   3.405   1.916
 3850SOL    HW112449   2.947   3.493   1.956
 3850SOL    HW212450   3.069   3.403   1.896
 3851SOL     OW12451   6.785   4.758   3.332
 3851SOL    HW112452   6.867   4.758   3.274
 3851SOL    HW212453   6.704   4.749   3.275
 3852SOL     OW12454   3.056   5.746   3.859
 3852SOL    HW112455   3.150   5.757   3.891
 3852SOL    HW212456   3.009   5.833   3.864
 3853SOL     OW12457   1.148   3.133   3.246
 3853SOL    HW112458   1.223   3.078   3.210
 3853SOL    HW212459   1.185   3.211   3.296
 3854SOL     OW12460   1.003   2.463   2.796
 3854SOL    HW112461   1.068   2.457   2.720
 3854SOL    HW212462   0.987   2.558   2.819
 3855SOL     OW12463   4.649   6.130   6.632
 3855SOL    HW112464   4.738   6.175   6.634
 3855SOL    HW212465   4.590   6.175   6.565
 3856SOL     OW12466   0.434   1.368   6.152
 3856SOL    HW112467   0.444   1.297   6.082
 3856SOL    HW212468   0.519   1.420   6.160
 3857SOL     OW12469   1.128   6.491   6.957
 3857SOL    HW112470   1.055   6.511   6.892
 3857SOL    HW212471   1.113   6.541   0.017
 3858SOL     OW12472   3.623   1.233   5.944
 3858SOL    HW112473   3.709   1.283   5.954
 3858SOL    HW212474   3.586   1.212   6.034
 3859SOL     OW12475   6.343   0.867   1.776
 3859SOL    HW112476   6.441   0.851   1.761
 3859SOL    HW212477   6.331   0.917   1.862
 3860SOL     OW12478   1.942   1.475   4.385
 3860SOL    HW112479   1.861   1.499   4.331
 3860SOL    HW212480   1.917   1.406   4.453
 3861SOL     OW12481   4.606   5.709   3.315
 3861SOL    HW112482   4.586   5.731   3.410
 3861SOL    HW212483   4.696   5.744   3.290
 3862SOL     OW12484   0.142   0.832   4.604
 3862SOL    HW112485   0.179   0.790   4.687
 3862SOL    HW212486   0.197   0.803   4.525
 3863SOL     OW12487   6.075   1.883   0.087
 3863SOL    HW112488   6.070   1.929   0.176
 3863SOL    HW212489   5.986   1.844   0.065
 3864SOL     OW12490   2.367   0.384   5.067
 3864SOL    HW112491   2.270   0.360   5.073
 3864SOL    HW212492   2.422   0.315   5.114
 3865SOL     OW12493   4.035   1.186   1.008
 3865SOL    HW112494   4.019   1.272   1.057
 3865SOL    HW212495   4.026   1.201   0.910
 3866SOL     OW12496   3.958   0.451   0.208
 3866SOL    HW112497   3.999   0.390   0.276
 3866SOL    HW212498   3.927   0.535   0.252
 3867SOL     OW12499   0.924   4.608   3.214
 3867SOL    HW112500   0.941   4.653   3.126
 3867SOL    HW212501   0.835   4.635   3.250
 3868SOL     OW12502   3.541   0.274   0.547
 3868SOL    HW112503   3.623   0.244   0.596
 3868SOL    HW212504   3.557   0.265   0.448
 3869SOL     OW12505   6.630   2.872   4.058
 3869SOL    HW112506   6.715   2.920   4.080
 3869SOL    HW212507   6.610   2.806   4.131
 3870SOL     OW12508   0.154   6.362   0.842
 3870SOL    HW112509   0.124   6.356   0.747
 3870SOL    HW212510   0.115   6.444   0.884
 3871SOL     OW12511   3.465   0.768   3.176
 3871SOL    HW112512   3.413   0.849   3.148
 3871SOL    HW212513   3.444   0.692   3.113
 3872SOL     OW12514   3.180   2.982   4.434
 3872SOL    HW112515   3.242   2.978   4.512
 3872SOL    HW212516   3.163   3.078   4.410
 3873SOL     OW12517   5.685   4.005   1.249
 3873SOL    HW112518   5.768   3.991   1.303
 3873SOL    HW212519   5.633   4.081   1.287
 3874SOL     OW12520   4.559   0.020   0.104
 3874SOL    HW112521   4.503   6.970   0.069
 3874SOL    HW212522   4.614   7.012   0.181
 3875SOL     OW12523   2.075   3.360   3.334
 3875SOL    HW112524   2.080   3.361   3.235
 3875SOL    HW212525   2.065   3.453   3.368
 3876SOL     OW12526   3.893   5.445   1.031
 3876SOL    HW112527   3.913   5.542   1.019
 3876SOL    HW212528   3.868   5.427   1.126
 3877SOL     OW12529   5.782   2.257   1.416
 3877SOL    HW112530   5.706   2.269   1.352
 3877SOL    HW212531   5.845   2.333   1.407
 3878SOL     OW12532   4.404   6.389   4.661
 3878SOL    HW112533   4.463   6.375   4.581
 3878SOL    HW212534   4.412   6.484   4.691
 3879SOL     OW12535   6.177   5.590   0.896
 3879SOL    HW112536   6.219   5.592   0.986
 3879SOL    HW212537   6.077   5.597   0.905
 3880SOL     OW12538   5.184   4.158   4.603
 3880SOL    HW112539   5.143   4.182   4.515
 3880SOL    HW212540   5.212   4.242   4.651
 3881SOL     OW12541   1.181   3.404   1.162
 3881SOL    HW112542   1.235   3.372   1.240
 3881SOL    HW212543   1.202   3.348   1.082
 3882SOL     OW12544   0.714   1.416   5.702
 3882SOL    HW112545   0.663   1.502   5.700
 3882SOL    HW212546   0.693   1.367   5.787
 3883SOL     OW12547   4.000   1.471   2.063
 3883SOL    HW112548   3.989   1.571   2.059
 3883SOL    HW212549   3.909   1.428   2.063
 3884SOL     OW12550   0.843   6.504   2.342
 3884SOL    HW112551   0.862   6.528   2.247
 3884SOL    HW212552   0.814   6.408   2.347
 3885SOL     OW12553   6.363   5.408   2.906
 3885SOL    HW112554   6.298   5.397   2.982
 3885SOL    HW212555   6.450   5.366   2.931
 3886SOL     OW12556   4.943   5.822   5.015
 3886SOL    HW112557   4.848   5.824   4.985
 3886SOL    HW212558   4.996   5.760   4.957
 3887SOL     OW12559   1.266   0.473   6.827
 3887SOL    HW112560   1.337   0.528   6.869
 3887SOL    HW212561   1.179   0.522   6.830
 3888SOL     OW12562   6.835   0.307   5.331
 3888SOL    HW112563   6.800   0.303   5.425
 3888SOL    HW212564   6.829   0.401   5.298
 3889SOL     OW12565   6.866   3.971   0.281
 3889SOL    HW112566   6.846   3.900   0.349
 3889SOL    HW212567   6.894   3.928   0.195
 3890SOL     OW12568   6.351   4.754   2.979
 3890SOL    HW112569   6.426   4.763   3.044
 3890SOL    HW212570   6.267   4.791   3.018
 3891SOL     OW12571   5.238   3.578   4.259
 3891SOL    HW112572   5.163   3.513   4.269
 3891SOL    HW212573   5.325   3.528   4.258
 3892SOL     OW12574   6.855   1.713   1.395
 3892SOL    HW112575   6.876   1.738   1.490
 3892SOL    HW212576   6.922   1.646   1.362
 3893SOL     OW12577   4.202   4.033   0.055
 3893SOL    HW112578   4.231   3.960   7.018
 3893SOL    HW212579   4.184   3.993   0.146
 3894SOL     OW12580   4.039   1.001   0.591
 3894SOL    HW112581   4.067   1.051   0.509
 3894SOL    HW212582   4.104   1.018   0.664
 3895SOL     OW12583   1.805   0.539   5.634
 3895SOL    HW112584   1.776   0.576   5.723
 3895SOL    HW212585   1.725   0.526   5.576
 3896SOL     OW12586   0.051   0.983   5.123
 3896SOL    HW112587   0.031   1.079   5.142
 3896SOL    HW212588   6.998   0.942   5.075
 3897SOL     OW12589   3.739   6.387   2.698
 3897SOL    HW112590   3.641   6.383   2.720
 3897SOL    HW212591   3.788   6.316   2.749
 3898SOL     OW12592   2.572   3.175   6.096
 3898SOL    HW112593   2.606   3.095   6.046
 3898SOL    HW212594   2.493   3.213   6.048
 3899SOL     OW12595   4.628   6.691   5.283
 3899SOL    HW112596   4.605   6.664   5.376
 3899SOL    HW212597   4.707   6.753   5.285
 3900SOL     OW12598   4.755   2.927   3.679
 3900SOL    HW112599   4.760   2.830   3.652
 3900SOL    HW212600   4.675   2.940   3.738
 3901SOL     OW12601   2.746   0.478   5.245
 3901SOL    HW112602   2.667   0.517   5.198
 3901SOL    HW212603   2.758   0.523   5.334
 3902SOL     OW12604   5.822   2.942   1.702
 3902SOL    HW112605   5.828   2.853   1.749
 3902SOL    HW212606   5.737   2.987   1.728
 3903SOL     OW12607   3.882   6.017   6.333
 3903SOL    HW112608   3.795   5.994   6.378
 3903SOL    HW212609   3.954   6.027   6.402
 3904SOL     OW12610   3.062   1.567   5.480
 3904SOL    HW112611   3.001   1.639   5.513
 3904SOL    HW212612   3.027   1.529   5.395
 3905SOL     OW12613   0.685   0.195   6.647
 3905SOL    HW112614   0.700   0.111   6.594
 3905SOL    HW212615   0.727   0.186   6.737
 3906SOL     OW12616   5.901   6.230   5.445
 3906SOL    HW112617   5.844   6.296   5.495
 3906SOL    HW212618   5.877   6.137   5.474
 3907SOL     OW12619   5.586   0.745   3.557
 3907SOL    HW112620   5.546   0.663   3.516
 3907SOL    HW212621   5.586   0.735   3.656
 3908SOL     OW12622   1.519   2.071   0.486
 3908SOL    HW112623   1.481   2.016   0.411
 3908SOL    HW212624   1.490   2.166   0.476
 3909SOL     OW12625   6.992   6.117   5.572
 3909SOL    HW112626   0.012   6.069   5.648
 3909SOL    HW212627   6.919   6.060   5.534
 3910SOL     OW12628   3.592   3.286   2.610
 3910SOL    HW112629   3.617   3.289   2.513
 3910SOL    HW212630   3.520   3.217   2.623
 3911SOL     OW12631   4.481   1.793   6.374
 3911SOL    HW112632   4.507   1.836   6.288
 3911SOL    HW212633   4.558   1.740   6.409
 3912SOL     OW12634   4.538   0.582   5.248
 3912SOL    HW112635   4.584   0.663   5.286
 3912SOL    HW212636   4.476   0.610   5.174
 3913SOL     OW12637   2.088   6.921   6.435
 3913SOL    HW112638   2.036   6.898   6.517
 3913SOL    HW212639   2.064   6.857   6.362
 3914SOL     OW12640   3.089   0.814   0.593
 3914SOL    HW112641   3.096   0.718   0.622
 3914SOL    HW212642   3.176   0.845   0.556
 3915SOL     OW12643   4.196   5.175   2.018
 3915SOL    HW112644   4.176   5.232   1.938
 3915SOL    HW212645   4.199   5.233   2.099
 3916SOL     OW12646   1.337   0.094   4.021
 3916SOL    HW112647   1.378   0.052   4.102
 3916SOL    HW212648   1.335   0.027   3.947
 3917SOL     OW12649   6.262   5.919   0.292
 3917SOL    HW112650   6.189   5.961   0.239
 3917SOL    HW212651   6.327   5.989   0.322
 3918SOL     OW12652   4.863   6.344   1.484
 3918SOL    HW112653   4.829   6.438   1.488
 3918SOL    HW212654   4.860   6.312   1.389
 3919SOL     OW12655   2.438   6.544   6.451
 3919SOL    HW112656   2.447   6.619   6.385
 3919SOL    HW212657   2.522   6.489   6.450
 3920SOL     OW12658   3.778   2.748   0.737
 3920SOL    HW112659   3.718   2.771   0.814
 3920SOL    HW212660   3.851   2.687   0.769
 3921SOL     OW12661   0.583   3.262   1.173
 3921SOL    HW112662   0.523   3.279   1.251
 3921SOL    HW212663   0.623   3.170   1.179
 3922SOL     OW12664   6.313   3.703   1.709
 3922SOL    HW112665   6.308   3.671   1.615
 3922SOL    HW212666   6.391   3.765   1.719
 3923SOL     OW12667   6.261   1.812   6.647
 3923SOL    HW112668   6.302   1.865   6.572
 3923SOL    HW212669   6.232   1.874   6.719
 3924SOL     OW12670   0.311   4.747   3.517
 3924SOL    HW112671   0.307   4.829   3.459
 3924SOL    HW212672   0.294   4.773   3.612
 3925SOL     OW12673   3.170   5.088   1.223
 3925SOL    HW112674   3.126   5.018   1.167
 3925SOL    HW212675   3.223   5.045   1.296
 3926SOL     OW12676   7.001   5.899   3.571
 3926SOL    HW112677   0.062   5.946   3.594
 3926SOL    HW212678   7.020   5.826   3.505
 3927SOL     OW12679   6.636   2.713   3.491
 3927SOL    HW112680   6.637   2.788   3.557
 3927SOL    HW212681   6.729   2.699   3.455
 3928SOL     OW12682   3.489   6.308   5.459
 3928SOL    HW112683   3.500   6.341   5.365
 3928SOL    HW212684   3.422   6.233   5.459
 3929SOL     OW12685   6.877   1.187   5.580
 3929SOL    HW112686   6.825   1.186   5.665
 3929SOL    HW212687   6.819   1.156   5.505
 3930SOL     OW12688   2.403   1.629   3.459
 3930SOL    HW112689   2.483   1.625   3.518
 3930SOL    HW212690   2.421   1.689   3.381
 3931SOL     OW12691   1.973   1.318   1.725
 3931SOL    HW112692   1.984   1.417   1.721
 3931SOL    HW212693   1.876   1.295   1.728
 3932SOL     OW12694   1.640   4.303   3.102
 3932SOL    HW112695   1.704   4.307   3.179
 3932SOL    HW212696   1.691   4.286   3.017
 3933SOL     OW12697   1.968   6.296   6.908
 3933SOL    HW112698   2.023   6.213   6.923
 3933SOL    HW212699   1.909   6.282   6.829
 3934SOL     OW12700   6.783   1.500   0.697
 3934SOL    HW112701   6.719   1.497   0.621
 3934SOL    HW212702   6.743   1.453   0.776
 3935SOL     OW12703   2.691   6.793   6.875
 3935SOL    HW112704   2.646   6.714   6.834
 3935SOL    HW212705   2.770   6.762   6.928
 3936SOL     OW12706   0.482   5.066   5.384
 3936SOL    HW112707   0.496   4.969   5.364
 3936SOL    HW212708   0.571   5.110   5.400
 3937SOL     OW12709   6.654   1.156   3.163
 3937SOL    HW112710   6.750   1.145   3.137
 3937SOL    HW212711   6.636   1.251   3.188
 3938SOL     OW12712   0.490   1.603   3.701
 3938SOL    HW112713   0.492   1.581   3.798
 3938SOL    HW212714   0.538   1.533   3.649
 3939SOL     OW12715   2.425   1.851   2.588
 3939SOL    HW112716   2.491   1.892   2.525
 3939SOL    HW212717   2.339   1.902   2.585
 3940SOL     OW12718   4.836   5.587   1.495
 3940SOL    HW112719   4.896   5.595   1.575
 3940SOL    HW212720   4.778   5.668   1.489
 3941SOL     OW12721   4.256   2.914   6.391
 3941SOL    HW112722   4.341   2.925   6.340
 3941SOL    HW212723   4.260   2.830   6.445
 3942SOL     OW12724   0.326   0.119   6.918
 3942SOL    HW112725   0.321   0.058   6.839
 3942SOL    HW212726   0.252   0.187   6.912
 3943SOL     OW12727   6.900   3.788   3.114
 3943SOL    HW112728   6.989   3.830   3.098
 3943SOL    HW212729   6.843   3.798   3.032
 3944SOL     OW12730   5.073   2.924   5.007
 3944SOL    HW112731   5.044   2.832   5.033
 3944SOL    HW212732   5.146   2.954   5.069
 3945SOL     OW12733   0.245   1.626   1.293
 3945SOL    HW112734   0.327   1.569   1.298
 3945SOL    HW212735   0.166   1.569   1.271
 3946SOL     OW12736   5.733   6.196   5.676
 3946SOL    HW112737   5.681   6.112   5.684
 3946SOL    HW212738   5.738   6.241   5.765
 3947SOL     OW12739   5.900   5.583   0.748
 3947SOL    HW112740   5.808   5.555   0.722
 3947SOL    HW212741   5.918   5.555   0.843
 3948SOL     OW12742   1.433   5.831   1.759
 3948SOL    HW112743   1.458   5.809   1.665
 3948SOL    HW212744   1.336   5.852   1.764
 3949SOL     OW12745   5.105   0.211   3.479
 3949SOL    HW112746   5.028   0.272   3.499
 3949SOL    HW212747   5.162   0.203   3.560
 3950SOL     OW12748   1.588   4.052   1.646
 3950SOL    HW112749   1.626   4.003   1.725
 3950SOL    HW212750   1.652   4.045   1.570
 3951SOL     OW12751   5.928   6.257   0.654
 3951SOL    HW112752   5.884   6.285   0.568
 3951SOL    HW212753   5.888   6.307   0.730
 3952SOL     OW12754   6.164   3.414   2.882
 3952SOL    HW112755   6.206   3.497   2.846
 3952SOL    HW212756   6.228   3.337   2.873
 3953SOL     OW12757   4.082   4.660   1.730
 3953SOL    HW112758   4.154   4.592   1.729
 3953SOL    HW212759   4.121   4.751   1.715
 3954SOL     OW12760   4.665   4.834   5.063
 3954SOL    HW112761   4.695   4.832   4.968
 3954SOL    HW212762   4.574   4.875   5.069
 3955SOL     OW12763   3.181   5.893   6.261
 3955SOL    HW112764   3.219   5.908   6.353
 3955SOL    HW212765   3.256   5.878   6.197
 3956SOL     OW12766   6.953   0.683   3.782
 3956SOL    HW112767   6.865   0.681   3.735
 3956SOL    HW212768   7.021   0.632   3.730
 3957SOL     OW12769   4.407   6.161   3.887
 3957SOL    HW112770   4.343   6.100   3.840
 3957SOL    HW212771   4.493   6.163   3.836
 3958SOL     OW12772   6.022   0.592   4.916
 3958SOL    HW112773   6.007   0.494   4.906
 3958SOL    HW212774   5.957   0.642   4.859
 3959SOL     OW12775   4.326   6.159   0.630
 3959SOL    HW112776   4.261   6.189   0.700
 3959SOL    HW212777   4.300   6.199   0.542
 3960SOL     OW12778   4.537   1.551   6.883
 3960SOL    HW112779   4.439   1.572   6.886
 3960SOL    HW212780   4.550   1.457   6.852
 3961SOL     OW12781   5.292   2.294   2.917
 3961SOL    HW112782   5.388   2.316   2.896
 3961SOL    HW212783   5.278   2.195   2.906
 3962SOL     OW12784   2.507   4.281   0.297
 3962SOL    HW112785   2.545   4.308   0.386
 3962SOL    HW212786   2.578   4.290   0.227
 3963SOL     OW12787   4.578   4.750   4.020
 3963SOL    HW112788   4.562   4.745   4.119
 3963SOL    HW212789   4.536   4.671   3.975
 3964SOL     OW12790   4.654   4.798   3.404
 3964SOL    HW112791   4.563   4.799   3.363
 3964SOL    HW212792   4.676   4.890   3.437
 3965SOL     OW12793   4.831   3.027   6.080
 3965SOL    HW112794   4.749   3.029   6.137
 3965SOL    HW212795   4.858   3.120   6.057
 3966SOL     OW12796   5.280   5.874   0.050
 3966SOL    HW112797   5.371   5.861   0.089
 3966SOL    HW212798   5.237   5.785   0.033
 3967SOL     OW12799   1.962   3.587   2.148
 3967SOL    HW112800   2.041   3.548   2.100
 3967SOL    HW212801   1.994   3.660   2.209
 3968SOL     OW12802   4.929   0.564   1.581
 3968SOL    HW112803   4.978   0.520   1.657
 3968SOL    HW212804   4.946   0.662   1.583
 3969SOL     OW12805   1.668   4.182   2.187
 3969SOL    HW112806   1.622   4.093   2.198
 3969SOL    HW212807   1.751   4.170   2.133
 3970SOL     OW12808   6.445   6.231   3.685
 3970SOL    HW112809   6.518   6.289   3.722
 3970SOL    HW212810   6.444   6.144   3.733
 3971SOL     OW12811   2.757   4.819   2.346
 3971SOL    HW112812   2.678   4.765   2.317
 3971SOL    HW212813   2.839   4.789   2.297
 3972SOL     OW12814   1.250   4.868   0.599
 3972SOL    HW112815   1.330   4.926   0.615
 3972SOL    HW212816   1.280   4.777   0.571
 3973SOL     OW12817   1.779   5.156   6.797
 3973SOL    HW112818   1.877   5.137   6.794
 3973SOL    HW212819   1.738   5.106   6.874
 3974SOL     OW12820   2.182   0.787   4.480
 3974SOL    HW112821   2.219   0.754   4.393
 3974SOL    HW212822   2.203   0.884   4.491
 3975SOL     OW12823   5.775   1.144   5.204
 3975SOL    HW112824   5.707   1.150   5.277
 3975SOL    HW212825   5.843   1.216   5.216
 3976SOL     OW12826   1.741   6.481   1.617
 3976SOL    HW112827   1.773   6.391   1.588
 3976SOL    HW212828   1.697   6.528   1.540
 3977SOL     OW12829   2.496   3.843   5.596
 3977SOL    HW112830   2.462   3.937   5.600
 3977SOL    HW212831   2.567   3.831   5.666
 3978SOL     OW12832   5.666   4.904   4.664
 3978SOL    HW112833   5.567   4.908   4.675
 3978SOL    HW212834   5.709   4.976   4.718
 3979SOL     OW12835   2.702   6.692   0.985
 3979SOL    HW112836   2.738   6.678   1.077
 3979SOL    HW212837   2.605   6.716   0.990
 3980SOL     OW12838   6.216   5.738   0.489
 3980SOL    HW112839   6.222   5.811   0.421
 3980SOL    HW212840   6.301   5.686   0.490
 3981SOL     OW12841   2.350   0.709   0.272
 3981SOL    HW112842   2.445   0.679   0.265
 3981SOL    HW212843   2.289   0.632   0.253
 3982SOL     OW12844   2.254   0.035   3.747
 3982SOL    HW112845   2.351   0.050   3.725
 3982SOL    HW212846   2.204   0.120   3.734
 3983SOL     OW12847   5.370   4.908   3.956
 3983SOL    HW112848   5.292   4.869   4.005
 3983SOL    HW212849   5.377   5.005   3.977
 3984SOL     OW12850   6.599   1.385   3.281
 3984SOL    HW112851   6.563   1.475   3.256
 3984SOL    HW212852   6.529   1.335   3.332
 3985SOL     OW12853   3.156   4.368   6.635
 3985SOL    HW112854   3.220   4.401   6.565
 3985SOL    HW212855   3.181   4.275   6.662
 3986SOL     OW12856   6.054   2.576   3.105
 3986SOL    HW112857   6.068   2.658   3.050
 3986SOL    HW212858   6.057   2.496   3.046
 3987SOL     OW12859   3.584   5.219   3.967
 3987SOL    HW112860   3.590   5.273   3.883
 3987SOL    HW212861   3.623   5.128   3.952
 3988SOL     OW12862   3.465   4.194   0.039
 3988SOL    HW112863   3.505   4.167   0.127
 3988SOL    HW212864   3.369   4.218   0.052
 3989SOL     OW12865   6.286   2.590   0.154
 3989SOL    HW112866   6.330   2.617   0.240
 3989SOL    HW212867   6.346   2.613   0.078
 3990SOL     OW12868   4.943   2.072   2.603
 3990SOL    HW112869   5.029   2.042   2.563
 3990SOL    HW212870   4.959   2.154   2.658
 3991SOL     OW12871   6.277   1.073   2.668
 3991SOL    HW112872   6.292   1.075   2.569
 3991SOL    HW212873   6.228   0.990   2.693
 3992SOL     OW12874   3.964   2.190   0.224
 3992SOL    HW112875   3.889   2.255   0.234
 3992SOL    HW212876   4.011   2.179   0.312
 3993SOL     OW12877   1.528   2.096   2.843
 3993SOL    HW112878   1.493   2.111   2.935
 3993SOL    HW212879   1.515   2.000   2.817
 3994SOL     OW12880   1.599   0.574   5.260
 3994SOL    HW112881   1.552   0.501   5.210
 3994SOL    HW212882   1.582   0.564   5.358
 3995SOL     OW12883   2.133   3.458   5.687
 3995SOL    HW112884   2.129   3.373   5.739
 3995SOL    HW212885   2.227   3.489   5.680
 3996SOL     OW12886   1.384   0.162   4.335
 3996SOL    HW112887   1.343   0.078   4.369
 3996SOL    HW212888   1.315   0.234   4.330
 3997SOL     OW12889   5.275   1.331   4.287
 3997SOL    HW112890   5.315   1.317   4.196
 3997SOL    HW212891   5.327   1.277   4.354
 3998SOL     OW12892   4.244   1.391   4.184
 3998SOL    HW112893   4.221   1.459   4.254
 3998SOL    HW212894   4.315   1.330   4.220
 3999SOL     OW12895   5.991   3.273   4.093
 3999SOL    HW112896   6.071   3.333   4.102
 3999SOL    HW212897   6.022   3.179   4.084
 4000SOL     OW12898   2.950   6.398   3.038
 4000SOL    HW112899   2.886   6.374   3.111
 4000SOL    HW212900   2.976   6.316   2.988
 4001SOL     OW12901   2.497   1.912   3.424
 4001SOL    HW112902   2.509   2.006   3.393
 4001SOL    HW212903   2.573   1.856   3.392
 4002SOL     OW12904   3.148   3.946   0.534
 4002SOL    HW112905   3.232   3.949   0.587
 4002SOL    HW212906   3.074   3.909   0.590
 4003SOL     OW12907   3.151   6.884   3.828
 4003SOL    HW112908   3.134   6.852   3.735
 4003SOL    HW212909   3.105   6.971   3.843
 4004SOL     OW12910   5.033   1.814   4.824
 4004SOL    HW112911   4.937   1.787   4.831
 4004SOL    HW212912   5.080   1.754   4.759
 4005SOL     OW12913   4.991   4.776   0.172
 4005SOL    HW112914   5.086   4.743   0.173
 4005SOL    HW212915   4.931   4.702   0.203
 4006SOL     OW12916   4.216   5.341   2.265
 4006SOL    HW112917   4.269   5.417   2.229
 4006SOL    HW212918   4.243   5.324   2.360
 4007SOL     OW12919   0.317   2.088   0.831
 4007SOL    HW112920   0.317   2.165   0.894
 4007SOL    HW212921   0.410   2.050   0.824
 4008SOL     OW12922   3.029   2.107   3.870
 4008SOL    HW112923   3.061   2.035   3.809
 4008SOL    HW212924   2.998   2.186   3.816
 4009SOL     OW12925   4.349   3.385   1.250
 4009SOL    HW112926   4.426   3.448   1.239
 4009SOL    HW212927   4.380   3.301   1.294
 4010SOL     OW12928   2.681   3.146   1.384
 4010SOL    HW112929   2.640   3.154   1.293
 4010SOL    HW212930   2.769   3.193   1.384
 4011SOL     OW12931   0.751   0.947   1.910
 4011SOL    HW112932   0.819   0.894   1.960
 4011SOL    HW212933   0.794   0.991   1.831
 4012SOL     OW12934   5.369   5.168   1.601
 4012SOL    HW112935   5.269   5.171   1.599
 4012SOL    HW212936   5.399   5.089   1.655
 4013SOL     OW12937   2.812   1.459   5.241
 4013SOL    HW112938   2.858   1.418   5.163
 4013SOL    HW212939   2.775   1.387   5.300
 4014SOL     OW12940   5.144   6.821   2.391
 4014SOL    HW112941   5.118   6.741   2.337
 4014SOL    HW212942   5.242   6.818   2.411
 4015SOL     OW12943   5.334   4.753   6.095
 4015SOL    HW112944   5.298   4.840   6.127
 4015SOL    HW212945   5.419   4.732   6.143
 4016SOL     OW12946   2.538   6.149   6.520
 4016SOL    HW112947   2.589   6.229   6.487
 4016SOL    HW212948   2.567   6.068   6.469
 4017SOL     OW12949   0.378   5.768   0.616
 4017SOL    HW112950   0.463   5.810   0.649
 4017SOL    HW212951   0.300   5.821   0.649
 4018SOL     OW12952   4.319   6.188   2.898
 4018SOL    HW112953   4.349   6.266   2.953
 4018SOL    HW212954   4.241   6.215   2.841
 4019SOL     OW12955   5.637   3.549   2.907
 4019SOL    HW112956   5.596   3.478   2.965
 4019SOL    HW212957   5.714   3.591   2.956
 4020SOL     OW12958   4.684   1.891   5.874
 4020SOL    HW112959   4.703   1.841   5.959
 4020SOL    HW212960   4.765   1.944   5.848
 4021SOL     OW12961   3.812   4.843   6.293
 4021SOL    HW112962   3.806   4.859   6.392
 4021SOL    HW212963   3.731   4.880   6.248
 4022SOL     OW12964   4.693   0.698   6.861
 4022SOL    HW112965   4.638   0.742   6.932
 4022SOL    HW212966   4.634   0.639   6.806
 4023SOL     OW12967   5.838   1.722   4.462
 4023SOL    HW112968   5.825   1.813   4.423
 4023SOL    HW212969   5.830   1.654   4.389
 4024SOL     OW12970   3.680   6.548   3.535
 4024SOL    HW112971   3.704   6.645   3.538
 4024SOL    HW212972   3.746   6.495   3.589
 4025SOL     OW12973   0.866   5.631   3.583
 4025SOL    HW112974   0.788   5.683   3.550
 4025SOL    HW212975   0.836   5.564   3.651
 4026SOL     OW12976   5.431   5.647   4.296
 4026SOL    HW112977   5.524   5.684   4.286
 4026SOL    HW212978   5.394   5.676   4.384
 4027SOL     OW12979   3.802   4.637   1.675
 4027SOL    HW112980   3.738   4.690   1.730
 4027SOL    HW212981   3.894   4.645   1.713
 4028SOL     OW12982   1.674   2.452   4.099
 4028SOL    HW112983   1.774   2.445   4.099
 4028SOL    HW212984   1.646   2.533   4.150
 4029SOL     OW12985   2.806   3.988   5.681
 4029SOL    HW112986   2.799   3.889   5.671
 4029SOL    HW212987   2.787   4.031   5.592
 4030SOL     OW12988   1.121   1.961   5.735
 4030SOL    HW112989   1.196   1.962   5.668
 4030SOL    HW212990   1.050   2.025   5.705
 4031SOL     OW12991   4.919   5.498   3.779
 4031SOL    HW112992   4.952   5.588   3.807
 4031SOL    HW212993   4.819   5.499   3.777
 4032SOL     OW12994   6.525   6.699   3.799
 4032SOL    HW112995   6.614   6.656   3.809
 4032SOL    HW212996   6.454   6.638   3.834
 4033SOL     OW12997   3.423   2.896   3.533
 4033SOL    HW112998   3.482   2.884   3.453
 4033SOL    HW212999   3.479   2.915   3.613
 4034SOL     OW13000   5.699   1.570   4.976
 4034SOL    HW113001   5.698   1.472   4.957
 4034SOL    HW213002   5.728   1.620   4.895
 4035SOL     OW13003   0.320   3.403   0.569
 4035SOL    HW113004   0.285   3.350   0.491
 4035SOL    HW213005   0.405   3.361   0.602
 4036SOL     OW13006   5.973   6.384   2.489
 4036SOL    HW113007   5.962   6.327   2.571
 4036SOL    HW213008   5.901   6.453   2.486
 4037SOL     OW13009   1.685   3.056   6.963
 4037SOL    HW113010   1.712   2.962   6.982
 4037SOL    HW213011   1.586   3.064   6.967
 4038SOL     OW13012   5.022   4.914   2.153
 4038SOL    HW113013   4.982   4.877   2.068
 4038SOL    HW213014   5.005   4.850   2.228
 4039SOL     OW13015   5.129   5.687   0.350
 4039SOL    HW113016   5.220   5.666   0.315
 4039SOL    HW213017   5.061   5.630   0.305
 4040SOL     OW13018   3.012   6.708   0.604
 4040SOL    HW113019   2.942   6.744   0.542
 4040SOL    HW213020   3.089   6.772   0.607
 4041SOL     OW13021   1.333   6.018   2.361
 4041SOL    HW113022   1.373   5.996   2.272
 4041SOL    HW213023   1.285   6.106   2.355
 4042SOL     OW13024   6.206   5.426   2.424
 4042SOL    HW113025   6.273   5.500   2.417
 4042SOL    HW213026   6.201   5.395   2.518
 4043SOL     OW13027   5.613   2.010   3.285
 4043SOL    HW113028   5.611   2.084   3.218
 4043SOL    HW213029   5.680   2.031   3.356
 4044SOL     OW13030   6.187   0.047   3.717
 4044SOL    HW113031   6.192   0.137   3.673
 4044SOL    HW213032   6.101   0.002   3.690
 4045SOL     OW13033   2.847   4.027   6.289
 4045SOL    HW113034   2.911   4.104   6.291
 4045SOL    HW213035   2.763   4.055   6.243
 4046SOL     OW13036   1.062   1.957   1.938
 4046SOL    HW113037   1.132   1.978   1.869
 4046SOL    HW213038   1.000   2.034   1.947
 4047SOL     OW13039   3.031   3.888   0.980
 4047SOL    HW113040   2.996   3.839   1.059
 4047SOL    HW213041   3.002   3.984   0.984
 4048SOL     OW13042   5.630   0.502   1.608
 4048SOL    HW113043   5.718   0.549   1.601
 4048SOL    HW213044   5.574   0.524   1.529
 4049SOL     OW13045   6.621   6.335   6.408
 4049SOL    HW113046   6.607   6.336   6.309
 4049SOL    HW213047   6.576   6.415   6.448
 4050SOL     OW13048   1.785   6.404   0.038
 4050SOL    HW113049   1.861   6.373   7.006
 4050SOL    HW213050   1.813   6.402   0.134
 4051SOL     OW13051   3.007   4.327   0.686
 4051SOL    HW113052   3.100   4.292   0.692
 4051SOL    HW213053   3.006   4.424   0.713
 4052SOL     OW13054   0.796   0.354   0.974
 4052SOL    HW113055   0.836   0.391   1.058
 4052SOL    HW213056   0.707   0.314   0.993
 4053SOL     OW13057   2.992   4.836   4.008
 4053SOL    HW113058   2.975   4.820   3.911
 4053SOL    HW213059   3.085   4.872   4.020
 4054SOL     OW13060   2.883   2.839   0.573
 4054SOL    HW113061   2.961   2.813   0.631
 4054SOL    HW213062   2.857   2.933   0.593
 4055SOL     OW13063   2.381   2.737   6.183
 4055SOL    HW113064   2.400   2.725   6.085
 4055SOL    HW213065   2.392   2.833   6.207
 4056SOL     OW13066   4.110   3.299   6.880
 4056SOL    HW113067   4.082   3.276   6.973
 4056SOL    HW213068   4.117   3.398   6.870
 4057SOL     OW13069   5.191   3.155   0.468
 4057SOL    HW113070   5.189   3.080   0.402
 4057SOL    HW213071   5.177   3.242   0.421
 4058SOL     OW13072   2.532   1.543   4.346
 4058SOL    HW113073   2.503   1.464   4.292
 4058SOL    HW213074   2.565   1.513   4.436
 4059SOL     OW13075   1.983   2.218   3.741
 4059SOL    HW113076   1.937   2.216   3.830
 4059SOL    HW213077   2.075   2.256   3.752
 4060SOL     OW13078   3.904   5.674   4.342
 4060SOL    HW113079   3.963   5.660   4.421
 4060SOL    HW213080   3.812   5.638   4.362
 4061SOL     OW13081   3.478   4.550   1.653
 4061SOL    HW113082   3.446   4.477   1.713
 4061SOL    HW213083   3.524   4.620   1.708
 4062SOL     OW13084   3.643   1.320   2.420
 4062SOL    HW113085   3.723   1.347   2.475
 4062SOL    HW213086   3.561   1.361   2.459
 4063SOL     OW13087   3.401   6.712   5.729
 4063SOL    HW113088   3.465   6.640   5.703
 4063SOL    HW213089   3.351   6.685   5.810
 4064SOL     OW13090   1.726   0.930   2.715
 4064SOL    HW113091   1.693   0.912   2.808
 4064SOL    HW213092   1.826   0.920   2.713
 4065SOL     OW13093   0.236   6.853   1.101
 4065SOL    HW113094   0.299   6.822   1.171
 4065SOL    HW213095   0.278   6.929   1.050
 4066SOL     OW13096   5.589   4.405   1.638
 4066SOL    HW113097   5.500   4.426   1.597
 4066SOL    HW213098   5.630   4.490   1.673
 4067SOL     OW13099   5.265   1.907   3.209
 4067SOL    HW113100   5.241   1.810   3.217
 4067SOL    HW213101   5.283   1.929   3.113
 4068SOL     OW13102   4.742   0.602   4.963
 4068SOL    HW113103   4.820   0.545   4.938
 4068SOL    HW213104   4.767   0.663   5.037
 4069SOL     OW13105   5.200   4.673   1.112
 4069SOL    HW113106   5.272   4.727   1.155
 4069SOL    HW213107   5.119   4.674   1.170
 4070SOL     OW13108   1.883   3.871   2.592
 4070SOL    HW113109   1.980   3.849   2.579
 4070SOL    HW213110   1.862   3.957   2.545
 4071SOL     OW13111   1.336   0.784   5.028
 4071SOL    HW113112   1.359   0.754   5.121
 4071SOL    HW213113   1.407   0.846   4.994
 4072SOL     OW13114   1.882   6.663   4.163
 4072SOL    HW113115   1.846   6.609   4.239
 4072SOL    HW213116   1.810   6.725   4.130
 4073SOL     OW13117   2.307   6.255   6.295
 4073SOL    HW113118   2.269   6.313   6.366
 4073SOL    HW213119   2.259   6.168   6.293
 4074SOL     OW13120   0.555   1.947   1.758
 4074SOL    HW113121   0.535   2.023   1.821
 4074SOL    HW213122   0.639   1.967   1.708
 4075SOL     OW13123   4.404   2.037   2.554
 4075SOL    HW113124   4.366   2.124   2.585
 4075SOL    HW213125   4.501   2.048   2.532
 4076SOL     OW13126   2.056   3.668   4.955
 4076SOL    HW113127   2.139   3.673   5.010
 4076SOL    HW213128   2.001   3.750   4.971
 4077SOL     OW13129   3.091   0.048   0.848
 4077SOL    HW113130   3.121   7.012   0.774
 4077SOL    HW213131   3.063   7.018   0.927
 4078SOL     OW13132   6.410   4.298   1.595
 4078SOL    HW113133   6.446   4.229   1.532
 4078SOL    HW213134   6.446   4.388   1.570
 4079SOL     OW13135   1.002   1.489   3.419
 4079SOL    HW113136   0.954   1.488   3.332
 4079SOL    HW213137   1.028   1.583   3.442
 4080SOL     OW13138   3.246   3.829   0.785
 4080SOL    HW113139   3.166   3.871   0.830
 4080SOL    HW213140   3.247   3.731   0.805
 4081SOL     OW13141   2.548   1.405   4.973
 4081SOL    HW113142   2.646   1.385   4.972
 4081SOL    HW213143   2.512   1.390   5.065
 4082SOL     OW13144   0.928   2.472   5.866
 4082SOL    HW113145   0.919   2.417   5.949
 4082SOL    HW213146   0.866   2.550   5.870
 4083SOL     OW13147   5.870   4.484   3.369
 4083SOL    HW113148   5.871   4.435   3.282
 4083SOL    HW213149   5.793   4.451   3.424
 4084SOL     OW13150   4.756   2.293   2.844
 4084SOL    HW113151   4.760   2.193   2.843
 4084SOL    HW213152   4.759   2.328   2.751
 4085SOL     OW13153   3.031   5.625   1.721
 4085SOL    HW113154   2.998   5.687   1.650
 4085SOL    HW213155   3.123   5.594   1.698
 4086SOL     OW13156   6.735   5.549   6.582
 4086SOL    HW113157   6.794   5.620   6.618
 4086SOL    HW213158   6.639   5.572   6.601
 4087SOL     OW13159   2.477   0.361   2.433
 4087SOL    HW113160   2.539   0.350   2.355
 4087SOL    HW213161   2.448   0.457   2.440
 4088SOL     OW13162   6.748   1.065   5.372
 4088SOL    HW113163   6.660   1.108   5.394
 4088SOL    HW213164   6.738   1.012   5.287
 4089SOL     OW13165   6.731   5.899   4.473
 4089SOL    HW113166   6.772   5.817   4.512
 4089SOL    HW213167   6.672   5.943   4.540
 4090SOL     OW13168   2.282   6.594   4.819
 4090SOL    HW113169   2.343   6.616   4.743
 4090SOL    HW213170   2.208   6.660   4.824
 4091SOL     OW13171   1.183   5.178   1.001
 4091SOL    HW113172   1.165   5.081   1.020
 4091SOL    HW213173   1.185   5.193   0.902
 4092SOL     OW13174   4.904   3.137   4.985
 4092SOL    HW113175   4.842   3.101   4.916
 4092SOL    HW213176   4.959   3.062   5.023
 4093SOL     OW13177   5.943   5.422   2.319
 4093SOL    HW113178   5.942   5.329   2.281
 4093SOL    HW213179   6.035   5.443   2.353
 4094SOL     OW13180   0.177   4.839   6.717
 4094SOL    HW113181   0.263   4.835   6.768
 4094SOL    HW213182   0.132   4.750   6.721
 4095SOL     OW13183   0.527   4.272   0.131
 4095SOL    HW113184   0.506   4.183   0.171
 4095SOL    HW213185   0.591   4.322   0.190
 4096SOL     OW13186   1.784   1.501   6.591
 4096SOL    HW113187   1.871   1.464   6.626
 4096SOL    HW213188   1.722   1.518   6.667
 4097SOL     OW13189   0.040   3.727   4.968
 4097SOL    HW113190   0.085   3.642   4.939
 4097SOL    HW213191   0.037   3.791   4.892
 4098SOL     OW13192   2.063   4.397   2.580
 4098SOL    HW113193   2.063   4.470   2.511
 4098SOL    HW213194   2.135   4.331   2.557
 4099SOL     OW13195   4.484   4.314   6.693
 4099SOL    HW113196   4.412   4.256   6.732
 4099SOL    HW213197   4.522   4.372   6.765
 4100SOL     OW13198   1.274   1.158   3.694
 4100SOL    HW113199   1.360   1.210   3.696
 4100SOL    HW213200   1.292   1.067   3.655
 4101SOL     OW13201   6.409   0.914   6.691
 4101SOL    HW113202   6.403   0.904   6.592
 4101SOL    HW213203   6.421   1.010   6.714
 4102SOL     OW13204   1.777   0.527   0.124
 4102SOL    HW113205   1.699   0.543   0.184
 4102SOL    HW213206   1.747   0.527   0.028
 4103SOL     OW13207   0.561   6.635   2.216
 4103SOL    HW113208   0.604   6.690   2.287
 4103SOL    HW213209   0.604   6.544   2.214
 4104SOL     OW13210   0.450   5.911   3.020
 4104SOL    HW113211   0.448   5.999   2.972
 4104SOL    HW213212   0.388   5.914   3.099
 4105SOL     OW13213   4.555   1.263   1.420
 4105SOL    HW113214   4.526   1.350   1.459
 4105SOL    HW213215   4.637   1.230   1.468
 4106SOL     OW13216   0.263   1.934   3.843
 4106SOL    HW113217   0.358   1.906   3.855
 4106SOL    HW213218   0.231   1.977   3.928
 4107SOL     OW13219   0.678   5.821   6.295
 4107SOL    HW113220   0.704   5.907   6.338
 4107SOL    HW213221   0.734   5.806   6.214
 4108SOL     OW13222   0.284   4.844   4.330
 4108SOL    HW113223   0.300   4.772   4.263
 4108SOL    HW213224   0.320   4.815   4.419
 4109SOL     OW13225   6.505   5.819   3.056
 4109SOL    HW113226   6.425   5.781   3.103
 4109SOL    HW213227   6.588   5.797   3.108
 4110SOL     OW13228   4.548   3.057   0.193
 4110SOL    HW113229   4.567   3.044   0.291
 4110SOL    HW213230   4.618   3.009   0.140
 4111SOL     OW13231   6.711   4.659   6.074
 4111SOL    HW113232   6.801   4.646   6.115
 4111SOL    HW213233   6.694   4.588   6.006
 4112SOL     OW13234   4.763   6.722   4.882
 4112SOL    HW113235   4.853   6.730   4.840
 4112SOL    HW213236   4.732   6.813   4.911
 4113SOL     OW13237   4.430   4.653   4.857
 4113SOL    HW113238   4.377   4.614   4.932
 4113SOL    HW213239   4.478   4.734   4.888
 4114SOL     OW13240   5.947   1.553   3.513
 4114SOL    HW113241   5.985   1.495   3.441
 4114SOL    HW213242   6.002   1.542   3.596
 4115SOL     OW13243   2.859   5.485   3.121
 4115SOL    HW113244   2.774   5.440   3.148
 4115SOL    HW213245   2.937   5.433   3.156
 4116SOL     OW13246   5.511   2.681   3.540
 4116SOL    HW113247   5.427   2.666   3.488
 4116SOL    HW213248   5.533   2.779   3.541
 4117SOL     OW13249   1.477   2.276   2.580
 4117SOL    HW113250   1.426   2.314   2.657
 4117SOL    HW213251   1.479   2.176   2.587
 4118SOL     OW13252   6.437   6.166   6.591
 4118SOL    HW113253   6.491   6.189   6.510
 4118SOL    HW213254   6.454   6.233   6.663
 4119SOL     OW13255   2.486   0.731   3.228
 4119SOL    HW113256   2.396   0.751   3.266
 4119SOL    HW213257   2.504   0.633   3.235
 4120SOL     OW13258   2.836   1.313   6.486
 4120SOL    HW113259   2.911   1.253   6.459
 4120SOL    HW213260   2.871   1.387   6.544
 4121SOL     OW13261   0.309   6.888   2.751
 4121SOL    HW113262   0.363   6.916   2.830
 4121SOL    HW213263   0.266   6.969   2.710
 4122SOL     OW13264   0.012   5.564   4.614
 4122SOL    HW113265   6.993   5.624   4.547
 4122SOL    HW213266   0.029   5.616   4.699
 4123SOL     OW13267   3.801   5.011   3.213
 4123SOL    HW113268   3.851   4.992   3.129
 4123SOL    HW213269   3.828   5.100   3.250
 4124SOL     OW13270   6.518   5.893   0.628
 4124SOL    HW113271   6.443   5.905   0.693
 4124SOL    HW213272   6.492   5.934   0.540
 4125SOL     OW13273   5.382   2.377   2.585
 4125SOL    HW113274   5.287   2.410   2.593
 4125SOL    HW213275   5.413   2.345   2.674
 4126SOL     OW13276   1.381   2.994   2.060
 4126SOL    HW113277   1.412   2.904   2.033
 4126SOL    HW213278   1.292   3.013   2.018
 4127SOL     OW13279   4.017   2.083   3.945
 4127SOL    HW113280   4.085   2.024   3.902
 4127SOL    HW213281   4.028   2.080   4.044
 4128SOL     OW13282   0.750   3.031   1.496
 4128SOL    HW113283   0.834   3.027   1.443
 4128SOL    HW213284   0.709   3.122   1.487
 4129SOL     OW13285   3.610   2.573   0.595
 4129SOL    HW113286   3.690   2.630   0.615
 4129SOL    HW213287   3.542   2.584   0.667
 4130SOL     OW13288   6.133   2.850   1.418
 4130SOL    HW113289   6.110   2.948   1.416
 4130SOL    HW213290   6.089   2.807   1.497
 4131SOL     OW13291   5.683   0.684   2.223
 4131SOL    HW113292   5.781   0.704   2.226
 4131SOL    HW213293   5.669   0.585   2.219
 4132SOL     OW13294   6.577   4.142   4.168
 4132SOL    HW113295   6.670   4.114   4.191
 4132SOL    HW213296   6.561   4.129   4.071
 4133SOL     OW13297   5.558   6.508   1.475
 4133SOL    HW113298   5.637   6.447   1.483
 4133SOL    HW213299   5.539   6.525   1.379
 4134SOL     OW13300   2.596   3.482   1.277
 4134SOL    HW113301   2.529   3.416   1.310
 4134SOL    HW213302   2.689   3.448   1.294
 4135SOL     OW13303   0.312   2.487   2.514
 4135SOL    HW113304   0.327   2.558   2.583
 4135SOL    HW213305   0.398   2.468   2.466
 4136SOL     OW13306   0.236   4.162   1.103
 4136SOL    HW113307   0.256   4.169   1.005
 4136SOL    HW213308   0.308   4.110   1.148
 4137SOL     OW13309   1.965   2.668   0.545
 4137SOL    HW113310   1.982   2.766   0.546
 4137SOL    HW213311   1.982   2.631   0.454
 4138SOL     OW13312   4.313   5.825   0.742
 4138SOL    HW113313   4.401   5.871   0.759
 4138SOL    HW213314   4.287   5.772   0.823
 4139SOL     OW13315   1.797   2.064   2.801
 4139SOL    HW113316   1.828   2.152   2.765
 4139SOL    HW213317   1.702   2.072   2.832
 4140SOL     OW13318   2.800   2.322   4.206
 4140SOL    HW113319   2.891   2.286   4.225
 4140SOL    HW213320   2.770   2.291   4.116
 4141SOL     OW13321   3.953   6.732   6.669
 4141SOL    HW113322   3.969   6.659   6.734
 4141SOL    HW213323   4.038   6.785   6.657
 4142SOL     OW13324   6.328   3.962   2.081
 4142SOL    HW113325   6.231   3.984   2.093
 4142SOL    HW213326   6.364   4.009   2.001
 4143SOL     OW13327   5.996   3.467   0.883
 4143SOL    HW113328   6.002   3.552   0.935
 4143SOL    HW213329   5.954   3.396   0.939
 4144SOL     OW13330   5.322   1.641   0.977
 4144SOL    HW113331   5.297   1.676   1.067
 4144SOL    HW213332   5.420   1.650   0.963
 4145SOL     OW13333   1.010   6.509   0.767
 4145SOL    HW113334   1.098   6.461   0.778
 4145SOL    HW213335   0.935   6.446   0.790
 4146SOL     OW13336   5.527   6.545   3.570
 4146SOL    HW113337   5.475   6.516   3.489
 4146SOL    HW213338   5.464   6.558   3.647
 4147SOL     OW13339   5.143   4.352   5.835
 4147SOL    HW113340   5.176   4.295   5.910
 4147SOL    HW213341   5.203   4.431   5.824
 4148SOL     OW13342   2.877   0.187   5.358
 4148SOL    HW113343   2.906   0.214   5.266
 4148SOL    HW213344   2.784   0.221   5.375
 4149SOL     OW13345   1.650   2.914   0.977
 4149SOL    HW113346   1.742   2.887   1.004
 4149SOL    HW213347   1.598   2.941   1.058
 4150SOL     OW13348   6.393   3.015   6.413
 4150SOL    HW113349   6.382   3.031   6.511
 4150SOL    HW213350   6.336   2.938   6.384
 4151SOL     OW13351   2.363   6.919   4.739
 4151SOL    HW113352   2.398   6.917   4.833
 4151SOL    HW213353   2.421   6.979   4.684
 4152SOL     OW13354   3.534   5.180   1.687
 4152SOL    HW113355   3.441   5.145   1.675
 4152SOL    HW213356   3.530   5.271   1.728
 4153SOL     OW13357   6.644   4.901   1.414
 4153SOL    HW113358   6.712   4.951   1.361
 4153SOL    HW213359   6.663   4.803   1.410
 4154SOL     OW13360   6.948   5.410   3.638
 4154SOL    HW113361   6.849   5.397   3.627
 4154SOL    HW213362   6.968   5.434   3.733
 4155SOL     OW13363   0.133   2.033   1.537
 4155SOL    HW113364   0.060   2.067   1.478
 4155SOL    HW213365   0.148   1.936   1.520
 4156SOL     OW13366   6.980   4.803   4.800
 4156SOL    HW113367   7.016   4.735   4.864
 4156SOL    HW213368   6.892   4.836   4.834
 4157SOL     OW13369   6.907   0.006   2.187
 4157SOL    HW113370   6.930   0.044   2.276
 4157SOL    HW213371   6.936   6.935   2.183
 4158SOL     OW13372   1.924   2.070   1.521
 4158SOL    HW113373   1.848   2.128   1.552
 4158SOL    HW213374   1.928   2.070   1.421
 4159SOL     OW13375   2.952   1.899   2.960
 4159SOL    HW113376   3.006   1.961   2.903
 4159SOL    HW213377   2.864   1.942   2.981
 4160SOL     OW13378   6.734   0.072   6.808
 4160SOL    HW113379   6.828   0.038   6.805
 4160SOL    HW213380   6.732   0.168   6.780
 4161SOL     OW13381   1.997   1.895   0.903
 4161SOL    HW113382   1.907   1.919   0.939
 4161SOL    HW213383   2.068   1.942   0.955
 4162SOL     OW13384   6.724   5.725   0.554
 4162SOL    HW113385   6.810   5.710   0.603
 4162SOL    HW213386   6.667   5.789   0.605
 4163SOL     OW13387   5.002   0.576   1.977
 4163SOL    HW113388   5.051   0.523   1.907
 4163SOL    HW213389   4.918   0.529   2.001
 4164SOL     OW13390   0.156   6.952   5.461
 4164SOL    HW113391   0.255   6.938   5.462
 4164SOL    HW213392   0.131   7.010   5.538
 4165SOL     OW13393   4.281   0.375   5.686
 4165SOL    HW113394   4.341   0.332   5.754
 4165SOL    HW213395   4.336   0.433   5.626
 4166SOL     OW13396   5.900   1.022   2.476
 4166SOL    HW113397   5.982   1.009   2.531
 4166SOL    HW213398   5.820   0.992   2.527
 4167SOL     OW13399   2.669   4.873   6.125
 4167SOL    HW113400   2.612   4.838   6.050
 4167SOL    HW213401   2.682   4.972   6.114
 4168SOL     OW13402   6.949   4.770   0.347
 4168SOL    HW113403   6.958   4.870   0.342
 4168SOL    HW213404   6.996   4.737   0.429
 4169SOL     OW13405   5.930   4.048   5.368
 4169SOL    HW113406   5.962   3.970   5.316
 4169SOL    HW213407   5.964   4.133   5.327
 4170SOL     OW13408   4.918   3.037   4.641
 4170SOL    HW113409   4.881   3.091   4.566
 4170SOL    HW213410   5.013   3.063   4.657
 4171SOL     OW13411   1.057   4.337   1.280
 4171SOL    HW113412   1.082   4.408   1.214
 4171SOL    HW213413   1.031   4.380   1.367
 4172SOL     OW13414   3.073   3.220   0.584
 4172SOL    HW113415   3.086   3.154   0.658
 4172SOL    HW213416   2.981   3.260   0.591
 4173SOL     OW13417   4.177   2.599   5.708
 4173SOL    HW113418   4.139   2.525   5.764
 4173SOL    HW213419   4.186   2.681   5.764
 4174SOL     OW13420   4.323   0.429   3.471
 4174SOL    HW113421   4.239   0.484   3.468
 4174SOL    HW213422   4.356   0.424   3.565
 4175SOL     OW13423   2.185   4.665   6.201
 4175SOL    HW113424   2.249   4.604   6.155
 4175SOL    HW213425   2.094   4.654   6.161
 4176SOL     OW13426   4.669   6.408   0.590
 4176SOL    HW113427   4.735   6.420   0.664
 4176SOL    HW213428   4.700   6.335   0.529
 4177SOL     OW13429   5.000   4.998   4.635
 4177SOL    HW113430   5.031   5.009   4.540
 4177SOL    HW213431   4.998   4.901   4.659
 4178SOL     OW13432   4.407   6.541   2.792
 4178SOL    HW113433   4.385   6.479   2.867
 4178SOL    HW213434   4.506   6.539   2.775
 4179SOL     OW13435   5.386   3.778   3.693
 4179SOL    HW113436   5.387   3.875   3.670
 4179SOL    HW213437   5.357   3.767   3.788
 4180SOL     OW13438   5.530   3.215   0.764
 4180SOL    HW113439   5.498   3.154   0.692
 4180SOL    HW213440   5.616   3.258   0.735
 4181SOL     OW13441   5.493   0.423   5.995
 4181SOL    HW113442   5.514   0.511   5.952
 4181SOL    HW213443   5.559   0.355   5.966
 4182SOL     OW13444   0.249   5.317   3.749
 4182SOL    HW113445   0.236   5.370   3.664
 4182SOL    HW213446   0.177   5.248   3.756
 4183SOL     OW13447   2.191   0.976   0.712
 4183SOL    HW113448   2.139   0.911   0.767
 4183SOL    HW213449   2.259   0.927   0.657
 4184SOL     OW13450   3.880   0.355   2.060
 4184SOL    HW113451   3.869   0.383   1.965
 4184SOL    HW213452   3.914   0.433   2.114
 4185SOL     OW13453   0.418   3.935   3.234
 4185SOL    HW113454   0.404   3.950   3.136
 4185SOL    HW213455   0.514   3.951   3.256
 4186SOL     OW13456   2.671   6.018   6.285
 4186SOL    HW113457   2.768   5.997   6.271
 4186SOL    HW213458   2.623   5.937   6.317
 4187SOL     OW13459   2.434   3.521   6.969
 4187SOL    HW113460   2.421   3.619   6.953
 4187SOL    HW213461   2.531   3.499   6.963
 4188SOL     OW13462   5.422   0.555   5.108
 4188SOL    HW113463   5.336   0.515   5.077
 4188SOL    HW213464   5.499   0.501   5.072
 4189SOL     OW13465   3.649   5.198   3.492
 4189SOL    HW113466   3.687   5.189   3.584
 4189SOL    HW213467   3.723   5.207   3.426
 4190SOL     OW13468   0.519   6.552   0.984
 4190SOL    HW113469   0.510   6.636   0.930
 4190SOL    HW213470   0.590   6.564   1.053
 4191SOL     OW13471   5.236   4.209   6.057
 4191SOL    HW113472   5.296   4.247   6.128
 4191SOL    HW213473   5.191   4.127   6.093
 4192SOL     OW13474   0.958   1.413   2.372
 4192SOL    HW113475   0.866   1.396   2.408
 4192SOL    HW213476   0.952   1.436   2.275
 4193SOL     OW13477   5.454   0.697   0.346
 4193SOL    HW113478   5.390   0.699   0.269
 4193SOL    HW213479   5.454   0.605   0.387
 4194SOL     OW13480   4.583   0.018   4.855
 4194SOL    HW113481   4.503   0.015   4.796
 4194SOL    HW213482   4.649   0.084   4.818
 4195SOL     OW13483   4.323   6.322   1.193
 4195SOL    HW113484   4.368   6.406   1.223
 4195SOL    HW213485   4.356   6.297   1.101
 4196SOL     OW13486   0.091   2.474   3.345
 4196SOL    HW113487   0.108   2.386   3.302
 4196SOL    HW213488   0.176   2.527   3.346
 4197SOL     OW13489   4.120   5.993   5.329
 4197SOL    HW113490   4.142   6.080   5.374
 4197SOL    HW213491   4.045   6.008   5.265
 4198SOL     OW13492   6.817   0.906   2.492
 4198SOL    HW113493   6.845   0.922   2.587
 4198SOL    HW213494   6.889   0.857   2.444
 4199SOL     OW13495   1.148   2.818   5.785
 4199SOL    HW113496   1.155   2.734   5.838
 4199SOL    HW213497   1.059   2.821   5.739
 4200SOL     OW13498   2.859   0.392   5.573
 4200SOL    HW113499   2.859   0.485   5.537
 4200SOL    HW213500   2.868   0.327   5.497
 4201SOL     OW13501   6.231   6.776   2.735
 4201SOL    HW113502   6.216   6.870   2.768
 4201SOL    HW213503   6.168   6.757   2.660
 4202SOL     OW13504   3.637   5.684   6.541
 4202SOL    HW113505   3.568   5.638   6.596
 4202SOL    HW213506   3.655   5.631   6.458
 4203SOL     OW13507   5.199   4.570   0.668
 4203SOL    HW113508   5.221   4.639   0.737
 4203SOL    HW213509   5.174   4.615   0.582
 4204SOL     OW13510   3.900   3.293   5.501
 4204SOL    HW113511   3.920   3.388   5.477
 4204SOL    HW213512   3.889   3.286   5.600
 4205SOL     OW13513   3.855   5.110   4.863
 4205SOL    HW113514   3.774   5.052   4.863
 4205SOL    HW213515   3.912   5.088   4.784
 4206SOL     OW13516   6.911   1.713   5.074
 4206SOL    HW113517   6.952   1.796   5.037
 4206SOL    HW213518   6.963   1.633   5.042
 4207SOL     OW13519   2.369   2.702   1.439
 4207SOL    HW113520   2.431   2.773   1.473
 4207SOL    HW213521   2.420   2.641   1.378
 4208SOL     OW13522   0.919   3.550   6.264
 4208SOL    HW113523   0.837   3.607   6.267
 4208SOL    HW213524   0.967   3.565   6.178
 4209SOL     OW13525   6.853   6.053   2.909
 4209SOL    HW113526   6.905   6.127   2.950
 4209SOL    HW213527   6.760   6.054   2.944
 4210SOL     OW13528   4.101   3.692   3.288
 4210SOL    HW113529   4.098   3.702   3.188
 4210SOL    HW213530   4.115   3.782   3.330
 4211SOL     OW13531   3.676   1.518   5.298
 4211SOL    HW113532   3.629   1.431   5.281
 4211SOL    HW213533   3.613   1.594   5.284
 4212SOL     OW13534   6.087   1.914   3.972
 4212SOL    HW113535   6.184   1.891   3.962
 4212SOL    HW213536   6.077   1.992   4.034
 4213SOL     OW13537   2.367   0.198   3.192
 4213SOL    HW113538   2.276   0.228   3.222
 4213SOL    HW213539   2.365   0.177   3.094
 4214SOL     OW13540   0.428   5.780   4.974
 4214SOL    HW113541   0.378   5.831   4.904
 4214SOL    HW213542   0.363   5.737   5.037
 4215SOL     OW13543   5.612   0.105   5.396
 4215SOL    HW113544   5.560   0.098   5.481
 4215SOL    HW213545   5.668   0.188   5.399
 4216SOL     OW13546   1.446   0.761   2.184
 4216SOL    HW113547   1.485   0.713   2.263
 4216SOL    HW213548   1.515   0.819   2.142
 4217SOL     OW13549   1.098   0.713   1.821
 4217SOL    HW113550   1.158   0.775   1.771
 4217SOL    HW213551   1.146   0.676   1.900
 4218SOL     OW13552   3.189   0.729   1.269
 4218SOL    HW113553   3.139   0.643   1.282
 4218SOL    HW213554   3.269   0.713   1.212
 4219SOL     OW13555   4.731   6.513   4.380
 4219SOL    HW113556   4.657   6.449   4.402
 4219SOL    HW213557   4.692   6.603   4.359
 4220SOL     OW13558   5.727   3.385   2.301
 4220SOL    HW113559   5.629   3.379   2.283
 4220SOL    HW213560   5.745   3.463   2.361
 4221SOL     OW13561   6.283   4.555   6.245
 4221SOL    HW113562   6.305   4.557   6.147
 4221SOL    HW213563   6.244   4.466   6.268
 4222SOL     OW13564   6.618   1.122   3.710
 4222SOL    HW113565   6.534   1.072   3.730
 4222SOL    HW213566   6.665   1.145   3.795
 4223SOL     OW13567   3.964   3.447   1.144
 4223SOL    HW113568   3.994   3.357   1.114
 4223SOL    HW213569   3.955   3.508   1.065
 4224SOL     OW13570   5.006   4.754   4.784
 4224SOL    HW113571   4.987   4.668   4.830
 4224SOL    HW213572   5.062   4.812   4.844
 4225SOL     OW13573   1.679   2.169   5.283
 4225SOL    HW113574   1.659   2.266   5.264
 4225SOL    HW213575   1.727   2.161   5.370
 4226SOL     OW13576   1.373   5.361   3.515
 4226SOL    HW113577   1.451   5.323   3.465
 4226SOL    HW213578   1.401   5.444   3.564
 4227SOL     OW13579   4.986   6.231   1.699
 4227SOL    HW113580   4.929   6.254   1.620
 4227SOL    HW213581   5.076   6.273   1.689
 4228SOL     OW13582   0.071   6.712   5.540
 4228SOL    HW113583   0.158   6.662   5.535
 4228SOL    HW213584   0.086   6.807   5.513
 4229SOL     OW13585   4.458   5.610   5.290
 4229SOL    HW113586   4.396   5.586   5.216
 4229SOL    HW213587   4.553   5.603   5.258
 4230SOL     OW13588   1.043   6.441   3.299
 4230SOL    HW113589   0.998   6.476   3.381
 4230SOL    HW213590   0.974   6.412   3.233
 4231SOL     OW13591   5.028   0.287   5.364
 4231SOL    HW113592   5.118   0.258   5.332
 4231SOL    HW213593   5.019   0.268   5.462
 4232SOL     OW13594   1.541   4.608   3.645
 4232SOL    HW113595   1.624   4.617   3.701
 4232SOL    HW213596   1.513   4.698   3.612
 4233SOL     OW13597   6.918   0.728   4.798
 4233SOL    HW113598   7.011   0.749   4.768
 4233SOL    HW213599   6.861   0.707   4.719
 4234SOL     OW13600   2.180   5.327   4.812
 4234SOL    HW113601   2.245   5.287   4.877
 4234SOL    HW213602   2.194   5.426   4.807
 4235SOL     OW13603   6.721   5.154   6.081
 4235SOL    HW113604   6.660   5.147   6.001
 4235SOL    HW213605   6.798   5.091   6.069
 4236SOL     OW13606   0.127   4.342   1.759
 4236SOL    HW113607   0.212   4.302   1.724
 4236SOL    HW213608   0.122   4.327   1.858
 4237SOL     OW13609   0.237   3.821   4.134
 4237SOL    HW113610   0.152   3.825   4.186
 4237SOL    HW213611   0.289   3.905   4.151
 4238SOL     OW13612   1.068   0.414   3.108
 4238SOL    HW113613   1.135   0.425   3.035
 4238SOL    HW213614   1.063   0.317   3.134
 4239SOL     OW13615   4.091   1.408   2.439
 4239SOL    HW113616   4.108   1.330   2.499
 4239SOL    HW213617   4.137   1.393   2.352
 4240SOL     OW13618   2.569   5.195   0.300
 4240SOL    HW113619   2.656   5.155   0.271
 4240SOL    HW213620   2.502   5.188   0.226
 4241SOL     OW13621   5.151   0.705   0.518
 4241SOL    HW113622   5.090   0.641   0.472
 4241SOL    HW213623   5.132   0.704   0.616
 4242SOL     OW13624   2.860   1.984   4.023
 4242SOL    HW113625   2.786   2.051   4.015
 4242SOL    HW213626   2.947   2.030   4.010
 4243SOL     OW13627   5.298   1.723   3.000
 4243SOL    HW113628   5.265   1.660   3.071
 4243SOL    HW213629   5.382   1.767   3.031
 4244SOL     OW13630   3.984   4.641   1.430
 4244SOL    HW113631   3.936   4.565   1.387
 4244SOL    HW213632   3.949   4.654   1.523
 4245SOL     OW13633   6.329   2.361   6.697
 4245SOL    HW113634   6.317   2.351   6.598
 4245SOL    HW213635   6.427   2.361   6.718
 4246SOL     OW13636   6.331   4.019   3.683
 4246SOL    HW113637   6.256   3.954   3.674
 4246SOL    HW213638   6.399   4.002   3.611
 4247SOL     OW13639   1.581   6.351   3.671
 4247SOL    HW113640   1.530   6.266   3.660
 4247SOL    HW213641   1.618   6.380   3.583
 4248SOL     OW13642   2.716   1.927   4.466
 4248SOL    HW113643   2.731   2.022   4.493
 4248SOL    HW213644   2.697   1.871   4.548
 4249SOL     OW13645   6.564   2.915   5.125
 4249SOL    HW113646   6.560   2.898   5.027
 4249SOL    HW213647   6.660   2.929   5.152
 4250SOL     OW13648   0.183   4.558   3.348
 4250SOL    HW113649   0.225   4.624   3.409
 4250SOL    HW213650   0.152   4.478   3.400
 4251SOL     OW13651   5.842   5.109   0.690
 4251SOL    HW113652   5.764   5.059   0.653
 4251SOL    HW213653   5.829   5.207   0.677
 4252SOL     OW13654   6.231   6.747   5.483
 4252SOL    HW113655   6.265   6.657   5.453
 4252SOL    HW213656   6.281   6.776   5.565
 4253SOL     OW13657   2.665   0.451   1.660
 4253SOL    HW113658   2.702   0.522   1.600
 4253SOL    HW213659   2.605   0.391   1.608
 4254SOL     OW13660   1.028   2.698   1.794
 4254SOL    HW113661   1.012   2.600   1.809
 4254SOL    HW213662   0.941   2.747   1.800
 4255SOL     OW13663   6.089   2.751   3.445
 4255SOL    HW113664   6.137   2.819   3.500
 4255SOL    HW213665   6.003   2.790   3.410
 4256SOL     OW13666   1.457   6.628   0.693
 4256SOL    HW113667   1.384   6.657   0.631
 4256SOL    HW213668   1.534   6.692   0.686
 4257SOL     OW13669   3.909   0.503   4.692
 4257SOL    HW113670   3.847   0.578   4.668
 4257SOL    HW213671   3.857   0.431   4.739
 4258SOL     OW13672   5.975   6.464   1.787
 4258SOL    HW113673   5.883   6.493   1.810
 4258SOL    HW213674   5.998   6.493   1.694
 4259SOL     OW13675   3.053   0.363   6.589
 4259SOL    HW113676   3.043   0.356   6.688
 4259SOL    HW213677   2.980   0.311   6.545
 4260SOL     OW13678   5.332   6.693   5.168
 4260SOL    HW113679   5.366   6.787   5.171
 4260SOL    HW213680   5.364   6.643   5.248
 4261SOL     OW13681   1.785   0.686   1.697
 4261SOL    HW113682   1.762   0.658   1.790
 4261SOL    HW213683   1.872   0.735   1.698
 4262SOL     OW13684   0.960   4.688   5.757
 4262SOL    HW113685   0.999   4.661   5.669
 4262SOL    HW213686   0.999   4.631   5.829
 4263SOL     OW13687   2.875   6.405   3.451
 4263SOL    HW113688   2.824   6.394   3.536
 4263SOL    HW213689   2.820   6.372   3.374
 4264SOL     OW13690   6.747   1.815   2.527
 4264SOL    HW113691   6.787   1.802   2.618
 4264SOL    HW213692   6.714   1.728   2.492
 4265SOL     OW13693   5.286   1.450   0.247
 4265SOL    HW113694   5.198   1.480   0.211
 4265SOL    HW213695   5.287   1.462   0.346
 4266SOL     OW13696   1.967   5.616   0.830
 4266SOL    HW113697   2.016   5.703   0.828
 4266SOL    HW213698   2.015   5.549   0.774
 4267SOL     OW13699   1.846   3.495   5.069
 4267SOL    HW113700   1.924   3.545   5.032
 4267SOL    HW213701   1.763   3.550   5.057
 4268SOL     OW13702   1.557   6.960   6.566
 4268SOL    HW113703   1.640   6.905   6.571
 4268SOL    HW213704   1.507   6.952   6.652
 4269SOL     OW13705   2.275   1.738   0.292
 4269SOL    HW113706   2.298   1.646   0.322
 4269SOL    HW213707   2.176   1.751   0.298
 4270SOL     OW13708   3.124   3.045   4.046
 4270SOL    HW113709   3.136   2.946   4.034
 4270SOL    HW213710   3.204   3.093   4.011
 4271SOL     OW13711   0.303   1.306   6.404
 4271SOL    HW113712   0.353   1.308   6.317
 4271SOL    HW213713   0.213   1.266   6.390
 4272SOL     OW13714   0.659   4.473   4.841
 4272SOL    HW113715   0.715   4.540   4.792
 4272SOL    HW213716   0.602   4.423   4.775
 4273SOL     OW13717   4.874   6.144   4.872
 4273SOL    HW113718   4.919   6.055   4.870
 4273SOL    HW213719   4.859   6.175   4.778
 4274SOL     OW13720   1.190   0.422   2.764
 4274SOL    HW113721   1.265   0.487   2.765
 4274SOL    HW213722   1.226   0.329   2.772
 4275SOL     OW13723   6.926   1.804   5.320
 4275SOL    HW113724   6.858   1.878   5.320
 4275SOL    HW213725   6.933   1.766   5.228
 4276SOL     OW13726   1.181   4.189   3.632
 4276SOL    HW113727   1.127   4.273   3.625
 4276SOL    HW213728   1.277   4.213   3.649
 4277SOL     OW13729   6.275   4.231   4.170
 4277SOL    HW113730   6.236   4.184   4.249
 4277SOL    HW213731   6.368   4.198   4.154
 4278SOL     OW13732   7.017   1.069   4.518
 4278SOL    HW113733   6.940   1.065   4.581
 4278SOL    HW213734   0.051   0.989   4.532
 4279SOL     OW13735   3.293   6.561   5.397
 4279SOL    HW113736   3.343   6.618   5.462
 4279SOL    HW213737   3.319   6.586   5.304
 4280SOL     OW13738   5.110   1.300   5.281
 4280SOL    HW113739   5.037   1.355   5.240
 4280SOL    HW213740   5.144   1.234   5.214
 4281SOL     OW13741   2.452   4.943   4.464
 4281SOL    HW113742   2.538   4.892   4.465
 4281SOL    HW213743   2.471   5.041   4.456
 4282SOL     OW13744   3.145   2.723   0.657
 4282SOL    HW113745   3.160   2.625   0.669
 4282SOL    HW213746   3.149   2.768   0.747
 4283SOL     OW13747   1.703   0.756   3.742
 4283SOL    HW113748   1.783   0.756   3.802
 4283SOL    HW213749   1.621   0.732   3.795
 4284SOL     OW13750   5.118   6.021   2.152
 4284SOL    HW113751   5.159   6.082   2.219
 4284SOL    HW213752   5.092   6.073   2.070
 4285SOL     OW13753   0.547   0.587   6.246
 4285SOL    HW113754   0.614   0.660   6.256
 4285SOL    HW213755   0.498   0.574   6.333
 4286SOL     OW13756   5.012   5.448   6.612
 4286SOL    HW113757   5.023   5.387   6.533
 4286SOL    HW213758   4.918   5.443   6.645
 4287SOL     OW13759   5.860   1.086   6.503
 4287SOL    HW113760   5.884   0.990   6.520
 4287SOL    HW213761   5.921   1.123   6.433
 4288SOL     OW13762   1.054   5.642   2.838
 4288SOL    HW113763   1.002   5.693   2.906
 4288SOL    HW213764   1.048   5.544   2.858
 4289SOL     OW13765   6.453   3.182   0.866
 4289SOL    HW113766   6.478   3.277   0.845
 4289SOL    HW213767   6.371   3.157   0.815
 4290SOL     OW13768   2.710   6.721   2.154
 4290SOL    HW113769   2.792   6.692   2.105
 4290SOL    HW213770   2.723   6.708   2.253
 4291SOL     OW13771   4.625   3.671   1.596
 4291SOL    HW113772   4.706   3.717   1.559
 4291SOL    HW213773   4.552   3.738   1.610
 4292SOL     OW13774   6.668   4.436   5.914
 4292SOL    HW113775   6.623   4.384   5.986
 4292SOL    HW213776   6.607   4.443   5.835
 4293SOL     OW13777   6.979   3.060   0.224
 4293SOL    HW113778   0.053   3.072   0.230
 4293SOL    HW213779   6.959   2.965   0.200
 4294SOL     OW13780   3.996   2.877   0.331
 4294SOL    HW113781   3.988   2.950   0.263
 4294SOL    HW213782   4.086   2.836   0.325
 4295SOL     OW13783   3.456   5.972   4.813
 4295SOL    HW113784   3.526   5.987   4.743
 4295SOL    HW213785   3.466   5.880   4.851
 4296SOL     OW13786   3.470   1.340   6.942
 4296SOL    HW113787   3.376   1.305   6.949
 4296SOL    HW213788   3.503   1.330   6.848
 4297SOL     OW13789   5.337   0.734   6.117
 4297SOL    HW113790   5.244   0.750   6.152
 4297SOL    HW213791   5.351   0.636   6.101
 4298SOL     OW13792   2.559   5.517   6.312
 4298SOL    HW113793   2.624   5.442   6.320
 4298SOL    HW213794   2.467   5.484   6.329
 4299SOL     OW13795   0.760   3.007   0.139
 4299SOL    HW113796   0.696   2.955   0.196
 4299SOL    HW213797   0.774   2.958   0.052
 4300SOL     OW13798   3.786   1.167   6.593
 4300SOL    HW113799   3.815   1.081   6.551
 4300SOL    HW213800   3.844   1.242   6.560
 4301SOL     OW13801   2.730   1.608   0.542
 4301SOL    HW113802   2.794   1.531   0.543
 4301SOL    HW213803   2.690   1.616   0.451
 4302SOL     OW13804   0.808   6.321   5.752
 4302SOL    HW113805   0.745   6.398   5.767
 4302SOL    HW213806   0.866   6.341   5.673
 4303SOL     OW13807   5.477   4.852   4.288
 4303SOL    HW113808   5.534   4.783   4.244
 4303SOL    HW213809   5.534   4.923   4.327
 4304SOL     OW13810   3.096   3.842   4.345
 4304SOL    HW113811   3.184   3.871   4.309
 4304SOL    HW213812   3.092   3.861   4.443
 4305SOL     OW13813   5.904   0.795   3.999
 4305SOL    HW113814   5.830   0.859   3.979
 4305SOL    HW213815   5.947   0.766   3.913
 4306SOL     OW13816   6.340   3.776   6.540
 4306SOL    HW113817   6.278   3.854   6.548
 4306SOL    HW213818   6.287   3.691   6.538
 4307SOL     OW13819   5.215   4.138   6.632
 4307SOL    HW113820   5.172   4.124   6.543
 4307SOL    HW213821   5.192   4.061   6.692
 4308SOL     OW13822   5.694   5.327   6.232
 4308SOL    HW113823   5.716   5.385   6.311
 4308SOL    HW213824   5.767   5.261   6.217
 4309SOL     OW13825   1.293   0.138   0.418
 4309SOL    HW113826   1.348   0.194   0.480
 4309SOL    HW213827   1.246   0.198   0.352
 4310SOL     OW13828   2.001   2.139   3.052
 4310SOL    HW113829   1.950   2.205   2.997
 4310SOL    HW213830   2.099   2.153   3.039
 4311SOL     OW13831   1.324   5.719   2.793
 4311SOL    HW113832   1.232   5.698   2.825
 4311SOL    HW213833   1.323   5.736   2.695
 4312SOL     OW13834   1.926   5.185   0.883
 4312SOL    HW113835   1.975   5.227   0.806
 4312SOL    HW213836   1.855   5.247   0.915
 4313SOL     OW13837   4.873   1.499   2.063
 4313SOL    HW113838   4.864   1.561   1.986
 4313SOL    HW213839   4.847   1.406   2.035
 4314SOL     OW13840   5.711   1.931   4.024
 4314SOL    HW113841   5.613   1.951   4.031
 4314SOL    HW213842   5.763   2.013   4.046
 4315SOL     OW13843   2.130   0.976   2.466
 4315SOL    HW113844   2.153   0.969   2.562
 4315SOL    HW213845   2.031   0.967   2.455
 4316SOL     OW13846   5.126   6.965   1.074
 4316SOL    HW113847   5.162   7.001   1.160
 4316SOL    HW213848   5.028   6.946   1.085
 4317SOL     OW13849   3.630   1.113   4.507
 4317SOL    HW113850   3.707   1.142   4.565
 4317SOL    HW213851   3.661   1.106   4.412
 4318SOL     OW13852   1.633   3.289   3.452
 4318SOL    HW113853   1.634   3.349   3.372
 4318SOL    HW213854   1.727   3.268   3.480
 4319SOL     OW13855   2.607   2.782   0.490
 4319SOL    HW113856   2.706   2.784   0.505
 4319SOL    HW213857   2.588   2.742   0.400
 4320SOL     OW13858   0.843   5.727   1.597
 4320SOL    HW113859   0.747   5.756   1.589
 4320SOL    HW213860   0.866   5.715   1.694
 4321SOL     OW13861   6.737   0.094   4.369
 4321SOL    HW113862   6.722   7.024   4.397
 4321SOL    HW213863   6.656   0.127   4.320
 4322SOL     OW13864   5.982   1.779   6.402
 4322SOL    HW113865   5.984   1.768   6.501
 4322SOL    HW213866   6.056   1.840   6.373
 4323SOL     OW13867   5.209   4.431   1.690
 4323SOL    HW113868   5.230   4.335   1.674
 4323SOL    HW213869   5.121   4.453   1.649
 4324SOL     OW13870   5.495   4.527   0.026
 4324SOL    HW113871   5.555   4.564   6.979
 4324SOL    HW213872   5.505   4.582   0.109
 4325SOL     OW13873   1.448   0.590   7.014
 4325SOL    HW113874   1.460   0.495   0.016
 4325SOL    HW213875   1.535   0.626   6.979
 4326SOL     OW13876   6.078   2.804   4.740
 4326SOL    HW113877   6.098   2.714   4.700
 4326SOL    HW213878   5.987   2.803   4.781
 4327SOL     OW13879   5.959   5.158   2.190
 4327SOL    HW113880   5.950   5.096   2.268
 4327SOL    HW213881   5.870   5.173   2.148
 4328SOL     OW13882   4.468   3.949   5.845
 4328SOL    HW113883   4.503   4.034   5.807
 4328SOL    HW213884   4.541   3.900   5.893
 4329SOL     OW13885   3.801   1.650   5.891
 4329SOL    HW113886   3.819   1.726   5.952
 4329SOL    HW213887   3.751   1.683   5.811
 4330SOL     OW13888   2.814   0.609   4.850
 4330SOL    HW113889   2.725   0.579   4.815
 4330SOL    HW213890   2.808   0.705   4.878
 4331SOL     OW13891   4.717   2.971   0.851
 4331SOL    HW113892   4.659   3.013   0.921
 4331SOL    HW213893   4.753   3.041   0.791
 4332SOL     OW13894   5.390   4.862   2.295
 4332SOL    HW113895   5.382   4.780   2.238
 4332SOL    HW213896   5.309   4.871   2.352
 4333SOL     OW13897   4.533   0.794   5.607
 4333SOL    HW113898   4.489   0.705   5.591
 4333SOL    HW213899   4.487   0.840   5.682
 4334SOL     OW13900   2.152   2.240   2.334
 4334SOL    HW113901   2.073   2.248   2.274
 4334SOL    HW213902   2.182   2.144   2.336
 4335SOL     OW13903   3.106   3.950   3.540
 4335SOL    HW113904   3.072   3.862   3.573
 4335SOL    HW213905   3.075   4.022   3.602
 4336SOL     OW13906   0.761   6.233   5.369
 4336SOL    HW113907   0.783   6.246   5.273
 4336SOL    HW213908   0.722   6.317   5.406
 4337SOL     OW13909   1.024   4.848   0.430
 4337SOL    HW113910   0.999   4.752   0.436
 4337SOL    HW213911   1.104   4.865   0.488
 4338SOL     OW13912   5.131   5.842   4.278
 4338SOL    HW113913   5.087   5.767   4.229
 4338SOL    HW213914   5.079   5.927   4.262
 4339SOL     OW13915   5.850   3.747   5.317
 4339SOL    HW113916   5.831   3.815   5.247
 4339SOL    HW213917   5.903   3.671   5.277
 4340SOL     OW13918   6.050   4.254   2.348
 4340SOL    HW113919   6.073   4.301   2.433
 4340SOL    HW213920   6.024   4.322   2.279
 4341SOL     OW13921   1.050   5.760   2.036
 4341SOL    HW113922   1.010   5.745   2.126
 4341SOL    HW213923   1.150   5.751   2.042
 4342SOL     OW13924   6.834   3.580   3.783
 4342SOL    HW113925   6.736   3.570   3.765
 4342SOL    HW213926   6.886   3.542   3.705
 4343SOL     OW13927   2.357   6.529   6.077
 4343SOL    HW113928   2.300   6.467   6.023
 4343SOL    HW213929   2.430   6.476   6.122
 4344SOL     OW13930   1.789   5.051   2.724
 4344SOL    HW113931   1.884   5.025   2.703
 4344SOL    HW213932   1.764   5.130   2.668
 4345SOL     OW13933   1.884   2.597   5.801
 4345SOL    HW113934   1.909   2.692   5.817
 4345SOL    HW213935   1.807   2.594   5.737
 4346SOL     OW13936   2.002   2.923   1.273
 4346SOL    HW113937   1.996   2.835   1.226
 4346SOL    HW213938   2.046   2.911   1.362
 4347SOL     OW13939   6.162   0.855   2.566
 4347SOL    HW113940   6.086   0.793   2.545
 4347SOL    HW213941   6.237   0.803   2.607
 4348SOL     OW13942   0.481   3.189   2.264
 4348SOL    HW113943   0.484   3.110   2.203
 4348SOL    HW213944   0.467   3.159   2.358
 4349SOL     OW13945   6.498   1.633   3.177
 4349SOL    HW113946   6.567   1.658   3.110
 4349SOL    HW213947   6.408   1.630   3.133
 4350SOL     OW13948   4.931   2.369   4.682
 4350SOL    HW113949   4.981   2.354   4.767
 4350SOL    HW213950   4.952   2.460   4.646
 4351SOL     OW13951   1.951   6.437   1.114
 4351SOL    HW113952   1.860   6.449   1.075
 4351SOL    HW213953   2.016   6.495   1.063
 4352SOL     OW13954   0.944   2.472   2.328
 4352SOL    HW113955   1.026   2.512   2.286
 4352SOL    HW213956   0.866   2.483   2.267
 4353SOL     OW13957   3.376   4.292   0.485
 4353SOL    HW113958   3.330   4.276   0.572
 4353SOL    HW213959   3.436   4.372   0.493
 4354SOL     OW13960   1.699   6.347   5.301
 4354SOL    HW113961   1.745   6.319   5.217
 4354SOL    HW213962   1.766   6.391   5.362
 4355SOL     OW13963   3.420   0.297   2.051
 4355SOL    HW113964   3.512   0.314   2.087
 4355SOL    HW213965   3.362   0.376   2.068
 4356SOL     OW13966   4.651   4.428   1.809
 4356SOL    HW113967   4.608   4.352   1.858
 4356SOL    HW213968   4.594   4.453   1.730
 4357SOL     OW13969   6.331   0.213   6.891
 4357SOL    HW113970   6.368   0.244   6.978
 4357SOL    HW213971   6.320   0.113   6.892
 4358SOL     OW13972   7.025   5.904   0.297
 4358SOL    HW113973   6.986   5.947   0.215
 4358SOL    HW213974   0.057   5.826   0.270
 4359SOL     OW13975   1.580   1.930   5.443
 4359SOL    HW113976   1.625   1.847   5.410
 4359SOL    HW213977   1.619   2.010   5.398
 4360SOL     OW13978   1.518   3.294   2.848
 4360SOL    HW113979   1.419   3.286   2.866
 4360SOL    HW213980   1.568   3.273   2.931
 4361SOL     OW13981   3.035   2.643   1.740
 4361SOL    HW113982   2.993   2.725   1.702
 4361SOL    HW213983   2.985   2.615   1.822
 4362SOL     OW13984   6.231   3.914   4.104
 4362SOL    HW113985   6.241   3.974   4.025
 4362SOL    HW213986   6.304   3.846   4.105
 4363SOL     OW13987   5.513   2.534   6.876
 4363SOL    HW113988   5.426   2.533   6.927
 4363SOL    HW213989   5.506   2.600   6.801
 4364SOL     OW13990   3.139   3.857   5.178
 4364SOL    HW113991   3.043   3.875   5.196
 4364SOL    HW213992   3.173   3.922   5.110
 4365SOL     OW13993   2.287   2.154   1.761
 4365SOL    HW113994   2.354   2.106   1.818
 4365SOL    HW213995   2.332   2.227   1.710
 4366SOL     OW13996   5.344   6.857   0.250
 4366SOL    HW113997   5.436   6.820   0.236
 4366SOL    HW213998   5.277   6.794   0.213
 4367SOL     OW13999   1.976   5.074   5.054
 4367SOL    HW114000   1.991   5.147   5.121
 4367SOL    HW214001   1.929   4.997   5.097
 4368SOL     OW14002   4.214   5.618   1.277
 4368SOL    HW114003   4.313   5.629   1.287
 4368SOL    HW214004   4.185   5.535   1.325
 4369SOL     OW14005   4.124   5.334   3.188
 4369SOL    HW114006   4.122   5.432   3.206
 4369SOL    HW214007   4.048   5.309   3.128
 4370SOL     OW14008   4.869   4.387   2.983
 4370SOL    HW114009   4.899   4.429   2.897
 4370SOL    HW214010   4.774   4.358   2.974
 4371SOL     OW14011   6.703   0.698   1.360
 4371SOL    HW114012   6.762   0.654   1.427
 4371SOL    HW214013   6.650   0.629   1.312
 4372SOL     OW14014   4.512   1.216   2.951
 4372SOL    HW114015   4.609   1.223   2.976
 4372SOL    HW214016   4.458   1.191   3.031
 4373SOL     OW14017   6.979   2.750   6.734
 4373SOL    HW114018   0.024   2.750   6.806
 4373SOL    HW214019   6.892   2.783   6.772
 4374SOL     OW14020   0.837   1.959   1.687
 4374SOL    HW114021   0.903   1.963   1.612
 4374SOL    HW214022   0.883   1.930   1.771
 4375SOL     OW14023   3.470   0.583   3.948
 4375SOL    HW114024   3.388   0.526   3.950
 4375SOL    HW214025   3.494   0.603   3.853
 4376SOL     OW14026   6.913   6.818   3.047
 4376SOL    HW114027   6.963   6.783   3.127
 4376SOL    HW214028   6.924   6.918   3.042
 4377SOL     OW14029   6.270   4.196   0.439
 4377SOL    HW114030   6.317   4.265   0.494
 4377SOL    HW214031   6.235   4.238   0.355
 4378SOL     OW14032   1.832   1.578   2.665
 4378SOL    HW114033   1.920   1.624   2.677
 4378SOL    HW214034   1.827   1.500   2.727
 4379SOL     OW14035   2.414   1.079   3.769
 4379SOL    HW114036   2.504   1.122   3.781
 4379SOL    HW214037   2.344   1.137   3.809
 4380SOL     OW14038   1.308   0.093   1.176
 4380SOL    HW114039   1.219   0.049   1.192
 4380SOL    HW214040   1.296   0.166   1.108
 4381SOL     OW14041   0.806   6.304   4.372
 4381SOL    HW114042   0.793   6.221   4.426
 4381SOL    HW214043   0.900   6.336   4.380
 4382SOL     OW14044   0.038   3.759   5.956
 4382SOL    HW114045   0.131   3.793   5.940
 4382SOL    HW214046   0.003   3.797   6.042
 4383SOL     OW14047   6.972   3.874   6.223
 4383SOL    HW114048   6.874   3.852   6.215
 4383SOL    HW214049   7.013   3.818   6.295
 4384SOL     OW14050   6.125   0.324   3.639
 4384SOL    HW114051   6.154   0.347   3.732
 4384SOL    HW214052   6.177   0.378   3.574
 4385SOL     OW14053   4.457   2.632   5.232
 4385SOL    HW114054   4.446   2.681   5.318
 4385SOL    HW214055   4.497   2.693   5.163
 4386SOL     OW14056   1.271   3.906   5.133
 4386SOL    HW114057   1.253   3.906   5.231
 4386SOL    HW214058   1.350   3.848   5.114
 4387SOL     OW14059   6.958   2.419   2.176
 4387SOL    HW114060   6.966   2.519   2.167
 4387SOL    HW214061   6.965   2.378   2.085
 4388SOL     OW14062   3.920   2.498   6.151
 4388SOL    HW114063   4.010   2.454   6.148
 4388SOL    HW214064   3.920   2.567   6.225
 4389SOL     OW14065   6.899   3.877   0.668
 4389SOL    HW114066   6.865   3.860   0.761
 4389SOL    HW214067   6.966   3.951   0.671
 4390SOL     OW14068   4.474   6.953   1.506
 4390SOL    HW114069   4.507   6.859   1.496
 4390SOL    HW214070   4.491   7.003   1.421
 4391SOL     OW14071   3.096   4.625   0.099
 4391SOL    HW114072   3.012   4.631   0.154
 4391SOL    HW214073   3.073   4.624   0.002
 4392SOL     OW14074   0.874   2.260   4.601
 4392SOL    HW114075   0.777   2.281   4.588
 4392SOL    HW214076   0.896   2.261   4.698
 4393SOL     OW14077   6.401   0.558   2.004
 4393SOL    HW114078   6.444   0.600   2.084
 4393SOL    HW214079   6.445   0.591   1.921
 4394SOL     OW14080   0.404   6.159   2.002
 4394SOL    HW114081   0.426   6.066   1.975
 4394SOL    HW214082   0.423   6.221   1.926
 4395SOL     OW14083   2.310   0.421   1.488
 4395SOL    HW114084   2.262   0.429   1.400
 4395SOL    HW214085   2.382   0.490   1.493
 4396SOL     OW14086   1.766   1.440   3.904
 4396SOL    HW114087   1.772   1.467   3.808
 4396SOL    HW214088   1.725   1.514   3.957
 4397SOL     OW14089   1.717   3.111   4.772
 4397SOL    HW114090   1.688   3.069   4.858
 4397SOL    HW214091   1.722   3.041   4.700
 4398SOL     OW14092   1.618   3.195   6.089
 4398SOL    HW114093   1.526   3.229   6.069
 4398SOL    HW214094   1.685   3.248   6.037
 4399SOL     OW14095   3.046   6.329   1.930
 4399SOL    HW114096   3.141   6.357   1.939
 4399SOL    HW214097   3.000   6.388   1.864
 4400SOL     OW14098   2.020   6.682   3.840
 4400SOL    HW114099   2.044   6.586   3.842
 4400SOL    HW214100   1.921   6.692   3.853
 4401SOL     OW14101   3.872   6.333   4.927
 4401SOL    HW114102   3.857   6.359   5.023
 4401SOL    HW214103   3.795   6.279   4.895
 4402SOL     OW14104   0.829   0.290   2.906
 4402SOL    HW114105   0.807   0.196   2.879
 4402SOL    HW214106   0.775   0.354   2.851
 4403SOL     OW14107   1.705   6.745   0.608
 4403SOL    HW114108   1.737   6.731   0.514
 4403SOL    HW214109   1.724   6.839   0.636
 4404SOL     OW14110   0.539   6.474   5.429
 4404SOL    HW114111   0.602   6.543   5.465
 4404SOL    HW214112   0.446   6.510   5.433
 4405SOL     OW14113   2.091   4.611   2.393
 4405SOL    HW114114   2.003   4.640   2.355
 4405SOL    HW214115   2.152   4.583   2.319
 4406SOL     OW14116   6.634   2.831   0.737
 4406SOL    HW114117   6.566   2.895   0.700
 4406SOL    HW214118   6.709   2.882   0.778
 4407SOL     OW14119   0.298   5.122   1.720
 4407SOL    HW114120   0.219   5.087   1.771
 4407SOL    HW214121   0.266   5.186   1.650
 4408SOL     OW14122   2.164   6.496   6.868
 4408SOL    HW114123   2.186   6.526   6.775
 4408SOL    HW214124   2.095   6.424   6.864
 4409SOL     OW14125   4.539   1.118   1.193
 4409SOL    HW114126   4.443   1.097   1.173
 4409SOL    HW214127   4.544   1.178   1.273
 4410SOL     OW14128   6.647   5.720   7.004
 4410SOL    HW114129   6.601   5.749   0.063
 4410SOL    HW214130   6.627   5.624   6.986
 4411SOL     OW14131   3.299   4.526   5.498
 4411SOL    HW114132   3.263   4.553   5.409
 4411SOL    HW214133   3.225   4.491   5.555
 4412SOL     OW14134   4.853   6.368   4.172
 4412SOL    HW114135   4.890   6.414   4.091
 4412SOL    HW214136   4.807   6.434   4.230
 4413SOL     OW14137   5.307   5.951   3.612
 4413SOL    HW114138   5.304   5.867   3.557
 4413SOL    HW214139   5.333   5.928   3.706
 4414SOL     OW14140   4.091   5.656   1.023
 4414SOL    HW114141   4.145   5.648   1.107
 4414SOL    HW214142   4.120   5.585   0.959
 4415SOL     OW14143   3.803   3.370   0.743
 4415SOL    HW114144   3.844   3.279   0.757
 4415SOL    HW214145   3.799   3.388   0.644
 4416SOL     OW14146   4.112   1.442   3.590
 4416SOL    HW114147   4.113   1.446   3.490
 4416SOL    HW214148   4.119   1.535   3.627
 4417SOL     OW14149   5.537   2.960   3.879
 4417SOL    HW114150   5.635   2.968   3.893
 4417SOL    HW214151   5.517   2.953   3.782
 4418SOL     OW14152   6.253   2.118   2.206
 4418SOL    HW114153   6.285   2.206   2.243
 4418SOL    HW214154   6.331   2.058   2.190
 4419SOL     OW14155   6.805   0.410   6.051
 4419SOL    HW114156   6.722   0.356   6.038
 4419SOL    HW214157   6.779   0.505   6.072
 4420SOL     OW14158   3.352   1.185   0.881
 4420SOL    HW114159   3.339   1.171   0.980
 4420SOL    HW214160   3.349   1.282   0.860
 4421SOL     OW14161   2.146   1.784   5.388
 4421SOL    HW114162   2.168   1.822   5.298
 4421SOL    HW214163   2.061   1.824   5.421
 4422SOL     OW14164   0.947   4.438   6.687
 4422SOL    HW114165   1.000   4.519   6.713
 4422SOL    HW214166   0.867   4.466   6.634
 4423SOL     OW14167   6.892   4.320   5.826
 4423SOL    HW114168   6.966   4.352   5.885
 4423SOL    HW214169   6.804   4.340   5.869
 4424SOL     OW14170   5.372   6.289   4.996
 4424SOL    HW114171   5.472   6.294   4.997
 4424SOL    HW214172   5.334   6.381   4.984
 4425SOL     OW14173   1.568   5.082   0.900
 4425SOL    HW114174   1.606   5.166   0.939
 4425SOL    HW214175   1.565   5.011   0.971
 4426SOL     OW14176   1.071   1.492   3.766
 4426SOL    HW114177   0.977   1.478   3.735
 4426SOL    HW214178   1.087   1.438   3.849
 4427SOL     OW14179   4.335   6.086   2.586
 4427SOL    HW114180   4.368   6.181   2.581
 4427SOL    HW214181   4.410   6.024   2.563
 4428SOL     OW14182   4.351   0.827   4.266
 4428SOL    HW114183   4.395   0.771   4.337
 4428SOL    HW214184   4.274   0.777   4.227
 4429SOL     OW14185   2.624   6.436   2.569
 4429SOL    HW114186   2.604   6.525   2.610
 4429SOL    HW214187   2.721   6.415   2.582
 4430SOL     OW14188   5.235   4.428   4.709
 4430SOL    HW114189   5.232   4.515   4.660
 4430SOL    HW214190   5.277   4.442   4.799
 4431SOL     OW14191   2.660   1.065   3.081
 4431SOL    HW114192   2.562   1.082   3.083
 4431SOL    HW214193   2.683   0.994   3.147
 4432SOL     OW14194   2.152   3.493   6.679
 4432SOL    HW114195   2.141   3.557   6.756
 4432SOL    HW214196   2.069   3.437   6.671
 4433SOL     OW14197   0.202   2.666   4.793
 4433SOL    HW114198   0.286   2.637   4.747
 4433SOL    HW214199   0.216   2.666   4.892
 4434SOL     OW14200   5.544   1.832   3.058
 4434SOL    HW114201   5.547   1.874   3.149
 4434SOL    HW214202   5.613   1.874   3.000
 4435SOL     OW14203   4.190   3.918   1.143
 4435SOL    HW114204   4.249   3.876   1.212
 4435SOL    HW214205   4.187   3.860   1.062
 4436SOL     OW14206   3.741   1.603   1.418
 4436SOL    HW114207   3.746   1.586   1.320
 4436SOL    HW214208   3.650   1.581   1.451
 4437SOL     OW14209   0.785   3.373   2.571
 4437SOL    HW114210   0.695   3.389   2.529
 4437SOL    HW214211   0.793   3.276   2.594
 4438SOL     OW14212   5.177   6.653   5.791
 4438SOL    HW114213   5.189   6.585   5.863
 4438SOL    HW214214   5.265   6.694   5.768
 4439SOL     OW14215   0.495   4.988   2.424
 4439SOL    HW114216   0.558   4.944   2.488
 4439SOL    HW214217   0.452   4.918   2.366
 4440SOL     OW14218   2.601   5.056   0.529
 4440SOL    HW114219   2.655   5.130   0.568
 4440SOL    HW214220   2.558   5.087   0.444
 4441SOL     OW14221   6.786   1.112   0.747
 4441SOL    HW114222   6.799   1.059   0.831
 4441SOL    HW214223   6.698   1.160   0.752
 4442SOL     OW14224   1.310   5.498   5.378
 4442SOL    HW114225   1.349   5.581   5.418
 4442SOL    HW214226   1.357   5.477   5.292
 4443SOL     OW14227   0.912   3.910   6.009
 4443SOL    HW114228   0.870   3.890   5.920
 4443SOL    HW214229   0.979   3.983   5.998
 4444SOL     OW14230   4.445   3.693   0.428
 4444SOL    HW114231   4.483   3.625   0.490
 4444SOL    HW214232   4.425   3.777   0.478
 4445SOL     OW14233   1.513   5.974   0.260
 4445SOL    HW114234   1.471   5.921   0.187
 4445SOL    HW214235   1.558   6.055   0.221
 4446SOL     OW14236   5.402   1.681   0.164
 4446SOL    HW114237   5.353   1.612   0.218
 4446SOL    HW214238   5.454   1.741   0.225
 4447SOL     OW14239   5.942   3.700   4.753
 4447SOL    HW114240   5.981   3.782   4.796
 4447SOL    HW214241   6.004   3.667   4.682
 4448SOL     OW14242   3.340   6.754   1.473
 4448SOL    HW114243   3.376   6.669   1.512
 4448SOL    HW214244   3.289   6.804   1.543
 4449SOL     OW14245   4.623   1.108   6.157
 4449SOL    HW114246   4.713   1.073   6.132
 4449SOL    HW214247   4.593   1.067   6.242
 4450SOL     OW14248   3.227   1.219   6.931
 4450SOL    HW114249   3.157   1.160   6.970
 4450SOL    HW214250   3.186   1.274   6.858
 4451SOL     OW14251   4.580   5.348   4.590
 4451SOL    HW114252   4.642   5.281   4.632
 4451SOL    HW214253   4.522   5.302   4.523
 4452SOL     OW14254   6.622   5.289   4.584
 4452SOL    HW114255   6.563   5.344   4.525
 4452SOL    HW214256   6.631   5.334   4.673
 4453SOL     OW14257   1.389   2.833   1.799
 4453SOL    HW114258   1.472   2.868   1.843
 4453SOL    HW214259   1.395   2.733   1.791
 4454SOL     OW14260   1.020   1.843   7.014
 4454SOL    HW114261   1.055   1.931   6.980
 4454SOL    HW214262   0.929   1.857   0.028
 4455SOL     OW14263   5.281   5.797   5.521
 4455SOL    HW114264   5.183   5.811   5.528
 4455SOL    HW214265   5.300   5.700   5.508
 4456SOL     OW14266   2.488   5.617   3.149
 4456SOL    HW114267   2.388   5.618   3.156
 4456SOL    HW214268   2.527   5.606   3.240
 4457SOL     OW14269   2.239   1.709   4.142
 4457SOL    HW114270   2.247   1.789   4.201
 4457SOL    HW214271   2.146   1.673   4.146
 4458SOL     OW14272   2.724   3.853   1.677
 4458SOL    HW114273   2.633   3.881   1.707
 4458SOL    HW214274   2.725   3.755   1.660
 4459SOL     OW14275   3.046   1.537   4.182
 4459SOL    HW114276   2.969   1.594   4.154
 4459SOL    HW214277   3.126   1.595   4.201
 4460SOL     OW14278   1.076   2.795   6.678
 4460SOL    HW114279   1.055   2.722   6.742
 4460SOL    HW214280   1.001   2.861   6.675
 4461SOL     OW14281   1.873   0.799   0.622
 4461SOL    HW114282   1.958   0.760   0.658
 4461SOL    HW214283   1.820   0.836   0.698
 4462SOL     OW14284   6.222   4.454   2.083
 4462SOL    HW114285   6.221   4.438   1.984
 4462SOL    HW214286   6.150   4.520   2.106
 4463SOL     OW14287   4.887   1.383   1.677
 4463SOL    HW114288   4.975   1.362   1.720
 4463SOL    HW214289   4.866   1.480   1.691
 4464SOL     OW14290   0.677   5.972   0.133
 4464SOL    HW114291   0.703   6.023   0.215
 4464SOL    HW214292   0.578   5.958   0.132
 4465SOL     OW14293   2.815   5.026   0.198
 4465SOL    HW114294   2.789   4.973   0.279
 4465SOL    HW214295   2.881   4.973   0.144
 4466SOL     OW14296   1.120   2.274   2.404
 4466SOL    HW114297   1.146   2.195   2.350
 4466SOL    HW214298   1.057   2.332   2.352
 4467SOL     OW14299   2.518   5.372   3.564
 4467SOL    HW114300   2.610   5.359   3.527
 4467SOL    HW214301   2.500   5.303   3.633
 4468SOL     OW14302   1.167   4.562   1.102
 4468SOL    HW114303   1.236   4.629   1.074
 4468SOL    HW214304   1.128   4.519   1.020
 4469SOL     OW14305   2.899   1.120   1.652
 4469SOL    HW114306   2.933   1.182   1.582
 4469SOL    HW214307   2.856   1.041   1.609
 4470SOL     OW14308   0.486   1.635   2.288
 4470SOL    HW114309   0.540   1.687   2.354
 4470SOL    HW214310   0.451   1.696   2.217
 4471SOL     OW14311   1.737   2.597   6.776
 4471SOL    HW114312   1.748   2.573   6.680
 4471SOL    HW214313   1.734   2.514   6.832
 4472SOL     OW14314   0.588   1.823   0.579
 4472SOL    HW114315   0.543   1.867   0.657
 4472SOL    HW214316   0.599   1.889   0.505
 4473SOL     OW14317   5.131   2.763   4.056
 4473SOL    HW114318   5.194   2.736   4.129
 4473SOL    HW214319   5.154   2.854   4.023
 4474SOL     OW14320   2.802   6.918   2.454
 4474SOL    HW114321   2.863   6.841   2.437
 4474SOL    HW214322   2.712   6.899   2.414
 4475SOL     OW14323   1.191   3.751   1.514
 4475SOL    HW114324   1.233   3.806   1.587
 4475SOL    HW214325   1.092   3.760   1.519
 4476SOL     OW14326   6.283   0.752   4.559
 4476SOL    HW114327   6.370   0.759   4.609
 4476SOL    HW214328   6.211   0.797   4.611
 4477SOL     OW14329   1.765   0.473   4.947
 4477SOL    HW114330   1.766   0.462   5.047
 4477SOL    HW214331   1.697   0.542   4.922
 4478SOL     OW14332   1.218   0.439   1.916
 4478SOL    HW114333   1.222   0.422   1.818
 4478SOL    HW214334   1.232   0.353   1.966
 4479SOL     OW14335   1.542   1.659   0.987
 4479SOL    HW114336   1.570   1.680   1.081
 4479SOL    HW214337   1.603   1.706   0.923
 4480SOL     OW14338   0.613   4.504   5.126
 4480SOL    HW114339   0.632   4.499   5.028
 4480SOL    HW214340   0.682   4.451   5.175
 4481SOL     OW14341   2.442   5.243   4.949
 4481SOL    HW114342   2.481   5.333   4.927
 4481SOL    HW214343   2.508   5.191   5.002
 4482SOL     OW14344   2.207   2.843   5.600
 4482SOL    HW114345   2.293   2.887   5.574
 4482SOL    HW214346   2.163   2.897   5.672
 4483SOL     OW14347   0.285   2.561   2.199
 4483SOL    HW114348   0.353   2.492   2.223
 4483SOL    HW214349   0.265   2.617   2.279
 4484SOL     OW14350   2.394   2.981   0.012
 4484SOL    HW114351   2.449   2.972   6.954
 4484SOL    HW214352   2.406   3.073   0.050
 4485SOL     OW14353   4.826   2.900   5.228
 4485SOL    HW114354   4.756   2.864   5.167
 4485SOL    HW214355   4.797   2.990   5.262
 4486SOL     OW14356   5.857   5.009   5.060
 4486SOL    HW114357   5.767   4.967   5.055
 4486SOL    HW214358   5.915   4.958   5.124
 4487SOL     OW14359   2.718   3.121   0.260
 4487SOL    HW114360   2.770   3.036   0.246
 4487SOL    HW214361   2.696   3.130   0.357
 4488SOL     OW14362   0.791   3.699   4.679
 4488SOL    HW114363   0.851   3.712   4.758
 4488SOL    HW214364   0.771   3.602   4.668
 4489SOL     OW14365   4.698   5.623   5.223
 4489SOL    HW114366   4.727   5.602   5.316
 4489SOL    HW214367   4.756   5.694   5.184
 4490SOL     OW14368   4.933   2.019   1.637
 4490SOL    HW114369   4.929   2.090   1.708
 4490SOL    HW214370   4.993   2.050   1.563
 4491SOL     OW14371   0.865   3.383   3.201
 4491SOL    HW114372   0.901   3.349   3.288
 4491SOL    HW214373   0.840   3.306   3.143
 4492SOL     OW14374   5.890   2.817   1.941
 4492SOL    HW114375   5.826   2.871   1.996
 4492SOL    HW214376   5.980   2.862   1.942
 4493SOL     OW14377   5.590   6.752   4.830
 4493SOL    HW114378   5.552   6.672   4.783
 4493SOL    HW214379   5.584   6.739   4.928
 4494SOL     OW14380   1.329   0.550   5.935
 4494SOL    HW114381   1.324   0.618   6.008
 4494SOL    HW214382   1.357   0.594   5.850
 4495SOL     OW14383   4.068   0.483   3.090
 4495SOL    HW114384   4.053   0.488   2.991
 4495SOL    HW214385   4.074   0.387   3.118
 4496SOL     OW14386   5.554   6.117   0.542
 4496SOL    HW114387   5.456   6.106   0.526
 4496SOL    HW214388   5.570   6.202   0.591
 4497SOL     OW14389   3.853   2.721   6.729
 4497SOL    HW114390   3.884   2.803   6.681
 4497SOL    HW214391   3.756   2.705   6.709
 4498SOL     OW14392   6.571   4.673   6.423
 4498SOL    HW114393   6.542   4.723   6.341
 4498SOL    HW214394   6.644   4.724   6.469
 4499SOL     OW14395   6.158   2.048   3.595
 4499SOL    HW114396   6.072   2.060   3.643
 4499SOL    HW214397   6.234   2.074   3.655
 4500SOL     OW14398   3.666   4.474   6.645
 4500SOL    HW114399   3.729   4.549   6.664
 4500SOL    HW214400   3.677   4.403   6.714
 4501SOL     OW14401   6.184   2.814   2.962
 4501SOL    HW114402   6.181   2.844   3.058
 4501SOL    HW214403   6.268   2.764   2.945
 4502SOL     OW14404   1.167   4.043   6.870
 4502SOL    HW114405   1.239   3.983   6.834
 4502SOL    HW214406   1.132   4.100   6.796
 4503SOL     OW14407   3.001   0.017   2.085
 4503SOL    HW114408   2.969   6.993   2.004
 4503SOL    HW214409   2.926   0.025   2.151
 4504SOL     OW14410   6.133   2.307   4.354
 4504SOL    HW114411   6.070   2.282   4.428
 4504SOL    HW214412   6.176   2.395   4.375
 4505SOL     OW14413   6.483   4.577   1.574
 4505SOL    HW114414   6.560   4.596   1.514
 4505SOL    HW214415   6.442   4.663   1.605
 4506SOL     OW14416   5.200   2.455   3.637
 4506SOL    HW114417   5.261   2.490   3.566
 4506SOL    HW214418   5.224   2.497   3.725
 4507SOL     OW14419   0.414   3.245   3.606
 4507SOL    HW114420   0.356   3.181   3.658
 4507SOL    HW214421   0.499   3.198   3.581
 4508SOL     OW14422   1.453   4.843   6.963
 4508SOL    HW114423   1.447   4.857   6.864
 4508SOL    HW214424   1.434   4.747   6.984
 4509SOL     OW14425   4.835   2.472   3.020
 4509SOL    HW114426   4.909   2.423   3.067
 4509SOL    HW214427   4.794   2.412   2.951
 4510SOL     OW14428   4.440   1.209   4.276
 4510SOL    HW114429   4.501   1.209   4.356
 4510SOL    HW214430   4.478   1.150   4.206
 4511SOL     OW14431   5.891   3.468   0.187
 4511SOL    HW114432   5.979   3.429   0.214
 4511SOL    HW214433   5.823   3.394   0.178
 4512SOL     OW14434   3.617   1.781   5.694
 4512SOL    HW114435   3.680   1.826   5.631
 4512SOL    HW214436   3.535   1.838   5.706
 4513SOL     OW14437   1.074   6.294   6.392
 4513SOL    HW114438   1.109   6.292   6.486
 4513SOL    HW214439   1.062   6.388   6.362
 4514SOL     OW14440   3.676   2.465   6.587
 4514SOL    HW114441   3.756   2.407   6.572
 4514SOL    HW214442   3.610   2.451   6.513
 4515SOL     OW14443   5.379   1.788   4.713
 4515SOL    HW114444   5.478   1.785   4.704
 4515SOL    HW214445   5.349   1.883   4.720
 4516SOL     OW14446   2.371   0.377   5.473
 4516SOL    HW114447   2.316   0.450   5.431
 4516SOL    HW214448   2.378   0.392   5.571
 4517SOL     OW14449   4.466   6.644   6.527
 4517SOL    HW114450   4.545   6.585   6.535
 4517SOL    HW214451   4.496   6.737   6.502
 4518SOL     OW14452   0.968   6.862   1.500
 4518SOL    HW114453   0.892   6.803   1.473
 4518SOL    HW214454   1.050   6.806   1.515
 4519SOL     OW14455   4.892   6.561   6.870
 4519SOL    HW114456   4.939   6.477   6.895
 4519SOL    HW214457   4.834   6.591   6.945
 4520SOL     OW14458   4.465   5.794   5.514
 4520SOL    HW114459   4.426   5.770   5.603
 4520SOL    HW214460   4.444   5.723   5.448
 4521SOL     OW14461   4.936   2.337   5.140
 4521SOL    HW114462   4.980   2.405   5.200
 4521SOL    HW214463   4.979   2.339   5.050
 4522SOL     OW14464   6.115   4.105   2.795
 4522SOL    HW114465   6.052   4.144   2.862
 4522SOL    HW214466   6.089   4.011   2.775
 4523SOL     OW14467   1.769   4.175   6.924
 4523SOL    HW114468   1.801   4.080   6.924
 4523SOL    HW214469   1.779   4.214   6.833
 4524SOL     OW14470   6.617   3.583   2.273
 4524SOL    HW114471   6.649   3.507   2.216
 4524SOL    HW214472   6.557   3.641   2.219
 4525SOL     OW14473   3.234   2.097   5.669
 4525SOL    HW114474   3.247   2.015   5.612
 4525SOL    HW214475   3.184   2.073   5.752
 4526SOL     OW14476   0.053   0.972   0.043
 4526SOL    HW114477   7.021   0.921   0.108
 4526SOL    HW214478   0.143   0.929   0.037
 4527SOL     OW14479   6.610   0.136   2.943
 4527SOL    HW114480   6.568   0.225   2.924
 4527SOL    HW214481   6.686   0.120   2.880
 4528SOL     OW14482   4.449   0.725   6.238
 4528SOL    HW114483   4.429   0.665   6.315
 4528SOL    HW214484   4.380   0.797   6.233
 4529SOL     OW14485   3.135   1.697   5.942
 4529SOL    HW114486   3.168   1.747   5.862
 4529SOL    HW214487   3.180   1.731   6.024
 4530SOL     OW14488   2.477   5.214   3.780
 4530SOL    HW114489   2.493   5.287   3.846
 4530SOL    HW214490   2.387   5.174   3.796
 4531SOL     OW14491   1.379   3.975   6.337
 4531SOL    HW114492   1.370   3.879   6.310
 4531SOL    HW214493   1.288   4.016   6.343
 4532SOL     OW14494   5.321   0.755   3.199
 4532SOL    HW114495   5.248   0.822   3.207
 4532SOL    HW214496   5.404   0.800   3.166
 4533SOL     OW14497   1.532   1.777   3.107
 4533SOL    HW114498   1.458   1.755   3.170
 4533SOL    HW214499   1.618   1.787   3.157
 4534SOL     OW14500   4.466   2.244   5.270
 4534SOL    HW114501   4.550   2.245   5.217
 4534SOL    HW214502   4.481   2.191   5.354
 4535SOL     OW14503   3.420   1.080   1.142
 4535SOL    HW114504   3.463   0.990   1.135
 4535SOL    HW214505   3.471   1.136   1.207
 4536SOL     OW14506   3.333   1.533   5.335
 4536SOL    HW114507   3.309   1.557   5.429
 4536SOL    HW214508   3.312   1.610   5.275
 4537SOL     OW14509   3.980   3.667   2.387
 4537SOL    HW114510   3.899   3.630   2.341
 4537SOL    HW214511   4.026   3.594   2.438
 4538SOL     OW14512   2.485   1.537   2.438
 4538SOL    HW114513   2.461   1.633   2.420
 4538SOL    HW214514   2.472   1.517   2.535
 4539SOL     OW14515   2.387   5.487   4.311
 4539SOL    HW114516   2.425   5.417   4.372
 4539SOL    HW214517   2.458   5.552   4.285
 4540SOL     OW14518   1.576   1.412   0.748
 4540SOL    HW114519   1.662   1.370   0.777
 4540SOL    HW214520   1.593   1.473   0.671
 4541SOL     OW14521   4.584   1.263   7.011
 4541SOL    HW114522   4.653   1.207   0.033
 4541SOL    HW214523   4.506   1.277   0.048
 4542SOL     OW14524   6.967   2.028   1.346
 4542SOL    HW114525   6.882   2.047   1.298
 4542SOL    HW214526   6.960   1.942   1.395
 4543SOL     OW14527   4.558   1.935   0.750
 4543SOL    HW114528   4.648   1.960   0.713
 4543SOL    HW214529   4.543   1.983   0.836
 4544SOL     OW14530   4.299   4.647   0.892
 4544SOL    HW114531   4.275   4.551   0.879
 4544SOL    HW214532   4.289   4.672   0.989
 4545SOL     OW14533   0.325   3.412   5.586
 4545SOL    HW114534   0.259   3.488   5.579
 4545SOL    HW214535   0.284   3.338   5.639
 4546SOL     OW14536   2.944   6.801   5.144
 4546SOL    HW114537   3.023   6.801   5.083
 4546SOL    HW214538   2.964   6.855   5.225
 4547SOL     OW14539   6.351   0.737   0.258
 4547SOL    HW114540   6.313   0.762   0.170
 4547SOL    HW214541   6.278   0.723   0.324
 4548SOL     OW14542   2.534   2.158   3.289
 4548SOL    HW114543   2.617   2.206   3.316
 4548SOL    HW214544   2.456   2.221   3.290
 4549SOL     OW14545   5.163   4.388   1.966
 4549SOL    HW114546   5.075   4.342   1.954
 4549SOL    HW214547   5.221   4.369   1.888
 4550SOL     OW14548   1.211   4.426   3.441
 4550SOL    HW114549   1.203   4.450   3.344
 4550SOL    HW214550   1.249   4.333   3.449
 4551SOL     OW14551   0.508   3.724   5.485
 4551SOL    HW114552   0.482   3.761   5.395
 4551SOL    HW214553   0.518   3.625   5.479
 4552SOL     OW14554   5.866   2.149   1.679
 4552SOL    HW114555   5.854   2.196   1.591
 4552SOL    HW214556   5.923   2.068   1.666
 4553SOL     OW14557   5.039   4.301   6.775
 4553SOL    HW114558   4.982   4.379   6.750
 4553SOL    HW214559   5.114   4.292   6.709
 4554SOL     OW14560   0.081   0.073   1.210
 4554SOL    HW114561   0.164   0.021   1.229
 4554SOL    HW214562   0.069   0.142   1.281
 4555SOL     OW14563   1.393   1.446   6.737
 4555SOL    HW114564   1.361   1.405   6.823
 4555SOL    HW214565   1.479   1.494   6.753
 4556SOL     OW14566   6.112   3.298   5.394
 4556SOL    HW114567   6.048   3.296   5.317
 4556SOL    HW214568   6.068   3.342   5.472
 4557SOL     OW14569   5.975   4.904   4.713
 4557SOL    HW114570   5.931   4.819   4.741
 4557SOL    HW214571   5.922   4.982   4.747
 4558SOL     OW14572   6.799   3.255   5.006
 4558SOL    HW114573   6.789   3.162   5.042
 4558SOL    HW214574   6.875   3.300   5.052
 4559SOL     OW14575   0.555   3.623   2.628
 4559SOL    HW114576   0.523   3.716   2.612
 4559SOL    HW214577   0.540   3.568   2.547
 4560SOL     OW14578   6.280   4.509   2.386
 4560SOL    HW114579   6.254   4.429   2.332
 4560SOL    HW214580   6.339   4.481   2.461
 4561SOL     OW14581   3.692   1.616   3.644
 4561SOL    HW114582   3.623   1.658   3.585
 4561SOL    HW214583   3.704   1.671   3.726
 4562SOL     OW14584   1.794   6.716   0.334
 4562SOL    HW114585   1.827   6.629   0.299
 4562SOL    HW214586   1.856   6.790   0.306
 4563SOL     OW14587   6.697   3.394   1.174
 4563SOL    HW114588   6.717   3.386   1.272
 4563SOL    HW214589   6.669   3.305   1.139
 4564SOL     OW14590   6.903   4.572   2.240
 4564SOL    HW114591   6.972   4.619   2.295
 4564SOL    HW214592   6.814   4.579   2.285
 4565SOL     OW14593   1.678   1.565   4.545
 4565SOL    HW114594   1.728   1.610   4.619
 4565SOL    HW214595   1.672   1.626   4.466
 4566SOL     OW14596   0.469   3.304   0.922
 4566SOL    HW114597   0.507   3.294   1.013
 4566SOL    HW214598   0.478   3.218   0.872
 4567SOL     OW14599   0.084   0.650   7.022
 4567SOL    HW114600   0.106   0.670   0.093
 4567SOL    HW214601   7.024   0.698   6.996
 4568SOL     OW14602   1.146   4.481   5.166
 4568SOL    HW114603   1.178   4.457   5.074
 4568SOL    HW214604   1.188   4.568   5.194
 4569SOL     OW14605   2.977   0.478   2.681
 4569SOL    HW114606   3.024   0.441   2.761
 4569SOL    HW214607   3.017   0.440   2.598
 4570SOL     OW14608   6.491   6.470   2.432
 4570SOL    HW114609   6.407   6.417   2.447
 4570SOL    HW214610   6.567   6.425   2.479
 4571SOL     OW14611   4.087   3.364   6.550
 4571SOL    HW114612   4.100   3.427   6.627
 4571SOL    HW214613   4.163   3.298   6.547
 4572SOL     OW14614   1.831   1.672   6.372
 4572SOL    HW114615   1.841   1.614   6.453
 4572SOL    HW214616   1.734   1.687   6.353
 4573SOL     OW14617   0.882   7.013   0.353
 4573SOL    HW114618   0.974   6.995   0.387
 4573SOL    HW214619   0.833   6.927   0.342
 4574SOL     OW14620   5.855   4.383   6.982
 4574SOL    HW114621   5.814   4.378   0.049
 4574SOL    HW214622   5.816   4.461   6.933
 4575SOL     OW14623   5.931   0.748   4.329
 4575SOL    HW114624   6.006   0.698   4.285
 4575SOL    HW214625   5.872   0.684   4.378
 4576SOL     OW14626   2.598   4.670   5.527
 4576SOL    HW114627   2.558   4.583   5.497
 4576SOL    HW214628   2.580   4.682   5.625
 4577SOL     OW14629   1.444   2.769   3.248
 4577SOL    HW114630   1.526   2.718   3.220
 4577SOL    HW214631   1.458   2.866   3.231
 4578SOL     OW14632   0.985   1.040   4.111
 4578SOL    HW114633   0.996   1.070   4.206
 4578SOL    HW214634   1.043   1.096   4.052
 4579SOL     OW14635   4.781   1.278   1.969
 4579SOL    HW114636   4.863   1.236   2.007
 4579SOL    HW214637   4.700   1.241   2.015
 4580SOL     OW14638   5.660   4.230   1.063
 4580SOL    HW114639   5.708   4.145   1.040
 4580SOL    HW214640   5.576   4.210   1.112
 4581SOL     OW14641   2.536   6.157   2.160
 4581SOL    HW114642   2.552   6.211   2.243
 4581SOL    HW214643   2.593   6.191   2.086
 4582SOL     OW14644   4.655   1.141   3.241
 4582SOL    HW114645   4.616   1.229   3.269
 4582SOL    HW214646   4.581   1.079   3.214
 4583SOL     OW14647   2.564   1.431   6.290
 4583SOL    HW114648   2.637   1.372   6.255
 4583SOL    HW214649   2.554   1.417   6.388
 4584SOL     OW14650   1.901   6.227   5.599
 4584SOL    HW114651   1.827   6.161   5.616
 4584SOL    HW214652   1.985   6.177   5.580
 4585SOL     OW14653   1.582   3.995   3.670
 4585SOL    HW114654   1.572   4.094   3.657
 4585SOL    HW214655   1.652   3.961   3.607
 4586SOL     OW14656   5.580   4.010   0.651
 4586SOL    HW114657   5.610   3.959   0.731
 4586SOL    HW214658   5.659   4.055   0.608
 4587SOL     OW14659   3.768   3.290   4.272
 4587SOL    HW114660   3.763   3.347   4.190
 4587SOL    HW214661   3.834   3.216   4.258
 4588SOL     OW14662   3.345   3.286   5.924
 4588SOL    HW114663   3.319   3.310   6.018
 4588SOL    HW214664   3.263   3.262   5.872
 4589SOL     OW14665   5.615   6.479   1.928
 4589SOL    HW114666   5.685   6.518   1.988
 4589SOL    HW214667   5.650   6.398   1.883
 4590SOL     OW14668   3.688   6.149   1.624
 4590SOL    HW114669   3.773   6.151   1.677
 4590SOL    HW214670   3.654   6.242   1.612
 4591SOL     OW14671   1.887   0.925   4.508
 4591SOL    HW114672   1.811   0.910   4.570
 4591SOL    HW214673   1.967   0.872   4.540
 4592SOL     OW14674   2.741   2.014   3.662
 4592SOL    HW114675   2.803   2.079   3.706
 4592SOL    HW214676   2.646   2.036   3.689
 4593SOL     OW14677   6.141   5.887   2.493
 4593SOL    HW114678   6.227   5.863   2.539
 4593SOL    HW214679   6.066   5.835   2.533
 4594SOL     OW14680   3.295   0.324   3.066
 4594SOL    HW114681   3.244   0.238   3.078
 4594SOL    HW214682   3.286   0.380   3.149
 4595SOL     OW14683   4.586   2.767   6.022
 4595SOL    HW114684   4.644   2.741   6.099
 4595SOL    HW214685   4.491   2.747   6.044
 4596SOL     OW14686   6.686   0.765   2.235
 4596SOL    HW114687   6.620   0.708   2.284
 4596SOL    HW214688   6.762   0.787   2.296
 4597SOL     OW14689   2.729   5.581   6.636
 4597SOL    HW114690   2.726   5.678   6.659
 4597SOL    HW214691   2.708   5.569   6.539
 4598SOL     OW14692   2.125   5.664   1.335
 4598SOL    HW114693   2.167   5.753   1.316
 4598SOL    HW214694   2.104   5.619   1.248
 4599SOL     OW14695   1.527   3.928   2.179
 4599SOL    HW114696   1.434   3.903   2.152
 4599SOL    HW214697   1.527   3.959   2.274
 4600SOL     OW14698   0.630   0.443   5.713
 4600SOL    HW114699   0.646   0.488   5.625
 4600SOL    HW214700   0.716   0.438   5.764
 4601SOL     OW14701   0.892   1.551   5.380
 4601SOL    HW114702   0.811   1.607   5.393
 4601SOL    HW214703   0.866   1.463   5.341
 4602SOL     OW14704   3.117   0.080   6.150
 4602SOL    HW114705   3.093   0.137   6.071
 4602SOL    HW214706   3.180   0.130   6.209
 4603SOL     OW14707   3.468   5.896   0.879
 4603SOL    HW114708   3.447   5.816   0.823
 4603SOL    HW214709   3.480   5.976   0.820
 4604SOL     OW14710   5.205   0.088   5.880
 4604SOL    HW114711   5.133   0.083   5.949
 4604SOL    HW214712   5.287   0.041   5.913
 4605SOL     OW14713   2.229   0.340   1.922
 4605SOL    HW114714   2.180   0.253   1.921
 4605SOL    HW214715   2.186   0.403   1.857
 4606SOL     OW14716   6.630   6.985   2.444
 4606SOL    HW114717   6.530   6.984   2.439
 4606SOL    HW214718   6.666   6.901   2.403
 4607SOL     OW14719   2.070   3.638   3.365
 4607SOL    HW114720   2.105   3.731   3.360
 4607SOL    HW214721   2.014   3.618   3.284
 4608SOL     OW14722   0.498   3.872   3.601
 4608SOL    HW114723   0.417   3.895   3.655
 4608SOL    HW214724   0.548   3.797   3.644
 4609SOL     OW14725   5.078   5.046   6.835
 4609SOL    HW114726   5.072   5.145   6.846
 4609SOL    HW214727   5.032   5.019   6.751
 4610SOL     OW14728   5.008   1.971   6.821
 4610SOL    HW114729   5.038   2.056   6.776
 4610SOL    HW214730   4.989   1.902   6.752
 4611SOL     OW14731   0.540   1.049   5.847
 4611SOL    HW114732   0.545   0.964   5.901
 4611SOL    HW214733   0.566   1.029   5.753
 4612SOL     OW14734   2.541   6.860   1.981
 4612SOL    HW114735   2.584   6.811   2.057
 4612SOL    HW214736   2.570   6.956   1.982
 4613SOL     OW14737   1.324   5.772   2.495
 4613SOL    HW114738   1.420   5.742   2.497
 4613SOL    HW214739   1.314   5.847   2.430
 4614SOL     OW14740   6.262   3.245   3.813
 4614SOL    HW114741   6.284   3.341   3.799
 4614SOL    HW214742   6.326   3.189   3.761
 4615SOL     OW14743   1.280   0.901   1.470
 4615SOL    HW114744   1.243   0.819   1.426
 4615SOL    HW214745   1.304   0.879   1.565
 4616SOL     OW14746   6.205   2.769   3.989
 4616SOL    HW114747   6.176   2.732   4.076
 4616SOL    HW214748   6.179   2.707   3.915
 4617SOL     OW14749   1.465   2.124   2.319
 4617SOL    HW114750   1.452   2.185   2.398
 4617SOL    HW214751   1.463   2.029   2.350
 4618SOL     OW14752   2.554   3.159   5.785
 4618SOL    HW114753   2.557   3.176   5.686
 4618SOL    HW214754   2.527   3.243   5.832
 4619SOL     OW14755   3.562   6.543   3.851
 4619SOL    HW114756   3.470   6.527   3.885
 4619SOL    HW214757   3.569   6.509   3.757
 4620SOL     OW14758   0.639   4.985   1.247
 4620SOL    HW114759   0.594   5.070   1.272
 4620SOL    HW214760   0.706   5.003   1.175
 4621SOL     OW14761   5.252   0.641   2.612
 4621SOL    HW114762   5.279   0.737   2.620
 4621SOL    HW214763   5.158   0.630   2.644
 4622SOL     OW14764   4.225   5.143   1.483
 4622SOL    HW114765   4.195   5.126   1.389
 4622SOL    HW214766   4.324   5.131   1.489
 4623SOL     OW14767   3.410   5.683   0.726
 4623SOL    HW114768   3.390   5.713   0.632
 4623SOL    HW214769   3.505   5.653   0.732
 4624SOL     OW14770   3.457   1.339   3.164
 4624SOL    HW114771   3.498   1.395   3.237
 4624SOL    HW214772   3.358   1.355   3.162
 4625SOL     OW14773   2.102   5.659   1.805
 4625SOL    HW114774   2.153   5.593   1.750
 4625SOL    HW214775   2.165   5.727   1.843
 4626SOL     OW14776   4.563   4.022   1.235
 4626SOL    HW114777   4.583   4.119   1.225
 4626SOL    HW214778   4.511   3.990   1.156
 4627SOL     OW14779   0.544   5.864   5.236
 4627SOL    HW114780   0.503   5.853   5.146
 4627SOL    HW214781   0.501   5.800   5.300
 4628SOL     OW14782   5.019   4.432   4.178
 4628SOL    HW114783   5.017   4.504   4.109
 4628SOL    HW214784   5.099   4.374   4.162
 4629SOL     OW14785   2.605   4.998   6.551
 4629SOL    HW114786   2.582   4.936   6.476
 4629SOL    HW214787   2.528   5.059   6.569
 4630SOL     OW14788   2.535   5.066   2.240
 4630SOL    HW114789   2.619   5.092   2.288
 4630SOL    HW214790   2.461   5.056   2.307
 4631SOL     OW14791   0.998   6.812   3.739
 4631SOL    HW114792   0.950   6.745   3.796
 4631SOL    HW214793   1.003   6.778   3.645
 4632SOL     OW14794   2.229   5.257   2.714
 4632SOL    HW114795   2.278   5.337   2.749
 4632SOL    HW214796   2.139   5.252   2.757
 4633SOL     OW14797   4.566   1.012   4.884
 4633SOL    HW114798   4.604   0.926   4.848
 4633SOL    HW214799   4.641   1.077   4.899
 4634SOL     OW14800   2.970   3.816   4.933
 4634SOL    HW114801   2.907   3.825   5.009
 4634SOL    HW214802   3.017   3.727   4.939
 4635SOL     OW14803   4.494   4.433   1.532
 4635SOL    HW114804   4.459   4.342   1.551
 4635SOL    HW214805   4.578   4.426   1.477
 4636SOL     OW14806   2.109   4.907   0.790
 4636SOL    HW114807   2.111   4.825   0.846
 4636SOL    HW214808   2.018   4.916   0.747
 4637SOL     OW14809   0.981   6.500   0.320
 4637SOL    HW114810   0.891   6.477   0.283
 4637SOL    HW214811   1.032   6.553   0.252
 4638SOL     OW14812   3.621   5.273   6.816
 4638SOL    HW114813   3.563   5.281   6.735
 4638SOL    HW214814   3.682   5.353   6.822
 4639SOL     OW14815   2.724   2.819   6.277
 4639SOL    HW114816   2.723   2.908   6.323
 4639SOL    HW214817   2.646   2.764   6.308
 4640SOL     OW14818   6.389   2.999   4.084
 4640SOL    HW114819   6.480   2.988   4.124
 4640SOL    HW214820   6.354   2.910   4.055
 4641SOL     OW14821   1.935   6.985   3.642
 4641SOL    HW114822   1.902   6.976   3.548
 4641SOL    HW214823   1.870   0.014   3.696
 4642SOL     OW14824   1.673   0.507   3.337
 4642SOL    HW114825   1.651   0.603   3.322
 4642SOL    HW214826   1.676   0.488   3.435
 4643SOL     OW14827   6.616   2.716   0.985
 4643SOL    HW114828   6.691   2.649   0.986
 4643SOL    HW214829   6.600   2.747   0.892
 4644SOL     OW14830   6.701   1.031   5.796
 4644SOL    HW114831   6.643   1.069   5.868
 4644SOL    HW214832   6.796   1.028   5.826
 4645SOL     OW14833   1.378   0.632   4.178
 4645SOL    HW114834   1.341   0.689   4.251
 4645SOL    HW214835   1.378   0.536   4.206
 4646SOL     OW14836   3.108   5.075   4.371
 4646SOL    HW114837   3.082   5.010   4.442
 4646SOL    HW214838   3.037   5.078   4.300
 4647SOL     OW14839   1.100   0.798   3.354
 4647SOL    HW114840   1.055   0.721   3.309
 4647SOL    HW214841   1.044   0.881   3.343
 4648SOL     OW14842   2.774   0.778   4.549
 4648SOL    HW114843   2.737   0.685   4.544
 4648SOL    HW214844   2.857   0.778   4.604
 4649SOL     OW14845   5.585   0.659   1.150
 4649SOL    HW114846   5.653   0.658   1.077
 4649SOL    HW214847   5.514   0.726   1.129
 4650SOL     OW14848   4.332   5.852   1.843
 4650SOL    HW114849   4.419   5.899   1.829
 4650SOL    HW214850   4.269   5.913   1.891
 4651SOL     OW14851   5.956   3.664   6.901
 4651SOL    HW114852   5.900   3.622   6.830
 4651SOL    HW214853   5.903   3.735   6.947
 4652SOL     OW14854   5.959   6.592   4.952
 4652SOL    HW114855   6.017   6.543   5.018
 4652SOL    HW214856   5.866   6.555   4.956
 4653SOL     OW14857   4.925   5.503   0.280
 4653SOL    HW114858   4.953   5.437   0.350
 4653SOL    HW214859   4.829   5.486   0.256
 4654SOL     OW14860   0.143   6.553   5.907
 4654SOL    HW114861   0.223   6.581   5.852
 4654SOL    HW214862   0.174   6.511   5.992
 4655SOL     OW14863   4.868   3.900   1.831
 4655SOL    HW114864   4.888   3.942   1.742
 4655SOL    HW214865   4.880   3.801   1.824
 4656SOL     OW14866   0.812   0.585   1.931
 4656SOL    HW114867   0.884   0.634   1.883
 4656SOL    HW214868   0.727   0.589   1.879
 4657SOL     OW14869   5.501   6.220   2.071
 4657SOL    HW114870   5.581   6.268   2.107
 4657SOL    HW214871   5.429   6.219   2.140
 4658SOL     OW14872   2.678   2.649   5.282
 4658SOL    HW114873   2.732   2.722   5.325
 4658SOL    HW214874   2.740   2.583   5.240
 4659SOL     OW14875   3.377   4.597   0.951
 4659SOL    HW114876   3.304   4.573   1.015
 4659SOL    HW214877   3.363   4.690   0.918
 4660SOL     OW14878   1.260   6.477   3.879
 4660SOL    HW114879   1.194   6.535   3.927
 4660SOL    HW214880   1.258   6.499   3.781
 4661SOL     OW14881   2.470   4.436   5.804
 4661SOL    HW114882   2.524   4.519   5.818
 4661SOL    HW214883   2.527   4.366   5.762
 4662SOL     OW14884   2.884   0.292   5.082
 4662SOL    HW114885   2.943   0.355   5.031
 4662SOL    HW214886   2.810   0.344   5.125
 4663SOL     OW14887   0.377   6.886   0.594
 4663SOL    HW114888   0.474   6.905   0.611
 4663SOL    HW214889   0.322   6.964   0.621
 4664SOL     OW14890   6.998   0.519   0.404
 4664SOL    HW114891   0.020   0.585   0.345
 4664SOL    HW214892   6.958   0.447   0.348
 4665SOL     OW14893   2.451   0.281   6.102
 4665SOL    HW114894   2.504   0.359   6.136
 4665SOL    HW214895   2.504   0.232   6.033
 4666SOL     OW14896   1.995   2.720   6.833
 4666SOL    HW114897   2.014   2.804   6.780
 4666SOL    HW214898   1.906   2.729   6.878
 4667SOL     OW14899   6.978   4.011   1.866
 4667SOL    HW114900   0.019   3.969   1.802
 4667SOL    HW214901   6.893   4.030   1.818
 4668SOL     OW14902   4.289   1.590   4.890
 4668SOL    HW114903   4.241   1.672   4.861
 4668SOL    HW214904   4.280   1.579   4.989
 4669SOL     OW14905   5.529   0.142   6.722
 4669SOL    HW114906   5.536   0.046   6.695
 4669SOL    HW214907   5.453   0.153   6.786
 4670SOL     OW14908   1.354   3.370   6.974
 4670SOL    HW114909   1.320   3.306   0.018
 4670SOL    HW214910   1.310   3.459   6.987
 4671SOL     OW14911   0.765   3.395   0.644
 4671SOL    HW114912   0.785   3.454   0.565
 4671SOL    HW214913   0.771   3.449   0.728
 4672SOL     OW14914   4.017   4.359   5.941
 4672SOL    HW114915   3.939   4.398   5.890
 4672SOL    HW214916   4.071   4.302   5.880
 4673SOL     OW14917   5.275   0.102   0.125
 4673SOL    HW114918   5.309   0.129   0.215
 4673SOL    HW214919   5.220   0.019   0.134
 4674SOL     OW14920   5.553   1.829   0.339
 4674SOL    HW114921   5.591   1.921   0.331
 4674SOL    HW214922   5.567   1.795   0.432
 4675SOL     OW14923   3.649   0.176   6.929
 4675SOL    HW114924   3.667   0.264   6.974
 4675SOL    HW214925   3.558   0.178   6.887
 4676SOL     OW14926   0.456   6.354   4.674
 4676SOL    HW114927   0.529   6.394   4.618
 4676SOL    HW214928   0.450   6.402   4.761
 4677SOL     OW14929   3.052   0.349   0.137
 4677SOL    HW114930   3.015   0.280   0.200
 4677SOL    HW214931   3.135   0.389   0.176
 4678SOL     OW14932   2.385   5.208   2.064
 4678SOL    HW114933   2.428   5.153   2.136
 4678SOL    HW214934   2.414   5.175   1.974
 4679SOL     OW14935   3.775   1.392   6.253
 4679SOL    HW114936   3.805   1.380   6.159
 4679SOL    HW214937   3.729   1.309   6.285
 4680SOL     OW14938   2.502   6.587   1.665
 4680SOL    HW114939   2.414   6.634   1.673
 4680SOL    HW214940   2.551   6.594   1.752
 4681SOL     OW14941   6.390   6.165   4.517
 4681SOL    HW114942   6.472   6.220   4.533
 4681SOL    HW214943   6.374   6.104   4.595
 4682SOL     OW14944   4.480   5.495   7.012
 4682SOL    HW114945   4.463   5.408   6.965
 4682SOL    HW214946   4.566   5.490   0.037
 4683SOL     OW14947   5.202   4.424   2.219
 4683SOL    HW114948   5.210   4.403   2.121
 4683SOL    HW214949   5.150   4.350   2.264
 4684SOL     OW14950   0.436   2.601   4.456
 4684SOL    HW114951   0.505   2.589   4.527
 4684SOL    HW214952   0.375   2.521   4.455
 4685SOL     OW14953   6.539   5.428   4.348
 4685SOL    HW114954   6.458   5.378   4.316
 4685SOL    HW214955   6.598   5.447   4.270
 4686SOL     OW14956   5.094   5.950   0.406
 4686SOL    HW114957   5.187   5.986   0.398
 4686SOL    HW214958   5.094   5.853   0.382
 4687SOL     OW14959   6.430   4.053   5.030
 4687SOL    HW114960   6.399   3.997   4.954
 4687SOL    HW214961   6.518   4.018   5.064
 4688SOL     OW14962   0.045   3.023   6.681
 4688SOL    HW114963   6.995   3.052   6.741
 4688SOL    HW214964   0.027   2.931   6.646
 4689SOL     OW14965   5.785   0.484   6.521
 4689SOL    HW114966   5.826   0.398   6.490
 4689SOL    HW214967   5.784   0.549   6.445
 4690SOL     OW14968   1.120   0.930   6.845
 4690SOL    HW114969   1.062   0.918   6.925
 4690SOL    HW214970   1.089   1.009   6.793
 4691SOL     OW14971   2.941   4.018   1.710
 4691SOL    HW114972   2.859   3.963   1.725
 4691SOL    HW214973   2.917   4.114   1.703
 4692SOL     OW14974   6.733   5.066   2.763
 4692SOL    HW114975   6.638   5.049   2.789
 4692SOL    HW214976   6.789   4.987   2.788
 4693SOL     OW14977   0.728   0.953   4.237
 4693SOL    HW114978   0.680   0.891   4.175
 4693SOL    HW214979   0.761   1.032   4.185
 4694SOL     OW14980   2.946   0.661   0.155
 4694SOL    HW114981   2.958   0.735   0.223
 4694SOL    HW214982   2.946   0.700   0.063
 4695SOL     OW14983   3.226   3.336   1.765
 4695SOL    HW114984   3.261   3.245   1.745
 4695SOL    HW214985   3.301   3.403   1.761
 4696SOL     OW14986   0.928   4.909   6.038
 4696SOL    HW114987   0.889   4.911   5.946
 4696SOL    HW214988   1.025   4.884   6.032
 4697SOL     OW14989   1.608   3.595   0.709
 4697SOL    HW114990   1.569   3.509   0.742
 4697SOL    HW214991   1.681   3.576   0.643
 4698SOL     OW14992   4.721   4.914   2.510
 4698SOL    HW114993   4.704   4.859   2.428
 4698SOL    HW214994   4.785   4.988   2.488
 4699SOL     OW14995   0.817   0.292   2.348
 4699SOL    HW114996   0.804   0.193   2.345
 4699SOL    HW214997   0.915   0.312   2.340
 4700SOL     OW14998   5.311   1.620   1.883
 4700SOL    HW114999   5.372   1.603   1.805
 4700SOL    HW215000   5.281   1.715   1.882
 4701SOL     OW15001   1.387   1.880   0.328
 4701SOL    HW115002   1.309   1.836   0.373
 4701SOL    HW215003   1.363   1.903   0.234
 4702SOL     OW15004   4.554   4.535   6.554
 4702SOL    HW115005   4.510   4.468   6.613
 4702SOL    HW215006   4.593   4.490   6.474
 4703SOL     OW15007   0.527   2.280   2.579
 4703SOL    HW115008   0.601   2.239   2.525
 4703SOL    HW215009   0.467   2.333   2.519
 4704SOL     OW15010   7.020   6.250   1.045
 4704SOL    HW115011   6.926   6.247   1.010
 4704SOL    HW215012   0.059   6.247   0.968
 4705SOL     OW15013   3.006   3.262   3.002
 4705SOL    HW115014   2.985   3.357   2.976
 4705SOL    HW215015   3.033   3.211   2.921
 4706SOL     OW15016   4.198   6.210   6.277
 4706SOL    HW115017   4.244   6.290   6.315
 4706SOL    HW215018   4.156   6.234   6.190
 4707SOL     OW15019   2.242   6.027   1.029
 4707SOL    HW115020   2.238   5.928   1.014
 4707SOL    HW215021   2.325   6.064   0.989
 4708SOL     OW15022   2.557   3.063   0.482
 4708SOL    HW115023   2.462   3.037   0.504
 4708SOL    HW215024   2.616   2.984   0.496
 4709SOL     OW15025   4.089   5.652   5.274
 4709SOL    HW115026   4.074   5.741   5.318
 4709SOL    HW215027   4.073   5.579   5.340
 4710SOL     OW15028   4.103   1.361   6.276
 4710SOL    HW115029   4.122   1.375   6.179
 4710SOL    HW215030   4.177   1.400   6.331
 4711SOL     OW15031   4.758   0.677   2.580
 4711SOL    HW115032   4.768   0.765   2.534
 4711SOL    HW215033   4.770   0.690   2.679
 4712SOL     OW15034   2.382   4.631   0.697
 4712SOL    HW115035   2.446   4.600   0.626
 4712SOL    HW215036   2.379   4.731   0.697
 4713SOL     OW15037   3.009   4.594   0.760
 4713SOL    HW115038   3.060   4.679   0.751
 4713SOL    HW215039   2.962   4.592   0.848
 4714SOL     OW15040   2.576   2.016   6.975
 4714SOL    HW115041   2.514   1.986   6.901
 4714SOL    HW215042   2.616   1.935   7.018
 4715SOL     OW15043   6.377   3.742   2.201
 4715SOL    HW115044   6.317   3.724   2.279
 4715SOL    HW215045   6.375   3.839   2.179
 4716SOL     OW15046   3.685   5.265   6.009
 4716SOL    HW115047   3.654   5.179   5.969
 4716SOL    HW215048   3.606   5.325   6.023
 4717SOL     OW15049   1.493   6.149   2.591
 4717SOL    HW115050   1.430   6.217   2.553
 4717SOL    HW215051   1.473   6.060   2.550
 4718SOL     OW15052   5.466   1.573   6.938
 4718SOL    HW115053   5.475   1.616   0.003
 4718SOL    HW215054   5.508   1.631   6.869
 4719SOL     OW15055   4.985   2.926   2.703
 4719SOL    HW115056   5.040   3.009   2.712
 4719SOL    HW215057   5.037   2.848   2.736
 4720SOL     OW15058   2.503   6.596   5.629
 4720SOL    HW115059   2.445   6.671   5.661
 4720SOL    HW215060   2.598   6.627   5.623
 4721SOL     OW15061   6.974   2.338   1.911
 4721SOL    HW115062   0.024   2.327   1.846
 4721SOL    HW215063   6.924   2.422   1.891
 4722SOL     OW15064   1.508   5.659   6.840
 4722SOL    HW115065   1.597   5.705   6.838
 4722SOL    HW215066   1.456   5.684   6.758
 4723SOL     OW15067   1.572   5.684   6.063
 4723SOL    HW115068   1.566   5.614   5.991
 4723SOL    HW215069   1.637   5.755   6.034
 4724SOL     OW15070   4.395   6.344   2.585
 4724SOL    HW115071   4.437   6.395   2.660
 4724SOL    HW215072   4.417   6.388   2.498
 4725SOL     OW15073   5.308   6.505   3.121
 4725SOL    HW115074   5.314   6.506   3.221
 4725SOL    HW215075   5.400   6.501   3.083
 4726SOL     OW15076   1.305   3.301   6.545
 4726SOL    HW115077   1.364   3.284   6.466
 4726SOL    HW215078   1.348   3.266   6.627
 4727SOL     OW15079   0.063   6.035   6.815
 4727SOL    HW115080   6.994   6.005   6.831
 4727SOL    HW215081   0.107   5.975   6.747
 4728SOL     OW15082   4.925   1.253   0.926
 4728SOL    HW115083   4.865   1.325   0.890
 4728SOL    HW215084   4.898   1.231   1.019
 4729SOL     OW15085   2.409   0.942   2.876
 4729SOL    HW115086   2.504   0.922   2.849
 4729SOL    HW215087   2.409   1.006   2.953
 4730SOL     OW15088   2.295   5.988   5.440
 4730SOL    HW115089   2.240   5.960   5.362
 4730SOL    HW215090   2.328   6.082   5.426
 4731SOL     OW15091   5.597   0.645   5.873
 4731SOL    HW115092   5.602   0.661   5.775
 4731SOL    HW215093   5.625   0.728   5.922
 4732SOL     OW15094   6.752   3.065   6.598
 4732SOL    HW115095   6.759   2.970   6.568
 4732SOL    HW215096   6.682   3.071   6.669
 4733SOL     OW15097   1.186   4.002   3.372
 4733SOL    HW115098   1.122   4.074   3.347
 4733SOL    HW215099   1.136   3.918   3.391
 4734SOL     OW15100   5.247   2.988   0.038
 4734SOL    HW115101   5.251   3.064   6.998
 4734SOL    HW215102   5.178   2.922   0.008
 4735SOL     OW15103   0.781   5.008   3.306
 4735SOL    HW115104   0.851   5.062   3.353
 4735SOL    HW215105   0.763   4.924   3.358
 4736SOL     OW15106   0.393   1.737   6.615
 4736SOL    HW115107   0.341   1.659   6.581
 4736SOL    HW215108   0.475   1.704   6.663
 4737SOL     OW15109   2.296   4.981   2.425
 4737SOL    HW115110   2.287   4.903   2.487
 4737SOL    HW215111   2.216   4.987   2.365
 4738SOL     OW15112   0.532   6.142   2.567
 4738SOL    HW115113   0.489   6.052   2.576
 4738SOL    HW215114   0.627   6.132   2.540
 4739SOL     OW15115   4.259   0.084   2.301
 4739SOL    HW115116   4.269   0.100   2.202
 4739SOL    HW215117   4.338   0.032   2.334
 4740SOL     OW15118   0.493   1.446   2.539
 4740SOL    HW115119   0.581   1.399   2.536
 4740SOL    HW215120   0.465   1.473   2.447
 4741SOL     OW15121   3.404   2.413   1.421
 4741SOL    HW115122   3.502   2.432   1.433
 4741SOL    HW215123   3.393   2.324   1.376
 4742SOL     OW15124   1.985   6.731   6.749
 4742SOL    HW115125   1.993   6.727   6.848
 4742SOL    HW215126   2.076   6.726   6.707
 4743SOL     OW15127   2.072   3.367   3.038
 4743SOL    HW115128   1.978   3.388   3.014
 4743SOL    HW215129   2.134   3.414   2.975
 4744SOL     OW15130   2.064   5.441   0.606
 4744SOL    HW115131   2.120   5.358   0.613
 4744SOL    HW215132   2.089   5.492   0.524
 4745SOL     OW15133   2.893   3.953   0.028
 4745SOL    HW115134   2.804   3.976   7.011
 4745SOL    HW215135   2.956   3.922   6.982
 4746SOL     OW15136   3.969   5.996   3.685
 4746SOL    HW115137   3.940   5.901   3.690
 4746SOL    HW215138   3.923   6.050   3.756
 4747SOL     OW15139   1.166   3.333   0.671
 4747SOL    HW115140   1.204   3.420   0.703
 4747SOL    HW215141   1.176   3.327   0.571
 4748SOL     OW15142   1.502   6.797   1.822
 4748SOL    HW115143   1.505   6.838   1.731
 4748SOL    HW215144   1.579   6.734   1.833
 4749SOL     OW15145   2.277   0.066   6.367
 4749SOL    HW115146   2.291   0.141   6.431
 4749SOL    HW215147   2.196   0.015   6.394
 4750SOL     OW15148   6.507   4.108   5.358
 4750SOL    HW115149   6.435   4.134   5.294
 4750SOL    HW215150   6.467   4.093   5.449
 4751SOL     OW15151   4.947   2.000   3.082
 4751SOL    HW115152   4.854   2.038   3.087
 4751SOL    HW215153   4.993   2.014   3.170
 4752SOL     OW15154   4.296   1.191   0.667
 4752SOL    HW115155   4.262   1.281   0.692
 4752SOL    HW215156   4.278   1.127   0.741
 4753SOL     OW15157   1.301   6.661   4.676
 4753SOL    HW115158   1.311   6.725   4.752
 4753SOL    HW215159   1.392   6.636   4.642
 4754SOL     OW15160   4.623   3.826   6.070
 4754SOL    HW115161   4.565   3.763   6.121
 4754SOL    HW215162   4.717   3.791   6.069
 4755SOL     OW15163   2.116   1.070   1.042
 4755SOL    HW115164   2.139   1.164   1.067
 4755SOL    HW215165   2.194   1.010   1.062
 4756SOL     OW15166   6.892   4.158   6.287
 4756SOL    HW115167   6.958   4.233   6.292
 4756SOL    HW215168   6.940   4.073   6.268
 4757SOL     OW15169   1.543   2.664   1.587
 4757SOL    HW115170   1.458   2.642   1.540
 4757SOL    HW215171   1.620   2.646   1.526
 4758SOL     OW15172   1.172   0.173   3.628
 4758SOL    HW115173   1.148   0.078   3.649
 4758SOL    HW215174   1.136   0.232   3.700
 4759SOL     OW15175   0.592   5.683   0.021
 4759SOL    HW115176   0.530   5.761   0.030
 4759SOL    HW215177   0.686   5.715   0.018
 4760SOL     OW15178   1.308   6.781   0.342
 4760SOL    HW115179   1.265   6.736   0.421
 4760SOL    HW215180   1.372   6.850   0.374
 4761SOL     OW15181   0.153   0.312   0.436
 4761SOL    HW115182   0.086   0.386   0.436
 4761SOL    HW215183   0.135   0.249   0.360
 4762SOL     OW15184   1.629   5.666   2.015
 4762SOL    HW115185   1.714   5.702   1.977
 4762SOL    HW215186   1.552   5.690   1.955
 4763SOL     OW15187   4.782   6.203   2.417
 4763SOL    HW115188   4.738   6.115   2.399
 4763SOL    HW215189   4.732   6.275   2.368
 4764SOL     OW15190   4.882   3.453   5.312
 4764SOL    HW115191   4.821   3.483   5.239
 4764SOL    HW215192   4.976   3.480   5.291
 4765SOL     OW15193   3.594   0.657   5.778
 4765SOL    HW115194   3.588   0.609   5.691
 4765SOL    HW215195   3.690   0.675   5.801
 4766SOL     OW15196   6.361   0.015   4.418
 4766SOL    HW115197   6.408   0.087   4.367
 4766SOL    HW215198   6.269   0.003   4.381
 4767SOL     OW15199   2.272   5.508   5.153
 4767SOL    HW115200   2.297   5.604   5.163
 4767SOL    HW215201   2.351   5.451   5.177
 4768SOL     OW15202   4.624   3.304   6.617
 4768SOL    HW115203   4.548   3.360   6.582
 4768SOL    HW215204   4.613   3.292   6.716
 4769SOL     OW15205   2.788   6.243   0.904
 4769SOL    HW115206   2.723   6.168   0.914
 4769SOL    HW215207   2.738   6.328   0.886
 4770SOL     OW15208   6.871   2.243   5.415
 4770SOL    HW115209   6.916   2.304   5.480
 4770SOL    HW215210   6.939   2.206   5.352
 4771SOL     OW15211   2.385   6.807   5.073
 4771SOL    HW115212   2.305   6.850   5.031
 4771SOL    HW215213   2.369   6.798   5.171
 4772SOL     OW15214   3.162   5.080   0.310
 4772SOL    HW115215   3.124   5.171   0.324
 4772SOL    HW215216   3.186   5.068   0.214
 4773SOL     OW15217   1.409   5.906   4.288
 4773SOL    HW115218   1.442   5.819   4.251
 4773SOL    HW215219   1.431   5.911   4.385
 4774SOL     OW15220   1.494   4.530   0.335
 4774SOL    HW115221   1.406   4.496   0.300
 4774SOL    HW215222   1.568   4.490   0.281
 4775SOL     OW15223   5.129   6.788   4.921
 4775SOL    HW115224   5.199   6.722   4.896
 4775SOL    HW215225   5.054   6.783   4.855
 4776SOL     OW15226   1.528   0.948   4.911
 4776SOL    HW115227   1.527   1.042   4.945
 4776SOL    HW215228   1.620   0.910   4.919
 4777SOL     OW15229   1.752   5.801   0.594
 4777SOL    HW115230   1.698   5.717   0.601
 4777SOL    HW215231   1.703   5.876   0.638
 4778SOL     OW15232   0.728   2.603   4.674
 4778SOL    HW115233   0.715   2.581   4.577
 4778SOL    HW215234   0.802   2.669   4.684
 4779SOL     OW15235   6.089   0.024   3.973
 4779SOL    HW115236   6.117   0.053   3.881
 4779SOL    HW215237   6.105   0.099   4.037
 4780SOL     OW15238   5.632   2.714   5.661
 4780SOL    HW115239   5.595   2.621   5.650
 4780SOL    HW215240   5.729   2.714   5.634
 4781SOL     OW15241   2.541   5.876   2.237
 4781SOL    HW115242   2.523   5.970   2.207
 4781SOL    HW215243   2.461   5.840   2.285
 4782SOL     OW15244   6.115   5.422   5.702
 4782SOL    HW115245   6.194   5.362   5.694
 4782SOL    HW215246   6.031   5.367   5.704
 4783SOL     OW15247   5.849   3.742   0.201
 4783SOL    HW115248   5.878   3.646   0.192
 4783SOL    HW215249   5.874   3.775   0.292
 4784SOL     OW15250   6.459   2.119   5.933
 4784SOL    HW115251   6.500   2.030   5.955
 4784SOL    HW215252   6.393   2.107   5.859
 4785SOL     OW15253   0.303   6.353   2.914
 4785SOL    HW115254   0.318   6.432   2.973
 4785SOL    HW215255   0.241   6.378   2.839
 4786SOL     OW15256   2.886   0.224   0.779
 4786SOL    HW115257   2.805   0.174   0.810
 4786SOL    HW215258   2.969   0.177   0.811
 4787SOL     OW15259   4.501   2.080   4.458
 4787SOL    HW115260   4.514   2.107   4.363
 4787SOL    HW215261   4.459   2.156   4.509
 4788SOL     OW15262   5.981   5.580   0.156
 4788SOL    HW115263   5.949   5.635   0.079
 4788SOL    HW215264   5.990   5.485   0.127
 4789SOL     OW15265   5.029   1.776   2.292
 4789SOL    HW115266   5.038   1.776   2.193
 4789SOL    HW215267   4.978   1.857   2.321
 4790SOL     OW15268   5.280   1.647   5.884
 4790SOL    HW115269   5.331   1.562   5.903
 4790SOL    HW215270   5.329   1.724   5.925
 4791SOL     OW15271   0.240   2.733   0.769
 4791SOL    HW115272   0.302   2.686   0.832
 4791SOL    HW215273   0.152   2.687   0.768
 4792SOL     OW15274   1.796   5.146   4.472
 4792SOL    HW115275   1.833   5.054   4.459
 4792SOL    HW215276   1.856   5.213   4.428
 4793SOL     OW15277   1.096   3.710   6.016
 4793SOL    HW115278   1.014   3.766   6.020
 4793SOL    HW215279   1.156   3.744   5.943
 4794SOL     OW15280   4.701   0.348   4.041
 4794SOL    HW115281   4.609   0.329   4.075
 4794SOL    HW215282   4.697   0.419   3.971
 4795SOL     OW15283   6.976   1.645   4.298
 4795SOL    HW115284   0.016   1.637   4.223
 4795SOL    HW215285   6.894   1.592   4.277
 4796SOL     OW15286   3.847   0.742   5.816
 4796SOL    HW115287   3.926   0.700   5.771
 4796SOL    HW215288   3.876   0.784   5.902
 4797SOL     OW15289   0.167   5.521   4.383
 4797SOL    HW115290   0.218   5.437   4.364
 4797SOL    HW215291   0.115   5.510   4.468
 4798SOL     OW15292   5.879   4.825   6.131
 4798SOL    HW115293   5.919   4.857   6.045
 4798SOL    HW215294   5.952   4.803   6.196
 4799SOL     OW15295   3.387   1.786   6.871
 4799SOL    HW115296   3.310   1.846   6.896
 4799SOL    HW215297   3.367   1.741   6.784
 4800SOL     OW15298   1.677   4.564   0.021
 4800SOL    HW115299   1.711   4.471   0.031
 4800SOL    HW215300   1.743   4.628   0.061
 4801SOL     OW15301   4.382   2.635   0.901
 4801SOL    HW115302   4.420   2.726   0.881
 4801SOL    HW215303   4.374   2.583   0.816
 4802SOL     OW15304   7.020   6.326   1.949
 4802SOL    HW115305   6.964   6.340   2.031
 4802SOL    HW215306   0.076   6.385   1.953
 4803SOL     OW15307   5.638   4.963   0.566
 4803SOL    HW115308   5.631   4.880   0.622
 4803SOL    HW215309   5.548   5.006   0.558
 4804SOL     OW15310   5.282   1.473   0.522
 4804SOL    HW115311   5.190   1.496   0.555
 4804SOL    HW215312   5.350   1.517   0.580
 4805SOL     OW15313   6.655   1.385   2.287
 4805SOL    HW115314   6.662   1.289   2.315
 4805SOL    HW215315   6.736   1.410   2.234
 4806SOL     OW15316   1.290   3.587   3.218
 4806SOL    HW115317   1.327   3.636   3.139
 4806SOL    HW215318   1.205   3.542   3.193
 4807SOL     OW15319   1.573   3.612   6.211
 4807SOL    HW115320   1.602   3.619   6.116
 4807SOL    HW215321   1.477   3.585   6.215
 4808SOL     OW15322   3.922   6.084   0.846
 4808SOL    HW115323   3.893   6.011   0.784
 4808SOL    HW215324   3.841   6.123   0.892
 4809SOL     OW15325   3.608   4.875   1.585
 4809SOL    HW115326   3.680   4.907   1.524
 4809SOL    HW215327   3.625   4.780   1.611
 4810SOL     OW15328   1.025   3.960   4.628
 4810SOL    HW115329   1.063   4.013   4.704
 4810SOL    HW215330   1.051   4.002   4.541
 4811SOL     OW15331   3.803   4.134   4.434
 4811SOL    HW115332   3.811   4.216   4.491
 4811SOL    HW215333   3.721   4.083   4.461
 4812SOL     OW15334   0.808   0.097   1.880
 4812SOL    HW115335   0.872   0.092   1.803
 4812SOL    HW215336   0.828   0.178   1.935
 4813SOL     OW15337   5.617   1.905   6.931
 4813SOL    HW115338   5.629   2.001   6.956
 4813SOL    HW215339   5.658   1.847   7.001
 4814SOL     OW15340   0.155   3.791   2.562
 4814SOL    HW115341   0.067   3.837   2.555
 4814SOL    HW215342   0.141   3.693   2.577
 4815SOL     OW15343   4.957   5.267   2.722
 4815SOL    HW115344   5.035   5.206   2.733
 4815SOL    HW215345   4.990   5.362   2.716
 4816SOL     OW15346   1.990   0.322   1.407
 4816SOL    HW115347   1.962   0.417   1.390
 4816SOL    HW215348   2.041   0.318   1.493
 4817SOL     OW15349   3.885   1.062   1.519
 4817SOL    HW115350   3.931   1.133   1.572
 4817SOL    HW215351   3.786   1.077   1.523
 4818SOL     OW15352   1.963   0.397   4.107
 4818SOL    HW115353   1.981   0.388   4.205
 4818SOL    HW215354   1.889   0.334   4.082
 4819SOL     OW15355   3.109   2.317   1.192
 4819SOL    HW115356   3.171   2.337   1.116
 4819SOL    HW215357   3.121   2.222   1.221
 4820SOL     OW15358   6.665   3.153   1.046
 4820SOL    HW115359   6.741   3.105   1.001
 4820SOL    HW215360   6.589   3.161   0.982
 4821SOL     OW15361   6.527   5.542   1.686
 4821SOL    HW115362   6.464   5.521   1.761
 4821SOL    HW215363   6.542   5.460   1.631
 4822SOL     OW15364   1.894   3.372   3.722
 4822SOL    HW115365   1.887   3.445   3.653
 4822SOL    HW215366   1.987   3.367   3.756
 4823SOL     OW15367   0.352   0.223   3.590
 4823SOL    HW115368   0.343   0.281   3.670
 4823SOL    HW215369   0.407   0.271   3.521
 4824SOL     OW15370   5.522   2.210   3.520
 4824SOL    HW115371   5.592   2.145   3.551
 4824SOL    HW215372   5.566   2.289   3.477
 4825SOL     OW15373   1.580   2.936   4.303
 4825SOL    HW115374   1.569   2.993   4.385
 4825SOL    HW215375   1.662   2.964   4.254
 4826SOL     OW15376   0.139   6.603   0.952
 4826SOL    HW115377   0.121   6.664   0.875
 4826SOL    HW215378   0.188   6.653   1.023
 4827SOL     OW15379   5.175   1.018   1.839
 4827SOL    HW115380   5.101   0.962   1.875
 4827SOL    HW215381   5.241   0.959   1.792
 4828SOL     OW15382   5.851   4.244   1.710
 4828SOL    HW115383   5.759   4.278   1.694
 4828SOL    HW215384   5.902   4.241   1.624
 4829SOL     OW15385   3.774   6.692   6.032
 4829SOL    HW115386   3.725   6.744   6.102
 4829SOL    HW215387   3.845   6.749   5.992
 4830SOL     OW15388   5.204   5.394   3.718
 4830SOL    HW115389   5.218   5.425   3.812
 4830SOL    HW215390   5.165   5.302   3.718
 4831SOL     OW15391   6.877   5.054   5.468
 4831SOL    HW115392   6.861   4.956   5.481
 4831SOL    HW215393   6.819   5.088   5.394
 4832SOL     OW15394   3.159   2.432   6.109
 4832SOL    HW115395   3.169   2.530   6.125
 4832SOL    HW215396   3.063   2.406   6.117
 4833SOL     OW15397   4.657   1.781   3.107
 4833SOL    HW115398   4.648   1.880   3.097
 4833SOL    HW215399   4.720   1.746   3.038
 4834SOL     OW15400   4.017   0.003   0.791
 4834SOL    HW115401   4.081   0.069   0.829
 4834SOL    HW215402   3.947   7.006   0.859
 4835SOL     OW15403   1.743   6.758   6.608
 4835SOL    HW115404   1.763   6.692   6.536
 4835SOL    HW215405   1.802   6.740   6.686
 4836SOL     OW15406   4.344   2.320   3.683
 4836SOL    HW115407   4.250   2.288   3.674
 4836SOL    HW215408   4.407   2.245   3.665
 4837SOL     OW15409   3.413   2.863   1.775
 4837SOL    HW115410   3.464   2.785   1.740
 4837SOL    HW215411   3.357   2.901   1.702
 4838SOL     OW15412   2.872   4.836   2.596
 4838SOL    HW115413   2.791   4.814   2.542
 4838SOL    HW215414   2.954   4.808   2.546
 4839SOL     OW15415   0.760   3.886   5.779
 4839SOL    HW115416   0.824   3.927   5.713
 4839SOL    HW215417   0.687   3.951   5.799
 4840SOL     OW15418   6.649   0.147   6.455
 4840SOL    HW115419   6.721   0.081   6.432
 4840SOL    HW215420   6.685   0.214   6.519
 4841SOL     OW15421   3.257   5.581   1.973
 4841SOL    HW115422   3.158   5.567   1.979
 4841SOL    HW215423   3.277   5.652   1.906
 4842SOL     OW15424   3.357   4.971   1.749
 4842SOL    HW115425   3.285   5.041   1.753
 4842SOL    HW215426   3.326   4.895   1.692
 4843SOL     OW15427   6.153   3.986   0.562
 4843SOL    HW115428   6.116   4.037   0.640
 4843SOL    HW215429   6.182   4.051   0.491
 4844SOL     OW15430   6.950   3.534   6.835
 4844SOL    HW115431   6.908   3.511   6.747
 4844SOL    HW215432   6.962   3.633   6.841
 4845SOL     OW15433   6.858   5.205   4.440
 4845SOL    HW115434   6.849   5.210   4.341
 4845SOL    HW215435   6.768   5.218   4.482
 4846SOL     OW15436   0.143   3.650   1.124
 4846SOL    HW115437   0.069   3.586   1.143
 4846SOL    HW215438   0.212   3.606   1.066
 4847SOL     OW15439   3.729   1.475   5.567
 4847SOL    HW115440   3.801   1.537   5.597
 4847SOL    HW215441   3.717   1.482   5.468
 4848SOL     OW15442   1.888   1.243   4.532
 4848SOL    HW115443   1.902   1.153   4.491
 4848SOL    HW215444   1.797   1.246   4.574
 4849SOL     OW15445   2.024   6.881   0.263
 4849SOL    HW115446   2.081   6.807   0.298
 4849SOL    HW215447   2.082   6.958   0.237
 4850SOL     OW15448   3.993   1.098   1.832
 4850SOL    HW115449   3.944   1.015   1.860
 4850SOL    HW215450   3.928   1.169   1.808
 4851SOL     OW15451   3.730   5.869   5.170
 4851SOL    HW115452   3.667   5.859   5.093
 4851SOL    HW215453   3.734   5.783   5.221
 4852SOL     OW15454   1.360   0.423   6.384
 4852SOL    HW115455   1.413   0.496   6.428
 4852SOL    HW215456   1.364   0.341   6.440
 4853SOL     OW15457   3.598   1.731   2.603
 4853SOL    HW115458   3.666   1.757   2.535
 4853SOL    HW215459   3.638   1.667   2.668
 4854SOL     OW15460   4.713   6.223   2.690
 4854SOL    HW115461   4.701   6.220   2.591
 4854SOL    HW215462   4.660   6.149   2.732
 4855SOL     OW15463   5.802   2.712   2.486
 4855SOL    HW115464   5.842   2.641   2.427
 4855SOL    HW215465   5.851   2.798   2.472
 4856SOL     OW15466   1.688   4.107   2.812
 4856SOL    HW115467   1.664   4.019   2.770
 4856SOL    HW215468   1.759   4.151   2.757
 4857SOL     OW15469   1.524   2.000   5.900
 4857SOL    HW115470   1.478   2.077   5.856
 4857SOL    HW215471   1.614   1.987   5.860
 4858SOL     OW15472   2.025   0.909   3.945
 4858SOL    HW115473   2.084   0.929   4.023
 4858SOL    HW215474   1.942   0.862   3.977
 4859SOL     OW15475   0.808   6.571   4.300
 4859SOL    HW115476   0.782   6.480   4.331
 4859SOL    HW215477   0.905   6.587   4.318
 4860SOL     OW15478   3.681   5.113   2.409
 4860SOL    HW115479   3.614   5.041   2.390
 4860SOL    HW215480   3.716   5.102   2.502
 4861SOL     OW15481   5.092   5.148   0.210
 4861SOL    HW115482   5.138   5.167   0.124
 4861SOL    HW215483   5.019   5.081   0.195
 4862SOL     OW15484   2.101   4.765   4.145
 4862SOL    HW115485   2.156   4.808   4.074
 4862SOL    HW215486   2.158   4.748   4.225
 4863SOL     OW15487   5.363   4.941   0.289
 4863SOL    HW115488   5.374   4.956   0.387
 4863SOL    HW215489   5.303   5.012   0.251
 4864SOL     OW15490   3.335   1.008   4.478
 4864SOL    HW115491   3.360   0.980   4.386
 4864SOL    HW215492   3.250   1.059   4.476
 4865SOL     OW15493   1.615   0.162   5.121
 4865SOL    HW115494   1.575   0.251   5.100
 4865SOL    HW215495   1.609   0.103   5.040
 4866SOL     OW15496   6.378   3.785   1.367
 4866SOL    HW115497   6.333   3.697   1.356
 4866SOL    HW215498   6.381   3.832   1.279
 4867SOL     OW15499   4.502   5.697   2.358
 4867SOL    HW115500   4.601   5.708   2.352
 4867SOL    HW215501   4.458   5.787   2.356
 4868SOL     OW15502   6.656   4.723   2.170
 4868SOL    HW115503   6.594   4.662   2.120
 4868SOL    HW215504   6.742   4.733   2.119
 4869SOL     OW15505   1.902   1.549   0.770
 4869SOL    HW115506   1.936   1.567   0.863
 4869SOL    HW215507   1.881   1.452   0.760
 4870SOL     OW15508   0.417   5.918   1.500
 4870SOL    HW115509   0.445   6.013   1.488
 4870SOL    HW215510   0.341   5.898   1.439
 4871SOL     OW15511   1.007   0.110   3.988
 4871SOL    HW115512   1.030   0.107   4.085
 4871SOL    HW215513   1.024   0.203   3.953
 4872SOL     OW15514   6.433   6.966   3.060
 4872SOL    HW115515   6.484   0.021   3.028
 4872SOL    HW215516   6.483   6.883   3.039
 4873SOL     OW15517   6.818   5.765   4.721
 4873SOL    HW115518   6.827   5.864   4.717
 4873SOL    HW215519   6.876   5.729   4.793
 4874SOL     OW15520   5.086   3.177   2.713
 4874SOL    HW115521   5.162   3.240   2.731
 4874SOL    HW215522   5.000   3.226   2.720
 4875SOL     OW15523   5.416   0.455   0.465
 4875SOL    HW115524   5.401   0.387   0.536
 4875SOL    HW215525   5.426   0.410   0.376
 4876SOL     OW15526   6.840   1.003   3.868
 4876SOL    HW115527   6.893   0.921   3.849
 4876SOL    HW215528   6.899   1.073   3.908
 4877SOL     OW15529   0.626   2.055   5.610
 4877SOL    HW115530   0.676   1.979   5.568
 4877SOL    HW215531   0.530   2.031   5.619
 4878SOL     OW15532   6.637   1.767   1.789
 4878SOL    HW115533   6.664   1.735   1.880
 4878SOL    HW215534   6.719   1.792   1.737
 4879SOL     OW15535   4.349   2.421   1.725
 4879SOL    HW115536   4.251   2.444   1.717
 4879SOL    HW215537   4.361   2.322   1.718
 4880SOL     OW15538   6.256   3.652   0.279
 4880SOL    HW115539   6.238   3.669   0.183
 4880SOL    HW215540   6.315   3.571   0.288
 4881SOL     OW15541   1.797   1.311   6.907
 4881SOL    HW115542   1.854   1.277   6.832
 4881SOL    HW215543   1.856   1.349   6.979
 4882SOL     OW15544   4.052   1.885   5.495
 4882SOL    HW115545   3.966   1.908   5.449
 4882SOL    HW215546   4.116   1.847   5.428
 4883SOL     OW15547   5.456   4.210   0.790
 4883SOL    HW115548   5.467   4.174   0.697
 4883SOL    HW215549   5.486   4.142   0.856
 4884SOL     OW15550   3.620   5.291   1.107
 4884SOL    HW115551   3.572   5.310   1.193
 4884SOL    HW215552   3.719   5.296   1.122
 4885SOL     OW15553   2.489   4.560   1.394
 4885SOL    HW115554   2.488   4.562   1.294
 4885SOL    HW215555   2.432   4.485   1.426
 4886SOL     OW15556   3.023   6.833   1.446
 4886SOL    HW115557   3.077   6.868   1.523
 4886SOL    HW215558   3.067   6.753   1.408
 4887SOL     OW15559   0.592   6.163   1.539
 4887SOL    HW115560   0.643   6.114   1.610
 4887SOL    HW215561   0.581   6.258   1.566
 4888SOL     OW15562   2.622   6.857   2.898
 4888SOL    HW115563   2.620   6.808   2.985
 4888SOL    HW215564   2.699   6.920   2.898
 4889SOL     OW15565   6.743   1.844   5.596
 4889SOL    HW115566   6.750   1.911   5.670
 4889SOL    HW215567   6.700   1.886   5.516
 4890SOL     OW15568   0.388   1.703   5.317
 4890SOL    HW115569   0.344   1.684   5.405
 4890SOL    HW215570   0.319   1.720   5.248
 4891SOL     OW15571   2.871   5.259   0.360
 4891SOL    HW115572   2.949   5.314   0.330
 4891SOL    HW215573   2.858   5.183   0.297
 4892SOL     OW15574   5.368   5.775   2.371
 4892SOL    HW115575   5.429   5.851   2.349
 4892SOL    HW215576   5.309   5.801   2.447
 4893SOL     OW15577   6.287   3.167   1.741
 4893SOL    HW115578   6.270   3.132   1.649
 4893SOL    HW215579   6.206   3.215   1.774
 4894SOL     OW15580   3.491   0.313   2.821
 4894SOL    HW115581   3.416   0.253   2.849
 4894SOL    HW215582   3.558   0.318   2.895
 4895SOL     OW15583   0.742   4.810   3.508
 4895SOL    HW115584   0.680   4.742   3.469
 4895SOL    HW215585   0.722   4.820   3.606
 4896SOL     OW15586   2.392   4.587   2.838
 4896SOL    HW115587   2.294   4.571   2.845
 4896SOL    HW215588   2.427   4.617   2.927
 4897SOL     OW15589   1.907   5.820   5.105
 4897SOL    HW115590   1.826   5.824   5.046
 4897SOL    HW215591   1.893   5.881   5.183
 4898SOL     OW15592   3.953   1.015   4.955
 4898SOL    HW115593   3.878   0.963   4.995
 4898SOL    HW215594   4.040   0.971   4.977
 4899SOL     OW15595   6.186   5.095   2.912
 4899SOL    HW115596   6.175   5.167   2.980
 4899SOL    HW215597   6.159   5.007   2.952
 4900SOL     OW15598   4.019   6.238   6.037
 4900SOL    HW115599   3.963   6.316   6.062
 4900SOL    HW215600   4.077   6.261   5.959
 4901SOL     OW15601   1.983   1.279   5.429
 4901SOL    HW115602   2.080   1.255   5.423
 4901SOL    HW215603   1.973   1.363   5.482
 4902SOL     OW15604   0.890   1.268   5.220
 4902SOL    HW115605   0.883   1.193   5.154
 4902SOL    HW215606   0.981   1.308   5.216
 4903SOL     OW15607   4.438   5.505   0.676
 4903SOL    HW115608   4.457   5.549   0.588
 4903SOL    HW215609   4.363   5.439   0.665
 4904SOL     OW15610   2.055   0.440   5.660
 4904SOL    HW115611   1.960   0.470   5.659
 4904SOL    HW215612   2.071   0.382   5.740
 4905SOL     OW15613   2.307   0.927   3.580
 4905SOL    HW115614   2.208   0.919   3.597
 4905SOL    HW215615   2.348   0.983   3.651
 4906SOL     OW15616   4.557   2.856   6.397
 4906SOL    HW115617   4.626   2.785   6.383
 4906SOL    HW215618   4.538   2.866   6.495
 4907SOL     OW15619   4.762   0.443   1.410
 4907SOL    HW115620   4.831   0.475   1.475
 4907SOL    HW215621   4.774   0.345   1.394
 4908SOL     OW15622   5.040   6.642   0.510
 4908SOL    HW115623   4.980   6.609   0.437
 4908SOL    HW215624   4.991   6.708   0.567
 4909SOL     OW15625   6.843   5.323   3.343
 4909SOL    HW115626   6.829   5.379   3.425
 4909SOL    HW215627   6.889   5.378   3.273
 4910SOL     OW15628   5.489   0.531   4.363
 4910SOL    HW115629   5.493   0.444   4.313
 4910SOL    HW215630   5.582   0.564   4.381
 4911SOL     OW15631   1.665   3.753   3.223
 4911SOL    HW115632   1.625   3.824   3.165
 4911SOL    HW215633   1.764   3.753   3.211
 4912SOL     OW15634   5.460   1.833   5.990
 4912SOL    HW115635   5.432   1.912   5.935
 4912SOL    HW215636   5.482   1.863   6.082
 4913SOL     OW15637   4.580   3.672   5.678
 4913SOL    HW115638   4.555   3.651   5.772
 4913SOL    HW215639   4.526   3.614   5.616
 4914SOL     OW15640   4.289   6.747   5.211
 4914SOL    HW115641   4.372   6.776   5.165
 4914SOL    HW215642   4.271   6.806   5.289
 4915SOL     OW15643   3.008   6.496   5.460
 4915SOL    HW115644   3.098   6.540   5.464
 4915SOL    HW215645   2.973   6.499   5.366
 4916SOL     OW15646   0.530   0.867   4.044
 4916SOL    HW115647   0.490   0.880   3.954
 4916SOL    HW215648   0.458   0.862   4.113
 4917SOL     OW15649   3.861   5.871   0.686
 4917SOL    HW115650   3.938   5.823   0.644
 4917SOL    HW215651   3.786   5.806   0.702
 4918SOL     OW15652   5.987   5.913   2.005
 4918SOL    HW115653   6.032   5.950   1.924
 4918SOL    HW215654   6.044   5.929   2.085
 4919SOL     OW15655   3.205   2.954   2.422
 4919SOL    HW115656   3.124   2.983   2.473
 4919SOL    HW215657   3.282   3.012   2.447
 4920SOL     OW15658   5.622   0.431   4.951
 4920SOL    HW115659   5.632   0.340   4.911
 4920SOL    HW215660   5.648   0.501   4.884
 4921SOL     OW15661   1.646   5.041   6.998
 4921SOL    HW115662   1.573   4.981   6.965
 4921SOL    HW215663   1.608   5.108   0.038
 4922SOL     OW15664   3.113   2.135   4.569
 4922SOL    HW115665   3.022   2.167   4.546
 4922SOL    HW215666   3.111   2.036   4.584
 4923SOL     OW15667   2.773   1.238   2.265
 4923SOL    HW115668   2.675   1.241   2.286
 4923SOL    HW215669   2.816   1.321   2.300
 4924SOL     OW15670   2.631   1.764   4.698
 4924SOL    HW115671   2.633   1.668   4.669
 4924SOL    HW215672   2.640   1.769   4.798
 4925SOL     OW15673   5.022   0.228   2.722
 4925SOL    HW115674   4.937   0.257   2.767
 4925SOL    HW215675   5.008   0.225   2.623
 4926SOL     OW15676   5.647   1.836   1.899
 4926SOL    HW115677   5.654   1.821   1.800
 4926SOL    HW215678   5.560   1.881   1.920
 4927SOL     OW15679   2.921   2.985   5.647
 4927SOL    HW115680   2.944   2.937   5.732
 4927SOL    HW215681   2.834   3.033   5.659
 4928SOL     OW15682   1.352   0.729   6.610
 4928SOL    HW115683   1.284   0.678   6.663
 4928SOL    HW215684   1.310   0.763   6.526
 4929SOL     OW15685   0.025   6.937   3.566
 4929SOL    HW115686   6.983   6.983   3.624
 4929SOL    HW215687   0.056   6.999   3.494
 4930SOL     OW15688   6.119   0.236   2.884
 4930SOL    HW115689   6.092   0.303   2.815
 4930SOL    HW215690   6.186   0.277   2.946
 4931SOL     OW15691   6.354   6.471   1.442
 4931SOL    HW115692   6.370   6.562   1.403
 4931SOL    HW215693   6.355   6.403   1.369
 4932SOL     OW15694   3.818   3.688   3.448
 4932SOL    HW115695   3.883   3.659   3.378
 4932SOL    HW215696   3.752   3.752   3.407
 4933SOL     OW15697   2.299   6.691   2.698
 4933SOL    HW115698   2.345   6.604   2.683
 4933SOL    HW215699   2.260   6.693   2.790
 4934SOL     OW15700   3.752   6.590   2.861
 4934SOL    HW115701   3.704   6.548   2.784
 4934SOL    HW215702   3.838   6.629   2.829
 4935SOL     OW15703   1.587   1.760   6.304
 4935SOL    HW115704   1.619   1.850   6.276
 4935SOL    HW215705   1.490   1.750   6.279
 4936SOL     OW15706   2.665   5.338   0.818
 4936SOL    HW115707   2.672   5.269   0.890
 4936SOL    HW215708   2.693   5.299   0.731
 4937SOL     OW15709   4.980   2.795   5.650
 4937SOL    HW115710   4.909   2.863   5.666
 4937SOL    HW215711   4.952   2.734   5.576
 4938SOL     OW15712   2.804   5.568   5.931
 4938SOL    HW115713   2.873   5.578   6.002
 4938SOL    HW215714   2.747   5.650   5.927
 4939SOL     OW15715   5.422   2.395   4.837
 4939SOL    HW115716   5.508   2.441   4.862
 4939SOL    HW215717   5.442   2.302   4.805
 4940SOL     OW15718   1.539   0.792   4.425
 4940SOL    HW115719   1.449   0.797   4.383
 4940SOL    HW215720   1.606   0.763   4.357
 4941SOL     OW15721   3.669   1.931   6.412
 4941SOL    HW115722   3.662   1.836   6.383
 4941SOL    HW215723   3.622   1.943   6.500
 4942SOL     OW15724   4.824   3.559   5.647
 4942SOL    HW115725   4.733   3.601   5.648
 4942SOL    HW215726   4.844   3.527   5.554
 4943SOL     OW15727   4.144   2.473   0.597
 4943SOL    HW115728   4.115   2.443   0.506
 4943SOL    HW215729   4.242   2.491   0.596
 4944SOL     OW15730   2.080   3.662   2.941
 4944SOL    HW115731   2.103   3.652   2.844
 4944SOL    HW215732   2.103   3.755   2.971
 4945SOL     OW15733   1.160   1.171   3.958
 4945SOL    HW115734   1.115   1.256   3.984
 4945SOL    HW215735   1.199   1.181   3.866
 4946SOL     OW15736   0.601   2.816   1.373
 4946SOL    HW115737   0.664   2.890   1.396
 4946SOL    HW215738   0.646   2.753   1.309
 4947SOL     OW15739   1.478   6.713   0.967
 4947SOL    HW115740   1.433   6.653   1.034
 4947SOL    HW215741   1.439   6.696   0.876
 4948SOL     OW15742   2.374   0.634   2.475
 4948SOL    HW115743   2.280   0.605   2.453
 4948SOL    HW215744   2.383   0.732   2.458
 4949SOL     OW15745   4.745   0.479   5.672
 4949SOL    HW115746   4.709   0.387   5.657
 4949SOL    HW215747   4.726   0.508   5.766
 4950SOL     OW15748   3.211   5.223   3.478
 4950SOL    HW115749   3.131   5.246   3.422
 4950SOL    HW215750   3.286   5.286   3.455
 4951SOL     OW15751   5.012   1.453   4.774
 4951SOL    HW115752   5.080   1.511   4.728
 4951SOL    HW215753   4.972   1.503   4.851
 4952SOL     OW15754   0.409   0.383   5.085
 4952SOL    HW115755   0.442   0.424   4.999
 4952SOL    HW215756   0.478   0.395   5.156
 4953SOL     OW15757   2.412   5.594   1.886
 4953SOL    HW115758   2.445   5.688   1.873
 4953SOL    HW215759   2.346   5.573   1.814
 4954SOL     OW15760   4.562   4.361   6.979
 4954SOL    HW115761   4.647   4.309   6.974
 4954SOL    HW215762   4.487   4.300   7.004
 4955SOL     OW15763   1.735   5.805   6.833
 4955SOL    HW115764   1.782   5.757   6.907
 4955SOL    HW215765   1.803   5.845   6.771
 4956SOL     OW15766   4.107   0.072   4.993
 4956SOL    HW115767   4.091   0.166   4.962
 4956SOL    HW215768   4.039   0.011   4.951
 4957SOL     OW15769   0.214   1.344   3.632
 4957SOL    HW115770   0.196   1.393   3.717
 4957SOL    HW215771   0.301   1.375   3.594
 4958SOL     OW15772   0.613   6.467   6.245
 4958SOL    HW115773   0.678   6.398   6.214
 4958SOL    HW215774   0.523   6.425   6.255
 4959SOL     OW15775   0.419   1.186   0.257
 4959SOL    HW115776   0.340   1.242   0.282
 4959SOL    HW215777   0.388   1.103   0.212
 4960SOL     OW15778   3.203   6.371   4.260
 4960SOL    HW115779   3.113   6.328   4.254
 4960SOL    HW215780   3.274   6.303   4.243
 4961SOL     OW15781   5.379   1.365   5.311
 4961SOL    HW115782   5.386   1.419   5.395
 4961SOL    HW215783   5.282   1.348   5.292
 4962SOL     OW15784   5.602   3.096   1.866
 4962SOL    HW115785   5.630   3.064   1.956
 4962SOL    HW215786   5.507   3.069   1.849
 4963SOL     OW15787   6.275   6.120   1.707
 4963SOL    HW115788   6.350   6.169   1.662
 4963SOL    HW215789   6.291   6.022   1.702
 4964SOL     OW15790   3.498   6.383   2.799
 4964SOL    HW115791   3.524   6.362   2.893
 4964SOL    HW215792   3.461   6.476   2.794
 4965SOL     OW15793   0.516   0.030   5.062
 4965SOL    HW115794   0.420   0.054   5.080
 4965SOL    HW215795   0.573   0.110   5.078
 4966SOL     OW15796   2.222   5.819   4.338
 4966SOL    HW115797   2.173   5.891   4.386
 4966SOL    HW215798   2.312   5.853   4.311
 4967SOL     OW15799   3.804   3.223   6.610
 4967SOL    HW115800   3.897   3.257   6.599
 4967SOL    HW215801   3.750   3.290   6.661
 4968SOL     OW15802   5.463   3.053   3.256
 4968SOL    HW115803   5.391   3.101   3.205
 4968SOL    HW215804   5.550   3.064   3.209
 4969SOL     OW15805   1.991   1.181   2.774
 4969SOL    HW115806   2.088   1.156   2.764
 4969SOL    HW215807   1.941   1.152   2.693
 4970SOL     OW15808   1.331   2.489   4.659
 4970SOL    HW115809   1.381   2.534   4.732
 4970SOL    HW215810   1.287   2.406   4.695
 4971SOL     OW15811   6.306   5.581   3.578
 4971SOL    HW115812   6.274   5.674   3.558
 4971SOL    HW215813   6.378   5.584   3.647
 4972SOL     OW15814   2.556   3.251   0.705
 4972SOL    HW115815   2.469   3.298   0.693
 4972SOL    HW215816   2.571   3.190   0.627
 4973SOL     OW15817   6.918   6.720   1.897
 4973SOL    HW115818   6.862   6.638   1.902
 4973SOL    HW215819   6.907   6.763   1.807
 4974SOL     OW15820   6.368   5.089   1.025
 4974SOL    HW115821   6.373   5.020   1.097
 4974SOL    HW215822   6.457   5.097   0.980
 4975SOL     OW15823   6.021   6.027   1.043
 4975SOL    HW115824   5.994   5.983   0.958
 4975SOL    HW215825   6.001   5.967   1.120
 4976SOL     OW15826   3.208   0.337   4.004
 4976SOL    HW115827   3.208   0.281   4.087
 4976SOL    HW215828   3.263   0.293   3.934
 4977SOL     OW15829   5.082   3.462   0.965
 4977SOL    HW115830   5.157   3.406   0.928
 4977SOL    HW215831   4.999   3.444   0.913
 4978SOL     OW15832   6.688   3.539   5.449
 4978SOL    HW115833   6.601   3.586   5.440
 4978SOL    HW215834   6.735   3.571   5.532
 4979SOL     OW15835   6.739   2.452   5.068
 4979SOL    HW115836   6.830   2.492   5.084
 4979SOL    HW215837   6.702   2.417   5.154
 4980SOL     OW15838   3.957   6.882   3.249
 4980SOL    HW115839   3.866   6.842   3.241
 4980SOL    HW215840   4.026   6.809   3.248
 4981SOL     OW15841   4.772   6.159   5.667
 4981SOL    HW115842   4.743   6.067   5.640
 4981SOL    HW215843   4.861   6.179   5.627
 4982SOL     OW15844   2.268   1.380   6.789
 4982SOL    HW115845   2.333   1.448   6.755
 4982SOL    HW215846   2.240   1.320   6.714
 4983SOL     OW15847   4.943   3.232   4.397
 4983SOL    HW115848   4.968   3.329   4.395
 4983SOL    HW215849   4.869   3.214   4.333
 4984SOL     OW15850   5.439   3.458   4.700
 4984SOL    HW115851   5.423   3.362   4.721
 4984SOL    HW215852   5.380   3.486   4.624
 4985SOL     OW15853   6.200   5.925   4.105
 4985SOL    HW115854   6.261   5.980   4.162
 4985SOL    HW215855   6.141   5.985   4.051
 4986SOL     OW15856   6.019   4.719   2.615
 4986SOL    HW115857   5.972   4.655   2.675
 4986SOL    HW215858   6.118   4.712   2.629
 4987SOL     OW15859   0.796   1.992   1.136
 4987SOL    HW115860   0.845   2.007   1.051
 4987SOL    HW215861   0.709   1.947   1.117
 4988SOL     OW15862   0.091   1.434   3.878
 4988SOL    HW115863   0.042   1.513   3.841
 4988SOL    HW215864   0.154   1.463   3.950
 4989SOL     OW15865   5.137   1.279   1.828
 4989SOL    HW115866   5.145   1.324   1.917
 4989SOL    HW215867   5.170   1.185   1.836
 4990SOL     OW15868   0.980   2.034   6.377
 4990SOL    HW115869   1.059   2.086   6.344
 4990SOL    HW215870   0.970   2.048   6.475
 4991SOL     OW15871   0.676   3.291   4.222
 4991SOL    HW115872   0.674   3.215   4.157
 4991SOL    HW215873   0.765   3.292   4.268
 4992SOL     OW15874   4.041   0.670   4.238
 4992SOL    HW115875   4.011   0.575   4.229
 4992SOL    HW215876   3.969   0.724   4.282
 4993SOL     OW15877   2.696   4.699   3.888
 4993SOL    HW115878   2.639   4.777   3.862
 4993SOL    HW215879   2.657   4.655   3.969
 4994SOL     OW15880   1.405   0.200   2.374
 4994SOL    HW115881   1.314   0.178   2.409
 4994SOL    HW215882   1.475   0.155   2.430
 4995SOL     OW15883   6.814   3.098   6.294
 4995SOL    HW115884   6.718   3.126   6.298
 4995SOL    HW215885   6.866   3.151   6.361
 4996SOL     OW15886   0.480   0.776   2.033
 4996SOL    HW115887   0.547   0.759   2.105
 4996SOL    HW215888   0.528   0.798   1.948
 4997SOL     OW15889   6.803   2.334   2.840
 4997SOL    HW115890   6.883   2.360   2.786
 4997SOL    HW215891   6.811   2.239   2.869
 4998SOL     OW15892   2.211   4.645   5.077
 4998SOL    HW115893   2.138   4.630   5.011
 4998SOL    HW215894   2.274   4.715   5.043
 4999SOL     OW15895   5.159   5.913   1.728
 4999SOL    HW115896   5.174   6.009   1.750
 4999SOL    HW215897   5.143   5.862   1.813
 5000SOL     OW15898   0.721   0.651   4.052
 5000SOL    HW115899   0.637   0.703   4.034
 5000SOL    HW215900   0.796   0.715   4.068
 5001SOL     OW15901   1.878   4.028   6.201
 5001SOL    HW115902   1.959   4.086   6.206
 5001SOL    HW215903   1.876   3.967   6.281
 5002SOL     OW15904   0.958   2.794   3.287
 5002SOL    HW115905   0.990   2.775   3.380
 5002SOL    HW215906   0.867   2.754   3.275
 5003SOL     OW15907   0.651   6.659   3.518
 5003SOL    HW115908   0.612   6.693   3.603
 5003SOL    HW215909   0.696   6.571   3.535
 5004SOL     OW15910   2.567   5.642   5.590
 5004SOL    HW115911   2.592   5.662   5.495
 5004SOL    HW215912   2.582   5.724   5.645
 5005SOL     OW15913   3.696   2.158   0.434
 5005SOL    HW115914   3.632   2.232   0.413
 5005SOL    HW215915   3.686   2.085   0.366
 5006SOL     OW15916   5.906   0.021   6.030
 5006SOL    HW115917   5.915   6.947   6.022
 5006SOL    HW215918   5.962   0.065   5.960
 5007SOL     OW15919   2.865   0.423   5.829
 5007SOL    HW115920   2.856   0.411   5.730
 5007SOL    HW215921   2.797   0.489   5.860
 5008SOL     OW15922   6.128   0.719   3.330
 5008SOL    HW115923   6.090   0.628   3.311
 5008SOL    HW215924   6.078   0.760   3.406
 5009SOL     OW15925   1.785   6.120   1.819
 5009SOL    HW115926   1.800   6.163   1.730
 5009SOL    HW215927   1.869   6.127   1.874
 5010SOL     OW15928   2.930   3.668   4.057
 5010SOL    HW115929   2.983   3.723   3.992
 5010SOL    HW215930   2.918   3.718   4.142
 5011SOL     OW15931   2.036   3.273   2.019
 5011SOL    HW115932   2.012   3.253   2.114
 5011SOL    HW215933   2.098   3.351   2.017
 5012SOL     OW15934   6.248   2.940   5.968
 5012SOL    HW115935   6.220   3.033   5.948
 5012SOL    HW215936   6.211   2.912   6.056
 5013SOL     OW15937   4.712   0.568   6.402
 5013SOL    HW115938   4.676   0.638   6.340
 5013SOL    HW215939   4.810   0.556   6.384
 5014SOL     OW15940   6.473   5.890   0.963
 5014SOL    HW115941   6.387   5.862   0.921
 5014SOL    HW215942   6.513   5.966   0.911
 5015SOL     OW15943   4.354   1.714   4.103
 5015SOL    HW115944   4.423   1.782   4.128
 5015SOL    HW215945   4.295   1.696   4.182
 5016SOL     OW15946   2.424   1.221   2.535
 5016SOL    HW115947   2.491   1.148   2.522
 5016SOL    HW215948   2.470   1.304   2.564
 5017SOL     OW15949   2.656   2.606   0.751
 5017SOL    HW115950   2.570   2.559   0.730
 5017SOL    HW215951   2.653   2.699   0.713
 5018SOL     OW15952   0.437   4.030   2.140
 5018SOL    HW115953   0.405   4.074   2.055
 5018SOL    HW215954   0.534   4.007   2.131
 5019SOL     OW15955   2.010   4.349   0.304
 5019SOL    HW115956   2.004   4.371   0.207
 5019SOL    HW215957   2.052   4.425   0.353
 5020SOL     OW15958   6.253   5.975   5.582
 5020SOL    HW115959   6.179   5.997   5.645
 5020SOL    HW215960   6.216   5.937   5.498
 5021SOL     OW15961   0.861   4.694   6.327
 5021SOL    HW115962   0.839   4.784   6.291
 5021SOL    HW215963   0.779   4.653   6.367
 5022SOL     OW15964   1.925   0.041   0.447
 5022SOL    HW115965   1.918   7.011   0.531
 5022SOL    HW215966   1.959   7.007   0.373
 5023SOL     OW15967   6.303   2.732   1.085
 5023SOL    HW115968   6.365   2.804   1.054
 5023SOL    HW215969   6.210   2.753   1.055
 5024SOL     OW15970   6.937   4.144   2.711
 5024SOL    HW115971   6.893   4.057   2.730
 5024SOL    HW215972   6.868   4.216   2.704
 5025SOL     OW15973   4.797   1.942   2.312
 5025SOL    HW115974   4.777   2.020   2.372
 5025SOL    HW215975   4.712   1.908   2.272
 5026SOL     OW15976   6.191   5.947   5.916
 5026SOL    HW115977   6.138   5.947   5.831
 5026SOL    HW215978   6.170   5.864   5.969
 5027SOL     OW15979   1.139   0.146   3.132
 5027SOL    HW115980   1.171   0.150   3.226
 5027SOL    HW215981   1.042   0.123   3.131
 5028SOL     OW15982   0.634   5.684   1.898
 5028SOL    HW115983   0.590   5.694   1.809
 5028SOL    HW215984   0.731   5.664   1.886
 5029SOL     OW15985   0.083   2.897   2.662
 5029SOL    HW115986   0.011   2.963   2.640
 5029SOL    HW215987   0.059   2.847   2.745
 5030SOL     OW15988   0.022   0.078   0.249
 5030SOL    HW115989   0.031   0.033   0.160
 5030SOL    HW215990   0.006   0.009   0.320
 5031SOL     OW15991   6.074   1.258   4.526
 5031SOL    HW115992   6.012   1.270   4.603
 5031SOL    HW215993   6.031   1.202   4.456
 5032SOL     OW15994   1.078   4.958   0.800
 5032SOL    HW115995   1.128   4.928   0.719
 5032SOL    HW215996   0.996   4.901   0.811
 5033SOL     OW15997   2.764   5.216   5.362
 5033SOL    HW115998   2.800   5.146   5.301
 5033SOL    HW215999   2.664   5.210   5.366
 5034SOL     OW16000   6.567   3.260   1.792
 5034SOL    HW116001   6.472   3.230   1.785
 5034SOL    HW216002   6.570   3.360   1.802
 5035SOL     OW16003   5.414   5.062   0.894
 5035SOL    HW116004   5.429   4.969   0.861
 5035SOL    HW216005   5.427   5.066   0.993
 5036SOL     OW16006   1.441   6.095   6.300
 5036SOL    HW116007   1.355   6.089   6.250
 5036SOL    HW216008   1.498   6.016   6.278
 5037SOL     OW16009   4.238   1.871   3.393
 5037SOL    HW116010   4.257   1.968   3.375
 5037SOL    HW216011   4.313   1.832   3.446
 5038SOL     OW16012   1.687   6.028   5.596
 5038SOL    HW116013   1.657   5.933   5.607
 5038SOL    HW216014   1.650   6.065   5.511
 5039SOL     OW16015   2.152   3.183   4.960
 5039SOL    HW116016   2.154   3.265   5.017
 5039SOL    HW216017   2.226   3.121   4.989
 5040SOL     OW16018   2.692   3.439   6.613
 5040SOL    HW116019   2.770   3.386   6.580
 5040SOL    HW216020   2.665   3.404   6.703
 5041SOL     OW16021   0.671   3.848   1.149
 5041SOL    HW116022   0.737   3.845   1.223
 5041SOL    HW216023   0.657   3.755   1.113
 5042SOL     OW16024   6.452   2.691   6.942
 5042SOL    HW116025   6.471   2.664   6.848
 5042SOL    HW216026   6.387   2.767   6.942
 5043SOL     OW16027   3.991   1.251   5.349
 5043SOL    HW116028   4.056   1.236   5.275
 5043SOL    HW216029   3.901   1.218   5.322
 5044SOL     OW16030   6.246   6.142   3.886
 5044SOL    HW116031   6.334   6.095   3.880
 5044SOL    HW216032   6.261   6.241   3.890
 5045SOL     OW16033   5.356   3.562   0.645
 5045SOL    HW116034   5.279   3.620   0.673
 5045SOL    HW216035   5.384   3.505   0.722
 5046SOL     OW16036   3.328   2.886   5.037
 5046SOL    HW116037   3.421   2.908   5.009
 5046SOL    HW216038   3.329   2.808   5.099
 5047SOL     OW16039   5.983   1.179   2.766
 5047SOL    HW116040   6.051   1.105   2.766
 5047SOL    HW216041   5.988   1.228   2.679
 5048SOL     OW16042   6.595   2.532   2.182
 5048SOL    HW116043   6.559   2.569   2.097
 5048SOL    HW216044   6.607   2.433   2.174
 5049SOL     OW16045   0.040   1.402   2.971
 5049SOL    HW116046   0.058   1.362   2.881
 5049SOL    HW216047   0.097   1.358   3.040
 5050SOL     OW16048   0.183   1.670   1.787
 5050SOL    HW116049   0.266   1.625   1.821
 5050SOL    HW216050   0.165   1.752   1.841
 5051SOL     OW16051   3.006   4.193   1.232
 5051SOL    HW116052   2.978   4.134   1.308
 5051SOL    HW216053   3.106   4.192   1.224
 5052SOL     OW16054   3.596   4.438   0.448
 5052SOL    HW116055   3.643   4.446   0.360
 5052SOL    HW216056   3.656   4.391   0.513
 5053SOL     OW16057   1.804   4.088   2.439
 5053SOL    HW116058   1.826   4.173   2.485
 5053SOL    HW216059   1.706   4.084   2.420
 5054SOL     OW16060   3.682   5.973   5.450
 5054SOL    HW116061   3.761   5.925   5.488
 5054SOL    HW216062   3.673   5.952   5.353
 5055SOL     OW16063   0.477   1.848   4.870
 5055SOL    HW116064   0.563   1.857   4.921
 5055SOL    HW216065   0.401   1.846   4.935
 5056SOL     OW16066   0.200   4.012   6.734
 5056SOL    HW116067   0.195   4.082   6.662
 5056SOL    HW216068   0.150   4.044   6.815
 5057SOL     OW16069   0.566   5.469   2.900
 5057SOL    HW116070   0.560   5.539   2.829
 5057SOL    HW216071   0.607   5.507   2.982
 5058SOL     OW16072   3.621   3.826   6.889
 5058SOL    HW116073   3.578   3.901   6.840
 5058SOL    HW216074   3.568   3.742   6.875
 5059SOL     OW16075   4.558   2.432   4.632
 5059SOL    HW116076   4.589   2.349   4.677
 5059SOL    HW216077   4.470   2.460   4.672
 5060SOL     OW16078   6.720   2.945   5.419
 5060SOL    HW116079   6.640   2.885   5.422
 5060SOL    HW216080   6.733   2.987   5.509
 5061SOL     OW16081   2.982   3.585   4.386
 5061SOL    HW116082   3.016   3.679   4.380
 5061SOL    HW216083   2.991   3.541   4.297
 5062SOL     OW16084   5.121   1.663   2.749
 5062SOL    HW116085   5.087   1.755   2.772
 5062SOL    HW216086   5.203   1.644   2.803
 5063SOL     OW16087   1.086   6.550   1.661
 5063SOL    HW116088   1.049   6.459   1.683
 5063SOL    HW216089   1.183   6.553   1.686
 5064SOL     OW16090   4.756   5.279   1.148
 5064SOL    HW116091   4.771   5.323   1.060
 5064SOL    HW216092   4.683   5.211   1.140
 5065SOL     OW16093   1.420   0.412   3.436
 5065SOL    HW116094   1.384   0.498   3.398
 5065SOL    HW216095   1.482   0.433   3.512
 5066SOL     OW16096   2.275   4.068   2.034
 5066SOL    HW116097   2.336   4.110   1.967
 5066SOL    HW216098   2.258   3.973   2.008
 5067SOL     OW16099   4.039   1.992   1.896
 5067SOL    HW116100   3.941   1.996   1.916
 5067SOL    HW216101   4.067   1.896   1.885
 5068SOL     OW16102   3.251   5.876   0.281
 5068SOL    HW116103   3.336   5.929   0.279
 5068SOL    HW216104   3.190   5.914   0.352
 5069SOL     OW16105   2.046   3.093   5.702
 5069SOL    HW116106   2.146   3.092   5.690
 5069SOL    HW216107   2.003   3.121   5.616
 5070SOL     OW16108   5.739   3.541   4.159
 5070SOL    HW116109   5.835   3.524   4.136
 5070SOL    HW216110   5.697   3.598   4.088
 5071SOL     OW16111   4.015   1.801   3.550
 5071SOL    HW116112   4.014   1.741   3.630
 5071SOL    HW216113   4.109   1.828   3.529
 5072SOL     OW16114   1.513   0.901   0.974
 5072SOL    HW116115   1.492   0.803   0.969
 5072SOL    HW216116   1.451   0.945   1.039
 5073SOL     OW16117   2.130   6.619   2.006
 5073SOL    HW116118   2.034   6.603   1.984
 5073SOL    HW216119   2.141   6.625   2.105
 5074SOL     OW16120   3.776   1.863   1.590
 5074SOL    HW116121   3.797   1.787   1.651
 5074SOL    HW216122   3.687   1.902   1.614
 5075SOL     OW16123   1.051   2.909   0.440
 5075SOL    HW116124   1.089   2.819   0.462
 5075SOL    HW216125   1.067   2.930   0.344
 5076SOL     OW16126   5.343   0.379   6.988
 5076SOL    HW116127   5.392   0.426   6.915
 5076SOL    HW216128   5.317   0.287   6.958
 5077SOL     OW16129   1.644   3.809   5.379
 5077SOL    HW116130   1.634   3.852   5.468
 5077SOL    HW216131   1.664   3.879   5.310
 5078SOL     OW16132   0.784   1.407   4.581
 5078SOL    HW116133   0.727   1.375   4.505
 5078SOL    HW216134   0.766   1.504   4.598
 5079SOL     OW16135   2.086   1.714   5.954
 5079SOL    HW116136   1.990   1.712   5.979
 5079SOL    HW216137   2.135   1.643   6.004
 5080SOL     OW16138   6.306   5.624   5.641
 5080SOL    HW116139   6.216   5.586   5.664
 5080SOL    HW216140   6.355   5.646   5.725
 5081SOL     OW16141   2.619   5.088   5.075
 5081SOL    HW116142   2.627   5.129   5.166
 5081SOL    HW216143   2.635   4.989   5.082
 5082SOL     OW16144   4.698   6.627   0.013
 5082SOL    HW116145   4.641   6.707   7.023
 5082SOL    HW216146   4.656   6.547   6.995
 5083SOL     OW16147   2.982   0.599   1.728
 5083SOL    HW116148   3.038   0.669   1.771
 5083SOL    HW216149   2.935   0.546   1.799
 5084SOL     OW16150   0.836   4.793   4.915
 5084SOL    HW116151   0.745   4.769   4.881
 5084SOL    HW216152   0.901   4.723   4.888
 5085SOL     OW16153   0.918   2.353   6.112
 5085SOL    HW116154   0.883   2.268   6.071
 5085SOL    HW216155   1.003   2.334   6.160
 5086SOL     OW16156   0.580   4.338   2.156
 5086SOL    HW116157   0.674   4.319   2.128
 5086SOL    HW216158   0.579   4.412   2.223
 5087SOL     OW16159   6.709   5.338   2.730
 5087SOL    HW116160   6.731   5.247   2.694
 5087SOL    HW216161   6.629   5.375   2.682
 5088SOL     OW16162   4.129   5.719   2.844
 5088SOL    HW116163   4.225   5.694   2.833
 5088SOL    HW216164   4.117   5.816   2.822
 5089SOL     OW16165   5.883   4.322   4.193
 5089SOL    HW116166   5.949   4.261   4.238
 5089SOL    HW216167   5.922   4.413   4.186
 5090SOL     OW16168   2.085   0.226   3.298
 5090SOL    HW116169   2.120   0.172   3.374
 5090SOL    HW216170   1.990   0.254   3.318
 5091SOL     OW16171   6.878   0.330   0.645
 5091SOL    HW116172   6.897   0.412   0.591
 5091SOL    HW216173   6.797   0.346   0.701
 5092SOL     OW16174   4.097   3.436   4.221
 5092SOL    HW116175   4.099   3.382   4.306
 5092SOL    HW216176   4.074   3.376   4.145
 5093SOL     OW16177   2.398   1.437   1.914
 5093SOL    HW116178   2.479   1.420   1.970
 5093SOL    HW216179   2.337   1.501   1.962
 5094SOL     OW16180   2.032   6.272   6.530
 5094SOL    HW116181   2.040   6.362   6.488
 5094SOL    HW216182   2.120   6.246   6.571
 5095SOL     OW16183   0.158   1.696   3.414
 5095SOL    HW116184   0.110   1.610   3.396
 5095SOL    HW216185   0.172   1.706   3.513
 5096SOL     OW16186   5.912   4.775   6.486
 5096SOL    HW116187   5.874   4.690   6.450
 5096SOL    HW216188   6.001   4.792   6.443
 5097SOL     OW16189   6.510   0.028   0.431
 5097SOL    HW116190   6.449   0.039   0.353
 5097SOL    HW216191   6.569   0.108   0.439
 5098SOL     OW16192   3.926   2.358   1.315
 5098SOL    HW116193   3.887   2.367   1.406
 5098SOL    HW216194   3.933   2.261   1.291
 5099SOL     OW16195   0.203   6.332   1.402
 5099SOL    HW116196   0.174   6.248   1.448
 5099SOL    HW216197   0.215   6.405   1.469
 5100SOL     OW16198   4.296   5.420   2.963
 5100SOL    HW116199   4.228   5.409   2.890
 5100SOL    HW216200   4.267   5.369   3.044
 5101SOL     OW16201   4.152   0.556   4.541
 5101SOL    HW116202   4.081   0.516   4.599
 5101SOL    HW216203   4.134   0.654   4.530
 5102SOL     OW16204   5.089   5.435   4.251
 5102SOL    HW116205   5.015   5.413   4.315
 5102SOL    HW216206   5.146   5.508   4.289
 5103SOL     OW16207   0.713   1.016   4.494
 5103SOL    HW116208   0.797   1.064   4.519
 5103SOL    HW216209   0.726   0.971   4.406
 5104SOL     OW16210   3.084   6.085   1.871
 5104SOL    HW116211   2.996   6.044   1.849
 5104SOL    HW216212   3.071   6.180   1.901
 5105SOL     OW16213   3.313   3.220   6.956
 5105SOL    HW116214   3.284   3.265   6.872
 5105SOL    HW216215   3.285   3.124   6.955
 5106SOL     OW16216   3.689   1.507   1.105
 5106SOL    HW116217   3.743   1.494   1.021
 5106SOL    HW216218   3.597   1.538   1.081
 5107SOL     OW16219   5.575   2.835   1.583
 5107SOL    HW116220   5.650   2.777   1.615
 5107SOL    HW216221   5.488   2.789   1.599
 5108SOL     OW16222   4.249   3.964   5.605
 5108SOL    HW116223   4.298   3.890   5.651
 5108SOL    HW216224   4.215   3.933   5.517
 5109SOL     OW16225   1.272   2.448   0.680
 5109SOL    HW116226   1.316   2.508   0.748
 5109SOL    HW216227   1.264   2.356   0.717
 5110SOL     OW16228   0.341   0.124   6.475
 5110SOL    HW116229   0.382   0.092   6.390
 5110SOL    HW216230   0.262   0.181   6.455
 5111SOL     OW16231   1.051   6.805   4.537
 5111SOL    HW116232   0.954   6.779   4.538
 5111SOL    HW216233   1.097   6.766   4.617
 5112SOL     OW16234   0.274   0.672   2.562
 5112SOL    HW116235   0.255   0.582   2.600
 5112SOL    HW216236   0.198   0.734   2.584
 5113SOL     OW16237   1.564   5.745   1.189
 5113SOL    HW116238   1.579   5.665   1.248
 5113SOL    HW216239   1.647   5.800   1.185
 5114SOL     OW16240   3.954   6.696   0.535
 5114SOL    HW116241   3.968   6.794   0.518
 5114SOL    HW216242   3.962   6.646   0.448
 5115SOL     OW16243   1.845   3.599   1.852
 5115SOL    HW116244   1.933   3.569   1.813
 5115SOL    HW216245   1.852   3.602   1.952
 5116SOL     OW16246   2.169   6.102   6.896
 5116SOL    HW116247   2.253   6.132   6.941
 5116SOL    HW216248   2.181   6.109   6.797
 5117SOL     OW16249   1.062   3.470   3.848
 5117SOL    HW116250   1.147   3.515   3.818
 5117SOL    HW216251   1.022   3.523   3.923
 5118SOL     OW16252   6.073   6.659   0.314
 5118SOL    HW116253   6.154   6.705   0.276
 5118SOL    HW216254   6.019   6.621   0.239
 5119SOL     OW16255   4.867   1.197   1.182
 5119SOL    HW116256   4.873   1.257   1.262
 5119SOL    HW216257   4.778   1.153   1.180
 5120SOL     OW16258   4.765   6.919   5.124
 5120SOL    HW116259   4.844   6.869   5.159
 5120SOL    HW216260   4.796   6.993   5.063
 5121SOL     OW16261   3.414   3.636   0.092
 5121SOL    HW116262   3.436   3.714   0.152
 5121SOL    HW216263   3.462   3.554   0.126
 5122SOL     OW16264   3.849   6.122   3.175
 5122SOL    HW116265   3.874   6.029   3.147
 5122SOL    HW216266   3.866   6.185   3.099
 5123SOL     OW16267   5.788   2.497   3.232
 5123SOL    HW116268   5.867   2.559   3.229
 5123SOL    HW216269   5.710   2.541   3.187
 5124SOL     OW16270   1.920   6.521   3.206
 5124SOL    HW116271   1.985   6.595   3.190
 5124SOL    HW216272   1.936   6.448   3.140
 5125SOL     OW16273   0.307   2.145   2.718
 5125SOL    HW116274   0.306   2.215   2.789
 5125SOL    HW216275   0.387   2.158   2.659
 5126SOL     OW16276   1.185   6.250   0.033
 5126SOL    HW116277   1.171   6.329   6.998
 5126SOL    HW216278   1.246   6.275   0.108
 5127SOL     OW16279   1.195   5.701   6.910
 5127SOL    HW116280   1.141   5.761   6.850
 5127SOL    HW216281   1.287   5.691   6.872
 5128SOL     OW16282   6.778   6.186   0.926
 5128SOL    HW116283   6.697   6.210   0.978
 5128SOL    HW216284   6.751   6.144   0.839
 5129SOL     OW16285   5.227   6.723   2.021
 5129SOL    HW116286   5.166   6.801   2.034
 5129SOL    HW216287   5.234   6.672   2.107
 5130SOL     OW16288   0.021   4.730   3.201
 5130SOL    HW116289   0.063   4.649   3.241
 5130SOL    HW216290   0.087   4.805   3.201
 5131SOL     OW16291   1.482   3.356   4.291
 5131SOL    HW116292   1.477   3.456   4.293
 5131SOL    HW216293   1.569   3.329   4.252
 5132SOL     OW16294   4.026   3.053   6.317
 5132SOL    HW116295   4.122   3.031   6.330
 5132SOL    HW216296   4.018   3.145   6.278
 5133SOL     OW16297   3.523   4.774   0.492
 5133SOL    HW116298   3.460   4.703   0.524
 5133SOL    HW216299   3.586   4.799   0.566
 5134SOL     OW16300   0.383   2.905   1.468
 5134SOL    HW116301   0.474   2.870   1.446
 5134SOL    HW216302   0.342   2.850   1.541
 5135SOL     OW16303   6.385   2.302   5.344
 5135SOL    HW116304   6.357   2.289   5.439
 5135SOL    HW216305   6.304   2.313   5.287
 5136SOL     OW16306   5.442   0.178   5.612
 5136SOL    HW116307   5.360   0.120   5.609
 5136SOL    HW216308   5.422   0.265   5.569
 5137SOL     OW16309   5.746   3.157   6.633
 5137SOL    HW116310   5.751   3.247   6.590
 5137SOL    HW216311   5.746   3.087   6.562
 5138SOL     OW16312   3.471   2.996   5.894
 5138SOL    HW116313   3.563   2.989   5.854
 5138SOL    HW216314   3.439   3.090   5.888
 5139SOL     OW16315   0.923   6.563   3.542
 5139SOL    HW116316   0.881   6.577   3.632
 5139SOL    HW216317   0.953   6.652   3.506
 5140SOL     OW16318   3.077   1.426   0.169
 5140SOL    HW116319   2.980   1.414   0.149
 5140SOL    HW216320   3.125   1.450   0.085
 5141SOL     OW16321   6.263   3.571   0.638
 5141SOL    HW116322   6.292   3.643   0.575
 5141SOL    HW216323   6.170   3.542   0.616
 5142SOL     OW16324   6.040   1.639   3.988
 5142SOL    HW116325   6.043   1.739   3.982
 5142SOL    HW216326   5.949   1.607   3.961
 5143SOL     OW16327   0.613   4.226   3.842
 5143SOL    HW116328   0.617   4.130   3.869
 5143SOL    HW216329   0.684   4.277   3.890
 5144SOL     OW16330   1.446   6.740   6.408
 5144SOL    HW116331   1.508   6.692   6.345
 5144SOL    HW216332   1.477   6.834   6.420
 5145SOL     OW16333   2.836   5.469   6.408
 5145SOL    HW116334   2.868   5.546   6.352
 5145SOL    HW216335   2.902   5.452   6.481
 5146SOL     OW16336   4.384   3.642   6.645
 5146SOL    HW116337   4.406   3.572   6.577
 5146SOL    HW216338   4.463   3.656   6.705
 5147SOL     OW16339   0.109   3.874   1.706
 5147SOL    HW116340   0.127   3.775   1.711
 5147SOL    HW216341   0.150   3.911   1.622
 5148SOL     OW16342   0.272   6.160   1.199
 5148SOL    HW116343   0.317   6.217   1.131
 5148SOL    HW216344   0.246   6.216   1.278
 5149SOL     OW16345   5.960   6.646   4.152
 5149SOL    HW116346   5.951   6.620   4.056
 5149SOL    HW216347   5.876   6.690   4.184
 5150SOL     OW16348   2.252   5.407   3.469
 5150SOL    HW116349   2.347   5.397   3.498
 5150SOL    HW216350   2.249   5.438   3.374
 5151SOL     OW16351   5.095   0.961   0.313
 5151SOL    HW116352   5.171   0.929   0.369
 5151SOL    HW216353   5.101   0.921   0.222
 5152SOL     OW16354   2.055   4.797   6.457
 5152SOL    HW116355   1.960   4.790   6.426
 5152SOL    HW216356   2.111   4.833   6.383
 5153SOL     OW16357   2.386   0.994   6.576
 5153SOL    HW116358   2.420   1.088   6.580
 5153SOL    HW216359   2.417   0.951   6.491
 5154SOL     OW16360   1.764   3.006   6.199
 5154SOL    HW116361   1.730   3.080   6.141
 5154SOL    HW216362   1.717   2.921   6.175
 5155SOL     OW16363   4.349   6.561   2.056
 5155SOL    HW116364   4.266   6.565   2.112
 5155SOL    HW216365   4.339   6.620   1.976
 5156SOL     OW16366   0.059   2.768   6.007
 5156SOL    HW116367   7.008   2.804   6.061
 5156SOL    HW216368   0.145   2.807   6.039
 5157SOL     OW16369   4.967   2.359   3.803
 5157SOL    HW116370   4.962   2.280   3.741
 5157SOL    HW216371   5.027   2.428   3.763
 5158SOL     OW16372   3.348   1.690   1.326
 5158SOL    HW116373   3.371   1.788   1.330
 5158SOL    HW216374   3.384   1.651   1.242
 5159SOL     OW16375   0.771   3.427   5.011
 5159SOL    HW116376   0.761   3.410   4.913
 5159SOL    HW216377   0.687   3.470   5.046
 5160SOL     OW16378   1.041   3.660   4.314
 5160SOL    HW116379   1.079   3.570   4.294
 5160SOL    HW216380   1.089   3.700   4.392
 5161SOL     OW16381   1.032   4.005   5.049
 5161SOL    HW116382   1.124   3.974   5.074
 5161SOL    HW216383   1.037   4.095   5.007
 5162SOL     OW16384   0.573   5.192   4.245
 5162SOL    HW116385   0.475   5.176   4.251
 5162SOL    HW216386   0.622   5.106   4.254
 5163SOL     OW16387   3.947   5.134   1.614
 5163SOL    HW116388   3.936   5.198   1.689
 5163SOL    HW216389   4.044   5.125   1.592
 5164SOL     OW16390   5.953   2.499   5.803
 5164SOL    HW116391   5.947   2.598   5.811
 5164SOL    HW216392   6.048   2.470   5.817
 5165SOL     OW16393   5.756   4.387   4.777
 5165SOL    HW116394   5.682   4.455   4.771
 5165SOL    HW216395   5.757   4.332   4.694
 5166SOL     OW16396   1.792   5.288   1.683
 5166SOL    HW116397   1.822   5.375   1.643
 5166SOL    HW216398   1.806   5.215   1.617
 5167SOL     OW16399   6.052   0.444   5.761
 5167SOL    HW116400   6.033   0.435   5.663
 5167SOL    HW216401   5.967   0.463   5.810
 5168SOL     OW16402   4.976   2.365   3.468
 5168SOL    HW116403   5.071   2.386   3.490
 5168SOL    HW216404   4.946   2.286   3.521
 5169SOL     OW16405   3.263   2.802   5.957
 5169SOL    HW116406   3.318   2.884   5.939
 5169SOL    HW216407   3.306   2.723   5.914
 5170SOL     OW16408   6.728   3.976   6.124
 5170SOL    HW116409   6.632   3.970   6.152
 5170SOL    HW216410   6.775   4.044   6.181
 5171SOL     OW16411   2.178   4.912   4.580
 5171SOL    HW116412   2.272   4.918   4.616
 5171SOL    HW216413   2.114   4.925   4.655
 5172SOL     OW16414   1.056   3.166   1.725
 5172SOL    HW116415   0.961   3.136   1.727
 5172SOL    HW216416   1.064   3.246   1.666
 5173SOL     OW16417   5.989   4.447   6.330
 5173SOL    HW116418   6.033   4.466   6.418
 5173SOL    HW216419   5.891   4.465   6.337
 5174SOL     OW16420   1.799   4.880   4.404
 5174SOL    HW116421   1.843   4.797   4.370
 5174SOL    HW216422   1.728   4.854   4.470
 5175SOL     OW16423   2.370   4.273   6.233
 5175SOL    HW116424   2.347   4.176   6.227
 5175SOL    HW216425   2.358   4.305   6.327
 5176SOL     OW16426   3.961   2.898   0.601
 5176SOL    HW116427   3.956   2.878   0.503
 5176SOL    HW216428   3.894   2.843   0.650
 5177SOL     OW16429   5.299   0.382   5.807
 5177SOL    HW116430   5.304   0.288   5.776
 5177SOL    HW216431   5.356   0.393   5.889
 5178SOL     OW16432   2.730   2.483   0.996
 5178SOL    HW116433   2.820   2.439   0.985
 5178SOL    HW216434   2.706   2.529   0.911
 5179SOL     OW16435   4.970   5.740   5.291
 5179SOL    HW116436   4.969   5.754   5.192
 5179SOL    HW216437   4.960   5.828   5.338
 5180SOL     OW16438   3.157   2.569   6.426
 5180SOL    HW116439   3.160   2.595   6.329
 5180SOL    HW216440   3.063   2.576   6.459
 5181SOL     OW16441   4.074   1.051   2.781
 5181SOL    HW116442   4.107   1.051   2.876
 5181SOL    HW216443   3.982   1.012   2.779
 5182SOL     OW16444   5.718   5.062   1.347
 5182SOL    HW116445   5.816   5.077   1.359
 5182SOL    HW216446   5.667   5.136   1.389
 5183SOL     OW16447   4.385   6.854   1.925
 5183SOL    HW116448   4.314   6.884   1.861
 5183SOL    HW216449   4.402   6.926   1.992
 5184SOL     OW16450   0.800   1.578   3.837
 5184SOL    HW116451   0.728   1.629   3.885
 5184SOL    HW216452   0.869   1.548   3.903
 5185SOL     OW16453   4.534   0.337   3.112
 5185SOL    HW116454   4.533   0.364   3.015
 5185SOL    HW216455   4.562   0.241   3.119
 5186SOL     OW16456   6.224   3.922   0.896
 5186SOL    HW116457   6.255   3.921   0.801
 5186SOL    HW216458   6.304   3.928   0.957
 5187SOL     OW16459   6.421   0.802   3.852
 5187SOL    HW116460   6.490   0.836   3.917
 5187SOL    HW216461   6.453   0.717   3.811
 5188SOL     OW16462   0.223   5.387   0.744
 5188SOL    HW116463   0.252   5.304   0.792
 5188SOL    HW216464   0.303   5.430   0.701
 5189SOL     OW16465   4.626   5.202   0.361
 5189SOL    HW116466   4.720   5.218   0.393
 5189SOL    HW216467   4.573   5.286   0.369
 5190SOL     OW16468   1.135   2.030   4.618
 5190SOL    HW116469   1.106   1.949   4.567
 5190SOL    HW216470   1.119   2.112   4.563
 5191SOL     OW16471   3.570   1.033   1.609
 5191SOL    HW116472   3.618   0.945   1.598
 5191SOL    HW216473   3.493   1.022   1.671
 5192SOL     OW16474   4.820   5.800   2.606
 5192SOL    HW116475   4.821   5.707   2.643
 5192SOL    HW216476   4.902   5.848   2.637
 5193SOL     OW16477   4.735   4.388   3.594
 5193SOL    HW116478   4.703   4.383   3.689
 5193SOL    HW216479   4.827   4.351   3.588
 5194SOL     OW16480   5.160   0.354   6.151
 5194SOL    HW116481   5.252   0.319   6.166
 5194SOL    HW216482   5.098   0.278   6.132
 5195SOL     OW16483   6.507   6.631   4.682
 5195SOL    HW116484   6.435   6.681   4.633
 5195SOL    HW216485   6.476   6.538   4.701
 5196SOL     OW16486   0.860   3.838   1.350
 5196SOL    HW116487   0.918   3.894   1.410
 5196SOL    HW216488   0.879   3.741   1.366
 5197SOL     OW16489   1.813   6.421   4.040
 5197SOL    HW116490   1.851   6.503   4.082
 5197SOL    HW216491   1.885   6.371   3.992
 5198SOL     OW16492   3.013   0.088   4.487
 5198SOL    HW116493   3.045   0.043   4.570
 5198SOL    HW216494   2.944   0.156   4.511
 5199SOL     OW16495   2.485   5.276   1.163
 5199SOL    HW116496   2.400   5.255   1.212
 5199SOL    HW216497   2.506   5.373   1.173
 5200SOL     OW16498   0.979   2.316   4.843
 5200SOL    HW116499   1.067   2.280   4.812
 5200SOL    HW216500   0.984   2.337   4.941
 5201SOL     OW16501   5.365   5.695   4.735
 5201SOL    HW116502   5.304   5.709   4.657
 5201SOL    HW216503   5.451   5.656   4.703
 5202SOL     OW16504   5.377   3.180   6.881
 5202SOL    HW116505   5.350   3.248   6.812
 5202SOL    HW216506   5.373   3.221   6.972
 5203SOL     OW16507   1.681   0.342   5.994
 5203SOL    HW116508   1.718   0.267   5.938
 5203SOL    HW216509   1.588   0.362   5.964
 5204SOL     OW16510   2.888   6.704   7.024
 5204SOL    HW116511   2.946   6.762   0.056
 5204SOL    HW216512   2.945   6.643   6.969
 5205SOL     OW16513   6.911   5.622   0.093
 5205SOL    HW116514   6.925   5.523   0.096
 5205SOL    HW216515   6.813   5.641   0.101
 5206SOL     OW16516   0.628   4.784   5.424
 5206SOL    HW116517   0.602   4.771   5.520
 5206SOL    HW216518   0.714   4.835   5.420
 5207SOL     OW16519   6.970   0.042   4.196
 5207SOL    HW116520   6.969   6.967   4.199
 5207SOL    HW216521   6.900   0.078   4.257
 5208SOL     OW16522   4.427   2.609   0.018
 5208SOL    HW116523   4.525   2.609   7.020
 5208SOL    HW216524   4.413   2.664   0.101
 5209SOL     OW16525   5.017   0.046   2.919
 5209SOL    HW116526   4.939   0.093   2.958
 5209SOL    HW216527   5.044   0.092   2.834
 5210SOL     OW16528   5.415   4.155   1.222
 5210SOL    HW116529   5.357   4.185   1.146
 5210SOL    HW216530   5.423   4.056   1.220
 5211SOL     OW16531   5.035   2.136   4.544
 5211SOL    HW116532   5.067   2.081   4.621
 5211SOL    HW216533   4.993   2.220   4.579
 5212SOL     OW16534   1.238   2.132   0.735
 5212SOL    HW116535   1.184   2.082   0.803
 5212SOL    HW216536   1.179   2.158   0.659
 5213SOL     OW16537   3.790   3.639   1.947
 5213SOL    HW116538   3.810   3.541   1.943
 5213SOL    HW216539   3.873   3.691   1.929
 5214SOL     OW16540   4.969   4.425   6.303
 5214SOL    HW116541   4.981   4.395   6.209
 5214SOL    HW216542   5.029   4.503   6.322
 5215SOL     OW16543   6.762   3.268   4.102
 5215SOL    HW116544   6.816   3.321   4.037
 5215SOL    HW216545   6.669   3.255   4.066
 5216SOL     OW16546   5.125   5.353   1.095
 5216SOL    HW116547   5.127   5.412   1.014
 5216SOL    HW216548   5.074   5.399   1.168
 5217SOL     OW16549   3.608   5.410   3.775
 5217SOL    HW116550   3.690   5.363   3.743
 5217SOL    HW216551   3.552   5.435   3.696
 5218SOL     OW16552   0.459   1.529   1.026
 5218SOL    HW116553   0.396   1.455   1.049
 5218SOL    HW216554   0.407   1.612   1.003
 5219SOL     OW16555   3.534   1.525   4.710
 5219SOL    HW116556   3.515   1.599   4.775
 5219SOL    HW216557   3.453   1.509   4.653
 5220SOL     OW16558   1.577   5.042   2.888
 5220SOL    HW116559   1.655   5.061   2.828
 5220SOL    HW216560   1.507   4.992   2.836
 5221SOL     OW16561   7.005   0.306   1.399
 5221SOL    HW116562   6.924   0.285   1.453
 5221SOL    HW216563   6.978   0.349   1.313
 5222SOL     OW16564   3.822   5.279   1.832
 5222SOL    HW116565   3.761   5.199   1.827
 5222SOL    HW216566   3.783   5.347   1.894
 5223SOL     OW16567   0.076   2.321   1.181
 5223SOL    HW116568   0.073   2.298   1.084
 5223SOL    HW216569   7.013   2.361   1.209
 5224SOL     OW16570   0.983   1.806   4.490
 5224SOL    HW116571   0.971   1.742   4.566
 5224SOL    HW216572   1.006   1.756   4.407
 5225SOL     OW16573   6.510   1.628   4.368
 5225SOL    HW116574   6.509   1.666   4.276
 5225SOL    HW216575   6.424   1.580   4.385
 5226SOL     OW16576   0.170   5.459   3.551
 5226SOL    HW116577   0.076   5.450   3.585
 5226SOL    HW216578   0.171   5.443   3.453
 5227SOL     OW16579   0.456   4.050   6.128
 5227SOL    HW116580   0.423   4.100   6.047
 5227SOL    HW216581   0.553   4.068   6.140
 5228SOL     OW16582   1.234   2.468   6.979
 5228SOL    HW116583   1.285   2.543   7.020
 5228SOL    HW216584   1.260   2.459   6.883
 5229SOL     OW16585   3.651   5.954   6.450
 5229SOL    HW116586   3.585   5.970   6.376
 5229SOL    HW216587   3.636   5.864   6.489
 5230SOL     OW16588   6.997   0.513   2.467
 5230SOL    HW116589   0.054   0.526   2.524
 5230SOL    HW216590   6.935   0.448   2.513
 5231SOL     OW16591   5.257   1.673   3.537
 5231SOL    HW116592   5.300   1.753   3.496
 5231SOL    HW216593   5.302   1.590   3.502
 5232SOL     OW16594   1.815   3.879   5.986
 5232SOL    HW116595   1.875   3.930   6.047
 5232SOL    HW216596   1.860   3.867   5.897
 5233SOL     OW16597   3.325   0.943   2.206
 5233SOL    HW116598   3.312   0.945   2.306
 5233SOL    HW216599   3.329   1.037   2.172
 5234SOL     OW16600   2.781   3.517   0.232
 5234SOL    HW116601   2.788   3.430   0.184
 5234SOL    HW216602   2.836   3.513   0.316
 5235SOL     OW16603   2.404   2.446   0.715
 5235SOL    HW116604   2.321   2.489   0.750
 5235SOL    HW216605   2.395   2.430   0.616
 5236SOL     OW16606   2.763   5.023   2.039
 5236SOL    HW116607   2.692   5.044   2.106
 5236SOL    HW216608   2.720   4.989   1.955
 5237SOL     OW16609   2.371   1.726   4.468
 5237SOL    HW116610   2.275   1.716   4.445
 5237SOL    HW216611   2.424   1.657   4.419
 5238SOL     OW16612   1.142   4.561   2.051
 5238SOL    HW116613   1.178   4.549   1.959
 5238SOL    HW216614   1.157   4.655   2.081
 5239SOL     OW16615   3.801   3.915   1.260
 5239SOL    HW116616   3.780   3.843   1.194
 5239SOL    HW216617   3.840   3.994   1.213
 5240SOL     OW16618   2.858   2.451   5.499
 5240SOL    HW116619   2.800   2.529   5.525
 5240SOL    HW216620   2.947   2.485   5.468
 5241SOL     OW16621   1.225   6.263   2.175
 5241SOL    HW116622   1.297   6.254   2.106
 5241SOL    HW216623   1.265   6.299   2.260
 5242SOL     OW16624   5.213   0.382   1.516
 5242SOL    HW116625   5.237   0.453   1.450
 5242SOL    HW216626   5.283   0.311   1.517
 5243SOL     OW16627   2.133   6.212   1.718
 5243SOL    HW116628   2.195   6.288   1.698
 5243SOL    HW216629   2.113   6.211   1.816
 5244SOL     OW16630   4.768   3.394   0.470
 5244SOL    HW116631   4.845   3.387   0.406
 5244SOL    HW216632   4.777   3.325   0.541
 5245SOL     OW16633   3.938   4.057   0.265
 5245SOL    HW116634   3.871   4.062   0.339
 5245SOL    HW216635   3.953   3.962   0.239
 5246SOL     OW16636   6.441   2.458   2.533
 5246SOL    HW116637   6.394   2.397   2.468
 5246SOL    HW216638   6.424   2.553   2.507
 5247SOL     OW16639   3.976   1.135   5.593
 5247SOL    HW116640   3.886   1.146   5.637
 5247SOL    HW216641   3.972   1.172   5.500
 5248SOL     OW16642   6.872   2.036   2.937
 5248SOL    HW116643   6.859   2.027   2.838
 5248SOL    HW216644   6.932   1.963   2.970
 5249SOL     OW16645   1.348   5.238   6.497
 5249SOL    HW116646   1.277   5.184   6.543
 5249SOL    HW216647   1.412   5.274   6.565
 5250SOL     OW16648   1.813   5.769   0.339
 5250SOL    HW116649   1.837   5.857   0.299
 5250SOL    HW216650   1.786   5.782   0.434
 5251SOL     OW16651   0.720   4.699   1.076
 5251SOL    HW116652   0.766   4.623   1.030
 5251SOL    HW216653   0.665   4.750   1.010
 5252SOL     OW16654   2.708   0.046   2.130
 5252SOL    HW116655   2.694   0.143   2.152
 5252SOL    HW216656   2.639   7.016   2.179
 5253SOL     OW16657   5.835   4.568   5.087
 5253SOL    HW116658   5.900   4.501   5.050
 5253SOL    HW216659   5.853   4.581   5.184
 5254SOL     OW16660   5.429   0.574   3.433
 5254SOL    HW116661   5.394   0.569   3.340
 5254SOL    HW216662   5.428   0.483   3.474
 5255SOL     OW16663   5.427   2.280   4.410
 5255SOL    HW116664   5.370   2.216   4.462
 5255SOL    HW216665   5.444   2.243   4.319
 5256SOL     OW16666   4.914   1.630   3.321
 5256SOL    HW116667   4.899   1.728   3.333
 5256SOL    HW216668   4.854   1.580   3.385
 5257SOL     OW16669   4.664   0.060   0.579
 5257SOL    HW116670   4.598   0.119   0.534
 5257SOL    HW216671   4.617   7.012   0.628
 5258SOL     OW16672   5.677   1.955   2.857
 5258SOL    HW116673   5.739   2.033   2.854
 5258SOL    HW216674   5.599   1.972   2.797
 5259SOL     OW16675   4.873   5.467   2.357
 5259SOL    HW116676   4.960   5.483   2.404
 5259SOL    HW216677   4.797   5.478   2.421
 5260SOL     OW16678   3.496   5.405   0.117
 5260SOL    HW116679   3.404   5.387   0.083
 5260SOL    HW216680   3.515   5.503   0.113
 5261SOL     OW16681   0.288   4.538   0.425
 5261SOL    HW116682   0.209   4.478   0.442
 5261SOL    HW216683   0.298   4.551   0.327
 5262SOL     OW16684   2.716   0.866   3.313
 5262SOL    HW116685   2.675   0.948   3.353
 5262SOL    HW216686   2.647   0.814   3.263
 5263SOL     OW16687   1.995   1.440   2.896
 5263SOL    HW116688   2.040   1.499   2.829
 5263SOL    HW216689   1.977   1.351   2.855
 5264SOL     OW16690   6.487   1.987   2.179
 5264SOL    HW116691   6.567   1.962   2.234
 5264SOL    HW216692   6.456   1.907   2.127
 5265SOL     OW16693   5.917   3.088   4.519
 5265SOL    HW116694   5.963   3.116   4.604
 5265SOL    HW216695   5.924   3.162   4.452
 5266SOL     OW16696   2.231   6.936   1.450
 5266SOL    HW116697   2.237   6.855   1.393
 5266SOL    HW216698   2.209   7.016   1.393
 5267SOL     OW16699   4.694   2.209   4.742
 5267SOL    HW116700   4.777   2.256   4.714
 5267SOL    HW216701   4.696   2.194   4.841
 5268SOL     OW16702   5.049   0.475   6.739
 5268SOL    HW116703   5.115   0.417   6.690
 5268SOL    HW216704   5.066   0.571   6.717
 5269SOL     OW16705   0.685   6.735   2.435
 5269SOL    HW116706   0.625   6.714   2.512
 5269SOL    HW216707   0.747   6.658   2.419
 5270SOL     OW16708   5.267   1.669   1.255
 5270SOL    HW116709   5.206   1.692   1.331
 5270SOL    HW216710   5.362   1.672   1.286
 5271SOL     OW16711   6.489   4.613   5.219
 5271SOL    HW116712   6.589   4.616   5.217
 5271SOL    HW216713   6.458   4.559   5.297
 5272SOL     OW16714   3.660   6.049   1.035
 5272SOL    HW116715   3.632   5.961   0.996
 5272SOL    HW216716   3.673   6.038   1.134
 5273SOL     OW16717   0.931   3.518   2.422
 5273SOL    HW116718   1.028   3.496   2.432
 5273SOL    HW216719   0.881   3.484   2.502
 5274SOL     OW16720   5.255   6.581   2.674
 5274SOL    HW116721   5.228   6.672   2.705
 5274SOL    HW216722   5.355   6.574   2.675
 5275SOL     OW16723   2.912   1.071   1.026
 5275SOL    HW116724   2.885   1.015   0.948
 5275SOL    HW216725   3.004   1.044   1.056
 5276SOL     OW16726   2.274   0.661   2.098
 5276SOL    HW116727   2.331   0.622   2.027
 5276SOL    HW216728   2.205   0.594   2.127
 5277SOL     OW16729   2.924   0.877   2.375
 5277SOL    HW116730   2.829   0.876   2.344
 5277SOL    HW216731   2.947   0.969   2.407
 5278SOL     OW16732   5.079   4.555   3.563
 5278SOL    HW116733   5.056   4.459   3.546
 5278SOL    HW216734   5.001   4.613   3.539
 5279SOL     OW16735   2.376   5.593   1.098
 5279SOL    HW116736   2.290   5.545   1.084
 5279SOL    HW216737   2.432   5.585   1.016
 5280SOL     OW16738   2.835   6.031   4.656
 5280SOL    HW116739   2.835   5.945   4.606
 5280SOL    HW216740   2.742   6.069   4.657
 5281SOL     OW16741   6.778   1.925   2.255
 5281SOL    HW116742   6.846   1.996   2.275
 5281SOL    HW216743   6.765   1.868   2.336
 5282SOL     OW16744   2.423   1.371   3.308
 5282SOL    HW116745   2.521   1.391   3.301
 5282SOL    HW216746   2.375   1.451   3.346
 5283SOL     OW16747   5.234   6.408   1.449
 5283SOL    HW116748   5.198   6.410   1.543
 5283SOL    HW216749   5.333   6.421   1.451
 5284SOL     OW16750   5.558   4.548   2.455
 5284SOL    HW116751   5.566   4.602   2.371
 5284SOL    HW216752   5.535   4.454   2.432
 5285SOL     OW16753   3.241   4.938   3.905
 5285SOL    HW116754   3.305   4.918   3.979
 5285SOL    HW216755   3.216   5.035   3.908
 5286SOL     OW16756   2.546   3.904   1.151
 5286SOL    HW116757   2.497   3.881   1.235
 5286SOL    HW216758   2.589   3.994   1.161
 5287SOL     OW16759   2.710   1.818   0.763
 5287SOL    HW116760   2.750   1.744   0.709
 5287SOL    HW216761   2.644   1.868   0.708
 5288SOL     OW16762   3.970   0.408   1.404
 5288SOL    HW116763   4.067   0.431   1.394
 5288SOL    HW216764   3.927   0.471   1.469
 5289SOL     OW16765   0.897   5.281   0.148
 5289SOL    HW116766   0.967   5.327   0.094
 5289SOL    HW216767   0.935   5.200   0.191
 5290SOL     OW16768   3.262   5.908   6.539
 5290SOL    HW116769   3.174   5.884   6.581
 5290SOL    HW216770   3.336   5.870   6.594
 5291SOL     OW16771   2.512   5.623   6.057
 5291SOL    HW116772   2.557   5.552   6.003
 5291SOL    HW216773   2.518   5.600   6.154
 5292SOL     OW16774   5.649   3.442   6.823
 5292SOL    HW116775   5.625   3.510   6.892
 5292SOL    HW216776   5.657   3.352   6.866
 5293SOL     OW16777   1.037   0.777   4.640
 5293SOL    HW116778   1.009   0.862   4.596
 5293SOL    HW216779   1.029   0.787   4.739
 5294SOL     OW16780   5.556   3.018   6.763
 5294SOL    HW116781   5.481   3.074   6.797
 5294SOL    HW216782   5.622   3.076   6.714
 5295SOL     OW16783   5.127   1.078   3.046
 5295SOL    HW116784   5.220   1.117   3.044
 5295SOL    HW216785   5.071   1.122   2.977
 5296SOL     OW16786   1.879   4.697   0.136
 5296SOL    HW116787   1.971   4.678   0.170
 5296SOL    HW216788   1.872   4.794   0.111
 5297SOL     OW16789   2.227   1.794   0.712
 5297SOL    HW116790   2.198   1.766   0.803
 5297SOL    HW216791   2.163   1.759   0.644
 5298SOL     OW16792   6.599   4.902   1.913
 5298SOL    HW116793   6.549   4.816   1.912
 5298SOL    HW216794   6.570   4.958   1.835
 5299SOL     OW16795   2.761   0.967   1.484
 5299SOL    HW116796   2.811   0.882   1.464
 5299SOL    HW216797   2.668   0.959   1.449
 5300SOL     OW16798   0.094   5.724   3.130
 5300SOL    HW116799   0.104   5.625   3.120
 5300SOL    HW216800   0.077   5.766   3.041
 5301SOL     OW16801   4.286   1.648   0.084
 5301SOL    HW116802   4.256   1.743   0.091
 5301SOL    HW216803   4.375   1.637   0.127
 5302SOL     OW16804   6.828   4.330   2.913
 5302SOL    HW116805   6.770   4.394   2.964
 5302SOL    HW216806   6.785   4.308   2.826
 5303SOL     OW16807   6.424   4.789   4.126
 5303SOL    HW116808   6.518   4.762   4.104
 5303SOL    HW216809   6.369   4.707   4.144
 5304SOL     OW16810   4.974   2.128   6.102
 5304SOL    HW116811   5.006   2.216   6.067
 5304SOL    HW216812   5.049   2.063   6.103
 5305SOL     OW16813   2.164   0.628   4.048
 5305SOL    HW116814   2.170   0.650   3.950
 5305SOL    HW216815   2.117   0.541   4.059
 5306SOL     OW16816   2.349   6.391   5.633
 5306SOL    HW116817   2.417   6.463   5.633
 5306SOL    HW216818   2.302   6.388   5.721
 5307SOL     OW16819   4.342   6.723   6.249
 5307SOL    HW116820   4.426   6.689   6.207
 5307SOL    HW216821   4.356   6.819   6.276
 5308SOL     OW16822   6.963   0.323   3.831
 5308SOL    HW116823   6.887   0.351   3.890
 5308SOL    HW216824   0.015   0.292   3.888
 5309SOL     OW16825   3.632   3.484   3.503
 5309SOL    HW116826   3.649   3.388   3.480
 5309SOL    HW216827   3.719   3.533   3.507
 5310SOL     OW16828   5.364   2.661   1.603
 5310SOL    HW116829   5.355   2.613   1.516
 5310SOL    HW216830   5.408   2.601   1.670
 5311SOL     OW16831   2.427   5.640   0.143
 5311SOL    HW116832   2.381   5.702   0.207
 5311SOL    HW216833   2.497   5.692   0.093
 5312SOL     OW16834   1.153   4.488   2.474
 5312SOL    HW116835   1.187   4.450   2.388
 5312SOL    HW216836   1.061   4.524   2.459
 5313SOL     OW16837   1.006   5.851   6.439
 5313SOL    HW116838   0.958   5.902   6.368
 5313SOL    HW216839   1.024   5.758   6.407
 5314SOL     OW16840   4.671   5.470   0.198
 5314SOL    HW116841   4.589   5.453   0.254
 5314SOL    HW216842   4.711   5.383   0.172
 5315SOL     OW16843   5.554   3.934   1.874
 5315SOL    HW116844   5.634   3.908   1.929
 5315SOL    HW216845   5.580   3.942   1.778
 5316SOL     OW16846   0.093   5.029   4.902
 5316SOL    HW116847   0.066   4.954   4.842
 5316SOL    HW216848   0.128   5.105   4.847
 5317SOL     OW16849   5.897   0.700   2.627
 5317SOL    HW116850   5.847   0.781   2.657
 5317SOL    HW216851   5.837   0.642   2.573
 5318SOL     OW16852   7.016   2.775   4.665
 5318SOL    HW116853   0.051   2.720   4.723
 5318SOL    HW216854   0.040   2.802   4.582
 5319SOL     OW16855   5.641   0.159   0.096
 5319SOL    HW116856   5.635   0.066   0.060
 5319SOL    HW216857   5.566   0.174   0.162
 5320SOL     OW16858   5.386   3.580   0.048
 5320SOL    HW116859   5.469   3.608   0.097
 5320SOL    HW216860   5.385   3.621   6.982
 5321SOL     OW16861   1.939   5.618   5.580
 5321SOL    HW116862   1.943   5.534   5.634
 5321SOL    HW216863   1.944   5.697   5.642
 5322SOL     OW16864   4.307   5.949   6.217
 5322SOL    HW116865   4.283   6.042   6.243
 5322SOL    HW216866   4.317   5.944   6.117
 5323SOL     OW16867   3.968   2.056   7.000
 5323SOL    HW116868   3.964   2.111   0.059
 5323SOL    HW216869   3.880   2.011   6.986
 5324SOL     OW16870   3.791   3.180   1.261
 5324SOL    HW116871   3.859   3.209   1.194
 5324SOL    HW216872   3.758   3.088   1.238
 5325SOL     OW16873   4.952   6.350   2.194
 5325SOL    HW116874   4.854   6.363   2.179
 5325SOL    HW216875   4.966   6.294   2.276
 5326SOL     OW16876   0.034   5.641   1.803
 5326SOL    HW116877   6.984   5.579   1.782
 5326SOL    HW216878   0.111   5.589   1.841
 5327SOL     OW16879   6.770   6.636   4.618
 5327SOL    HW116880   6.731   6.728   4.612
 5327SOL    HW216881   6.703   6.574   4.659
 5328SOL     OW16882   3.978   3.788   6.695
 5328SOL    HW116883   3.970   3.863   6.761
 5328SOL    HW216884   4.003   3.825   6.606
 5329SOL     OW16885   0.653   4.772   0.539
 5329SOL    HW116886   0.653   4.846   0.607
 5329SOL    HW216887   0.633   4.685   0.585
 5330SOL     OW16888   3.532   3.719   0.905
 5330SOL    HW116889   3.453   3.751   0.957
 5330SOL    HW216890   3.501   3.654   0.835
 5331SOL     OW16891   4.311   1.849   0.399
 5331SOL    HW116892   4.335   1.758   0.432
 5331SOL    HW216893   4.394   1.901   0.378
 5332SOL     OW16894   6.367   5.444   0.770
 5332SOL    HW116895   6.288   5.504   0.778
 5332SOL    HW216896   6.424   5.452   0.852
 5333SOL     OW16897   1.876   1.068   3.558
 5333SOL    HW116898   1.953   1.132   3.563
 5333SOL    HW216899   1.818   1.092   3.480
 5334SOL     OW16900   4.706   4.492   3.353
 5334SOL    HW116901   4.725   4.462   3.446
 5334SOL    HW216902   4.611   4.473   3.331
 5335SOL     OW16903   0.126   4.963   1.548
 5335SOL    HW116904   0.108   5.009   1.635
 5335SOL    HW216905   0.210   4.909   1.554
 5336SOL     OW16906   2.038   2.034   4.096
 5336SOL    HW116907   2.093   2.087   4.160
 5336SOL    HW216908   2.096   2.000   4.022
 5337SOL     OW16909   6.687   4.597   1.350
 5337SOL    HW116910   6.710   4.605   1.253
 5337SOL    HW216911   6.764   4.559   1.400
 5338SOL     OW16912   6.268   2.937   0.282
 5338SOL    HW116913   6.319   2.853   0.302
 5338SOL    HW216914   6.319   3.015   0.318
 5339SOL     OW16915   6.347   2.323   2.749
 5339SOL    HW116916   6.403   2.388   2.699
 5339SOL    HW216917   6.282   2.279   2.687
 5340SOL     OW16918   5.485   2.915   2.248
 5340SOL    HW116919   5.474   2.821   2.281
 5340SOL    HW216920   5.486   2.978   2.326
 5341SOL     OW16921   4.909   4.749   3.438
 5341SOL    HW116922   4.951   4.729   3.350
 5341SOL    HW216923   4.813   4.723   3.437
 5342SOL     OW16924   6.078   0.130   5.411
 5342SOL    HW116925   6.027   0.202   5.458
 5342SOL    HW216926   6.015   0.078   5.353
 5343SOL     OW16927   3.972   3.553   5.409
 5343SOL    HW116928   3.888   3.591   5.449
 5343SOL    HW216929   3.978   3.581   5.313
 5344SOL     OW16930   0.570   1.562   0.091
 5344SOL    HW116931   0.571   1.540   0.188
 5344SOL    HW216932   0.645   1.514   0.045
 5345SOL     OW16933   5.333   1.043   6.919
 5345SOL    HW116934   5.431   1.064   6.916
 5345SOL    HW216935   5.293   1.086   7.000
 5346SOL     OW16936   2.819   4.960   3.548
 5346SOL    HW116937   2.836   4.882   3.607
 5346SOL    HW216938   2.882   5.034   3.571
 5347SOL     OW16939   6.363   2.227   4.017
 5347SOL    HW116940   6.286   2.212   4.078
 5347SOL    HW216941   6.355   2.318   3.975
 5348SOL     OW16942   5.202   1.933   4.160
 5348SOL    HW116943   5.121   1.932   4.102
 5348SOL    HW216944   5.253   1.849   4.148
 5349SOL     OW16945   1.032   2.736   1.532
 5349SOL    HW116946   1.050   2.695   1.622
 5349SOL    HW216947   1.080   2.823   1.526
 5350SOL     OW16948   1.832   6.713   5.617
 5350SOL    HW116949   1.753   6.761   5.655
 5350SOL    HW216950   1.915   6.743   5.664
 5351SOL     OW16951   0.646   5.367   1.860
 5351SOL    HW116952   0.624   5.452   1.909
 5351SOL    HW216953   0.672   5.297   1.926
 5352SOL     OW16954   1.599   3.798   3.857
 5352SOL    HW116955   1.579   3.879   3.803
 5352SOL    HW216956   1.529   3.729   3.841
 5353SOL     OW16957   4.614   5.419   3.389
 5353SOL    HW116958   4.591   5.365   3.308
 5353SOL    HW216959   4.605   5.517   3.368
 5354SOL     OW16960   3.906   5.496   0.507
 5354SOL    HW116961   3.858   5.446   0.579
 5354SOL    HW216962   3.982   5.547   0.546
 5355SOL     OW16963   5.245   5.016   5.414
 5355SOL    HW116964   5.195   5.098   5.386
 5355SOL    HW216965   5.228   4.998   5.511
 5356SOL     OW16966   0.294   4.535   1.554
 5356SOL    HW116967   0.211   4.481   1.543
 5356SOL    HW216968   0.361   4.506   1.486
 5357SOL     OW16969   4.431   5.054   1.927
 5357SOL    HW116970   4.338   5.058   1.965
 5357SOL    HW216971   4.448   5.135   1.871
 5358SOL     OW16972   4.359   1.290   0.165
 5358SOL    HW116973   4.368   1.221   0.237
 5358SOL    HW216974   4.282   1.268   0.106
 5359SOL     OW16975   1.671   1.885   0.309
 5359SOL    HW116976   1.714   1.900   0.398
 5359SOL    HW216977   1.571   1.891   0.319
 5360SOL     OW16978   5.652   4.685   4.180
 5360SOL    HW116979   5.729   4.719   4.127
 5360SOL    HW216980   5.604   4.614   4.127
 5361SOL     OW16981   3.302   6.484   2.600
 5361SOL    HW116982   3.372   6.543   2.561
 5361SOL    HW216983   3.335   6.390   2.603
 5362SOL     OW16984   4.983   0.311   2.097
 5362SOL    HW116985   5.020   0.329   2.006
 5362SOL    HW216986   4.977   0.212   2.111
 5363SOL     OW16987   5.861   5.718   5.042
 5363SOL    HW116988   5.761   5.730   5.041
 5363SOL    HW216989   5.898   5.757   5.127
 5364SOL     OW16990   4.826   0.695   2.840
 5364SOL    HW116991   4.840   0.770   2.905
 5364SOL    HW216992   4.912   0.644   2.830
 5365SOL     OW16993   3.011   3.429   4.135
 5365SOL    HW116994   3.031   3.373   4.055
 5365SOL    HW216995   2.958   3.510   4.107
 5366SOL     OW16996   6.455   0.200   1.665
 5366SOL    HW116997   6.450   0.239   1.573
 5366SOL    HW216998   6.510   0.117   1.662
 5367SOL     OW16999   6.816   6.497   0.847
 5367SOL    HW117000   6.836   6.403   0.875
 5367SOL    HW217001   6.717   6.512   0.851
 5368SOL     OW17002   6.297   5.698   3.275
 5368SOL    HW117003   6.356   5.620   3.255
 5368SOL    HW217004   6.344   5.760   3.337
 5369SOL     OW17005   2.714   5.365   2.007
 5369SOL    HW117006   2.695   5.272   1.975
 5369SOL    HW217007   2.790   5.404   1.956
 5370SOL     OW17008   3.264   4.090   1.225
 5370SOL    HW117009   3.348   4.144   1.224
 5370SOL    HW217010   3.267   4.025   1.301
 5371SOL     OW17011   6.981   5.537   5.518
 5371SOL    HW117012   6.968   5.447   5.559
 5371SOL    HW217013   0.029   5.586   5.566
 5372SOL     OW17014   0.955   0.556   2.724
 5372SOL    HW117015   1.051   0.530   2.727
 5372SOL    HW217016   0.898   0.474   2.727
 5373SOL     OW17017   4.287   6.777   5.732
 5373SOL    HW117018   4.200   6.800   5.690
 5373SOL    HW217019   4.330   6.703   5.680
 5374SOL     OW17020   2.976   5.270   1.145
 5374SOL    HW117021   2.991   5.342   1.077
 5374SOL    HW217022   3.064   5.233   1.175
 5375SOL     OW17023   0.880   5.705   4.965
 5375SOL    HW117024   0.969   5.746   4.983
 5375SOL    HW217025   0.891   5.625   4.905
 5376SOL     OW17026   1.584   1.640   0.593
 5376SOL    HW117027   1.637   1.651   0.677
 5376SOL    HW217028   1.526   1.720   0.578
 5377SOL     OW17029   2.278   0.710   2.923
 5377SOL    HW117030   2.320   0.799   2.908
 5377SOL    HW217031   2.187   0.722   2.963
 5378SOL     OW17032   5.804   0.787   1.299
 5378SOL    HW117033   5.724   0.737   1.264
 5378SOL    HW217034   5.782   0.884   1.304
 5379SOL     OW17035   0.560   3.029   6.003
 5379SOL    HW117036   0.497   3.036   6.080
 5379SOL    HW217037   0.653   3.015   6.037
 5380SOL     OW17038   4.814   6.876   1.525
 5380SOL    HW117039   4.799   6.956   1.582
 5380SOL    HW217040   4.912   6.856   1.521
 5381SOL     OW17041   5.096   6.662   3.092
 5381SOL    HW117042   5.185   6.616   3.089
 5381SOL    HW217043   5.072   6.695   3.001
 5382SOL     OW17044   4.141   1.684   2.463
 5382SOL    HW117045   4.118   1.587   2.464
 5382SOL    HW217046   4.209   1.703   2.534
 5383SOL     OW17047   1.702   3.262   4.154
 5383SOL    HW117048   1.670   3.204   4.080
 5383SOL    HW217049   1.774   3.216   4.205
 5384SOL     OW17050   4.714   5.869   5.641
 5384SOL    HW117051   4.733   5.894   5.736
 5384SOL    HW217052   4.619   5.840   5.632
 5385SOL     OW17053   6.122   2.698   5.593
 5385SOL    HW117054   6.026   2.671   5.595
 5385SOL    HW217055   6.149   2.721   5.499
 5386SOL     OW17056   6.522   4.139   3.896
 5386SOL    HW117057   6.476   4.068   3.843
 5386SOL    HW217058   6.458   4.213   3.916
 5387SOL     OW17059   2.105   1.143   2.261
 5387SOL    HW117060   2.134   1.082   2.335
 5387SOL    HW217061   2.152   1.116   2.176
 5388SOL     OW17062   0.942   6.938   2.566
 5388SOL    HW117063   0.956   6.840   2.557
 5388SOL    HW217064   0.858   6.964   2.517
 5389SOL     OW17065   4.619   1.817   4.261
 5389SOL    HW117066   4.710   1.841   4.294
 5389SOL    HW217067   4.549   1.860   4.318
 5390SOL     OW17068   6.529   3.489   3.741
 5390SOL    HW117069   6.557   3.420   3.674
 5390SOL    HW217070   6.445   3.532   3.710
 5391SOL     OW17071   1.948   2.331   0.130
 5391SOL    HW117072   1.978   2.372   0.043
 5391SOL    HW217073   2.007   2.254   0.153
 5392SOL     OW17074   5.080   1.681   3.722
 5392SOL    HW117075   4.992   1.718   3.693
 5392SOL    HW217076   5.146   1.691   3.649
 5393SOL     OW17077   4.134   0.906   5.644
 5393SOL    HW117078   4.070   0.980   5.625
 5393SOL    HW217079   4.165   0.910   5.739
 5394SOL     OW17080   2.291   0.524   0.747
 5394SOL    HW117081   2.373   0.468   0.755
 5394SOL    HW217082   2.285   0.563   0.655
 5395SOL     OW17083   5.030   2.250   1.472
 5395SOL    HW117084   5.006   2.227   1.378
 5395SOL    HW217085   4.963   2.314   1.509
 5396SOL     OW17086   5.923   5.751   2.610
 5396SOL    HW117087   5.826   5.774   2.600
 5396SOL    HW217088   5.938   5.654   2.590
 5397SOL     OW17089   6.317   1.303   3.158
 5397SOL    HW117090   6.328   1.319   3.060
 5397SOL    HW217091   6.405   1.276   3.198
 5398SOL     OW17092   4.773   2.502   3.354
 5398SOL    HW117093   4.694   2.453   3.389
 5398SOL    HW217094   4.856   2.450   3.372
 5399SOL     OW17095   1.695   6.895   5.288
 5399SOL    HW117096   1.622   6.897   5.357
 5399SOL    HW217097   1.754   6.975   5.300
 5400SOL     OW17098   3.590   3.327   1.440
 5400SOL    HW117099   3.616   3.371   1.526
 5400SOL    HW217100   3.666   3.334   1.375
 5401SOL     OW17101   5.938   4.490   2.172
 5401SOL    HW117102   5.950   4.579   2.214
 5401SOL    HW217103   5.871   4.497   2.098
 5402SOL     OW17104   2.138   0.244   0.925
 5402SOL    HW117105   2.079   0.301   0.868
 5402SOL    HW217106   2.142   0.283   1.017
 5403SOL     OW17107   4.977   3.321   0.273
 5403SOL    HW117108   4.931   3.233   0.283
 5403SOL    HW217109   5.002   3.335   0.177
 5404SOL     OW17110   6.419   0.988   0.857
 5404SOL    HW117111   6.418   1.010   0.955
 5404SOL    HW217112   6.384   1.067   0.806
 5405SOL     OW17113   5.139   5.656   0.002
 5405SOL    HW117114   5.130   5.584   0.070
 5405SOL    HW217115   5.132   5.617   6.935
 5406SOL     OW17116   2.682   0.194   4.195
 5406SOL    HW117117   2.722   0.285   4.209
 5406SOL    HW217118   2.586   0.196   4.222
 5407SOL     OW17119   2.522   0.844   1.388
 5407SOL    HW117120   2.434   0.889   1.373
 5407SOL    HW217121   2.550   0.797   1.305
 5408SOL     OW17122   2.504   2.571   4.601
 5408SOL    HW117123   2.510   2.639   4.675
 5408SOL    HW217124   2.429   2.595   4.540
 5409SOL     OW17125   0.824   2.435   1.202
 5409SOL    HW117126   0.892   2.391   1.261
 5409SOL    HW217127   0.732   2.407   1.229
 5410SOL     OW17128   0.814   2.029   0.822
 5410SOL    HW117129   0.824   2.128   0.815
 5410SOL    HW217130   0.833   1.988   0.733
 5411SOL     OW17131   4.140   5.426   7.019
 5411SOL    HW117132   4.142   5.376   6.932
 5411SOL    HW217133   4.192   5.374   0.063
 5412SOL     OW17134   0.426   2.126   6.210
 5412SOL    HW117135   0.401   2.043   6.261
 5412SOL    HW217136   0.387   2.122   6.118
 5413SOL     OW17137   6.802   6.738   5.064
 5413SOL    HW117138   6.747   6.754   4.982
 5413SOL    HW217139   6.761   6.665   5.118
 5414SOL     OW17140   6.470   4.291   5.725
 5414SOL    HW117141   6.384   4.239   5.725
 5414SOL    HW217142   6.546   4.228   5.741
 5415SOL     OW17143   3.302   0.208   0.893
 5415SOL    HW117144   3.389   0.189   0.847
 5415SOL    HW217145   3.229   0.156   0.849
 5416SOL     OW17146   3.368   4.796   5.619
 5416SOL    HW117147   3.465   4.819   5.619
 5416SOL    HW217148   3.355   4.703   5.583
 5417SOL     OW17149   4.761   5.918   3.712
 5417SOL    HW117150   4.705   5.916   3.796
 5417SOL    HW217151   4.856   5.901   3.736
 5418SOL     OW17152   6.058   4.226   4.410
 5418SOL    HW117153   6.030   4.131   4.422
 5418SOL    HW217154   6.009   4.284   4.476
 5419SOL     OW17155   3.645   6.953   6.594
 5419SOL    HW117156   3.676   6.871   6.547
 5419SOL    HW217157   3.694   0.008   6.557
 5420SOL     OW17158   1.585   1.370   1.190
 5420SOL    HW117159   1.526   1.367   1.109
 5420SOL    HW217160   1.580   1.282   1.238
 5421SOL     OW17161   3.499   4.908   2.394
 5421SOL    HW117162   3.440   4.903   2.475
 5421SOL    HW217163   3.443   4.919   2.312
 5422SOL     OW17164   2.273   6.101   3.680
 5422SOL    HW117165   2.281   6.039   3.602
 5422SOL    HW217166   2.188   6.154   3.672
 5423SOL     OW17167   6.811   6.135   2.646
 5423SOL    HW117168   6.770   6.225   2.635
 5423SOL    HW217169   6.838   6.121   2.741
 5424SOL     OW17170   4.560   4.216   5.269
 5424SOL    HW117171   4.563   4.141   5.335
 5424SOL    HW217172   4.616   4.192   5.189
 5425SOL     OW17173   0.297   3.691   6.408
 5425SOL    HW117174   0.304   3.780   6.363
 5425SOL    HW217175   0.299   3.618   6.340
 5426SOL     OW17176   5.729   5.128   2.038
 5426SOL    HW117177   5.697   5.200   1.976
 5426SOL    HW217178   5.657   5.107   2.104
 5427SOL     OW17179   4.829   2.335   6.822
 5427SOL    HW117180   4.838   2.253   6.879
 5427SOL    HW217181   4.920   2.373   6.804
 5428SOL     OW17182   6.551   5.269   3.035
 5428SOL    HW117183   6.520   5.186   2.990
 5428SOL    HW217184   6.650   5.265   3.050
 5429SOL     OW17185   2.639   0.485   3.923
 5429SOL    HW117186   2.721   0.429   3.920
 5429SOL    HW217187   2.558   0.427   3.913
 5430SOL     OW17188   2.723   3.579   6.387
 5430SOL    HW117189   2.767   3.668   6.403
 5430SOL    HW217190   2.711   3.531   6.474
 5431SOL     OW17191   2.975   5.160   5.960
 5431SOL    HW117192   2.876   5.172   5.966
 5431SOL    HW217193   3.020   5.248   5.976
 5432SOL     OW17194   5.796   5.947   1.449
 5432SOL    HW117195   5.741   6.026   1.426
 5432SOL    HW217196   5.841   5.962   1.537
 5433SOL     OW17197   1.673   0.147   0.731
 5433SOL    HW117198   1.674   0.048   0.748
 5433SOL    HW217199   1.580   0.176   0.708
 5434SOL     OW17200   4.979   0.805   5.557
 5434SOL    HW117201   5.072   0.839   5.571
 5434SOL    HW217202   4.981   0.708   5.534
 5435SOL     OW17203   6.045   3.743   1.002
 5435SOL    HW117204   6.097   3.706   1.080
 5435SOL    HW217205   6.097   3.817   0.960
 5436SOL     OW17206   1.789   5.013   2.314
 5436SOL    HW117207   1.712   5.017   2.379
 5436SOL    HW217208   1.767   5.069   2.234
 5437SOL     OW17209   3.762   5.629   0.319
 5437SOL    HW117210   3.835   5.688   0.285
 5437SOL    HW217211   3.794   5.579   0.399
 5438SOL     OW17212   4.555   4.647   2.881
 5438SOL    HW117213   4.594   4.727   2.835
 5438SOL    HW217214   4.561   4.568   2.820
 5439SOL     OW17215   0.803   4.436   0.982
 5439SOL    HW117216   0.765   4.384   0.905
 5439SOL    HW217217   0.901   4.418   0.989
 5440SOL     OW17218   5.498   6.026   3.409
 5440SOL    HW117219   5.445   5.982   3.481
 5440SOL    HW217220   5.563   6.091   3.450
 5441SOL     OW17221   4.540   2.492   3.751
 5441SOL    HW117222   4.543   2.492   3.851
 5441SOL    HW217223   4.456   2.448   3.720
 5442SOL     OW17224   5.101   0.027   4.655
 5442SOL    HW117225   5.066   7.015   4.569
 5442SOL    HW217226   5.053   7.009   4.731
 5443SOL     OW17227   4.979   6.780   4.688
 5443SOL    HW117228   4.951   6.815   4.598
 5443SOL    HW217229   5.033   6.697   4.676
 5444SOL     OW17230   0.219   0.835   3.974
 5444SOL    HW117231   0.124   0.806   3.980
 5444SOL    HW217232   0.265   0.815   4.061
 5445SOL     OW17233   5.414   5.767   5.810
 5445SOL    HW117234   5.323   5.790   5.845
 5445SOL    HW217235   5.404   5.697   5.738
 5446SOL     OW17236   0.446   4.240   5.906
 5446SOL    HW117237   0.546   4.247   5.913
 5446SOL    HW217238   0.415   4.288   5.824
 5447SOL     OW17239   1.332   1.388   0.546
 5447SOL    HW117240   1.347   1.485   0.566
 5447SOL    HW217241   1.420   1.344   0.527
 5448SOL     OW17242   3.873   5.684   3.686
 5448SOL    HW117243   3.819   5.667   3.769
 5448SOL    HW217244   3.926   5.603   3.663
 5449SOL     OW17245   3.353   1.731   1.790
 5449SOL    HW117246   3.319   1.779   1.870
 5449SOL    HW217247   3.283   1.732   1.718
 5450SOL     OW17248   3.980   5.817   1.903
 5450SOL    HW117249   3.920   5.745   1.869
 5450SOL    HW217250   4.021   5.866   1.826
 5451SOL     OW17251   1.344   0.650   3.335
 5451SOL    HW117252   1.408   0.724   3.314
 5451SOL    HW217253   1.251   0.687   3.342
 5452SOL     OW17254   2.011   4.339   2.176
 5452SOL    HW117255   1.992   4.383   2.088
 5452SOL    HW217256   1.939   4.363   2.242
 5453SOL     OW17257   5.685   4.336   3.147
 5453SOL    HW117258   5.763   4.293   3.192
 5453SOL    HW217259   5.604   4.278   3.157
 5454SOL     OW17260   6.024   5.354   3.517
 5454SOL    HW117261   5.940   5.368   3.569
 5454SOL    HW217262   6.039   5.432   3.456
 5455SOL     OW17263   0.280   2.052   2.351
 5455SOL    HW117264   0.306   1.995   2.429
 5455SOL    HW217265   0.199   2.106   2.374
 5456SOL     OW17266   5.268   0.924   6.395
 5456SOL    HW117267   5.263   0.984   6.474
 5456SOL    HW217268   5.352   0.943   6.344
 5457SOL     OW17269   6.099   2.203   0.760
 5457SOL    HW117270   6.020   2.153   0.725
 5457SOL    HW217271   6.072   2.295   0.786
 5458SOL     OW17272   6.017   4.524   1.122
 5458SOL    HW117273   6.007   4.605   1.180
 5458SOL    HW217274   6.109   4.523   1.082
 5459SOL     OW17275   2.105   4.410   5.650
 5459SOL    HW117276   2.135   4.356   5.728
 5459SOL    HW217277   2.181   4.423   5.586
 5460SOL     OW17278   1.679   0.494   0.399
 5460SOL    HW117279   1.581   0.510   0.399
 5460SOL    HW217280   1.727   0.577   0.373
 5461SOL     OW17281   0.094   1.337   6.719
 5461SOL    HW117282   0.026   1.379   6.779
 5461SOL    HW217283   0.054   1.257   6.675
 5462SOL     OW17284   4.893   6.276   6.648
 5462SOL    HW117285   4.923   6.196   6.701
 5462SOL    HW217286   4.971   6.337   6.634
 5463SOL     OW17287   0.125   2.659   7.025
 5463SOL    HW117288   0.051   2.698   0.054
 5463SOL    HW217289   0.187   2.732   6.995
 5464SOL     OW17290   6.147   6.434   5.539
 5464SOL    HW117291   6.217   6.402   5.475
 5464SOL    HW217292   6.069   6.371   5.538
 5465SOL     OW17293   0.062   6.258   3.618
 5465SOL    HW117294   0.151   6.290   3.585
 5465SOL    HW217295   0.007   6.228   3.540
 5466SOL     OW17296   5.893   2.833   5.303
 5466SOL    HW117297   5.877   2.853   5.400
 5466SOL    HW217298   5.808   2.847   5.252
 5467SOL     OW17299   5.577   3.654   3.564
 5467SOL    HW117300   5.637   3.605   3.627
 5467SOL    HW217301   5.506   3.702   3.616
 5468SOL     OW17302   6.431   1.749   2.435
 5468SOL    HW117303   6.480   1.667   2.466
 5468SOL    HW217304   6.451   1.825   2.497
 5469SOL     OW17305   1.855   0.885   5.471
 5469SOL    HW117306   1.835   0.960   5.409
 5469SOL    HW217307   1.846   0.916   5.566
 5470SOL     OW17308   4.096   5.664   4.584
 5470SOL    HW117309   4.045   5.588   4.624
 5470SOL    HW217310   4.070   5.749   4.630
 5471SOL     OW17311   5.071   0.046   2.295
 5471SOL    HW117312   5.097   6.986   2.342
 5471SOL    HW217313   5.038   0.112   2.362
 5472SOL     OW17314   3.415   1.449   6.019
 5472SOL    HW117315   3.319   1.448   6.046
 5472SOL    HW217316   3.422   1.437   5.921
 5473SOL     OW17317   2.031   4.542   1.518
 5473SOL    HW117318   2.119   4.569   1.558
 5473SOL    HW217319   2.048   4.484   1.438
 5474SOL     OW17320   0.576   5.441   3.498
 5474SOL    HW117321   0.526   5.520   3.535
 5474SOL    HW217322   0.664   5.433   3.545
 5475SOL     OW17323   0.680   1.849   6.867
 5475SOL    HW117324   0.678   1.926   6.803
 5475SOL    HW217325   0.613   1.863   6.939
 5476SOL     OW17326   2.670   6.454   5.836
 5476SOL    HW117327   2.575   6.444   5.808
 5476SOL    HW217328   2.678   6.529   5.903
 5477SOL     OW17329   2.176   5.170   4.083
 5477SOL    HW117330   2.146   5.122   4.165
 5477SOL    HW217331   2.155   5.267   4.092
 5478SOL     OW17332   6.136   4.773   6.329
 5478SOL    HW117333   6.179   4.684   6.312
 5478SOL    HW217334   6.183   4.844   6.278
 5479SOL     OW17335   4.126   1.790   4.827
 5479SOL    HW117336   4.112   1.828   4.918
 5479SOL    HW217337   4.207   1.833   4.785
 5480SOL     OW17338   6.227   4.465   5.142
 5480SOL    HW117339   6.205   4.514   5.057
 5480SOL    HW217340   6.307   4.407   5.128
 5481SOL     OW17341   4.040   1.101   6.281
 5481SOL    HW117342   4.068   1.076   6.374
 5481SOL    HW217343   4.058   1.198   6.266
 5482SOL     OW17344   3.747   3.941   1.803
 5482SOL    HW117345   3.835   3.988   1.805
 5482SOL    HW217346   3.739   3.889   1.719
 5483SOL     OW17347   6.250   3.225   5.912
 5483SOL    HW117348   6.292   3.257   5.996
 5483SOL    HW217349   6.158   3.265   5.903
 5484SOL     OW17350   6.878   6.251   4.053
 5484SOL    HW117351   6.956   6.295   4.010
 5484SOL    HW217352   6.905   6.213   4.141
 5485SOL     OW17353   3.541   0.153   4.643
 5485SOL    HW117354   3.608   0.080   4.627
 5485SOL    HW217355   3.585   0.230   4.689
 5486SOL     OW17356   1.641   0.450   3.608
 5486SOL    HW117357   1.579   0.391   3.661
 5486SOL    HW217358   1.665   0.530   3.663
 5487SOL     OW17359   6.371   4.378   0.642
 5487SOL    HW117360   6.423   4.293   0.639
 5487SOL    HW217361   6.327   4.387   0.731
 5488SOL     OW17362   4.641   2.256   0.152
 5488SOL    HW117363   4.736   2.236   0.179
 5488SOL    HW217364   4.605   2.179   0.099
 5489SOL     OW17365   1.513   4.456   2.550
 5489SOL    HW117366   1.484   4.517   2.623
 5489SOL    HW217367   1.487   4.362   2.573
 5490SOL     OW17368   3.583   0.117   0.904
 5490SOL    HW117369   3.592   0.167   0.990
 5490SOL    HW217370   3.625   0.026   0.913
 5491SOL     OW17371   1.316   4.743   0.317
 5491SOL    HW117372   1.250   4.668   0.317
 5491SOL    HW217373   1.409   4.706   0.326
 5492SOL     OW17374   1.335   1.775   6.399
 5492SOL    HW117375   1.286   1.720   6.467
 5492SOL    HW217376   1.339   1.870   6.429
 5493SOL     OW17377   3.733   2.930   5.793
 5493SOL    HW117378   3.801   2.988   5.749
 5493SOL    HW217379   3.773   2.887   5.874
 5494SOL     OW17380   6.894   3.442   0.691
 5494SOL    HW117381   6.839   3.499   0.752
 5494SOL    HW217382   6.914   3.492   0.607
 5495SOL     OW17383   3.652   4.098   1.527
 5495SOL    HW117384   3.685   4.184   1.566
 5495SOL    HW217385   3.710   4.071   1.450
 5496SOL     OW17386   3.645   5.997   1.938
 5496SOL    HW117387   3.658   5.940   1.857
 5496SOL    HW217388   3.733   6.008   1.985
 5497SOL     OW17389   0.376   2.013   2.949
 5497SOL    HW117390   0.471   1.986   2.930
 5497SOL    HW217391   0.330   2.036   2.863
 5498SOL     OW17392   4.479   1.396   6.118
 5498SOL    HW117393   4.493   1.479   6.065
 5498SOL    HW217394   4.553   1.332   6.101
 5499SOL     OW17395   0.439   0.647   3.640
 5499SOL    HW117396   0.427   0.632   3.542
 5499SOL    HW217397   0.531   0.618   3.667
 5500SOL     OW17398   2.043   5.476   0.050
 5500SOL    HW117399   2.001   5.399   0.098
 5500SOL    HW217400   2.135   5.450   0.019
 5501SOL     OW17401   2.603   0.308   2.170
 5501SOL    HW117402   2.553   0.337   2.088
 5501SOL    HW217403   2.680   0.370   2.185
 5502SOL     OW17404   5.898   4.041   5.639
 5502SOL    HW117405   5.905   4.052   5.540
 5502SOL    HW217406   5.871   4.128   5.680
 5503SOL     OW17407   0.987   4.736   2.991
 5503SOL    HW117408   1.073   4.688   2.972
 5503SOL    HW217409   0.983   4.820   2.936
 5504SOL     OW17410   3.260   0.613   4.886
 5504SOL    HW117411   3.295   0.706   4.894
 5504SOL    HW217412   3.314   0.562   4.819
 5505SOL     OW17413   1.988   6.130   4.921
 5505SOL    HW117414   2.054   6.203   4.905
 5505SOL    HW217415   1.955   6.094   4.833
 5506SOL     OW17416   6.710   0.628   4.617
 5506SOL    HW117417   6.664   0.708   4.655
 5506SOL    HW217418   6.687   0.547   4.672
 5507SOL     OW17419   2.206   6.206   2.940
 5507SOL    HW117420   2.200   6.108   2.924
 5507SOL    HW217421   2.298   6.238   2.915
 5508SOL     OW17422   2.527   0.573   6.567
 5508SOL    HW117423   2.427   0.581   6.564
 5508SOL    HW217424   2.568   0.647   6.513
 5509SOL     OW17425   6.025   6.029   0.181
 5509SOL    HW117426   5.960   5.968   0.227
 5509SOL    HW217427   6.051   6.102   0.243
 5510SOL     OW17428   4.250   6.820   6.642
 5510SOL    HW117429   4.307   6.902   6.645
 5510SOL    HW217430   4.302   6.746   6.598
 5511SOL     OW17431   1.324   0.464   2.458
 5511SOL    HW117432   1.375   0.380   2.437
 5511SOL    HW217433   1.384   0.527   2.507
 5512SOL     OW17434   6.727   2.096   0.700
 5512SOL    HW117435   6.754   2.140   0.615
 5512SOL    HW217436   6.685   2.007   0.680
 5513SOL     OW17437   4.659   4.416   4.903
 5513SOL    HW117438   4.606   4.501   4.903
 5513SOL    HW217439   4.744   4.430   4.953
 5514SOL     OW17440   5.823   4.882   2.829
 5514SOL    HW117441   5.780   4.839   2.750
 5514SOL    HW217442   5.904   4.933   2.799
 5515SOL     OW17443   6.664   2.752   1.802
 5515SOL    HW117444   6.588   2.812   1.827
 5515SOL    HW217445   6.672   2.748   1.702
 5516SOL     OW17446   1.806   3.064   0.296
 5516SOL    HW117447   1.780   3.152   0.255
 5516SOL    HW217448   1.874   3.019   0.239
 5517SOL     OW17449   3.238   2.222   1.601
 5517SOL    HW117450   3.251   2.315   1.568
 5517SOL    HW217451   3.327   2.183   1.625
 5518SOL     OW17452   5.889   5.110   6.240
 5518SOL    HW117453   5.983   5.099   6.210
 5518SOL    HW217454   5.838   5.026   6.223
 5519SOL     OW17455   5.294   3.776   3.065
 5519SOL    HW117456   5.216   3.836   3.049
 5519SOL    HW217457   5.270   3.710   3.137
 5520SOL     OW17458   1.392   3.981   3.159
 5520SOL    HW117459   1.326   3.970   3.233
 5520SOL    HW217460   1.365   4.058   3.101
 5521SOL     OW17461   5.065   6.199   1.965
 5521SOL    HW117462   5.055   6.271   2.034
 5521SOL    HW217463   5.001   6.216   1.890
 5522SOL     OW17464   2.399   3.655   1.321
 5522SOL    HW117465   2.355   3.676   1.233
 5522SOL    HW217466   2.469   3.585   1.307
 5523SOL     OW17467   3.562   6.965   3.129
 5523SOL    HW117468   3.629   6.965   3.203
 5523SOL    HW217469   3.495   6.893   3.145
 5524SOL     OW17470   0.226   5.689   5.147
 5524SOL    HW117471   0.211   5.593   5.169
 5524SOL    HW217472   0.141   5.740   5.162
 5525SOL     OW17473   6.692   4.913   0.017
 5525SOL    HW117474   6.764   4.981   0.033
 5525SOL    HW217475   6.669   4.869   0.104
 5526SOL     OW17476   5.998   3.599   4.095
 5526SOL    HW117477   6.088   3.556   4.100
 5526SOL    HW217478   5.989   3.665   4.170
 5527SOL     OW17479   0.560   2.962   2.129
 5527SOL    HW117480   0.538   2.887   2.067
 5527SOL    HW217481   0.645   3.006   2.099
 5528SOL     OW17482   0.374   2.300   5.726
 5528SOL    HW117483   0.352   2.276   5.820
 5528SOL    HW217484   0.396   2.217   5.675
 5529SOL     OW17485   2.008   0.075   4.867
 5529SOL    HW117486   1.998   0.016   4.947
 5529SOL    HW217487   2.042   0.164   4.896
 5530SOL     OW17488   0.079   2.258   1.694
 5530SOL    HW117489   0.111   2.326   1.628
 5530SOL    HW217490   0.102   2.166   1.661
 5531SOL     OW17491   4.105   3.380   4.684
 5531SOL    HW117492   4.094   3.341   4.775
 5531SOL    HW217493   4.029   3.443   4.664
 5532SOL     OW17494   1.490   0.758   0.668
 5532SOL    HW117495   1.401   0.723   0.641
 5532SOL    HW217496   1.481   0.852   0.700
 5533SOL     OW17497   2.683   1.185   2.753
 5533SOL    HW117498   2.701   1.111   2.818
 5533SOL    HW217499   2.657   1.145   2.665
 5534SOL     OW17500   0.977   3.157   6.813
 5534SOL    HW117501   0.943   3.222   6.881
 5534SOL    HW217502   0.910   3.085   6.799
 5535SOL     OW17503   0.096   3.496   2.651
 5535SOL    HW117504   0.075   3.518   2.746
 5535SOL    HW217505   0.013   3.506   2.595
 5536SOL     OW17506   2.686   0.826   4.237
 5536SOL    HW117507   2.724   0.833   4.329
 5536SOL    HW217508   2.616   0.755   4.236
 5537SOL     OW17509   3.775   0.650   4.485
 5537SOL    HW117510   3.730   0.722   4.432
 5537SOL    HW217511   3.859   0.686   4.525
 5538SOL     OW17512   4.296   0.149   5.284
 5538SOL    HW117513   4.249   0.089   5.220
 5538SOL    HW217514   4.271   0.244   5.264
 5539SOL     OW17515   0.471   1.847   1.390
 5539SOL    HW117516   0.496   1.939   1.420
 5539SOL    HW217517   0.383   1.822   1.430
 5540SOL     OW17518   5.085   2.742   1.648
 5540SOL    HW117519   5.077   2.839   1.670
 5540SOL    HW217520   5.181   2.714   1.651
 5541SOL     OW17521   5.121   3.192   5.925
 5541SOL    HW117522   5.036   3.222   5.969
 5541SOL    HW217523   5.099   3.152   5.836
 5542SOL     OW17524   5.922   5.693   5.734
 5542SOL    HW117525   5.995   5.638   5.773
 5542SOL    HW217526   5.868   5.637   5.671
 5543SOL     OW17527   2.623   5.714   6.953
 5543SOL    HW117528   2.696   5.660   6.994
 5543SOL    HW217529   2.655   5.757   6.870
 5544SOL     OW17530   5.530   5.316   5.448
 5544SOL    HW117531   5.607   5.360   5.402
 5544SOL    HW217532   5.454   5.305   5.384
 5545SOL     OW17533   4.665   0.973   2.599
 5545SOL    HW117534   4.679   0.926   2.512
 5545SOL    HW217535   4.571   0.958   2.631
 5546SOL     OW17536   0.513   6.293   4.400
 5546SOL    HW117537   0.457   6.332   4.327
 5546SOL    HW217538   0.608   6.289   4.371
 5547SOL     OW17539   3.714   0.733   5.230
 5547SOL    HW117540   3.756   0.690   5.310
 5547SOL    HW217541   3.698   0.830   5.248
 5548SOL     OW17542   6.412   3.883   5.862
 5548SOL    HW117543   6.432   3.972   5.901
 5548SOL    HW217544   6.320   3.883   5.822
 5549SOL     OW17545   4.262   3.539   1.616
 5549SOL    HW117546   4.278   3.441   1.610
 5549SOL    HW217547   4.233   3.574   1.527
 5550SOL     OW17548   2.377   4.283   3.053
 5550SOL    HW117549   2.461   4.338   3.058
 5550SOL    HW217550   2.395   4.191   3.087
 5551SOL     OW17551   1.545   6.580   2.633
 5551SOL    HW117552   1.478   6.550   2.701
 5551SOL    HW217553   1.506   6.570   2.541
 5552SOL     OW17554   5.884   0.639   6.730
 5552SOL    HW117555   5.899   0.702   6.654
 5552SOL    HW217556   5.843   0.554   6.695
 5553SOL     OW17557   4.143   6.676   5.934
 5553SOL    HW117558   4.060   6.684   5.879
 5553SOL    HW217559   4.218   6.724   5.888
 5554SOL     OW17560   4.892   3.326   1.869
 5554SOL    HW117561   4.890   3.291   1.775
 5554SOL    HW217562   4.922   3.253   1.931
 5555SOL     OW17563   1.290   3.429   2.090
 5555SOL    HW117564   1.253   3.410   1.999
 5555SOL    HW217565   1.390   3.422   2.087
 5556SOL     OW17566   6.256   0.634   4.012
 5556SOL    HW117567   6.233   0.681   4.097
 5556SOL    HW217568   6.271   0.701   3.939
 5557SOL     OW17569   3.562   5.423   1.842
 5557SOL    HW117570   3.561   5.523   1.842
 5557SOL    HW217571   3.597   5.390   1.931
 5558SOL     OW17572   3.291   3.144   6.553
 5558SOL    HW117573   3.291   3.226   6.611
 5558SOL    HW217574   3.218   3.151   6.486
 5559SOL     OW17575   1.205   0.680   2.081
 5559SOL    HW117576   1.207   0.584   2.053
 5559SOL    HW217577   1.294   0.705   2.120
 5560SOL     OW17578   0.297   5.540   1.463
 5560SOL    HW117579   0.316   5.500   1.553
 5560SOL    HW217580   0.382   5.548   1.412
 5561SOL     OW17581   2.477   0.630   4.518
 5561SOL    HW117582   2.447   0.681   4.598
 5561SOL    HW217583   2.404   0.628   4.450
 5562SOL     OW17584   4.445   3.310   0.166
 5562SOL    HW117585   4.485   3.219   0.150
 5562SOL    HW217586   4.518   3.377   0.177
 5563SOL     OW17587   2.979   5.320   2.939
 5563SOL    HW117588   3.074   5.332   2.968
 5563SOL    HW217589   2.923   5.394   2.976
 5564SOL     OW17590   4.536   6.909   6.466
 5564SOL    HW117591   4.474   6.986   6.450
 5564SOL    HW217592   4.570   6.913   6.560
 5565SOL     OW17593   3.544   2.390   6.352
 5565SOL    HW117594   3.575   2.298   6.330
 5565SOL    HW217595   3.492   2.427   6.275
 5566SOL     OW17596   1.972   4.351   0.046
 5566SOL    HW117597   1.918   4.272   0.015
 5566SOL    HW217598   2.043   4.372   7.003
 5567SOL     OW17599   0.147   4.053   1.476
 5567SOL    HW117600   0.120   4.148   1.487
 5567SOL    HW217601   0.117   4.019   1.387
 5568SOL     OW17602   4.922   1.348   3.667
 5568SOL    HW117603   4.900   1.250   3.671
 5568SOL    HW217604   4.896   1.392   3.752
 5569SOL     OW17605   1.755   2.073   2.287
 5569SOL    HW117606   1.770   2.148   2.351
 5569SOL    HW217607   1.690   2.103   2.216
 5570SOL     OW17608   5.664   3.753   3.951
 5570SOL    HW117609   5.592   3.735   3.884
 5570SOL    HW217610   5.643   3.836   4.002
 5571SOL     OW17611   6.539   5.662   2.078
 5571SOL    HW117612   6.593   5.578   2.080
 5571SOL    HW217613   6.599   5.740   2.097
 5572SOL     OW17614   1.247   4.375   4.674
 5572SOL    HW117615   1.147   4.376   4.664
 5572SOL    HW217616   1.286   4.447   4.618
 5573SOL     OW17617   1.093   5.859   5.068
 5573SOL    HW117618   1.059   5.949   5.094
 5573SOL    HW217619   1.108   5.804   5.151
 5574SOL     OW17620   0.136   2.638   1.370
 5574SOL    HW117621   0.162   2.550   1.411
 5574SOL    HW217622   0.074   2.686   1.432
 5575SOL     OW17623   6.307   1.178   0.678
 5575SOL    HW117624   6.360   1.127   0.610
 5575SOL    HW217625   6.357   1.261   0.703
 5576SOL     OW17626   1.533   4.676   2.328
 5576SOL    HW117627   1.556   4.596   2.384
 5576SOL    HW217628   1.539   4.759   2.384
 5577SOL     OW17629   2.600   2.547   6.638
 5577SOL    HW117630   2.617   2.607   6.717
 5577SOL    HW217631   2.552   2.598   6.567
 5578SOL     OW17632   3.902   3.989   2.072
 5578SOL    HW117633   3.868   4.000   2.165
 5578SOL    HW217634   3.972   3.918   2.069
 5579SOL     OW17635   0.632   3.922   0.433
 5579SOL    HW117636   0.662   3.828   0.415
 5579SOL    HW217637   0.671   3.983   0.364
 5580SOL     OW17638   4.910   2.041   5.758
 5580SOL    HW117639   4.914   2.030   5.658
 5580SOL    HW217640   4.995   2.081   5.790
 5581SOL     OW17641   1.603   0.586   2.000
 5581SOL    HW117642   1.533   0.648   2.036
 5581SOL    HW217643   1.646   0.537   2.075
 5582SOL     OW17644   3.409   3.936   6.458
 5582SOL    HW117645   3.485   3.927   6.393
 5582SOL    HW217646   3.412   4.026   6.501
 5583SOL     OW17647   4.584   0.914   2.960
 5583SOL    HW117648   4.662   0.897   2.901
 5583SOL    HW217649   4.550   1.007   2.944
 5584SOL     OW17650   6.824   3.883   4.530
 5584SOL    HW117651   6.795   3.794   4.495
 5584SOL    HW217652   6.744   3.934   4.560
 5585SOL     OW17653   5.569   5.480   3.254
 5585SOL    HW117654   5.633   5.486   3.330
 5585SOL    HW217655   5.601   5.410   3.190
 5586SOL     OW17656   0.595   3.593   5.993
 5586SOL    HW117657   0.634   3.660   5.929
 5586SOL    HW217658   0.520   3.544   5.948
 5587SOL     OW17659   4.398   6.645   0.305
 5587SOL    HW117660   4.321   6.709   0.301
 5587SOL    HW217661   4.373   6.566   0.360
 5588SOL     OW17662   2.334   5.484   2.845
 5588SOL    HW117663   2.429   5.516   2.842
 5588SOL    HW217664   2.273   5.562   2.858
 5589SOL     OW17665   6.335   3.589   5.909
 5589SOL    HW117666   6.369   3.514   5.852
 5589SOL    HW217667   6.370   3.676   5.873
 5590SOL     OW17668   0.208   5.990   3.670
 5590SOL    HW117669   0.255   5.938   3.741
 5590SOL    HW217670   0.172   6.075   3.709
 5591SOL     OW17671   6.207   2.120   1.811
 5591SOL    HW117672   6.275   2.051   1.787
 5591SOL    HW217673   6.242   2.176   1.886
 5592SOL     OW17674   2.156   5.945   3.216
 5592SOL    HW117675   2.094   6.021   3.235
 5592SOL    HW217676   2.169   5.937   3.117
 5593SOL     OW17677   0.599   3.281   0.128
 5593SOL    HW117678   0.652   3.259   0.210
 5593SOL    HW217679   0.618   3.213   0.057
 5594SOL     OW17680   5.253   0.862   5.616
 5594SOL    HW117681   5.304   0.859   5.703
 5594SOL    HW217682   5.220   0.771   5.593
 5595SOL     OW17683   0.656   1.606   4.741
 5595SOL    HW117684   0.695   1.682   4.793
 5595SOL    HW217685   0.651   1.525   4.799
 5596SOL     OW17686   4.633   0.487   2.893
 5596SOL    HW117687   4.598   0.530   2.809
 5596SOL    HW217688   4.686   0.554   2.945
 5597SOL     OW17689   4.890   2.808   4.762
 5597SOL    HW117690   4.891   2.905   4.737
 5597SOL    HW217691   4.821   2.761   4.707
 5598SOL     OW17692   4.844   3.785   4.199
 5598SOL    HW117693   4.859   3.702   4.146
 5598SOL    HW217694   4.858   3.767   4.296
 5599SOL     OW17695   1.373   1.900   3.866
 5599SOL    HW117696   1.425   1.985   3.875
 5599SOL    HW217697   1.394   1.840   3.943
 5600SOL     OW17698   1.345   1.150   1.963
 5600SOL    HW117699   1.286   1.069   1.959
 5600SOL    HW217700   1.324   1.211   1.887
 5601SOL     OW17701   2.405   0.758   5.539
 5601SOL    HW117702   2.432   0.707   5.620
 5601SOL    HW217703   2.307   0.745   5.522
 5602SOL     OW17704   6.009   1.479   1.344
 5602SOL    HW117705   6.055   1.556   1.299
 5602SOL    HW217706   6.013   1.491   1.443
 5603SOL     OW17707   5.627   2.120   6.488
 5603SOL    HW117708   5.671   2.199   6.530
 5603SOL    HW217709   5.634   2.042   6.550
 5604SOL     OW17710   6.102   1.938   4.713
 5604SOL    HW117711   6.126   1.845   4.740
 5604SOL    HW217712   6.028   1.935   4.646
 5605SOL     OW17713   0.002   1.246   5.209
 5605SOL    HW117714   0.074   1.313   5.226
 5605SOL    HW217715   6.943   1.274   5.256
 5606SOL     OW17716   4.843   6.554   0.364
 5606SOL    HW117717   4.772   6.602   0.416
 5606SOL    HW217718   4.838   6.582   0.268
 5607SOL     OW17719   5.645   1.014   2.856
 5607SOL    HW117720   5.717   0.945   2.853
 5607SOL    HW217721   5.682   1.099   2.893
 5608SOL     OW17722   4.987   0.272   4.707
 5608SOL    HW117723   5.034   0.198   4.658
 5608SOL    HW217724   5.054   0.327   4.756
 5609SOL     OW17725   3.020   6.483   1.354
 5609SOL    HW117726   3.085   6.484   1.430
 5609SOL    HW217727   3.043   6.407   1.292
 5610SOL     OW17728   3.908   6.503   0.808
 5610SOL    HW117729   3.940   6.458   0.892
 5610SOL    HW217730   3.814   6.535   0.821
 5611SOL     OW17731   1.191   5.515   2.387
 5611SOL    HW117732   1.182   5.605   2.430
 5611SOL    HW217733   1.287   5.500   2.362
 5612SOL     OW17734   3.911   2.273   6.822
 5612SOL    HW117735   3.909   2.366   6.859
 5612SOL    HW217736   3.923   2.208   6.897
 5613SOL     OW17737   5.446   4.211   3.993
 5613SOL    HW117738   5.480   4.250   3.907
 5613SOL    HW217739   5.501   4.246   4.069
 5614SOL     OW17740   4.560   2.184   4.216
 5614SOL    HW117741   4.640   2.167   4.160
 5614SOL    HW217742   4.561   2.279   4.248
 5615SOL     OW17743   0.203   1.454   4.668
 5615SOL    HW117744   0.237   1.387   4.602
 5615SOL    HW217745   0.110   1.482   4.644
 5616SOL     OW17746   2.607   2.078   4.971
 5616SOL    HW117747   2.684   2.141   4.971
 5616SOL    HW217748   2.638   1.986   4.947
 5617SOL     OW17749   3.181   0.485   5.948
 5617SOL    HW117750   3.143   0.400   5.912
 5617SOL    HW217751   3.242   0.465   6.025
 5618SOL     OW17752   0.103   4.520   4.105
 5618SOL    HW117753   0.061   4.442   4.059
 5618SOL    HW217754   0.122   4.495   4.201
 5619SOL     OW17755   2.653   3.717   5.755
 5619SOL    HW117756   2.721   3.673   5.696
 5619SOL    HW217757   2.695   3.741   5.842
 5620SOL     OW17758   4.034   3.205   1.042
 5620SOL    HW117759   4.035   3.118   1.090
 5620SOL    HW217760   4.031   3.189   0.943
 5621SOL     OW17761   1.797   1.828   6.781
 5621SOL    HW117762   1.843   1.840   6.694
 5621SOL    HW217763   1.706   1.789   6.766
 5622SOL     OW17764   4.979   0.532   6.071
 5622SOL    HW117765   5.015   0.593   6.000
 5622SOL    HW217766   5.050   0.467   6.098
 5623SOL     OW17767   2.717   6.054   5.124
 5623SOL    HW117768   2.761   5.964   5.133
 5623SOL    HW217769   2.620   6.045   5.146
 5624SOL     OW17770   0.878   4.340   3.374
 5624SOL    HW117771   0.925   4.414   3.326
 5624SOL    HW217772   0.782   4.339   3.347
 5625SOL     OW17773   6.363   1.441   4.838
 5625SOL    HW117774   6.430   1.515   4.832
 5625SOL    HW217775   6.293   1.465   4.905
 5626SOL     OW17776   2.487   6.356   3.768
 5626SOL    HW117777   2.444   6.418   3.835
 5626SOL    HW217778   2.430   6.275   3.757
 5627SOL     OW17779   0.388   5.538   6.496
 5627SOL    HW117780   0.290   5.533   6.515
 5627SOL    HW217781   0.435   5.575   6.576
 5628SOL     OW17782   1.281   2.712   0.201
 5628SOL    HW117783   1.268   2.802   0.161
 5628SOL    HW217784   1.212   2.695   0.270
 5629SOL     OW17785   3.608   4.124   2.458
 5629SOL    HW117786   3.605   4.223   2.443
 5629SOL    HW217787   3.638   4.106   2.552
 5630SOL     OW17788   2.114   4.711   0.460
 5630SOL    HW117789   2.099   4.740   0.366
 5630SOL    HW217790   2.107   4.790   0.521
 5631SOL     OW17791   4.406   1.570   0.446
 5631SOL    HW117792   4.431   1.567   0.349
 5631SOL    HW217793   4.472   1.516   0.498
 5632SOL     OW17794   3.534   2.313   5.780
 5632SOL    HW117795   3.592   2.358   5.848
 5632SOL    HW217796   3.441   2.306   5.815
 5633SOL     OW17797   6.773   3.629   4.058
 5633SOL    HW117798   6.818   3.614   3.970
 5633SOL    HW217799   6.747   3.725   4.066
 5634SOL     OW17800   2.462   5.297   4.499
 5634SOL    HW117801   2.511   5.266   4.580
 5634SOL    HW217802   2.368   5.264   4.503
 5635SOL     OW17803   2.161   3.944   5.507
 5635SOL    HW117804   2.183   4.002   5.428
 5635SOL    HW217805   2.138   3.852   5.475
 5636SOL     OW17806   4.121   6.699   3.931
 5636SOL    HW117807   4.111   6.600   3.933
 5636SOL    HW217808   4.201   6.724   3.876
 5637SOL     OW17809   4.777   6.544   3.533
 5637SOL    HW117810   4.692   6.513   3.490
 5637SOL    HW217811   4.823   6.610   3.474
 5638SOL     OW17812   6.057   3.479   1.423
 5638SOL    HW117813   6.092   3.565   1.459
 5638SOL    HW217814   5.992   3.439   1.489
 5639SOL     OW17815   1.048   0.560   0.401
 5639SOL    HW117816   1.105   0.597   0.475
 5639SOL    HW217817   0.956   0.599   0.407
 5640SOL     OW17818   3.168   0.554   3.796
 5640SOL    HW117819   3.166   0.482   3.865
 5640SOL    HW217820   3.075   0.591   3.784
 5641SOL     OW17821   0.540   5.384   5.292
 5641SOL    HW117822   0.621   5.426   5.251
 5641SOL    HW217823   0.502   5.317   5.228
 5642SOL     OW17824   2.026   6.819   5.771
 5642SOL    HW117825   2.046   6.859   5.682
 5642SOL    HW217826   2.078   6.866   5.842
 5643SOL     OW17827   4.764   1.747   5.386
 5643SOL    HW117828   4.708   1.674   5.347
 5643SOL    HW217829   4.738   1.834   5.343
 5644SOL     OW17830   3.254   0.263   4.929
 5644SOL    HW117831   3.186   0.337   4.928
 5644SOL    HW217832   3.270   0.231   4.836
 5645SOL     OW17833   6.250   4.267   3.577
 5645SOL    HW117834   6.282   4.182   3.620
 5645SOL    HW217835   6.329   4.320   3.546
 5646SOL     OW17836   1.511   5.228   3.098
 5646SOL    HW117837   1.522   5.322   3.067
 5646SOL    HW217838   1.532   5.165   3.023
 5647SOL     OW17839   4.963   6.660   1.078
 5647SOL    HW117840   5.020   6.610   1.143
 5647SOL    HW217841   5.003   6.653   0.986
 5648SOL     OW17842   1.867   5.451   2.622
 5648SOL    HW117843   1.925   5.401   2.687
 5648SOL    HW217844   1.902   5.437   2.529
 5649SOL     OW17845   0.880   6.614   3.849
 5649SOL    HW117846   0.949   6.560   3.896
 5649SOL    HW217847   0.808   6.640   3.914
 5650SOL     OW17848   1.028   4.373   1.549
 5650SOL    HW117849   0.931   4.396   1.553
 5650SOL    HW217850   1.073   4.405   1.633
 5651SOL     OW17851   1.816   1.249   0.366
 5651SOL    HW117852   1.851   1.206   0.450
 5651SOL    HW217853   1.870   1.219   0.288
 5652SOL     OW17854   6.549   6.158   1.068
 5652SOL    HW117855   6.451   6.165   1.050
 5652SOL    HW217856   6.568   6.182   1.163
 5653SOL     OW17857   6.852   6.235   6.943
 5653SOL    HW117858   6.865   6.254   6.845
 5653SOL    HW217859   6.828   6.319   6.990
 5654SOL     OW17860   0.822   5.746   4.223
 5654SOL    HW117861   0.816   5.837   4.264
 5654SOL    HW217862   0.732   5.701   4.230
 5655SOL     OW17863   0.054   2.918   3.476
 5655SOL    HW117864   0.084   3.014   3.470
 5655SOL    HW217865   7.008   2.901   3.407
 5656SOL     OW17866   7.018   3.824   6.738
 5656SOL    HW117867   0.068   3.891   6.738
 5656SOL    HW217868   6.933   3.869   6.710
 5657SOL     OW17869   5.102   3.942   5.460
 5657SOL    HW117870   5.082   3.845   5.448
 5657SOL    HW217871   5.170   3.970   5.393
 5658SOL     OW17872   2.470   3.384   5.913
 5658SOL    HW117873   2.445   3.480   5.898
 5658SOL    HW217874   2.562   3.380   5.953
 5659SOL     OW17875   3.897   3.660   6.272
 5659SOL    HW117876   3.876   3.703   6.359
 5659SOL    HW217877   3.983   3.696   6.236
 5660SOL     OW17878   4.456   6.583   5.619
 5660SOL    HW117879   4.472   6.524   5.540
 5660SOL    HW217880   4.522   6.560   5.691
 5661SOL     OW17881   1.897   5.940   4.399
 5661SOL    HW117882   1.982   5.961   4.446
 5661SOL    HW217883   1.888   5.999   4.318
 5662SOL     OW17884   2.758   0.294   2.729
 5662SOL    HW117885   2.723   0.260   2.642
 5662SOL    HW217886   2.836   0.355   2.712
 5663SOL     OW17887   2.710   2.176   0.755
 5663SOL    HW117888   2.761   2.150   0.836
 5663SOL    HW217889   2.613   2.152   0.768
 5664SOL     OW17890   6.529   3.237   3.942
 5664SOL    HW117891   6.445   3.183   3.947
 5664SOL    HW217892   6.536   3.281   3.852
 5665SOL     OW17893   1.216   6.636   0.548
 5665SOL    HW117894   1.202   6.544   0.512
 5665SOL    HW217895   1.157   6.650   0.627
 5666SOL     OW17896   6.575   0.081   3.450
 5666SOL    HW117897   6.548   0.004   3.508
 5666SOL    HW217898   6.618   0.152   3.506
 5667SOL     OW17899   1.161   5.200   4.611
 5667SOL    HW117900   1.097   5.191   4.688
 5667SOL    HW217901   1.166   5.296   4.583
 5668SOL     OW17902   6.469   3.091   3.324
 5668SOL    HW117903   6.454   2.998   3.290
 5668SOL    HW217904   6.549   3.093   3.383
 5669SOL     OW17905   6.647   5.017   0.652
 5669SOL    HW117906   6.740   5.050   0.634
 5669SOL    HW217907   6.593   5.091   0.693
 5670SOL     OW17908   1.751   3.090   3.704
 5670SOL    HW117909   1.696   3.099   3.621
 5670SOL    HW217910   1.815   3.166   3.710
 5671SOL     OW17911   6.426   5.827   5.858
 5671SOL    HW117912   6.341   5.868   5.892
 5671SOL    HW217913   6.436   5.735   5.896
 5672SOL     OW17914   5.242   4.177   5.639
 5672SOL    HW117915   5.191   4.091   5.642
 5672SOL    HW217916   5.186   4.251   5.674
 5673SOL     OW17917   1.151   6.384   1.081
 5673SOL    HW117918   1.061   6.361   1.119
 5673SOL    HW217919   1.196   6.300   1.050
 5674SOL     OW17920   1.997   4.734   4.873
 5674SOL    HW117921   2.024   4.695   4.785
 5674SOL    HW217922   1.972   4.830   4.859
 5675SOL     OW17923   4.686   2.508   0.241
 5675SOL    HW117924   4.641   2.426   0.206
 5675SOL    HW217925   4.765   2.482   0.296
 5676SOL     OW17926   2.855   1.817   2.432
 5676SOL    HW117927   2.855   1.847   2.336
 5676SOL    HW217928   2.927   1.865   2.482
 5677SOL     OW17929   0.794   0.696   0.384
 5677SOL    HW117930   0.719   0.743   0.337
 5677SOL    HW217931   0.766   0.674   0.477
 5678SOL     OW17932   4.745   1.217   2.433
 5678SOL    HW117933   4.748   1.316   2.448
 5678SOL    HW217934   4.747   1.171   2.522
 5679SOL     OW17935   5.502   1.196   4.752
 5679SOL    HW117936   5.519   1.235   4.842
 5679SOL    HW217937   5.477   1.100   4.762
 5680SOL     OW17938   2.061   5.475   6.770
 5680SOL    HW117939   2.075   5.560   6.719
 5680SOL    HW217940   2.021   5.497   6.859
 5681SOL     OW17941   0.377   3.706   2.394
 5681SOL    HW117942   0.300   3.768   2.402
 5681SOL    HW217943   0.349   3.614   2.423
 5682SOL     OW17944   2.367   5.627   3.857
 5682SOL    HW117945   2.273   5.621   3.890
 5682SOL    HW217946   2.426   5.570   3.914
 5683SOL     OW17947   3.715   2.459   5.991
 5683SOL    HW117948   3.788   2.472   6.057
 5683SOL    HW217949   3.627   2.484   6.032
 5684SOL     OW17950   2.086   3.773   6.181
 5684SOL    HW117951   2.158   3.754   6.248
 5684SOL    HW217952   1.997   3.774   6.226
 5685SOL     OW17953   2.277   2.207   3.045
 5685SOL    HW117954   2.337   2.206   2.965
 5685SOL    HW217955   2.324   2.253   3.121
 5686SOL     OW17956   3.182   1.557   4.899
 5686SOL    HW117957   3.213   1.475   4.851
 5686SOL    HW217958   3.211   1.638   4.849
 5687SOL     OW17959   1.292   5.935   6.064
 5687SOL    HW117960   1.262   5.865   6.129
 5687SOL    HW217961   1.240   6.019   6.080
 5688SOL     OW17962   1.630   2.972   2.885
 5688SOL    HW117963   1.531   2.964   2.873
 5688SOL    HW217964   1.665   3.042   2.822
 5689SOL     OW17965   2.626   0.786   1.739
 5689SOL    HW117966   2.700   0.807   1.675
 5689SOL    HW217967   2.567   0.716   1.699
 5690SOL     OW17968   1.812   5.404   6.627
 5690SOL    HW117969   1.867   5.483   6.599
 5690SOL    HW217970   1.871   5.334   6.666
 5691SOL     OW17971   3.700   0.663   2.091
 5691SOL    HW117972   3.628   0.625   2.033
 5691SOL    HW217973   3.672   0.753   2.124
 5692SOL     OW17974   4.953   4.715   1.207
 5692SOL    HW117975   4.880   4.671   1.156
 5692SOL    HW217976   4.990   4.792   1.154
 5693SOL     OW17977   4.362   0.247   1.510
 5693SOL    HW117978   4.408   0.281   1.428
 5693SOL    HW217979   4.349   0.148   1.503
 5694SOL     OW17980   0.436   0.548   2.386
 5694SOL    HW117981   0.393   0.592   2.465
 5694SOL    HW217982   0.365   0.516   2.323
 5695SOL     OW17983   1.394   1.461   2.616
 5695SOL    HW117984   1.439   1.372   2.607
 5695SOL    HW217985   1.322   1.469   2.547
 5696SOL     OW17986   1.450   6.799   4.070
 5696SOL    HW117987   1.474   6.711   4.111
 5696SOL    HW217988   1.361   6.791   4.026
 5697SOL     OW17989   5.846   2.272   2.385
 5697SOL    HW117990   5.882   2.349   2.334
 5697SOL    HW217991   5.746   2.276   2.386
 5698SOL     OW17992   1.681   4.569   4.422
 5698SOL    HW117993   1.680   4.583   4.521
 5698SOL    HW217994   1.608   4.623   4.380
 5699SOL     OW17995   2.072   2.750   2.746
 5699SOL    HW117996   2.112   2.659   2.741
 5699SOL    HW217997   2.035   2.776   2.657
 5700SOL     OW17998   6.714   6.919   3.296
 5700SOL    HW117999   6.664   6.971   3.366
 5700SOL    HW218000   6.663   6.837   3.272
 5701SOL     OW18001   6.986   0.744   1.187
 5701SOL    HW118002   6.911   0.765   1.250
 5701SOL    HW218003   6.951   0.689   1.111
 5702SOL     OW18004   1.493   6.529   4.187
 5702SOL    HW118005   1.552   6.500   4.112
 5702SOL    HW218006   1.408   6.477   4.185
 5703SOL     OW18007   6.698   4.192   6.524
 5703SOL    HW118008   6.785   4.222   6.486
 5703SOL    HW218009   6.638   4.163   6.450
 5704SOL     OW18010   4.864   3.830   2.847
 5704SOL    HW118011   4.937   3.865   2.906
 5704SOL    HW218012   4.777   3.871   2.875
 5705SOL     OW18013   5.285   6.068   6.851
 5705SOL    HW118014   5.272   5.998   6.922
 5705SOL    HW218015   5.375   6.056   6.809
 5706SOL     OW18016   5.460   2.488   1.807
 5706SOL    HW118017   5.524   2.537   1.865
 5706SOL    HW218018   5.377   2.467   1.858
 5707SOL     OW18019   6.333   0.651   0.611
 5707SOL    HW118020   6.273   0.723   0.574
 5707SOL    HW218021   6.330   0.653   0.711
 5708SOL     OW18022   5.150   6.430   2.449
 5708SOL    HW118023   5.106   6.341   2.463
 5708SOL    HW218024   5.177   6.469   2.537
 5709SOL     OW18025   0.474   0.879   2.976
 5709SOL    HW118026   0.483   0.975   2.949
 5709SOL    HW218027   0.431   0.827   2.903
 5710SOL     OW18028   3.104   2.175   0.356
 5710SOL    HW118029   3.109   2.094   0.298
 5710SOL    HW218030   3.120   2.257   0.300
 5711SOL     OW18031   5.320   0.851   1.686
 5711SOL    HW118032   5.365   0.878   1.601
 5711SOL    HW218033   5.374   0.780   1.732
 5712SOL     OW18034   6.322   6.805   0.243
 5712SOL    HW118035   6.371   6.791   0.157
 5712SOL    HW218036   6.310   6.903   0.259
 5713SOL     OW18037   3.324   4.952   1.392
 5713SOL    HW118038   3.417   4.983   1.409
 5713SOL    HW218039   3.307   4.867   1.442
 5714SOL     OW18040   7.014   6.023   0.540
 5714SOL    HW118041   6.966   6.111   0.531
 5714SOL    HW218042   7.017   5.978   0.451
 5715SOL     OW18043   7.015   0.356   2.915
 5715SOL    HW118044   0.028   0.447   2.898
 5715SOL    HW218045   7.002   0.343   3.013
 5716SOL     OW18046   0.906   5.813   6.144
 5716SOL    HW118047   0.978   5.852   6.087
 5716SOL    HW218048   0.939   5.729   6.186
 5717SOL     OW18049   2.114   5.324   1.562
 5717SOL    HW118050   2.143   5.274   1.643
 5717SOL    HW218051   2.041   5.274   1.516
 5718SOL     OW18052   1.226   3.592   0.001
 5718SOL    HW118053   1.224   3.610   6.927
 5718SOL    HW218054   1.189   3.671   0.050
 5719SOL     OW18055   2.950   3.577   0.766
 5719SOL    HW118056   2.876   3.556   0.830
 5719SOL    HW218057   2.970   3.675   0.767
 5720SOL     OW18058   1.904   6.585   4.581
 5720SOL    HW118059   1.849   6.661   4.615
 5720SOL    HW218060   1.849   6.530   4.518
 5721SOL     OW18061   5.895   4.356   0.694
 5721SOL    HW118062   5.898   4.438   0.637
 5721SOL    HW218063   5.866   4.380   0.787
 5722SOL     OW18064   6.985   2.567   5.120
 5722SOL    HW118065   6.996   2.666   5.120
 5722SOL    HW218066   0.005   2.528   5.201
 5723SOL     OW18067   4.452   3.743   0.118
 5723SOL    HW118068   4.426   3.650   0.143
 5723SOL    HW218069   4.387   3.808   0.158
 5724SOL     OW18070   5.986   3.000   4.265
 5724SOL    HW118071   5.928   2.932   4.219
 5724SOL    HW218072   5.959   3.007   4.361
 5725SOL     OW18073   6.635   4.969   4.565
 5725SOL    HW118074   6.642   4.948   4.662
 5725SOL    HW218075   6.588   5.056   4.553
 5726SOL     OW18076   5.987   5.150   4.543
 5726SOL    HW118077   6.079   5.180   4.569
 5726SOL    HW218078   5.966   5.064   4.590
 5727SOL     OW18079   6.914   2.382   4.617
 5727SOL    HW118080   6.865   2.462   4.584
 5727SOL    HW218081   7.012   2.402   4.618
 5728SOL     OW18082   5.316   6.107   5.213
 5728SOL    HW118083   5.321   6.176   5.141
 5728SOL    HW218084   5.222   6.072   5.218
 5729SOL     OW18085   1.750   2.051   6.530
 5729SOL    HW118086   1.845   2.043   6.562
 5729SOL    HW218087   1.749   2.054   6.430
 5730SOL     OW18088   6.293   4.039   6.597
 5730SOL    HW118089   6.304   4.114   6.661
 5730SOL    HW218090   6.196   4.020   6.582
 5731SOL     OW18091   6.812   0.458   2.167
 5731SOL    HW118092   6.791   0.384   2.231
 5731SOL    HW218093   6.730   0.514   2.153
 5732SOL     OW18094   0.704   6.416   3.832
 5732SOL    HW118095   0.696   6.375   3.741
 5732SOL    HW218096   0.799   6.444   3.847
 5733SOL     OW18097   4.120   6.390   5.135
 5733SOL    HW118098   4.200   6.330   5.141
 5733SOL    HW218099   4.104   6.433   5.224
 5734SOL     OW18100   1.026   6.848   5.162
 5734SOL    HW118101   1.006   6.788   5.238
 5734SOL    HW218102   1.113   6.822   5.120
 5735SOL     OW18103   3.255   1.470   0.898
 5735SOL    HW118104   3.227   1.455   0.803
 5735SOL    HW218105   3.188   1.528   0.944
 5736SOL     OW18106   0.149   4.257   0.185
 5736SOL    HW118107   0.138   4.249   0.284
 5736SOL    HW218108   0.239   4.296   0.165
 5737SOL     OW18109   5.230   6.280   0.402
 5737SOL    HW118110   5.278   6.231   0.329
 5737SOL    HW218111   5.265   6.373   0.409
 5738SOL     OW18112   1.646   3.467   6.625
 5738SOL    HW118113   1.686   3.529   6.557
 5738SOL    HW218114   1.623   3.519   6.708
 5739SOL     OW18115   1.909   1.293   6.423
 5739SOL    HW118116   1.842   1.346   6.474
 5739SOL    HW218117   1.914   1.326   6.329
 5740SOL     OW18118   4.166   5.796   0.303
 5740SOL    HW118119   4.146   5.754   0.215
 5740SOL    HW218120   4.234   5.868   0.291
 5741SOL     OW18121   0.005   5.801   4.457
 5741SOL    HW118122   0.066   5.770   4.384
 5741SOL    HW218123   6.999   5.895   4.437
 5742SOL     OW18124   5.077   6.615   2.239
 5742SOL    HW118125   5.085   6.535   2.298
 5742SOL    HW218126   4.981   6.627   2.213
 5743SOL     OW18127   3.126   6.947   4.696
 5743SOL    HW118128   3.085   6.935   4.787
 5743SOL    HW218129   3.146   6.857   4.657
 5744SOL     OW18130   4.395   0.348   0.613
 5744SOL    HW118131   4.383   0.308   0.521
 5744SOL    HW218132   4.395   0.447   0.606
 5745SOL     OW18133   3.049   1.516   4.556
 5745SOL    HW118134   3.095   1.602   4.533
 5745SOL    HW218135   3.117   1.450   4.588
 5746SOL     OW18136   4.950   0.530   0.444
 5746SOL    HW118137   4.896   0.503   0.364
 5746SOL    HW218138   4.896   0.518   0.526
 5747SOL     OW18139   0.212   5.452   2.698
 5747SOL    HW118140   0.199   5.360   2.660
 5747SOL    HW218141   0.281   5.500   2.645
 5748SOL     OW18142   1.927   4.817   1.508
 5748SOL    HW118143   1.990   4.744   1.485
 5748SOL    HW218144   1.926   4.830   1.607
 5749SOL     OW18145   2.422   1.288   4.099
 5749SOL    HW118146   2.335   1.298   4.147
 5749SOL    HW218147   2.438   1.192   4.078
 5750SOL     OW18148   6.048   5.233   5.035
 5750SOL    HW118149   6.000   5.145   5.042
 5750SOL    HW218150   5.981   5.307   5.033
 5751SOL     OW18151   2.252   2.446   4.946
 5751SOL    HW118152   2.159   2.415   4.962
 5751SOL    HW218153   2.312   2.408   5.017
 5752SOL     OW18154   6.365   1.079   6.172
 5752SOL    HW118155   6.427   1.077   6.094
 5752SOL    HW218156   6.301   1.156   6.163
 5753SOL     OW18157   3.486   3.091   6.234
 5753SOL    HW118158   3.424   3.165   6.209
 5753SOL    HW218159   3.489   3.083   6.334
 5754SOL     OW18160   5.855   5.520   1.736
 5754SOL    HW118161   5.757   5.541   1.730
 5754SOL    HW218162   5.908   5.605   1.741
 5755SOL     OW18163   2.889   3.486   6.146
 5755SOL    HW118164   2.836   3.527   6.220
 5755SOL    HW218165   2.975   3.537   6.135
 5756SOL     OW18166   6.411   4.582   3.388
 5756SOL    HW118167   6.347   4.573   3.465
 5756SOL    HW218168   6.489   4.522   3.402
 5757SOL     OW18169   6.473   6.195   1.548
 5757SOL    HW118170   6.511   6.279   1.588
 5757SOL    HW218171   6.544   6.148   1.496
 5758SOL     OW18172   2.596   2.340   4.715
 5758SOL    HW118173   2.544   2.422   4.693
 5758SOL    HW218174   2.654   2.357   4.795
 5759SOL     OW18175   4.993   2.407   6.436
 5759SOL    HW118176   5.071   2.346   6.423
 5759SOL    HW218177   4.914   2.354   6.465
 5760SOL     OW18178   1.730   6.247   2.139
 5760SOL    HW118179   1.775   6.230   2.051
 5760SOL    HW218180   1.691   6.339   2.139
 5761SOL     OW18181   5.863   0.086   5.032
 5761SOL    HW118182   5.862   0.088   5.132
 5761SOL    HW218183   5.878   7.017   5.000
 5762SOL     OW18184   5.751   7.004   0.362
 5762SOL    HW118185   5.771   0.072   0.331
 5762SOL    HW218186   5.830   6.945   0.344
 5763SOL     OW18187   0.813   6.694   0.557
 5763SOL    HW118188   0.891   6.662   0.610
 5763SOL    HW218189   0.759   6.616   0.525
 5764SOL     OW18190   5.915   4.478   5.500
 5764SOL    HW118191   5.881   4.413   5.568
 5764SOL    HW218192   6.014   4.468   5.491
 5765SOL     OW18193   6.052   4.302   6.804
 5765SOL    HW118194   5.984   4.299   6.877
 5765SOL    HW218195   6.137   4.342   6.839
 5766SOL     OW18196   3.377   1.457   1.728
 5766SOL    HW118197   3.294   1.406   1.703
 5766SOL    HW218198   3.351   1.548   1.761
 5767SOL     OW18199   1.085   6.133   0.940
 5767SOL    HW118200   1.048   6.063   0.879
 5767SOL    HW218201   1.144   6.090   1.008
 5768SOL     OW18202   0.008   0.737   3.355
 5768SOL    HW118203   6.953   0.796   3.369
 5768SOL    HW218204   0.087   0.776   3.403
 5769SOL     OW18205   2.657   6.737   3.173
 5769SOL    HW118206   2.659   6.638   3.180
 5769SOL    HW218207   2.729   6.776   3.231
 5770SOL     OW18208   6.809   6.817   1.255
 5770SOL    HW118209   6.823   6.735   1.200
 5770SOL    HW218210   6.891   6.834   1.310
 5771SOL     OW18211   1.271   0.295   1.003
 5771SOL    HW118212   1.209   0.282   0.926
 5771SOL    HW218213   1.357   0.335   0.971
 5772SOL     OW18214   5.922   2.417   0.802
 5772SOL    HW118215   5.824   2.424   0.820
 5772SOL    HW218216   5.952   2.497   0.751
 5773SOL     OW18217   5.590   6.391   4.136
 5773SOL    HW118218   5.581   6.363   4.232
 5773SOL    HW218219   5.504   6.433   4.105
 5774SOL     OW18220   2.544   4.525   3.106
 5774SOL    HW118221   2.617   4.582   3.067
 5774SOL    HW218222   2.493   4.578   3.173
 5775SOL     OW18223   0.371   0.284   0.207
 5775SOL    HW118224   0.377   0.293   0.306
 5775SOL    HW218225   0.441   0.219   0.175
 5776SOL     OW18226   5.609   0.808   6.482
 5776SOL    HW118227   5.554   0.861   6.418
 5776SOL    HW218228   5.617   0.857   6.569
 5777SOL     OW18229   5.758   0.527   3.953
 5777SOL    HW118230   5.824   0.598   3.979
 5777SOL    HW218231   5.802   0.437   3.959
 5778SOL     OW18232   2.104   0.526   2.456
 5778SOL    HW118233   2.046   0.521   2.538
 5778SOL    HW218234   2.088   0.445   2.399
 5779SOL     OW18235   3.670   1.138   0.972
 5779SOL    HW118236   3.577   1.156   1.002
 5779SOL    HW218237   3.674   1.047   0.931
 5780SOL     OW18238   6.436   4.685   1.891
 5780SOL    HW118239   6.350   4.735   1.905
 5780SOL    HW218240   6.415   4.588   1.873
 5781SOL     OW18241   1.980   3.921   4.953
 5781SOL    HW118242   2.074   3.954   4.945
 5781SOL    HW218243   1.935   3.925   4.864
 5782SOL     OW18244   1.744   0.981   1.534
 5782SOL    HW118245   1.742   0.989   1.633
 5782SOL    HW218246   1.703   0.894   1.507
 5783SOL     OW18247   1.516   0.891   0.377
 5783SOL    HW118248   1.432   0.910   0.326
 5783SOL    HW218249   1.493   0.870   0.472
 5784SOL     OW18250   0.578   6.294   0.057
 5784SOL    HW118251   0.571   6.386   0.018
 5784SOL    HW218252   0.658   6.247   0.019
 5785SOL     OW18253   1.252   0.694   0.859
 5785SOL    HW118254   1.202   0.773   0.895
 5785SOL    HW218255   1.330   0.674   0.919
 5786SOL     OW18256   1.739   3.406   1.625
 5786SOL    HW118257   1.699   3.423   1.535
 5786SOL    HW218258   1.838   3.396   1.616
 5787SOL     OW18259   6.130   2.710   4.266
 5787SOL    HW118260   6.178   2.661   4.338
 5787SOL    HW218261   6.105   2.801   4.298
 5788SOL     OW18262   3.189   0.525   2.015
 5788SOL    HW118263   3.274   0.565   2.050
 5788SOL    HW218264   3.136   0.596   1.969
 5789SOL     OW18265   3.631   3.394   0.504
 5789SOL    HW118266   3.602   3.407   0.409
 5789SOL    HW218267   3.593   3.467   0.561
 5790SOL     OW18268   5.906   5.469   4.938
 5790SOL    HW118269   5.868   5.544   4.992
 5790SOL    HW218270   5.833   5.425   4.886
 5791SOL     OW18271   3.442   1.475   2.542
 5791SOL    HW118272   3.348   1.504   2.525
 5791SOL    HW218273   3.497   1.553   2.572
 5792SOL     OW18274   4.828   3.130   2.897
 5792SOL    HW118275   4.849   3.198   2.826
 5792SOL    HW218276   4.738   3.091   2.881
 5793SOL     OW18277   5.973   2.635   5.054
 5793SOL    HW118278   5.933   2.544   5.045
 5793SOL    HW218279   5.920   2.688   5.120
 5794SOL     OW18280   2.664   6.727   5.984
 5794SOL    HW118281   2.583   6.784   5.974
 5794SOL    HW218282   2.746   6.784   5.977
 5795SOL     OW18283   1.035   5.312   1.656
 5795SOL    HW118284   0.975   5.326   1.578
 5795SOL    HW218285   1.129   5.339   1.632
 5796SOL     OW18286   4.214   1.696   6.219
 5796SOL    HW118287   4.286   1.764   6.235
 5796SOL    HW218288   4.202   1.683   6.121
 5797SOL     OW18289   4.908   2.005   0.261
 5797SOL    HW118290   4.856   1.920   0.267
 5797SOL    HW218291   5.005   1.986   0.271
 5798SOL     OW18292   0.976   3.733   5.245
 5798SOL    HW118293   0.960   3.641   5.281
 5798SOL    HW218294   0.889   3.775   5.220
 5799SOL     OW18295   1.431   6.409   3.266
 5799SOL    HW118296   1.404   6.499   3.231
 5799SOL    HW218297   1.353   6.367   3.313
 5800SOL     OW18298   0.334   0.000   0.898
 5800SOL    HW118299   0.289   0.009   0.808
 5800SOL    HW218300   0.376   0.087   0.923
 5801SOL     OW18301   2.028   2.841   2.046
 5801SOL    HW118302   2.069   2.919   1.999
 5801SOL    HW218303   2.101   2.785   2.086
 5802SOL     OW18304   6.636   1.743   2.986
 5802SOL    HW118305   6.712   1.696   2.942
 5802SOL    HW218306   6.559   1.749   2.923
 5803SOL     OW18307   1.563   5.385   4.817
 5803SOL    HW118308   1.662   5.384   4.802
 5803SOL    HW218309   1.522   5.460   4.765
 5804SOL     OW18310   5.891   6.258   3.729
 5804SOL    HW118311   5.833   6.271   3.809
 5804SOL    HW218312   5.952   6.336   3.718
 5805SOL     OW18313   2.066   3.238   1.075
 5805SOL    HW118314   2.164   3.242   1.092
 5805SOL    HW218315   2.046   3.274   0.984
 5806SOL     OW18316   0.699   3.151   3.590
 5806SOL    HW118317   0.725   3.157   3.686
 5806SOL    HW218318   0.749   3.075   3.547
 5807SOL     OW18319   1.617   6.115   0.492
 5807SOL    HW118320   1.572   6.073   0.414
 5807SOL    HW218321   1.640   6.045   0.560
 5808SOL     OW18322   6.139   0.228   4.160
 5808SOL    HW118323   6.080   0.241   4.240
 5808SOL    HW218324   6.207   0.301   4.155
 5809SOL     OW18325   0.351   2.599   5.969
 5809SOL    HW118326   0.264   2.596   5.919
 5809SOL    HW218327   0.423   2.559   5.914
 5810SOL     OW18328   4.129   6.843   4.663
 5810SOL    HW118329   4.196   6.845   4.737
 5810SOL    HW218330   4.170   6.799   4.583
 5811SOL     OW18331   2.964   3.080   6.048
 5811SOL    HW118332   2.978   3.017   5.972
 5811SOL    HW218333   2.866   3.087   6.068
 5812SOL     OW18334   5.630   2.805   0.671
 5812SOL    HW118335   5.565   2.824   0.597
 5812SOL    HW218336   5.721   2.789   0.633
 5813SOL     OW18337   4.525   6.029   0.778
 5813SOL    HW118338   4.474   6.092   0.719
 5813SOL    HW218339   4.548   6.076   0.863
 5814SOL     OW18340   6.042   2.060   2.383
 5814SOL    HW118341   6.091   2.086   2.299
 5814SOL    HW218342   5.951   2.101   2.383
 5815SOL     OW18343   6.584   0.655   4.180
 5815SOL    HW118344   6.585   0.751   4.151
 5815SOL    HW218345   6.675   0.616   4.170
 5816SOL     OW18346   0.612   4.560   2.619
 5816SOL    HW118347   0.581   4.466   2.637
 5816SOL    HW218348   0.696   4.577   2.671
 5817SOL     OW18349   5.502   4.086   4.610
 5817SOL    HW118350   5.511   4.024   4.533
 5817SOL    HW218351   5.408   4.083   4.644
 5818SOL     OW18352   1.715   6.901   4.672
 5818SOL    HW118353   1.698   6.928   4.578
 5818SOL    HW218354   1.643   6.937   4.731
 5819SOL     OW18355   4.076   4.814   6.923
 5819SOL    HW118356   4.156   4.871   6.939
 5819SOL    HW218357   4.037   4.786   7.011
 5820SOL     OW18358   5.485   5.071   2.160
 5820SOL    HW118359   5.458   4.999   2.224
 5820SOL    HW218360   5.403   5.110   2.118
 5821SOL     OW18361   6.451   1.083   1.129
 5821SOL    HW118362   6.388   1.011   1.159
 5821SOL    HW218363   6.541   1.067   1.170
 5822SOL     OW18364   1.208   2.504   2.605
 5822SOL    HW118365   1.207   2.451   2.520
 5822SOL    HW218366   1.296   2.550   2.614
 5823SOL     OW18367   2.274   6.534   3.539
 5823SOL    HW118368   2.366   6.536   3.500
 5823SOL    HW218369   2.235   6.626   3.535
 5824SOL     OW18370   0.987   0.037   2.227
 5824SOL    HW118371   0.989   7.006   2.144
 5824SOL    HW218372   0.897   0.030   2.269
 5825SOL     OW18373   6.256   0.463   4.251
 5825SOL    HW118374   6.341   0.450   4.302
 5825SOL    HW218375   6.231   0.560   4.252
 5826SOL     OW18376   0.066   0.262   5.225
 5826SOL    HW118377   0.129   0.254   5.302
 5826SOL    HW218378   6.997   0.272   5.259
 5827SOL     OW18379   1.763   4.675   5.426
 5827SOL    HW118380   1.848   4.623   5.416
 5827SOL    HW218381   1.722   4.654   5.515
 5828SOL     OW18382   4.946   6.615   4.018
 5828SOL    HW118383   4.851   6.612   4.050
 5828SOL    HW218384   4.954   6.675   3.939
 5829SOL     OW18385   2.650   0.852   3.835
 5829SOL    HW118386   2.642   0.862   3.736
 5829SOL    HW218387   2.585   0.783   3.867
 5830SOL     OW18388   3.365   5.244   5.385
 5830SOL    HW118389   3.330   5.201   5.301
 5830SOL    HW218390   3.450   5.199   5.412
 5831SOL     OW18391   1.576   1.170   5.065
 5831SOL    HW118392   1.674   1.161   5.081
 5831SOL    HW218393   1.527   1.157   5.151
 5832SOL     OW18394   3.647   4.748   1.284
 5832SOL    HW118395   3.609   4.838   1.263
 5832SOL    HW218396   3.747   4.754   1.286
 5833SOL     OW18397   4.186   3.629   5.547
 5833SOL    HW118398   4.279   3.593   5.549
 5833SOL    HW218399   4.134   3.586   5.473
 5834SOL     OW18400   6.622   4.447   6.872
 5834SOL    HW118401   6.672   4.421   6.955
 5834SOL    HW218402   6.686   4.456   6.796
 5835SOL     OW18403   5.940   0.447   2.788
 5835SOL    HW118404   5.870   0.411   2.727
 5835SOL    HW218405   5.949   0.546   2.776
 5836SOL     OW18406   4.516   6.648   1.739
 5836SOL    HW118407   4.495   6.722   1.803
 5836SOL    HW218408   4.605   6.665   1.697
 5837SOL     OW18409   3.618   3.795   0.442
 5837SOL    HW118410   3.653   3.886   0.420
 5837SOL    HW218411   3.520   3.801   0.462
 5838SOL     OW18412   3.002   2.070   1.280
 5838SOL    HW118413   2.985   1.988   1.225
 5838SOL    HW218414   2.919   2.095   1.329
 5839SOL     OW18415   1.514   2.719   2.056
 5839SOL    HW118416   1.560   2.692   2.140
 5839SOL    HW218417   1.452   2.647   2.026
 5840SOL     OW18418   0.827   3.665   2.241
 5840SOL    HW118419   0.886   3.652   2.161
 5840SOL    HW218420   0.867   3.617   2.319
 5841SOL     OW18421   4.421   0.907   0.623
 5841SOL    HW118422   4.438   0.960   0.540
 5841SOL    HW218423   4.411   0.970   0.701
 5842SOL     OW18424   3.126   1.443   0.636
 5842SOL    HW118425   3.200   1.470   0.575
 5842SOL    HW218426   3.043   1.426   0.583
 5843SOL     OW18427   1.880   3.034   0.758
 5843SOL    HW118428   1.862   2.978   0.838
 5843SOL    HW218429   1.802   3.093   0.739
 5844SOL     OW18430   0.814   0.543   4.771
 5844SOL    HW118431   0.841   0.597   4.691
 5844SOL    HW218432   0.860   0.454   4.768
 5845SOL     OW18433   0.600   6.563   1.877
 5845SOL    HW118434   0.606   6.507   1.960
 5845SOL    HW218435   0.662   6.642   1.886
 5846SOL     OW18436   6.577   3.687   5.774
 5846SOL    HW118437   6.630   3.639   5.843
 5846SOL    HW218438   6.530   3.765   5.815
 5847SOL     OW18439   2.735   3.256   0.915
 5847SOL    HW118440   2.780   3.337   0.951
 5847SOL    HW218441   2.690   3.278   0.828
 5848SOL     OW18442   2.049   6.354   3.921
 5848SOL    HW118443   2.129   6.384   3.972
 5848SOL    HW218444   2.076   6.324   3.830
 5849SOL     OW18445   1.830   6.280   5.067
 5849SOL    HW118446   1.893   6.227   5.011
 5849SOL    HW218447   1.863   6.374   5.075
 5850SOL     OW18448   1.399   2.495   1.961
 5850SOL    HW118449   1.400   2.410   2.014
 5850SOL    HW218450   1.485   2.504   1.911
 5851SOL     OW18451   5.709   3.500   4.655
 5851SOL    HW118452   5.612   3.513   4.675
 5851SOL    HW218453   5.744   3.578   4.603
 5852SOL     OW18454   5.158   5.133   3.688
 5852SOL    HW118455   5.245   5.090   3.663
 5852SOL    HW218456   5.121   5.088   3.769
 5853SOL     OW18457   3.796   4.978   5.924
 5853SOL    HW118458   3.866   4.946   5.988
 5853SOL    HW218459   3.830   5.060   5.877
 5854SOL     OW18460   2.734   4.355   6.001
 5854SOL    HW118461   2.799   4.397   6.065
 5854SOL    HW218462   2.709   4.422   5.931
 5855SOL     OW18463   2.243   2.507   3.690
 5855SOL    HW118464   2.278   2.423   3.648
 5855SOL    HW218465   2.169   2.544   3.633
 5856SOL     OW18466   1.521   6.901   3.054
 5856SOL    HW118467   1.562   6.831   2.996
 5856SOL    HW218468   1.422   6.898   3.045
 5857SOL     OW18469   0.715   3.351   6.052
 5857SOL    HW118470   0.661   3.434   6.044
 5857SOL    HW218471   0.696   3.291   5.974
 5858SOL     OW18472   2.311   1.714   3.049
 5858SOL    HW118473   2.228   1.768   3.065
 5858SOL    HW218474   2.321   1.698   2.951
 5859SOL     OW18475   6.225   0.105   2.599
 5859SOL    HW118476   6.216   0.046   2.680
 5859SOL    HW218477   6.231   0.200   2.628
 5860SOL     OW18478   0.162   3.241   3.260
 5860SOL    HW118479   0.127   3.239   3.353
 5860SOL    HW218480   0.262   3.239   3.261
 5861SOL     OW18481   5.884   0.970   4.858
 5861SOL    HW118482   5.843   0.944   4.945
 5861SOL    HW218483   5.981   0.990   4.871
 5862SOL     OW18484   6.823   5.256   3.010
 5862SOL    HW118485   6.822   5.254   2.910
 5862SOL    HW218486   6.874   5.177   3.044
 5863SOL     OW18487   3.495   0.559   4.689
 5863SOL    HW118488   3.595   0.559   4.693
 5863SOL    HW218489   3.465   0.613   4.610
 5864SOL     OW18490   3.656   3.865   3.319
 5864SOL    HW118491   3.563   3.831   3.332
 5864SOL    HW218492   3.654   3.965   3.315
 5865SOL     OW18493   6.147   1.106   5.655
 5865SOL    HW118494   6.203   1.185   5.680
 5865SOL    HW218495   6.074   1.094   5.723
 5866SOL     OW18496   4.102   3.502   1.854
 5866SOL    HW118497   4.094   3.592   1.897
 5866SOL    HW218498   4.171   3.505   1.782
 5867SOL     OW18499   2.494   2.106   1.088
 5867SOL    HW118500   2.588   2.096   1.054
 5867SOL    HW218501   2.489   2.186   1.148
 5868SOL     OW18502   0.371   1.752   6.109
 5868SOL    HW118503   0.458   1.726   6.067
 5868SOL    HW218504   0.388   1.795   6.197
 5869SOL     OW18505   0.709   4.509   4.363
 5869SOL    HW118506   0.766   4.574   4.312
 5869SOL    HW218507   0.694   4.427   4.308
 5870SOL     OW18508   4.231   4.771   5.195
 5870SOL    HW118509   4.134   4.778   5.220
 5870SOL    HW218510   4.248   4.684   5.149
 5871SOL     OW18511   3.331   3.102   3.313
 5871SOL    HW118512   3.337   3.055   3.401
 5871SOL    HW218513   3.235   3.106   3.284
 5872SOL     OW18514   4.162   6.245   2.381
 5872SOL    HW118515   4.093   6.306   2.420
 5872SOL    HW218516   4.202   6.190   2.454
 5873SOL     OW18517   3.748   4.915   2.733
 5873SOL    HW118518   3.650   4.901   2.747
 5873SOL    HW218519   3.800   4.858   2.797
 5874SOL     OW18520   2.003   4.223   5.431
 5874SOL    HW118521   2.082   4.167   5.404
 5874SOL    HW218522   2.034   4.316   5.451
 5875SOL     OW18523   3.458   2.097   0.224
 5875SOL    HW118524   3.366   2.067   0.198
 5875SOL    HW218525   3.513   2.018   0.248
 5876SOL     OW18526   3.888   3.326   2.185
 5876SOL    HW118527   3.900   3.230   2.210
 5876SOL    HW218528   3.893   3.336   2.085
 5877SOL     OW18529   6.028   6.323   1.015
 5877SOL    HW118530   5.963   6.250   1.034
 5877SOL    HW218531   6.121   6.292   1.036
 5878SOL     OW18532   1.556   5.023   2.477
 5878SOL    HW118533   1.475   5.006   2.420
 5878SOL    HW218534   1.558   5.119   2.504
 5879SOL     OW18535   6.239   3.931   0.028
 5879SOL    HW118536   6.178   3.969   6.983
 5879SOL    HW218537   6.224   3.833   0.036
 5880SOL     OW18538   2.753   6.273   1.318
 5880SOL    HW118539   2.718   6.363   1.290
 5880SOL    HW218540   2.847   6.262   1.284
 5881SOL     OW18541   0.541   4.312   3.560
 5881SOL    HW118542   0.587   4.249   3.623
 5881SOL    HW218543   0.473   4.262   3.506
 5882SOL     OW18544   5.233   0.466   0.855
 5882SOL    HW118545   5.143   0.507   0.841
 5882SOL    HW218546   5.304   0.530   0.826
 5883SOL     OW18547   6.844   2.546   6.589
 5883SOL    HW118548   6.856   2.449   6.612
 5883SOL    HW218549   6.876   2.602   6.665
 5884SOL     OW18550   1.218   1.373   3.338
 5884SOL    HW118551   1.124   1.407   3.349
 5884SOL    HW218552   1.272   1.398   3.419
 5885SOL     OW18553   6.416   0.111   1.304
 5885SOL    HW118554   6.436   0.015   1.282
 5885SOL    HW218555   6.317   0.125   1.303
 5886SOL     OW18556   0.650   2.525   5.305
 5886SOL    HW118557   0.662   2.507   5.403
 5886SOL    HW218558   0.654   2.624   5.289
 5887SOL     OW18559   3.689   0.761   4.023
 5887SOL    HW118560   3.742   0.701   4.084
 5887SOL    HW218561   3.598   0.722   4.010
 5888SOL     OW18562   2.111   6.292   2.619
 5888SOL    HW118563   2.070   6.221   2.561
 5888SOL    HW218564   2.100   6.268   2.715
 5889SOL     OW18565   2.277   0.530   1.220
 5889SOL    HW118566   2.252   0.626   1.231
 5889SOL    HW218567   2.313   0.516   1.128
 5890SOL     OW18568   0.954   6.640   5.348
 5890SOL    HW118569   0.872   6.627   5.404
 5890SOL    HW218570   0.952   6.579   5.269
 5891SOL     OW18571   3.722   3.416   6.827
 5891SOL    HW118572   3.629   3.451   6.838
 5891SOL    HW218573   3.744   3.354   6.903
 5892SOL     OW18574   0.955   6.052   1.188
 5892SOL    HW118575   0.947   6.152   1.192
 5892SOL    HW218576   0.900   6.018   1.111
 5893SOL     OW18577   1.408   3.065   3.147
 5893SOL    HW118578   1.455   3.135   3.093
 5893SOL    HW218579   1.429   3.077   3.244
 5894SOL     OW18580   1.586   4.428   3.365
 5894SOL    HW118581   1.587   4.498   3.436
 5894SOL    HW218582   1.617   4.466   3.278
 5895SOL     OW18583   5.280   2.317   5.067
 5895SOL    HW118584   5.357   2.338   5.006
 5895SOL    HW218585   5.300   2.351   5.159
 5896SOL     OW18586   3.853   2.109   6.608
 5896SOL    HW118587   3.801   2.035   6.651
 5896SOL    HW218588   3.883   2.174   6.678
 5897SOL     OW18589   4.140   0.173   1.307
 5897SOL    HW118590   4.226   0.220   1.324
 5897SOL    HW218591   4.068   0.214   1.364
 5898SOL     OW18592   1.023   0.065   1.671
 5898SOL    HW118593   1.024   0.001   1.594
 5898SOL    HW218594   0.989   0.153   1.641
 5899SOL     OW18595   6.353   0.034   5.371
 5899SOL    HW118596   6.416   0.076   5.437
 5899SOL    HW218597   6.259   0.061   5.392
 5900SOL     OW18598   4.521   5.102   2.903
 5900SOL    HW118599   4.565   5.174   2.849
 5900SOL    HW218600   4.589   5.057   2.961
 5901SOL     OW18601   1.936   6.777   6.996
 5901SOL    HW118602   1.967   6.863   6.956
 5901SOL    HW218603   1.837   6.769   6.987
 5902SOL     OW18604   6.879   2.034   0.942
 5902SOL    HW118605   6.832   2.041   0.854
 5902SOL    HW218606   6.837   1.963   0.998
 5903SOL     OW18607   5.937   4.543   0.508
 5903SOL    HW118608   5.903   4.634   0.531
 5903SOL    HW218609   5.870   4.496   0.451
 5904SOL     OW18610   0.552   3.406   2.449
 5904SOL    HW118611   0.557   3.354   2.363
 5904SOL    HW218612   0.458   3.409   2.481
 5905SOL     OW18613   6.632   6.781   2.987
 5905SOL    HW118614   6.620   6.830   2.900
 5905SOL    HW218615   6.729   6.774   3.009
 5906SOL     OW18616   5.588   0.392   3.751
 5906SOL    HW118617   5.616   0.446   3.830
 5906SOL    HW218618   5.663   0.331   3.725
 5907SOL     OW18619   1.383   6.210   1.382
 5907SOL    HW118620   1.305   6.168   1.336
 5907SOL    HW218621   1.401   6.163   1.468
 5908SOL     OW18622   0.870   1.937   5.522
 5908SOL    HW118623   0.837   1.967   5.433
 5908SOL    HW218624   0.961   1.897   5.512
 5909SOL     OW18625   1.130   5.878   0.146
 5909SOL    HW118626   1.076   5.795   0.133
 5909SOL    HW218627   1.128   5.933   0.062
 5910SOL     OW18628   0.833   2.952   3.485
 5910SOL    HW118629   0.795   2.867   3.519
 5910SOL    HW218630   0.833   2.951   3.385
 5911SOL     OW18631   6.928   5.928   6.416
 5911SOL    HW118632   6.881   5.898   6.499
 5911SOL    HW218633   6.883   6.010   6.380
 5912SOL     OW18634   5.969   1.715   5.433
 5912SOL    HW118635   5.891   1.746   5.486
 5912SOL    HW218636   6.051   1.767   5.459
 5913SOL     OW18637   5.371   2.768   0.514
 5913SOL    HW118638   5.302   2.796   0.447
 5913SOL    HW218639   5.329   2.711   0.584
 5914SOL     OW18640   0.755   6.898   6.760
 5914SOL    HW118641   0.844   6.943   6.763
 5914SOL    HW218642   0.696   6.935   6.832
 5915SOL     OW18643   3.018   6.511   6.896
 5915SOL    HW118644   3.106   6.497   6.941
 5915SOL    HW218645   3.031   6.516   6.797
 5916SOL     OW18646   0.397   6.763   1.836
 5916SOL    HW118647   0.399   6.683   1.896
 5916SOL    HW218648   0.466   6.829   1.866
 5917SOL     OW18649   3.058   3.881   6.177
 5917SOL    HW118650   3.080   3.912   6.084
 5917SOL    HW218651   2.978   3.931   6.211
 5918SOL     OW18652   2.360   6.118   5.705
 5918SOL    HW118653   2.329   6.061   5.629
 5918SOL    HW218654   2.358   6.214   5.678
 5919SOL     OW18655   3.114   3.553   3.292
 5919SOL    HW118656   3.199   3.513   3.258
 5919SOL    HW218657   3.073   3.492   3.360
 5920SOL     OW18658   5.303   1.216   6.183
 5920SOL    HW118659   5.391   1.216   6.136
 5920SOL    HW218660   5.318   1.226   6.281
 5921SOL     OW18661   4.107   4.629   6.704
 5921SOL    HW118662   4.130   4.679   6.787
 5921SOL    HW218663   4.178   4.643   6.635
 5922SOL     OW18664   6.151   3.818   3.823
 5922SOL    HW118665   6.066   3.765   3.818
 5922SOL    HW218666   6.203   3.790   3.904
 5923SOL     OW18667   6.364   1.229   1.569
 5923SOL    HW118668   6.312   1.195   1.648
 5923SOL    HW218669   6.449   1.176   1.561
 5924SOL     OW18670   5.638   6.838   2.959
 5924SOL    HW118671   5.551   6.887   2.949
 5924SOL    HW218672   5.634   6.780   3.040
 5925SOL     OW18673   3.955   6.159   1.714
 5925SOL    HW118674   3.945   6.074   1.662
 5925SOL    HW218675   4.039   6.206   1.686
 5926SOL     OW18676   4.361   4.781   3.331
 5926SOL    HW118677   4.269   4.781   3.291
 5926SOL    HW218678   4.355   4.775   3.430
 5927SOL     OW18679   1.334   4.055   1.987
 5927SOL    HW118680   1.387   4.116   2.045
 5927SOL    HW218681   1.238   4.058   2.014
 5928SOL     OW18682   4.173   7.020   1.087
 5928SOL    HW118683   4.140   0.042   1.169
 5928SOL    HW218684   4.120   6.936   1.072
 5929SOL     OW18685   6.596   0.667   5.358
 5929SOL    HW118686   6.544   0.752   5.360
 5929SOL    HW218687   6.661   0.666   5.434
 5930SOL     OW18688   1.190   2.957   1.603
 5930SOL    HW118689   1.250   2.912   1.670
 5930SOL    HW218690   1.123   3.014   1.651
 5931SOL     OW18691   6.211   6.297   2.743
 5931SOL    HW118692   6.245   6.268   2.653
 5931SOL    HW218693   6.137   6.236   2.772
 5932SOL     OW18694   3.343   6.926   6.501
 5932SOL    HW118695   3.438   6.927   6.531
 5932SOL    HW218696   3.287   6.976   6.567
 5933SOL     OW18697   0.128   5.552   4.116
 5933SOL    HW118698   0.123   5.561   4.215
 5933SOL    HW218699   0.219   5.518   4.091
 5934SOL     OW18700   3.664   3.527   5.746
 5934SOL    HW118701   3.653   3.572   5.835
 5934SOL    HW218702   3.706   3.590   5.682
 5935SOL     OW18703   0.358   6.063   5.508
 5935SOL    HW118704   0.299   5.990   5.474
 5935SOL    HW218705   0.405   6.106   5.432
 5936SOL     OW18706   2.955   3.295   2.460
 5936SOL    HW118707   2.935   3.282   2.363
 5936SOL    HW218708   2.960   3.205   2.505
 5937SOL     OW18709   6.900   2.650   1.894
 5937SOL    HW118710   6.928   2.714   1.966
 5937SOL    HW218711   6.806   2.668   1.868
 5938SOL     OW18712   5.980   5.735   5.285
 5938SOL    HW118713   6.038   5.809   5.319
 5938SOL    HW218714   5.970   5.665   5.357
 5939SOL     OW18715   3.389   6.194   4.162
 5939SOL    HW118716   3.413   6.106   4.202
 5939SOL    HW218717   3.380   6.185   4.063
 5940SOL     OW18718   4.433   5.055   3.252
 5940SOL    HW118719   4.408   4.980   3.313
 5940SOL    HW218720   4.513   5.029   3.198
 5941SOL     OW18721   5.961   2.626   2.693
 5941SOL    HW118722   5.887   2.644   2.629
 5941SOL    HW218723   5.984   2.528   2.691
 5942SOL     OW18724   5.753   2.960   6.021
 5942SOL    HW118725   5.678   2.946   5.956
 5942SOL    HW218726   5.783   3.055   6.018
 5943SOL     OW18727   4.089   3.720   0.587
 5943SOL    HW118728   4.098   3.689   0.492
 5943SOL    HW218729   4.134   3.655   0.648
 5944SOL     OW18730   0.773   2.691   0.279
 5944SOL    HW118731   0.800   2.714   0.186
 5944SOL    HW218732   0.839   2.728   0.344
 5945SOL     OW18733   0.478   6.195   5.312
 5945SOL    HW118734   0.481   6.285   5.353
 5945SOL    HW218735   0.571   6.165   5.290
 5946SOL     OW18736   3.453   4.821   0.085
 5946SOL    HW118737   3.426   4.738   0.134
 5946SOL    HW218738   3.424   4.813   7.014
 5947SOL     OW18739   3.030   3.329   4.503
 5947SOL    HW118740   3.017   3.426   4.481
 5947SOL    HW218741   2.999   3.273   4.426
 5948SOL     OW18742   4.814   4.531   2.172
 5948SOL    HW118743   4.807   4.559   2.076
 5948SOL    HW218744   4.764   4.445   2.184
 5949SOL     OW18745   6.081   5.655   1.479
 5949SOL    HW118746   6.038   5.581   1.427
 5949SOL    HW218747   6.033   5.666   1.566
 5950SOL     OW18748   5.126   2.268   5.468
 5950SOL    HW118749   5.224   2.255   5.457
 5950SOL    HW218750   5.096   2.346   5.413
 5951SOL     OW18751   0.827   5.539   5.211
 5951SOL    HW118752   0.786   5.616   5.259
 5951SOL    HW218753   0.863   5.570   5.123
 5952SOL     OW18754   3.909   5.295   3.041
 5952SOL    HW118755   3.826   5.350   3.045
 5952SOL    HW218756   3.908   5.237   2.960
 5953SOL     OW18757   6.316   3.231   4.521
 5953SOL    HW118758   6.238   3.255   4.463
 5953SOL    HW218759   6.397   3.281   4.490
 5954SOL     OW18760   0.387   5.162   5.712
 5954SOL    HW118761   0.448   5.113   5.774
 5954SOL    HW218762   0.306   5.106   5.695
 5955SOL     OW18763   4.634   5.401   1.589
 5955SOL    HW118764   4.555   5.454   1.558
 5955SOL    HW218765   4.718   5.451   1.565
 5956SOL     OW18766   5.443   2.014   4.015
 5956SOL    HW118767   5.386   2.071   3.955
 5956SOL    HW218768   5.384   1.963   4.078
 5957SOL     OW18769   1.568   1.063   3.206
 5957SOL    HW118770   1.516   1.060   3.121
 5957SOL    HW218771   1.609   1.154   3.217
 5958SOL     OW18772   3.827   0.605   3.128
 5958SOL    HW118773   3.887   0.526   3.121
 5958SOL    HW218774   3.791   0.612   3.221
 5959SOL     OW18775   4.495   2.796   5.469
 5959SOL    HW118776   4.472   2.814   5.565
 5959SOL    HW218777   4.464   2.873   5.413
 5960SOL     OW18778   2.912   6.431   4.599
 5960SOL    HW118779   2.904   6.518   4.550
 5960SOL    HW218780   2.939   6.359   4.536
 5961SOL     OW18781   3.803   1.800   2.442
 5961SOL    HW118782   3.872   1.851   2.494
 5961SOL    HW218783   3.824   1.806   2.344
 5962SOL     OW18784   5.376   6.251   6.264
 5962SOL    HW118785   5.382   6.180   6.193
 5962SOL    HW218786   5.337   6.211   6.347
 5963SOL     OW18787   3.446   4.461   6.970
 5963SOL    HW118788   3.415   4.493   0.035
 5963SOL    HW218789   3.475   4.365   6.978
 5964SOL     OW18790   2.381   6.761   3.159
 5964SOL    HW118791   2.480   6.767   3.175
 5964SOL    HW218792   2.357   6.665   3.140
 5965SOL     OW18793   2.010   0.224   6.429
 5965SOL    HW118794   2.061   0.223   6.343
 5965SOL    HW218795   1.930   0.283   6.419
 5966SOL     OW18796   1.550   0.031   5.497
 5966SOL    HW118797   1.488   0.081   5.436
 5966SOL    HW218798   1.617   0.095   5.536
 5967SOL     OW18799   2.623   1.677   5.223
 5967SOL    HW118800   2.550   1.662   5.291
 5967SOL    HW218801   2.693   1.606   5.234
 5968SOL     OW18802   5.538   2.214   0.550
 5968SOL    HW118803   5.451   2.166   0.535
 5968SOL    HW218804   5.528   2.279   0.624
 5969SOL     OW18805   4.766   0.871   6.415
 5969SOL    HW118806   4.771   0.847   6.512
 5969SOL    HW218807   4.678   0.914   6.395
 5970SOL     OW18808   0.207   4.513   0.744
 5970SOL    HW118809   0.179   4.417   0.745
 5970SOL    HW218810   0.298   4.522   0.784
 5971SOL     OW18811   6.020   0.103   2.038
 5971SOL    HW118812   5.991   0.173   2.103
 5971SOL    HW218813   6.084   0.040   2.082
 5972SOL     OW18814   5.369   5.280   6.624
 5972SOL    HW118815   5.442   5.223   6.661
 5972SOL    HW218816   5.329   5.236   6.544
 5973SOL     OW18817   2.136   3.745   2.656
 5973SOL    HW118818   2.123   3.677   2.584
 5973SOL    HW218819   2.191   3.820   2.621
 5974SOL     OW18820   5.058   0.331   0.004
 5974SOL    HW118821   5.056   0.369   6.936
 5974SOL    HW218822   5.139   0.364   0.052
 5975SOL     OW18823   4.953   5.437   1.296
 5975SOL    HW118824   4.876   5.389   1.253
 5975SOL    HW218825   4.918   5.497   1.368
 5976SOL     OW18826   3.383   3.519   5.769
 5976SOL    HW118827   3.482   3.525   5.754
 5976SOL    HW218828   3.360   3.431   5.811
 5977SOL     OW18829   0.911   5.664   0.101
 5977SOL    HW118830   0.877   5.698   0.188
 5977SOL    HW218831   0.909   5.564   0.101
 5978SOL     OW18832   3.667   5.131   0.542
 5978SOL    HW118833   3.608   5.157   0.466
 5978SOL    HW218834   3.621   5.150   0.628
 5979SOL     OW18835   6.147   0.476   1.994
 5979SOL    HW118836   6.145   0.418   1.912
 5979SOL    HW218837   6.236   0.520   2.000
 5980SOL     OW18838   3.299   2.880   2.024
 5980SOL    HW118839   3.226   2.811   2.020
 5980SOL    HW218840   3.336   2.896   1.933
 5981SOL     OW18841   4.772   1.634   0.365
 5981SOL    HW118842   4.768   1.540   0.330
 5981SOL    HW218843   4.748   1.698   0.291
 5982SOL     OW18844   5.617   2.128   2.574
 5982SOL    HW118845   5.682   2.059   2.542
 5982SOL    HW218846   5.603   2.196   2.502
 5983SOL     OW18847   1.247   0.625   3.843
 5983SOL    HW118848   1.332   0.677   3.854
 5983SOL    HW218849   1.200   0.656   3.761
 5984SOL     OW18850   5.701   6.347   3.890
 5984SOL    HW118851   5.624   6.351   3.827
 5984SOL    HW218852   5.670   6.368   3.983
 5985SOL     OW18853   6.387   2.499   3.863
 5985SOL    HW118854   6.463   2.445   3.827
 5985SOL    HW218855   6.312   2.501   3.797
 5986SOL     OW18856   4.113   3.608   5.806
 5986SOL    HW118857   4.145   3.614   5.712
 5986SOL    HW218858   4.111   3.699   5.847
 5987SOL     OW18859   6.213   0.764   4.264
 5987SOL    HW118860   6.245   0.757   4.358
 5987SOL    HW218861   6.189   0.859   4.244
 5988SOL     OW18862   3.271   1.054   6.653
 5988SOL    HW118863   3.308   1.082   6.565
 5988SOL    HW218864   3.340   1.066   6.725
 5989SOL     OW18865   1.759   5.540   6.239
 5989SOL    HW118866   1.768   5.561   6.141
 5989SOL    HW218867   1.667   5.563   6.269
 5990SOL     OW18868   3.756   3.759   1.042
 5990SOL    HW118869   3.666   3.769   0.998
 5990SOL    HW218870   3.815   3.701   0.987
 5991SOL     OW18871   4.244   5.664   0.075
 5991SOL    HW118872   4.206   5.581   0.033
 5991SOL    HW218873   4.335   5.644   0.111
 5992SOL     OW18874   2.989   0.037   2.631
 5992SOL    HW118875   2.931   6.987   2.600
 5992SOL    HW218876   3.085   0.013   2.618
 5993SOL     OW18877   5.721   3.910   6.365
 5993SOL    HW118878   5.741   3.822   6.406
 5993SOL    HW218879   5.748   3.984   6.426
 5994SOL     OW18880   7.009   2.669   0.804
 5994SOL    HW118881   0.001   2.686   0.901
 5994SOL    HW218882   6.965   2.580   0.793
 5995SOL     OW18883   4.410   3.068   1.723
 5995SOL    HW118884   4.500   3.040   1.755
 5995SOL    HW218885   4.344   2.996   1.741
 5996SOL     OW18886   1.923   5.998   1.377
 5996SOL    HW118887   1.988   5.966   1.445
 5996SOL    HW218888   1.971   6.047   1.304
 5997SOL     OW18889   0.436   6.541   3.687
 5997SOL    HW118890   0.420   6.626   3.738
 5997SOL    HW218891   0.525   6.503   3.712
 5998SOL     OW18892   5.528   0.692   1.797
 5998SOL    HW118893   5.575   0.627   1.737
 5998SOL    HW218894   5.597   0.747   1.846
 5999SOL     OW18895   3.427   3.467   1.236
 5999SOL    HW118896   3.416   3.416   1.321
 5999SOL    HW218897   3.522   3.497   1.228
 6000SOL     OW18898   0.415   5.885   0.049
 6000SOL    HW118899   0.384   5.967   0.000
 6000SOL    HW218900   0.352   5.865   0.124
 6001SOL     OW18901   5.567   5.930   6.797
 6001SOL    HW118902   5.586   5.844   6.844
 6001SOL    HW218903   5.618   6.004   6.841
 6002SOL     OW18904   0.091   0.043   5.688
 6002SOL    HW118905   0.022   6.998   5.708
 6002SOL    HW218906   0.046   0.130   5.667
 6003SOL     OW18907   6.429   2.636   4.632
 6003SOL    HW118908   6.401   2.723   4.591
 6003SOL    HW218909   6.376   2.620   4.715
 6004SOL     OW18910   6.095   2.489   3.385
 6004SOL    HW118911   6.055   2.466   3.297
 6004SOL    HW218912   6.089   2.587   3.400
 6005SOL     OW18913   5.398   4.722   5.155
 6005SOL    HW118914   5.381   4.647   5.091
 6005SOL    HW218915   5.311   4.760   5.186
 6006SOL     OW18916   3.464   0.121   5.201
 6006SOL    HW118917   3.501   0.179   5.129
 6006SOL    HW218918   3.375   0.085   5.174
 6007SOL     OW18919   6.993   3.477   0.076
 6007SOL    HW118920   6.944   3.505   7.019
 6007SOL    HW218921   0.032   3.549   0.104
 6008SOL     OW18922   2.316   4.514   5.462
 6008SOL    HW118923   2.331   4.468   5.374
 6008SOL    HW218924   2.304   4.612   5.447
 6009SOL     OW18925   4.649   5.549   3.757
 6009SOL    HW118926   4.600   5.626   3.716
 6009SOL    HW218927   4.613   5.463   3.720
 6010SOL     OW18928   0.552   3.838   4.380
 6010SOL    HW118929   0.651   3.824   4.391
 6010SOL    HW218930   0.509   3.751   4.354
 6011SOL     OW18931   4.769   2.399   2.590
 6011SOL    HW118932   4.729   2.489   2.572
 6011SOL    HW218933   4.837   2.378   2.519
 6012SOL     OW18934   6.055   0.897   0.151
 6012SOL    HW118935   6.097   0.965   0.090
 6012SOL    HW218936   6.003   0.945   0.222
 6013SOL     OW18937   4.718   1.263   2.712
 6013SOL    HW118938   4.732   1.343   2.771
 6013SOL    HW218939   4.621   1.257   2.688
 6014SOL     OW18940   3.491   3.773   4.099
 6014SOL    HW118941   3.425   3.841   4.067
 6014SOL    HW218942   3.466   3.745   4.192
 6015SOL     OW18943   5.911   3.311   4.373
 6015SOL    HW118944   5.901   3.301   4.274
 6015SOL    HW218945   5.891   3.405   4.399
 6016SOL     OW18946   5.284   2.088   5.873
 6016SOL    HW118947   5.213   2.149   5.837
 6016SOL    HW218948   5.253   2.048   5.959
 6017SOL     OW18949   0.410   3.990   4.993
 6017SOL    HW118950   0.485   3.963   4.933
 6017SOL    HW218951   0.323   3.972   4.946
 6018SOL     OW18952   3.484   1.125   4.754
 6018SOL    HW118953   3.387   1.113   4.776
 6018SOL    HW218954   3.502   1.091   4.662
 6019SOL     OW18955   0.808   3.435   5.624
 6019SOL    HW118956   0.844   3.506   5.685
 6019SOL    HW218957   0.708   3.437   5.625
 6020SOL     OW18958   0.905   5.183   0.846
 6020SOL    HW118959   0.984   5.202   0.905
 6020SOL    HW218960   0.921   5.222   0.755
 6021SOL     OW18961   4.847   0.295   2.940
 6021SOL    HW118962   4.768   0.351   2.914
 6021SOL    HW218963   4.857   0.297   3.040
 6022SOL     OW18964   6.491   1.759   3.401
 6022SOL    HW118965   6.402   1.781   3.442
 6022SOL    HW218966   6.477   1.717   3.312
 6023SOL     OW18967   5.288   0.072   1.269
 6023SOL    HW118968   5.315   0.101   1.361
 6023SOL    HW218969   5.368   0.072   1.209
 6024SOL     OW18970   0.371   4.818   0.499
 6024SOL    HW118971   0.323   4.733   0.475
 6024SOL    HW218972   0.467   4.798   0.518
 6025SOL     OW18973   3.009   0.980   3.659
 6025SOL    HW118974   3.018   1.080   3.657
 6025SOL    HW218975   2.957   0.953   3.739
 6026SOL     OW18976   6.233   4.833   4.638
 6026SOL    HW118977   6.137   4.853   4.617
 6026SOL    HW218978   6.288   4.847   4.556
 6027SOL     OW18979   6.324   3.678   6.191
 6027SOL    HW118980   6.417   3.669   6.227
 6027SOL    HW218981   6.328   3.682   6.091
 6028SOL     OW18982   5.506   5.130   1.176
 6028SOL    HW118983   5.446   5.202   1.212
 6028SOL    HW218984   5.577   5.109   1.243
 6029SOL     OW18985   1.826   6.668   3.562
 6029SOL    HW118986   1.734   6.686   3.528
 6029SOL    HW218987   1.889   6.661   3.484
 6030SOL     OW18988   4.945   3.717   4.807
 6030SOL    HW118989   4.892   3.700   4.891
 6030SOL    HW218990   5.028   3.661   4.808
 6031SOL     OW18991   1.951   5.580   3.754
 6031SOL    HW118992   2.015   5.506   3.732
 6031SOL    HW218993   1.882   5.547   3.818
 6032SOL     OW18994   3.067   5.367   3.297
 6032SOL    HW118995   3.094   5.450   3.347
 6032SOL    HW218996   3.111   5.366   3.207
 6033SOL     OW18997   2.242   2.611   2.354
 6033SOL    HW118998   2.237   2.512   2.342
 6033SOL    HW218999   2.304   2.633   2.430
 6034SOL     OW19000   0.914   0.252   6.430
 6034SOL    HW119001   0.973   0.319   6.386
 6034SOL    HW219002   0.818   0.276   6.413
 6035SOL     OW19003   0.761   0.758   2.648
 6035SOL    HW119004   0.667   0.760   2.681
 6035SOL    HW219005   0.807   0.676   2.680
 6036SOL     OW19006   6.077   4.738   1.330
 6036SOL    HW119007   6.155   4.674   1.324
 6036SOL    HW219008   6.104   4.818   1.383
 6037SOL     OW19009   4.226   0.283   1.046
 6037SOL    HW119010   4.226   0.186   1.074
 6037SOL    HW219011   4.217   0.340   1.128
 6038SOL     OW19012   0.412   2.315   6.420
 6038SOL    HW119013   0.430   2.233   6.366
 6038SOL    HW219014   0.450   2.303   6.512
 6039SOL     OW19015   3.787   3.825   4.084
 6039SOL    HW119016   3.710   3.764   4.103
 6039SOL    HW219017   3.856   3.776   4.031
 6040SOL     OW19018   1.556   1.166   6.915
 6040SOL    HW119019   1.638   1.222   6.926
 6040SOL    HW219020   1.486   1.197   6.979
 6041SOL     OW19021   3.156   2.845   5.295
 6041SOL    HW119022   3.225   2.843   5.367
 6041SOL    HW219023   3.185   2.907   5.222
 6042SOL     OW19024   4.096   6.315   3.264
 6042SOL    HW119025   4.089   6.280   3.357
 6042SOL    HW219026   4.034   6.263   3.205
 6043SOL     OW19027   1.220   0.381   4.245
 6043SOL    HW119028   1.194   0.413   4.336
 6043SOL    HW219029   1.183   0.443   4.176
 6044SOL     OW19030   2.100   2.073   1.929
 6044SOL    HW119031   2.164   2.095   1.856
 6044SOL    HW219032   2.091   2.152   1.990
 6045SOL     OW19033   4.943   3.085   3.879
 6045SOL    HW119034   4.889   3.094   3.962
 6045SOL    HW219035   4.896   3.024   3.815
 6046SOL     OW19036   3.419   2.748   1.197
 6046SOL    HW119037   3.517   2.737   1.216
 6046SOL    HW219038   3.394   2.844   1.207
 6047SOL     OW19039   5.507   2.114   1.418
 6047SOL    HW119040   5.485   2.211   1.409
 6047SOL    HW219041   5.595   2.103   1.464
 6048SOL     OW19042   5.182   5.498   5.292
 6048SOL    HW119043   5.165   5.507   5.391
 6048SOL    HW219044   5.128   5.566   5.243
 6049SOL     OW19045   5.607   4.502   6.002
 6049SOL    HW119046   5.704   4.480   6.014
 6049SOL    HW219047   5.574   4.463   5.916
 6050SOL     OW19048   2.981   4.975   1.007
 6050SOL    HW119049   2.887   4.939   1.007
 6050SOL    HW219050   2.986   5.055   0.946
 6051SOL     OW19051   1.396   0.633   2.699
 6051SOL    HW119052   1.402   0.714   2.641
 6051SOL    HW219053   1.436   0.653   2.789
 6052SOL     OW19054   5.446   0.861   1.433
 6052SOL    HW119055   5.423   0.889   1.339
 6052SOL    HW219056   5.447   0.761   1.438
 6053SOL     OW19057   4.185   0.373   5.981
 6053SOL    HW119058   4.153   0.413   5.895
 6053SOL    HW219059   4.218   0.445   6.042
 6054SOL     OW19060   3.571   5.172   0.818
 6054SOL    HW119061   3.525   5.145   0.903
 6054SOL    HW219062   3.523   5.250   0.777
 6055SOL     OW19063   3.381   5.430   6.313
 6055SOL    HW119064   3.351   5.521   6.285
 6055SOL    HW219065   3.393   5.372   6.233
 6056SOL     OW19066   5.727   2.840   5.062
 6056SOL    HW119067   5.635   2.817   5.031
 6056SOL    HW219068   5.785   2.859   4.982
 6057SOL     OW19069   6.066   0.573   2.315
 6057SOL    HW119070   6.041   0.669   2.326
 6057SOL    HW219071   6.124   0.564   2.234
 6058SOL     OW19072   5.458   3.294   0.325
 6058SOL    HW119073   5.458   3.223   0.396
 6058SOL    HW219074   5.399   3.369   0.354
 6059SOL     OW19075   4.913   4.053   5.583
 6059SOL    HW119076   4.962   4.013   5.506
 6059SOL    HW219077   4.938   4.005   5.667
 6060SOL     OW19078   3.148   3.070   0.347
 6060SOL    HW119079   3.211   3.006   0.391
 6060SOL    HW219080   3.106   3.129   0.416
 6061SOL     OW19081   4.591   4.694   0.838
 6061SOL    HW119082   4.495   4.716   0.857
 6061SOL    HW219083   4.603   4.675   0.741
 6062SOL     OW19084   2.495   2.072   6.387
 6062SOL    HW119085   2.499   2.163   6.347
 6062SOL    HW219086   2.418   2.022   6.348
 6063SOL     OW19087   3.680   4.169   5.632
 6063SOL    HW119088   3.623   4.087   5.628
 6063SOL    HW219089   3.706   4.186   5.727
 6064SOL     OW19090   0.892   0.378   1.230
 6064SOL    HW119091   0.891   0.328   1.317
 6064SOL    HW219092   0.987   0.395   1.203
 6065SOL     OW19093   0.630   5.857   1.340
 6065SOL    HW119094   0.648   5.934   1.279
 6065SOL    HW219095   0.548   5.876   1.393
 6066SOL     OW19096   5.207   0.788   4.186
 6066SOL    HW119097   5.119   0.824   4.155
 6066SOL    HW219098   5.279   0.852   4.159
 6067SOL     OW19099   4.896   1.127   5.603
 6067SOL    HW119100   4.987   1.139   5.562
 6067SOL    HW219101   4.873   1.030   5.605
 6068SOL     OW19102   5.077   2.398   4.903
 6068SOL    HW119103   5.054   2.493   4.923
 6068SOL    HW219104   5.159   2.372   4.955
 6069SOL     OW19105   6.559   3.176   6.267
 6069SOL    HW119106   6.558   3.148   6.171
 6069SOL    HW219107   6.503   3.113   6.321
 6070SOL     OW19108   3.722   2.447   1.537
 6070SOL    HW119109   3.710   2.492   1.625
 6070SOL    HW219110   3.710   2.348   1.548
 6071SOL     OW19111   0.353   5.931   4.285
 6071SOL    HW119112   0.447   5.950   4.314
 6071SOL    HW219113   0.353   5.907   4.188
 6072SOL     OW19114   6.593   1.714   1.487
 6072SOL    HW119115   6.681   1.692   1.444
 6072SOL    HW219116   6.581   1.659   1.570
 6073SOL     OW19117   4.940   2.859   0.939
 6073SOL    HW119118   4.966   2.929   1.005
 6073SOL    HW219119   4.858   2.889   0.889
 6074SOL     OW19120   1.838   0.043   1.992
 6074SOL    HW119121   1.840   0.072   2.087
 6074SOL    HW219122   1.762   0.089   1.945
 6075SOL     OW19123   4.923   7.011   5.688
 6075SOL    HW119124   4.906   0.034   5.601
 6075SOL    HW219125   4.911   6.913   5.674
 6076SOL     OW19126   2.739   5.325   3.445
 6076SOL    HW119127   2.680   5.316   3.364
 6076SOL    HW219128   2.835   5.316   3.418
 6077SOL     OW19129   5.247   6.412   0.860
 6077SOL    HW119130   5.346   6.407   0.877
 6077SOL    HW219131   5.206   6.322   0.871
 6078SOL     OW19132   4.515   4.302   1.181
 6078SOL    HW119133   4.430   4.339   1.217
 6078SOL    HW219134   4.593   4.346   1.227
 6079SOL     OW19135   4.931   4.892   6.234
 6079SOL    HW119136   4.859   4.959   6.255
 6079SOL    HW219137   4.904   4.839   6.154
 6080SOL     OW19138   0.483   4.942   1.770
 6080SOL    HW119139   0.516   4.908   1.682
 6080SOL    HW219140   0.413   5.012   1.754
 6081SOL     OW19141   6.869   3.213   6.033
 6081SOL    HW119142   6.948   3.153   6.022
 6081SOL    HW219143   6.821   3.189   6.118
 6082SOL     OW19144   3.272   6.429   2.193
 6082SOL    HW119145   3.289   6.404   2.098
 6082SOL    HW219146   3.296   6.525   2.207
 6083SOL     OW19147   5.552   5.801   0.558
 6083SOL    HW119148   5.529   5.883   0.506
 6083SOL    HW219149   5.562   5.825   0.655
 6084SOL     OW19150   0.916   6.591   2.083
 6084SOL    HW119151   0.908   6.615   1.987
 6084SOL    HW219152   0.964   6.664   2.132
 6085SOL     OW19153   6.312   6.062   6.138
 6085SOL    HW119154   6.279   6.042   6.046
 6085SOL    HW219155   6.268   6.145   6.172
 6086SOL     OW19156   2.925   2.601   5.807
 6086SOL    HW119157   2.989   2.656   5.754
 6086SOL    HW219158   2.948   2.504   5.795
 6087SOL     OW19159   4.412   5.862   1.037
 6087SOL    HW119160   4.426   5.769   1.071
 6087SOL    HW219161   4.316   5.873   1.010
 6088SOL     OW19162   6.223   6.237   5.316
 6088SOL    HW119163   6.320   6.220   5.335
 6088SOL    HW219164   6.204   6.220   5.219
 6089SOL     OW19165   6.409   2.684   2.937
 6089SOL    HW119166   6.400   2.638   3.025
 6089SOL    HW219167   6.481   2.640   2.884
 6090SOL     OW19168   2.967   5.136   4.728
 6090SOL    HW119169   2.902   5.104   4.797
 6090SOL    HW219170   2.995   5.059   4.670
 6091SOL     OW19171   3.069   1.712   0.647
 6091SOL    HW119172   3.098   1.618   0.662
 6091SOL    HW219173   3.129   1.774   0.698
 6092SOL     OW19174   4.411   1.226   1.903
 6092SOL    HW119175   4.313   1.243   1.894
 6092SOL    HW219176   4.436   1.230   2.000
 6093SOL     OW19177   2.400   2.504   1.980
 6093SOL    HW119178   2.379   2.442   2.056
 6093SOL    HW219179   2.495   2.491   1.952
 6094SOL     OW19180   1.235   6.277   3.375
 6094SOL    HW119181   1.147   6.319   3.353
 6094SOL    HW219182   1.233   6.181   3.349
 6095SOL     OW19183   4.482   5.047   6.554
 6095SOL    HW119184   4.408   5.022   6.617
 6095SOL    HW219185   4.565   4.999   6.580
 6096SOL     OW19186   5.516   6.813   2.300
 6096SOL    HW119187   5.536   6.728   2.251
 6096SOL    HW219188   5.461   6.792   2.381
 6097SOL     OW19189   1.616   5.374   1.918
 6097SOL    HW119190   1.682   5.441   1.952
 6097SOL    HW219191   1.650   5.333   1.834
 6098SOL     OW19192   6.525   0.891   5.630
 6098SOL    HW119193   6.605   0.922   5.682
 6098SOL    HW219194   6.449   0.873   5.692
 6099SOL     OW19195   4.972   5.739   5.642
 6099SOL    HW119196   4.888   5.790   5.661
 6099SOL    HW219197   5.037   5.751   5.717
 6100SOL     OW19198   0.171   5.820   2.075
 6100SOL    HW119199   0.219   5.907   2.078
 6100SOL    HW219200   0.079   5.834   2.039
 6101SOL     OW19201   6.486   2.933   2.756
 6101SOL    HW119202   6.437   2.891   2.833
 6101SOL    HW219203   6.582   2.908   2.760
 6102SOL     OW19204   3.890   6.362   2.989
 6102SOL    HW119205   3.823   6.436   2.988
 6102SOL    HW219206   3.971   6.389   2.938
 6103SOL     OW19207   6.697   1.069   1.226
 6103SOL    HW119208   6.733   1.162   1.216
 6103SOL    HW219209   6.730   1.030   1.311
 6104SOL     OW19210   6.124   0.607   5.171
 6104SOL    HW119211   6.091   0.606   5.076
 6104SOL    HW219212   6.145   0.514   5.200
 6105SOL     OW19213   1.871   5.583   5.932
 6105SOL    HW119214   1.936   5.539   5.869
 6105SOL    HW219215   1.778   5.549   5.913
 6106SOL     OW19216   1.192   5.255   0.271
 6106SOL    HW119217   1.110   5.232   0.325
 6106SOL    HW219218   1.195   5.197   0.190
 6107SOL     OW19219   4.324   5.439   4.023
 6107SOL    HW119220   4.377   5.377   3.965
 6107SOL    HW219221   4.275   5.504   3.965
 6108SOL     OW19222   1.634   2.266   3.116
 6108SOL    HW119223   1.622   2.365   3.126
 6108SOL    HW219224   1.546   2.220   3.134
 6109SOL     OW19225   5.459   1.248   5.042
 6109SOL    HW119226   5.474   1.298   5.127
 6109SOL    HW219227   5.369   1.204   5.044
 6110SOL     OW19228   1.728   2.760   0.014
 6110SOL    HW119229   1.710   2.665   7.011
 6110SOL    HW219230   1.762   2.762   0.108
 6111SOL     OW19231   1.271   3.365   1.831
 6111SOL    HW119232   1.260   3.268   1.808
 6111SOL    HW219233   1.209   3.419   1.776
 6112SOL     OW19234   4.521   0.578   2.652
 6112SOL    HW119235   4.595   0.632   2.611
 6112SOL    HW219236   4.442   0.578   2.590
 6113SOL     OW19237   2.497   3.310   6.411
 6113SOL    HW119238   2.597   3.310   6.400
 6113SOL    HW219239   2.454   3.302   6.321
 6114SOL     OW19240   5.352   3.305   2.468
 6114SOL    HW119241   5.268   3.261   2.435
 6114SOL    HW219242   5.393   3.358   2.393
 6115SOL     OW19243   6.655   1.588   5.327
 6115SOL    HW119244   6.647   1.687   5.317
 6115SOL    HW219245   6.658   1.564   5.424
 6116SOL     OW19246   4.114   2.302   5.297
 6116SOL    HW119247   4.062   2.273   5.377
 6116SOL    HW219248   4.070   2.381   5.255
 6117SOL     OW19249   1.386   2.158   3.144
 6117SOL    HW119250   1.317   2.180   3.075
 6117SOL    HW219251   1.361   2.202   3.231
 6118SOL     OW19252   5.493   1.224   1.752
 6118SOL    HW119253   5.403   1.260   1.728
 6118SOL    HW219254   5.532   1.177   1.673
 6119SOL     OW19255   0.931   3.119   0.601
 6119SOL    HW119256   1.011   3.075   0.560
 6119SOL    HW219257   0.938   3.218   0.589
 6120SOL     OW19258   1.927   6.744   5.272
 6120SOL    HW119259   1.852   6.810   5.269
 6120SOL    HW219260   1.920   6.688   5.354
 6121SOL     OW19261   0.936   3.952   5.561
 6121SOL    HW119262   0.992   4.006   5.624
 6121SOL    HW219263   0.971   3.858   5.560
 6122SOL     OW19264   4.813   5.279   6.397
 6122SOL    HW119265   4.824   5.350   6.328
 6122SOL    HW219266   4.783   5.195   6.354
 6123SOL     OW19267   5.340   0.928   5.366
 6123SOL    HW119268   5.391   0.849   5.332
 6123SOL    HW219269   5.293   0.903   5.451
 6124SOL     OW19270   0.552   6.850   5.727
 6124SOL    HW119271   0.629   6.915   5.721
 6124SOL    HW219272   0.505   6.862   5.814
 6125SOL     OW19273   2.464   4.096   0.003
 6125SOL    HW119274   2.510   4.053   6.950
 6125SOL    HW219275   2.515   4.177   0.032
 6126SOL     OW19276   1.015   1.823   5.269
 6126SOL    HW119277   1.114   1.815   5.275
 6126SOL    HW219278   0.972   1.734   5.286
 6127SOL     OW19279   4.310   0.511   1.652
 6127SOL    HW119280   4.398   0.547   1.622
 6127SOL    HW219281   4.274   0.449   1.583
 6128SOL     OW19282   5.213   5.311   0.405
 6128SOL    HW119283   5.151   5.383   0.436
 6128SOL    HW219284   5.170   5.259   0.331
 6129SOL     OW19285   1.187   3.747   3.878
 6129SOL    HW119286   1.248   3.732   3.956
 6129SOL    HW219287   1.227   3.816   3.818
 6130SOL     OW19288   6.075   2.139   3.109
 6130SOL    HW119289   6.129   2.055   3.117
 6130SOL    HW219290   6.060   2.179   3.199
 6131SOL     OW19291   0.864   2.070   2.203
 6131SOL    HW119292   0.964   2.068   2.202
 6131SOL    HW219293   0.829   2.009   2.131
 6132SOL     OW19294   3.733   1.870   6.725
 6132SOL    HW119295   3.653   1.908   6.678
 6132SOL    HW219296   3.753   1.780   6.686
 6133SOL     OW19297   1.612   2.510   3.186
 6133SOL    HW119298   1.634   2.500   3.283
 6133SOL    HW219299   1.680   2.570   3.143
 6134SOL     OW19300   4.090   6.960   6.920
 6134SOL    HW119301   4.174   6.948   6.866
 6134SOL    HW219302   4.016   6.992   6.860
 6135SOL     OW19303   6.158   6.127   0.569
 6135SOL    HW119304   6.079   6.145   0.628
 6135SOL    HW219305   6.158   6.192   0.492
 6136SOL     OW19306   1.313   2.334   1.329
 6136SOL    HW119307   1.377   2.257   1.325
 6136SOL    HW219308   1.219   2.299   1.333
 6137SOL     OW19309   0.702   3.990   2.232
 6137SOL    HW119310   0.724   3.918   2.297
 6137SOL    HW219311   0.697   4.078   2.279
 6138SOL     OW19312   3.862   0.176   2.871
 6138SOL    HW119313   3.825   0.262   2.905
 6138SOL    HW219314   3.802   0.101   2.898
 6139SOL     OW19315   0.490   0.125   5.462
 6139SOL    HW119316   0.455   0.032   5.473
 6139SOL    HW219317   0.586   0.121   5.433
 6140SOL     OW19318   0.417   1.465   3.271
 6140SOL    HW119319   0.430   1.561   3.244
 6140SOL    HW219320   0.319   1.447   3.282
 6141SOL     OW19321   1.044   0.578   5.820
 6141SOL    HW119322   1.108   0.537   5.885
 6141SOL    HW219323   0.992   0.505   5.775
 6142SOL     OW19324   1.215   0.013   5.885
 6142SOL    HW119325   1.142   0.073   5.920
 6142SOL    HW219326   1.265   6.998   5.961
 6143SOL     OW19327   6.943   4.332   0.965
 6143SOL    HW119328   6.975   4.415   1.011
 6143SOL    HW219329   7.017   4.293   0.910
 6144SOL     OW19330   5.270   4.310   3.084
 6144SOL    HW119331   5.276   4.410   3.077
 6144SOL    HW219332   5.240   4.272   2.997
 6145SOL     OW19333   5.796   4.697   4.500
 6145SOL    HW119334   5.740   4.614   4.494
 6145SOL    HW219335   5.766   4.752   4.578
 6146SOL     OW19336   3.318   6.101   3.918
 6146SOL    HW119337   3.297   6.004   3.917
 6146SOL    HW219338   3.350   6.130   3.828
 6147SOL     OW19339   1.933   2.853   4.622
 6147SOL    HW119340   1.955   2.921   4.553
 6147SOL    HW219341   2.017   2.824   4.669
 6148SOL     OW19342   3.796   5.183   6.407
 6148SOL    HW119343   3.873   5.217   6.462
 6148SOL    HW219344   3.770   5.252   6.340
 6149SOL     OW19345   1.843   0.482   1.898
 6149SOL    HW119346   1.750   0.503   1.926
 6149SOL    HW219347   1.842   0.409   1.830
 6150SOL     OW19348   6.075   4.013   6.834
 6150SOL    HW119349   6.072   4.111   6.815
 6150SOL    HW219350   6.017   3.964   6.768
 6151SOL     OW19351   5.039   5.326   4.554
 6151SOL    HW119352   4.972   5.315   4.480
 6151SOL    HW219353   5.121   5.275   4.531
 6152SOL     OW19354   0.944   5.547   4.421
 6152SOL    HW119355   0.911   5.638   4.396
 6152SOL    HW219356   0.952   5.491   4.339
 6153SOL     OW19357   5.005   5.108   1.206
 6153SOL    HW119358   5.053   5.086   1.121
 6153SOL    HW219359   4.920   5.156   1.185
 6154SOL     OW19360   5.481   3.195   2.846
 6154SOL    HW119361   5.530   3.214   2.931
 6154SOL    HW219362   5.407   3.130   2.864
 6155SOL     OW19363   3.074   0.808   2.625
 6155SOL    HW119364   3.012   0.766   2.691
 6155SOL    HW219365   3.021   0.863   2.560
 6156SOL     OW19366   4.699   4.668   1.925
 6156SOL    HW119367   4.798   4.684   1.928
 6156SOL    HW219368   4.681   4.578   1.885
 6157SOL     OW19369   0.650   2.245   3.371
 6157SOL    HW119370   0.616   2.201   3.288
 6157SOL    HW219371   0.746   2.220   3.384
 6158SOL     OW19372   3.081   1.758   0.117
 6158SOL    HW119373   3.129   1.681   0.076
 6158SOL    HW219374   3.036   1.729   0.201
 6159SOL     OW19375   5.240   2.819   0.915
 6159SOL    HW119376   5.313   2.887   0.926
 6159SOL    HW219377   5.152   2.864   0.931
 6160SOL     OW19378   6.981   6.991   6.826
 6160SOL    HW119379   6.951   6.921   6.761
 6160SOL    HW219380   0.004   6.948   6.903
 6161SOL     OW19381   4.820   0.953   0.354
 6161SOL    HW119382   4.781   0.990   0.438
 6161SOL    HW219383   4.920   0.955   0.360
 6162SOL     OW19384   6.032   6.002   3.738
 6162SOL    HW119385   5.974   6.081   3.716
 6162SOL    HW219386   6.122   6.033   3.767
 6163SOL     OW19387   5.395   6.118   2.512
 6163SOL    HW119388   5.493   6.125   2.497
 6163SOL    HW219389   5.376   6.120   2.611
 6164SOL     OW19390   3.558   4.182   4.928
 6164SOL    HW119391   3.629   4.194   4.996
 6164SOL    HW219392   3.468   4.194   4.970
 6165SOL     OW19393   3.510   2.038   5.761
 6165SOL    HW119394   3.534   2.135   5.769
 6165SOL    HW219395   3.423   2.029   5.712
 6166SOL     OW19396   5.902   2.046   0.338
 6166SOL    HW119397   5.803   2.038   0.342
 6166SOL    HW219398   5.926   2.123   0.279
 6167SOL     OW19399   0.635   4.707   3.201
 6167SOL    HW119400   0.561   4.746   3.146
 6167SOL    HW219401   0.597   4.653   3.276
 6168SOL     OW19402   0.541   2.478   3.275
 6168SOL    HW119403   0.546   2.397   3.333
 6168SOL    HW219404   0.465   2.536   3.305
 6169SOL     OW19405   0.698   1.184   6.221
 6169SOL    HW119406   0.788   1.139   6.221
 6169SOL    HW219407   0.683   1.227   6.310
 6170SOL     OW19408   3.147   3.987   5.959
 6170SOL    HW119409   3.149   3.927   5.879
 6170SOL    HW219410   3.071   4.051   5.949
 6171SOL     OW19411   1.602   3.380   1.332
 6171SOL    HW119412   1.696   3.403   1.310
 6171SOL    HW219413   1.554   3.353   1.249
 6172SOL     OW19414   0.047   0.740   2.753
 6172SOL    HW119415   6.975   0.718   2.762
 6172SOL    HW219416   0.098   0.693   2.825
 6173SOL     OW19417   6.895   4.678   2.976
 6173SOL    HW119418   6.953   4.630   2.911
 6173SOL    HW219419   6.944   4.692   3.062
 6174SOL     OW19420   5.866   4.720   3.040
 6174SOL    HW119421   5.795   4.725   3.110
 6174SOL    HW219422   5.839   4.775   2.961
 6175SOL     OW19423   5.617   0.057   3.745
 6175SOL    HW119424   5.525   0.071   3.780
 6175SOL    HW219425   5.623   0.089   3.650
 6176SOL     OW19426   6.025   2.669   6.964
 6176SOL    HW119427   6.042   2.571   6.950
 6176SOL    HW219428   5.932   2.682   6.998
 6177SOL     OW19429   5.352   1.560   1.601
 6177SOL    HW119430   5.418   1.612   1.546
 6177SOL    HW219431   5.302   1.497   1.542
 6178SOL     OW19432   4.689   5.835   1.518
 6178SOL    HW119433   4.707   5.926   1.482
 6178SOL    HW219434   4.712   5.831   1.615
 6179SOL     OW19435   0.180   3.956   4.843
 6179SOL    HW119436   0.166   3.896   4.764
 6179SOL    HW219437   0.128   4.040   4.831
 6180SOL     OW19438   3.010   6.498   6.075
 6180SOL    HW119439   3.013   6.493   5.975
 6180SOL    HW219440   2.916   6.517   6.104
 6181SOL     OW19441   5.313   6.545   0.421
 6181SOL    HW119442   5.380   6.567   0.492
 6181SOL    HW219443   5.236   6.608   0.427
 6182SOL     OW19444   5.240   4.252   5.322
 6182SOL    HW119445   5.337   4.233   5.308
 6182SOL    HW219446   5.219   4.244   5.420
 6183SOL     OW19447   2.788   7.024   3.292
 6183SOL    HW119448   2.828   0.088   3.315
 6183SOL    HW219449   2.772   7.020   3.193
 6184SOL     OW19450   1.740   6.594   6.156
 6184SOL    HW119451   1.791   6.671   6.119
 6184SOL    HW219452   1.732   6.523   6.085
 6185SOL     OW19453   1.417   4.574   6.977
 6185SOL    HW119454   1.367   4.490   6.954
 6185SOL    HW219455   1.512   4.551   7.000
 6186SOL     OW19456   5.846   6.853   3.890
 6186SOL    HW119457   5.814   6.942   3.923
 6186SOL    HW219458   5.942   6.860   3.864
 6187SOL     OW19459   4.755   4.258   4.213
 6187SOL    HW119460   4.766   4.162   4.185
 6187SOL    HW219461   4.839   4.308   4.191
 6188SOL     OW19462   2.307   6.286   1.386
 6188SOL    HW119463   2.258   6.239   1.313
 6188SOL    HW219464   2.241   6.328   1.448
 6189SOL     OW19465   4.475   4.535   3.893
 6189SOL    HW119466   4.502   4.579   3.808
 6189SOL    HW219467   4.538   4.461   3.914
 6190SOL     OW19468   6.155   3.879   6.259
 6190SOL    HW119469   6.220   3.805   6.240
 6190SOL    HW219470   6.063   3.851   6.231
 6191SOL     OW19471   4.673   2.239   0.829
 6191SOL    HW119472   4.619   2.193   0.899
 6191SOL    HW219473   4.762   2.194   0.820
 6192SOL     OW19474   3.301   3.335   0.712
 6192SOL    HW119475   3.233   3.357   0.642
 6192SOL    HW219476   3.310   3.236   0.719
 6193SOL     OW19477   4.150   1.236   2.614
 6193SOL    HW119478   4.244   1.269   2.623
 6193SOL    HW219479   4.131   1.168   2.685
 6194SOL     OW19480   2.175   6.680   0.344
 6194SOL    HW119481   2.160   6.602   0.283
 6194SOL    HW219482   2.270   6.679   0.377
 6195SOL     OW19483   3.676   5.373   5.397
 6195SOL    HW119484   3.662   5.275   5.378
 6195SOL    HW219485   3.661   5.425   5.313
 6196SOL     OW19486   5.899   2.195   1.119
 6196SOL    HW119487   5.907   2.286   1.080
 6196SOL    HW219488   5.924   2.197   1.215
 6197SOL     OW19489   4.787   3.893   0.488
 6197SOL    HW119490   4.691   3.866   0.490
 6197SOL    HW219491   4.810   3.941   0.572
 6198SOL     OW19492   2.940   5.497   2.329
 6198SOL    HW119493   2.987   5.509   2.417
 6198SOL    HW219494   2.848   5.536   2.336
 6199SOL     OW19495   0.568   0.149   1.017
 6199SOL    HW119496   0.607   0.057   1.025
 6199SOL    HW219497   0.575   0.196   1.104
 6200SOL     OW19498   2.012   0.858   5.724
 6200SOL    HW119499   2.023   0.862   5.824
 6200SOL    HW219500   2.077   0.792   5.687
 6201SOL     OW19501   1.935   3.640   5.614
 6201SOL    HW119502   1.849   3.601   5.582
 6201SOL    HW219503   1.981   3.574   5.674
 6202SOL     OW19504   4.164   1.969   1.571
 6202SOL    HW119505   4.126   1.895   1.626
 6202SOL    HW219506   4.200   2.040   1.631
 6203SOL     OW19507   5.109   6.831   3.608
 6203SOL    HW119508   5.016   6.860   3.631
 6203SOL    HW219509   5.167   6.911   3.596
 6204SOL     OW19510   0.682   5.141   5.075
 6204SOL    HW119511   0.599   5.146   5.019
 6204SOL    HW219512   0.750   5.085   5.028
 6205SOL     OW19513   5.629   6.604   6.689
 6205SOL    HW119514   5.543   6.582   6.734
 6205SOL    HW219515   5.657   6.527   6.631
 6206SOL     OW19516   6.376   6.956   2.473
 6206SOL    HW119517   6.323   0.005   2.513
 6206SOL    HW219518   6.316   6.879   2.452
 6207SOL     OW19519   1.390   4.125   5.009
 6207SOL    HW119520   1.369   4.065   5.087
 6207SOL    HW219521   1.484   4.109   4.979
 6208SOL     OW19522   6.030   0.880   6.747
 6208SOL    HW119523   6.060   0.872   6.652
 6208SOL    HW219524   6.019   0.788   6.786
 6209SOL     OW19525   4.858   5.692   6.893
 6209SOL    HW119526   4.797   5.647   6.828
 6209SOL    HW219527   4.953   5.681   6.862
 6210SOL     OW19528   5.996   5.049   3.758
 6210SOL    HW119529   5.913   5.017   3.713
 6210SOL    HW219530   6.076   5.016   3.708
 6211SOL     OW19531   3.458   6.443   4.510
 6211SOL    HW119532   3.363   6.438   4.480
 6211SOL    HW219533   3.519   6.419   4.434
 6212SOL     OW19534   1.661   5.292   2.574
 6212SOL    HW119535   1.576   5.329   2.612
 6212SOL    HW219536   1.732   5.362   2.577
 6213SOL     OW19537   5.012   0.136   6.553
 6213SOL    HW119538   4.956   0.203   6.602
 6213SOL    HW219539   5.104   0.172   6.541
 6214SOL     OW19540   5.683   4.805   3.204
 6214SOL    HW119541   5.623   4.729   3.228
 6214SOL    HW219542   5.675   4.876   3.274
 6215SOL     OW19543   4.016   1.735   6.731
 6215SOL    HW119544   3.940   1.680   6.695
 6215SOL    HW219545   4.037   1.809   6.666
 6216SOL     OW19546   6.645   2.653   2.442
 6216SOL    HW119547   6.648   2.571   2.499
 6216SOL    HW219548   6.620   2.629   2.349
 6217SOL     OW19549   6.734   2.883   2.574
 6217SOL    HW119550   6.720   2.955   2.506
 6217SOL    HW219551   6.690   2.798   2.543
 6218SOL     OW19552   3.431   5.560   4.868
 6218SOL    HW119553   3.334   5.576   4.886
 6218SOL    HW219554   3.455   5.468   4.899
 6219SOL     OW19555   0.996   1.633   4.686
 6219SOL    HW119556   0.941   1.607   4.765
 6219SOL    HW219557   1.068   1.697   4.714
 6220SOL     OW19558   1.334   3.638   5.697
 6220SOL    HW119559   1.290   3.711   5.749
 6220SOL    HW219560   1.311   3.550   5.736
 6221SOL     OW19561   6.363   5.768   6.259
 6221SOL    HW119562   6.361   5.800   6.354
 6221SOL    HW219563   6.417   5.832   6.204
 6222SOL     OW19564   0.869   6.617   1.412
 6222SOL    HW119565   0.863   6.528   1.457
 6222SOL    HW219566   0.962   6.632   1.379
 6223SOL     OW19567   0.057   3.784   4.654
 6223SOL    HW119568   0.056   3.685   4.650
 6223SOL    HW219569   6.998   3.821   4.615
 6224SOL     OW19570   2.047   1.856   6.341
 6224SOL    HW119571   1.979   1.784   6.356
 6224SOL    HW219572   2.050   1.917   6.420
 6225SOL     OW19573   3.358   2.989   1.186
 6225SOL    HW119574   3.418   3.032   1.253
 6225SOL    HW219575   3.347   3.051   1.108
 6226SOL     OW19576   5.338   2.050   4.568
 6226SOL    HW119577   5.270   2.078   4.635
 6226SOL    HW219578   5.305   1.970   4.518
 6227SOL     OW19579   3.734   5.433   6.288
 6227SOL    HW119580   3.635   5.422   6.284
 6227SOL    HW219581   3.757   5.530   6.284
 6228SOL     OW19582   0.161   3.026   2.303
 6228SOL    HW119583   0.215   3.074   2.372
 6228SOL    HW219584   0.067   3.017   2.335
 6229SOL     OW19585   0.802   3.056   2.047
 6229SOL    HW119586   0.855   3.008   2.116
 6229SOL    HW219587   0.849   3.050   1.959
 6230SOL     OW19588   1.352   1.015   4.054
 6230SOL    HW119589   1.366   0.946   4.125
 6230SOL    HW219590   1.255   1.039   4.048
 6231SOL     OW19591   6.992   4.746   1.499
 6231SOL    HW119592   6.982   4.759   1.401
 6231SOL    HW219593   0.026   4.819   1.536
 6232SOL     OW19594   6.139   1.832   0.853
 6232SOL    HW119595   6.059   1.879   0.889
 6232SOL    HW219596   6.151   1.744   0.900
 6233SOL     OW19597   5.611   1.052   0.228
 6233SOL    HW119598   5.539   1.120   0.211
 6233SOL    HW219599   5.692   1.075   0.173
 6234SOL     OW19600   6.988   1.279   6.150
 6234SOL    HW119601   0.029   1.352   6.171
 6234SOL    HW219602   7.012   1.236   6.063
 6235SOL     OW19603   1.225   0.201   2.059
 6235SOL    HW119604   1.258   0.124   2.005
 6235SOL    HW219605   1.128   0.187   2.081
 6236SOL     OW19606   0.755   4.827   0.284
 6236SOL    HW119607   0.702   4.838   0.368
 6236SOL    HW219608   0.845   4.789   0.306
 6237SOL     OW19609   3.301   6.244   0.135
 6237SOL    HW119610   3.352   6.201   0.060
 6237SOL    HW219611   3.357   6.245   0.218
 6238SOL     OW19612   4.113   4.811   3.199
 6238SOL    HW119613   4.178   4.770   3.135
 6238SOL    HW219614   4.044   4.862   3.148
 6239SOL     OW19615   2.908   6.476   1.727
 6239SOL    HW119616   2.866   6.388   1.706
 6239SOL    HW219617   2.851   6.550   1.691
 6240SOL     OW19618   3.044   2.585   6.873
 6240SOL    HW119619   2.996   2.575   6.961
 6240SOL    HW219620   2.994   2.650   6.815
 6241SOL     OW19621   2.352   0.857   2.323
 6241SOL    HW119622   2.285   0.922   2.358
 6241SOL    HW219623   2.313   0.805   2.247
 6242SOL     OW19624   5.143   0.479   3.635
 6242SOL    HW119625   5.142   0.526   3.547
 6242SOL    HW219626   5.183   0.539   3.705
 6243SOL     OW19627   5.084   6.609   3.420
 6243SOL    HW119628   5.109   6.676   3.490
 6243SOL    HW219629   5.091   6.652   3.329
 6244SOL     OW19630   1.844   2.450   2.053
 6244SOL    HW119631   1.877   2.530   2.004
 6244SOL    HW219632   1.794   2.479   2.135
 6245SOL     OW19633   1.890   4.766   1.055
 6245SOL    HW119634   1.920   4.704   0.983
 6245SOL    HW219635   1.957   4.840   1.065
 6246SOL     OW19636   2.151   3.158   6.084
 6246SOL    HW119637   2.213   3.093   6.039
 6246SOL    HW219638   2.086   3.193   6.016
 6247SOL     OW19639   0.650   6.360   3.584
 6247SOL    HW119640   0.687   6.293   3.519
 6247SOL    HW219641   0.550   6.362   3.576
 6248SOL     OW19642   2.816   4.096   0.751
 6248SOL    HW119643   2.833   4.096   0.849
 6248SOL    HW219644   2.860   4.176   0.710
 6249SOL     OW19645   0.615   4.578   0.251
 6249SOL    HW119646   0.660   4.666   0.269
 6249SOL    HW219647   0.519   4.594   0.228
 6250SOL     OW19648   6.734   5.877   0.314
 6250SOL    HW119649   6.820   5.921   0.340
 6250SOL    HW219650   6.725   5.790   0.363
 6251SOL     OW19651   3.424   6.380   6.873
 6251SOL    HW119652   3.403   6.430   6.790
 6251SOL    HW219653   3.371   6.416   6.949
 6252SOL     OW19654   1.548   6.800   5.053
 6252SOL    HW119655   1.529   6.875   4.989
 6252SOL    HW219656   1.579   6.837   5.140
 6253SOL     OW19657   2.194   4.024   2.516
 6253SOL    HW119658   2.144   4.029   2.430
 6253SOL    HW219659   2.262   4.097   2.520
 6254SOL     OW19660   5.237   0.951   0.895
 6254SOL    HW119661   5.179   0.939   0.815
 6254SOL    HW219662   5.240   1.047   0.921
 6255SOL     OW19663   1.974   0.963   1.383
 6255SOL    HW119664   1.942   0.918   1.300
 6255SOL    HW219665   1.904   0.956   1.454
 6256SOL     OW19666   3.385   5.696   2.866
 6256SOL    HW119667   3.337   5.619   2.823
 6256SOL    HW219668   3.376   5.689   2.965
 6257SOL     OW19669   5.618   2.309   1.220
 6257SOL    HW119670   5.525   2.343   1.205
 6257SOL    HW219671   5.684   2.372   1.178
 6258SOL     OW19672   4.546   0.240   3.778
 6258SOL    HW119673   4.548   0.216   3.681
 6258SOL    HW219674   4.491   0.322   3.791
 6259SOL     OW19675   2.965   2.263   0.597
 6259SOL    HW119676   3.026   2.230   0.525
 6259SOL    HW219677   2.889   2.199   0.610
 6260SOL     OW19678   2.519   4.266   6.744
 6260SOL    HW119679   2.434   4.229   6.782
 6260SOL    HW219680   2.562   4.198   6.685
 6261SOL     OW19681   3.177   0.383   6.254
 6261SOL    HW119682   3.228   0.297   6.254
 6261SOL    HW219683   3.211   0.441   6.328
 6262SOL     OW19684   1.574   4.600   1.020
 6262SOL    HW119685   1.545   4.618   1.114
 6262SOL    HW219686   1.648   4.533   1.020
 6263SOL     OW19687   6.907   0.679   5.794
 6263SOL    HW119688   6.952   0.597   5.829
 6263SOL    HW219689   6.927   0.756   5.855
 6264SOL     OW19690   1.683   6.914   0.839
 6264SOL    HW119691   1.772   6.903   0.882
 6264SOL    HW219692   1.628   6.832   0.854
 6265SOL     OW19693   3.642   4.137   0.843
 6265SOL    HW119694   3.698   4.079   0.902
 6265SOL    HW219695   3.585   4.197   0.900
 6266SOL     OW19696   4.353   0.041   4.692
 6266SOL    HW119697   4.357   0.025   4.594
 6266SOL    HW219698   4.296   6.996   4.736
 6267SOL     OW19699   3.305   0.336   0.239
 6267SOL    HW119700   3.394   0.297   0.262
 6267SOL    HW219701   3.235   0.265   0.249
 6268SOL     OW19702   3.168   6.472   3.195
 6268SOL    HW119703   3.260   6.459   3.156
 6268SOL    HW219704   3.101   6.479   3.121
 6269SOL     OW19705   6.741   5.841   2.178
 6269SOL    HW119706   6.827   5.811   2.137
 6269SOL    HW219707   6.746   5.938   2.201
 6270SOL     OW19708   1.573   0.010   4.867
 6270SOL    HW119709   1.629   0.081   4.824
 6270SOL    HW219710   1.484   0.047   4.891
 6271SOL     OW19711   5.876   2.593   5.495
 6271SOL    HW119712   5.874   2.524   5.568
 6271SOL    HW219713   5.831   2.557   5.414
 6272SOL     OW19714   1.393   2.939   5.895
 6272SOL    HW119715   1.452   2.859   5.896
 6272SOL    HW219716   1.302   2.913   5.863
 6273SOL     OW19717   1.710   0.506   2.220
 6273SOL    HW119718   1.715   0.558   2.306
 6273SOL    HW219719   1.747   0.414   2.236
 6274SOL     OW19720   2.259   5.599   5.947
 6274SOL    HW119721   2.278   5.610   5.850
 6274SOL    HW219722   2.338   5.630   6.000
 6275SOL     OW19723   2.156   6.348   4.832
 6275SOL    HW119724   2.191   6.441   4.828
 6275SOL    HW219725   2.075   6.340   4.775
 6276SOL     OW19726   1.912   4.957   3.660
 6276SOL    HW119727   1.874   4.903   3.585
 6276SOL    HW219728   2.006   4.927   3.678
 6277SOL     OW19729   5.309   3.129   2.187
 6277SOL    HW119730   5.373   3.052   2.189
 6277SOL    HW219731   5.226   3.105   2.237
 6278SOL     OW19732   4.951   6.948   4.455
 6278SOL    HW119733   4.973   6.938   4.358
 6278SOL    HW219734   4.856   6.979   4.464
 6279SOL     OW19735   3.658   0.703   6.472
 6279SOL    HW119736   3.736   0.762   6.451
 6279SOL    HW219737   3.645   0.699   6.572
 6280SOL     OW19738   0.704   2.045   5.902
 6280SOL    HW119739   0.667   2.045   5.809
 6280SOL    HW219740   0.801   2.072   5.899
 6281SOL     OW19741   1.564   5.786   4.633
 6281SOL    HW119742   1.499   5.711   4.647
 6281SOL    HW219743   1.632   5.759   4.565
 6282SOL     OW19744   1.289   0.770   4.716
 6282SOL    HW119745   1.192   0.756   4.693
 6282SOL    HW219746   1.299   0.777   4.815
 6283SOL     OW19747   6.520   3.249   5.720
 6283SOL    HW119748   6.565   3.280   5.804
 6283SOL    HW219749   6.578   3.271   5.641
 6284SOL     OW19750   2.005   5.556   5.076
 6284SOL    HW119751   2.103   5.537   5.083
 6284SOL    HW219752   1.988   5.651   5.101
 6285SOL     OW19753   1.036   2.620   3.539
 6285SOL    HW119754   1.074   2.648   3.627
 6285SOL    HW219755   1.100   2.557   3.493
 6286SOL     OW19756   6.340   2.066   3.785
 6286SOL    HW119757   6.414   2.082   3.720
 6286SOL    HW219758   6.362   2.109   3.873
 6287SOL     OW19759   4.310   4.753   3.015
 6287SOL    HW119760   4.377   4.718   2.949
 6287SOL    HW219761   4.291   4.849   2.995
 6288SOL     OW19762   6.044   4.862   2.131
 6288SOL    HW119763   6.079   4.813   2.211
 6288SOL    HW219764   6.043   4.960   2.150
 6289SOL     OW19765   1.305   4.698   2.611
 6289SOL    HW119766   1.254   4.618   2.579
 6289SOL    HW219767   1.323   4.758   2.533
 6290SOL     OW19768   5.944   3.927   4.217
 6290SOL    HW119769   6.035   3.895   4.190
 6290SOL    HW219770   5.943   3.946   4.315
 6291SOL     OW19771   3.712   3.429   4.045
 6291SOL    HW119772   3.800   3.475   4.035
 6291SOL    HW219773   3.639   3.492   4.019
 6292SOL     OW19774   1.413   2.472   3.694
 6292SOL    HW119775   1.471   2.554   3.688
 6292SOL    HW219776   1.358   2.464   3.610
 6293SOL     OW19777   4.146   0.167   0.029
 6293SOL    HW119778   4.127   0.076   7.018
 6293SOL    HW219779   4.106   0.176   0.121
 6294SOL     OW19780   3.687   4.965   4.394
 6294SOL    HW119781   3.662   5.061   4.400
 6294SOL    HW219782   3.653   4.926   4.309
 6295SOL     OW19783   5.086   5.231   5.212
 6295SOL    HW119784   5.017   5.213   5.142
 6295SOL    HW219785   5.104   5.329   5.216
 6296SOL     OW19786   0.046   6.713   5.109
 6296SOL    HW119787   6.972   6.713   5.093
 6296SOL    HW219788   0.071   6.632   5.163
 6297SOL     OW19789   4.881   0.057   5.399
 6297SOL    HW119790   4.791   0.018   5.379
 6297SOL    HW219791   4.895   0.139   5.343
 6298SOL     OW19792   1.585   2.429   5.952
 6298SOL    HW119793   1.583   2.529   5.948
 6298SOL    HW219794   1.679   2.398   5.967
 6299SOL     OW19795   4.924   1.378   0.606
 6299SOL    HW119796   4.964   1.312   0.543
 6299SOL    HW219797   4.932   1.470   0.567
 6300SOL     OW19798   5.210   0.614   5.444
 6300SOL    HW119799   5.176   0.606   5.537
 6300SOL    HW219800   5.134   0.608   5.380
 6301SOL     OW19801   2.949   0.900   1.268
 6301SOL    HW119802   3.046   0.883   1.250
 6301SOL    HW219803   2.937   0.994   1.301
 6302SOL     OW19804   1.401   1.559   3.915
 6302SOL    HW119805   1.431   1.480   3.861
 6302SOL    HW219806   1.479   1.615   3.940
 6303SOL     OW19807   2.357   1.056   4.635
 6303SOL    HW119808   2.270   1.106   4.635
 6303SOL    HW219809   2.400   1.065   4.725
 6304SOL     OW19810   2.186   1.384   0.604
 6304SOL    HW119811   2.229   1.327   0.533
 6304SOL    HW219812   2.147   1.325   0.674
 6305SOL     OW19813   6.151   6.925   0.717
 6305SOL    HW119814   6.154   7.022   0.695
 6305SOL    HW219815   6.098   6.910   0.800
 6306SOL     OW19816   1.612   3.974   4.263
 6306SOL    HW119817   1.621   3.885   4.217
 6306SOL    HW219818   1.681   3.980   4.336
 6307SOL     OW19819   3.933   3.840   5.527
 6307SOL    HW119820   3.981   3.798   5.603
 6307SOL    HW219821   3.998   3.864   5.455
 6308SOL     OW19822   1.253   1.774   4.823
 6308SOL    HW119823   1.311   1.855   4.827
 6308SOL    HW219824   1.310   1.692   4.827
 6309SOL     OW19825   4.806   4.110   4.443
 6309SOL    HW119826   4.791   4.144   4.350
 6309SOL    HW219827   4.771   4.176   4.509
 6310SOL     OW19828   2.105   5.358   3.696
 6310SOL    HW119829   2.162   5.375   3.616
 6310SOL    HW219830   2.145   5.283   3.749
 6311SOL     OW19831   5.944   0.790   5.805
 6311SOL    HW119832   5.960   0.799   5.707
 6311SOL    HW219833   5.894   0.705   5.823
 6312SOL     OW19834   5.903   5.038   5.569
 6312SOL    HW119835   5.992   5.047   5.524
 6312SOL    HW219836   5.854   4.960   5.530
 6313SOL     OW19837   1.695   5.706   3.023
 6313SOL    HW119838   1.734   5.671   3.108
 6313SOL    HW219839   1.631   5.780   3.044
 6314SOL     OW19840   4.181   6.276   1.638
 6314SOL    HW119841   4.250   6.224   1.587
 6314SOL    HW219842   4.208   6.372   1.643
 6315SOL     OW19843   3.726   3.132   6.097
 6315SOL    HW119844   3.651   3.126   6.162
 6315SOL    HW219845   3.718   3.058   6.030
 6316SOL     OW19846   4.629   2.064   6.522
 6316SOL    HW119847   4.609   2.045   6.618
 6316SOL    HW219848   4.549   2.105   6.478
 6317SOL     OW19849   4.910   5.471   3.322
 6317SOL    HW119850   4.903   5.371   3.327
 6317SOL    HW219851   4.870   5.511   3.404
 6318SOL     OW19852   3.034   1.917   4.828
 6318SOL    HW119853   2.986   1.836   4.863
 6318SOL    HW219854   3.123   1.889   4.791
 6319SOL     OW19855   0.305   2.228   3.260
 6319SOL    HW119856   0.383   2.190   3.210
 6319SOL    HW219857   0.292   2.177   3.345
 6320SOL     OW19858   6.009   4.448   4.920
 6320SOL    HW119859   6.098   4.469   4.880
 6320SOL    HW219860   5.957   4.389   4.859
 6321SOL     OW19861   3.301   4.866   0.980
 6321SOL    HW119862   3.350   4.950   1.005
 6321SOL    HW219863   3.236   4.843   1.053
 6322SOL     OW19864   1.585   2.276   6.532
 6322SOL    HW119865   1.647   2.197   6.536
 6322SOL    HW219866   1.634   2.359   6.558
 6323SOL     OW19867   3.669   2.939   1.235
 6323SOL    HW119868   3.609   2.994   1.294
 6323SOL    HW219869   3.708   2.864   1.288
 6324SOL     OW19870   5.005   0.128   6.105
 6324SOL    HW119871   4.905   0.129   6.098
 6324SOL    HW219872   5.033   0.053   6.164
 6325SOL     OW19873   1.138   2.019   2.280
 6325SOL    HW119874   1.139   1.945   2.347
 6325SOL    HW219875   1.219   2.012   2.222
 6326SOL     OW19876   4.466   6.023   2.047
 6326SOL    HW119877   4.430   6.113   2.024
 6326SOL    HW219878   4.539   5.999   1.982
 6327SOL     OW19879   0.223   0.638   5.124
 6327SOL    HW119880   0.151   0.677   5.181
 6327SOL    HW219881   0.268   0.563   5.172
 6328SOL     OW19882   2.014   4.093   0.755
 6328SOL    HW119883   2.109   4.124   0.755
 6328SOL    HW219884   1.953   4.171   0.745
 6329SOL     OW19885   2.367   2.796   3.409
 6329SOL    HW119886   2.314   2.873   3.375
 6329SOL    HW219887   2.451   2.787   3.355
 6330SOL     OW19888   4.458   0.853   1.529
 6330SOL    HW119889   4.423   0.868   1.621
 6330SOL    HW219890   4.531   0.920   1.509
 6331SOL     OW19891   6.166   2.071   0.346
 6331SOL    HW119892   6.077   2.030   0.368
 6331SOL    HW219893   6.201   2.119   0.426
 6332SOL     OW19894   6.872   4.182   2.187
 6332SOL    HW119895   6.804   4.211   2.254
 6332SOL    HW219896   6.934   4.116   2.229
 6333SOL     OW19897   4.168   4.838   4.225
 6333SOL    HW119898   4.192   4.802   4.135
 6333SOL    HW219899   4.179   4.938   4.224
 6334SOL     OW19900   2.104   0.363   2.175
 6334SOL    HW119901   2.132   0.378   2.080
 6334SOL    HW219902   2.160   0.291   2.216
 6335SOL     OW19903   4.504   1.569   0.938
 6335SOL    HW119904   4.580   1.604   0.992
 6335SOL    HW219905   4.506   1.469   0.938
 6336SOL     OW19906   0.225   1.508   6.090
 6336SOL    HW119907   0.279   1.426   6.107
 6336SOL    HW219908   0.283   1.589   6.102
 6337SOL     OW19909   4.873   4.016   6.455
 6337SOL    HW119910   4.796   4.077   6.471
 6337SOL    HW219911   4.954   4.069   6.430
 6338SOL     OW19912   3.011   2.092   2.745
 6338SOL    HW119913   2.976   2.016   2.691
 6338SOL    HW219914   3.108   2.105   2.726
 6339SOL     OW19915   0.677   2.718   3.262
 6339SOL    HW119916   0.627   2.635   3.289
 6339SOL    HW219917   0.612   2.793   3.251
 6340SOL     OW19918   1.907   4.664   2.989
 6340SOL    HW119919   2.005   4.654   2.972
 6340SOL    HW219920   1.891   4.742   3.050
 6341SOL     OW19921   0.673   4.777   3.785
 6341SOL    HW119922   0.596   4.798   3.845
 6341SOL    HW219923   0.675   4.679   3.767
 6342SOL     OW19924   2.752   1.905   1.815
 6342SOL    HW119925   2.790   1.975   1.755
 6342SOL    HW219926   2.791   1.816   1.792
 6343SOL     OW19927   4.839   2.225   6.549
 6343SOL    HW119928   4.867   2.224   6.645
 6343SOL    HW219929   4.749   2.183   6.540
 6344SOL     OW19930   6.012   3.434   5.589
 6344SOL    HW119931   6.035   3.526   5.556
 6344SOL    HW219932   5.915   3.430   5.612
 6345SOL     OW19933   4.407   1.522   2.409
 6345SOL    HW119934   4.471   1.597   2.425
 6345SOL    HW219935   4.435   1.443   2.464
 6346SOL     OW19936   7.023   3.491   3.557
 6346SOL    HW119937   6.998   3.552   3.483
 6346SOL    HW219938   0.094   3.507   3.583
 6347SOL     OW19939   2.188   0.775   1.264
 6347SOL    HW119940   2.130   0.820   1.332
 6347SOL    HW219941   2.223   0.843   1.200
 6348SOL     OW19942   1.300   4.397   4.946
 6348SOL    HW119943   1.336   4.307   4.970
 6348SOL    HW219944   1.278   4.399   4.849
 6349SOL     OW19945   3.302   0.269   1.319
 6349SOL    HW119946   3.329   0.213   1.396
 6349SOL    HW219947   3.229   0.224   1.268
 6350SOL     OW19948   2.537   4.922   3.856
 6350SOL    HW119949   2.510   4.947   3.949
 6350SOL    HW219950   2.488   4.981   3.791
 6351SOL     OW19951   6.508   3.357   2.722
 6351SOL    HW119952   6.507   3.354   2.622
 6351SOL    HW219953   6.599   3.330   2.755
 6352SOL     OW19954   2.216   5.182   4.565
 6352SOL    HW119955   2.172   5.244   4.630
 6352SOL    HW219956   2.167   5.095   4.565
 6353SOL     OW19957   6.465   0.963   6.398
 6353SOL    HW119958   6.547   1.018   6.416
 6353SOL    HW219959   6.441   0.972   6.301
 6354SOL     OW19960   1.613   0.429   2.649
 6354SOL    HW119961   1.535   0.487   2.670
 6354SOL    HW219962   1.641   0.444   2.554
 6355SOL     OW19963   1.364   4.845   5.827
 6355SOL    HW119964   1.278   4.836   5.877
 6355SOL    HW219965   1.386   4.759   5.781
 6356SOL     OW19966   4.080   4.713   2.677
 6356SOL    HW119967   4.035   4.624   2.684
 6356SOL    HW219968   4.174   4.700   2.645
 6357SOL     OW19969   4.956   2.642   2.012
 6357SOL    HW119970   4.901   2.647   1.928
 6357SOL    HW219971   4.910   2.693   2.085
 6358SOL     OW19972   0.989   2.072   6.102
 6358SOL    HW119973   1.055   2.018   6.051
 6358SOL    HW219974   0.981   2.037   6.195
 6359SOL     OW19975   6.103   0.111   5.691
 6359SOL    HW119976   6.103   0.086   5.595
 6359SOL    HW219977   6.121   0.209   5.701
 6360SOL     OW19978   1.907   3.950   4.065
 6360SOL    HW119979   1.992   4.002   4.076
 6360SOL    HW219980   1.829   4.008   4.090
 6361SOL     OW19981   6.322   0.074   0.205
 6361SOL    HW119982   6.296   0.156   0.256
 6361SOL    HW219983   6.250   0.051   0.140
 6362SOL     OW19984   6.245   5.382   6.551
 6362SOL    HW119985   6.204   5.449   6.489
 6362SOL    HW219986   6.288   5.430   6.628
 6363SOL     OW19987   2.169   4.621   3.274
 6363SOL    HW119988   2.108   4.700   3.263
 6363SOL    HW219989   2.264   4.652   3.275
 6364SOL     OW19990   3.372   1.134   5.876
 6364SOL    HW119991   3.375   1.042   5.837
 6364SOL    HW219992   3.466   1.168   5.888
 6365SOL     OW19993   5.378   6.779   4.256
 6365SOL    HW119994   5.455   6.789   4.318
 6365SOL    HW219995   5.400   6.822   4.168
 6366SOL     OW19996   0.416   5.766   6.351
 6366SOL    HW119997   0.390   5.675   6.382
 6366SOL    HW219998   0.516   5.770   6.339
 6367SOL     OW19999   3.739   0.484   3.965
 6367SOL    HW120000   3.754   0.398   4.014
 6367SOL    HW220001   3.641   0.499   3.955
 6368SOL     OW20002   3.586   6.843   3.577
 6368SOL    HW120003   3.614   6.925   3.527
 6368SOL    HW220004   3.609   6.854   3.674
 6369SOL     OW20005   2.534   5.122   4.710
 6369SOL    HW120006   2.494   5.032   4.690
 6369SOL    HW220007   2.514   5.147   4.805
 6370SOL     OW20008   1.202   3.391   2.353
 6370SOL    HW120009   1.277   3.357   2.410
 6370SOL    HW220010   1.234   3.405   2.260
 6371SOL     OW20011   5.202   3.427   3.895
 6371SOL    HW120012   5.139   3.427   3.817
 6371SOL    HW220013   5.232   3.334   3.914
 6372SOL     OW20014   3.519   0.099   1.883
 6372SOL    HW120015   3.459   0.157   1.938
 6372SOL    HW220016   3.537   0.145   1.796
 6373SOL     OW20017   5.971   4.055   3.713
 6373SOL    HW120018   5.983   4.154   3.707
 6373SOL    HW220019   5.970   4.027   3.809
 6374SOL     OW20020   3.743   4.131   4.164
 6374SOL    HW120021   3.761   4.042   4.123
 6374SOL    HW220022   3.774   4.130   4.259
 6375SOL     OW20023   0.123   1.730   4.064
 6375SOL    HW120024   0.155   1.773   3.980
 6375SOL    HW220025   0.202   1.705   4.120
 6376SOL     OW20026   6.186   2.342   5.548
 6376SOL    HW120027   6.246   2.364   5.625
 6376SOL    HW220028   6.127   2.265   5.573
 6377SOL     OW20029   6.415   1.696   5.542
 6377SOL    HW120030   6.473   1.775   5.561
 6377SOL    HW220031   6.335   1.726   5.491
 6378SOL     OW20032   5.069   5.214   3.357
 6378SOL    HW120033   5.162   5.230   3.323
 6378SOL    HW220034   5.054   5.267   3.440
 6379SOL     OW20035   2.573   4.554   4.443
 6379SOL    HW120036   2.501   4.591   4.502
 6379SOL    HW220037   2.582   4.456   4.458
 6380SOL     OW20038   0.247   1.878   5.876
 6380SOL    HW120039   0.303   1.829   5.942
 6380SOL    HW220040   0.182   1.815   5.833
 6381SOL     OW20041   3.510   3.454   2.072
 6381SOL    HW120042   3.448   3.409   2.136
 6381SOL    HW220043   3.577   3.388   2.038
 6382SOL     OW20044   1.332   2.909   0.518
 6382SOL    HW120045   1.245   2.935   0.476
 6382SOL    HW220046   1.322   2.821   0.564
 6383SOL     OW20047   2.200   2.517   2.677
 6383SOL    HW120048   2.217   2.500   2.774
 6383SOL    HW220049   2.279   2.562   2.637
 6384SOL     OW20050   5.857   4.357   1.349
 6384SOL    HW120051   5.891   4.381   1.258
 6384SOL    HW220052   5.763   4.390   1.360
 6385SOL     OW20053   6.890   4.616   4.382
 6385SOL    HW120054   6.846   4.528   4.367
 6385SOL    HW220055   6.870   4.676   4.304
 6386SOL     OW20056   2.515   3.944   6.391
 6386SOL    HW120057   2.600   3.902   6.358
 6386SOL    HW220058   2.480   4.007   6.322
 6387SOL     OW20059   0.623   1.608   6.754
 6387SOL    HW120060   0.658   1.695   6.788
 6387SOL    HW220061   0.632   1.539   6.826
 6388SOL     OW20062   4.396   4.829   1.766
 6388SOL    HW120063   4.462   4.754   1.769
 6388SOL    HW220064   4.425   4.901   1.828
 6389SOL     OW20065   0.875   5.951   2.287
 6389SOL    HW120066   0.955   5.895   2.307
 6389SOL    HW220067   0.820   5.906   2.215
 6390SOL     OW20068   1.247   2.240   4.779
 6390SOL    HW120069   1.234   2.158   4.724
 6390SOL    HW220070   1.310   2.219   4.855
 6391SOL     OW20071   3.099   0.080   5.696
 6391SOL    HW120072   3.108   7.009   5.725
 6391SOL    HW220073   3.175   0.103   5.635
 6392SOL     OW20074   2.157   6.807   3.529
 6392SOL    HW120075   2.107   6.837   3.448
 6392SOL    HW220076   2.255   6.829   3.518
 6393SOL     OW20077   6.395   6.258   1.271
 6393SOL    HW120078   6.342   6.191   1.219
 6393SOL    HW220079   6.412   6.223   1.363
 6394SOL     OW20080   2.553   4.590   1.108
 6394SOL    HW120081   2.474   4.596   1.047
 6394SOL    HW220082   2.602   4.678   1.108
 6395SOL     OW20083   5.709   2.890   1.355
 6395SOL    HW120084   5.638   2.884   1.426
 6395SOL    HW220085   5.776   2.817   1.369
 6396SOL     OW20086   5.036   2.853   6.960
 6396SOL    HW120087   5.054   2.787   6.887
 6396SOL    HW220088   4.993   2.935   6.921
 6397SOL     OW20089   5.789   2.519   0.064
 6397SOL    HW120090   5.885   2.515   0.090
 6397SOL    HW220091   5.771   2.453   7.016
 6398SOL     OW20092   3.683   0.632   0.697
 6398SOL    HW120093   3.589   0.635   0.732
 6398SOL    HW220094   3.734   0.562   0.746
 6399SOL     OW20095   1.484   4.825   6.417
 6399SOL    HW120096   1.484   4.887   6.496
 6399SOL    HW220097   1.578   4.805   6.390
 6400SOL     OW20098   2.217   5.667   3.178
 6400SOL    HW120099   2.190   5.653   3.083
 6400SOL    HW220100   2.197   5.761   3.205
 6401SOL     OW20101   6.388   4.541   3.858
 6401SOL    HW120102   6.323   4.468   3.877
 6401SOL    HW220103   6.345   4.609   3.799
 6402SOL     OW20104   3.127   1.006   2.995
 6402SOL    HW120105   3.142   0.936   2.925
 6402SOL    HW220106   3.215   1.034   3.033
 6403SOL     OW20107   0.734   6.052   6.422
 6403SOL    HW120108   0.781   6.101   6.350
 6403SOL    HW220109   0.779   6.068   6.510
 6404SOL     OW20110   4.104   1.133   3.040
 6404SOL    HW120111   4.116   1.229   3.063
 6404SOL    HW220112   4.008   1.107   3.050
 6405SOL     OW20113   1.763   0.802   3.492
 6405SOL    HW120114   1.731   0.787   3.586
 6405SOL    HW220115   1.813   0.888   3.487
 6406SOL     OW20116   1.831   2.246   3.526
 6406SOL    HW120117   1.879   2.204   3.449
 6406SOL    HW220118   1.888   2.240   3.608
 6407SOL     OW20119   3.320   0.099   2.856
 6407SOL    HW120120   3.235   0.152   2.848
 6407SOL    HW220121   3.324   0.058   2.947
 6408SOL     OW20122   5.891   2.302   6.759
 6408SOL    HW120123   5.970   2.333   6.812
 6408SOL    HW220124   5.899   2.203   6.743
 6409SOL     OW20125   0.278   4.252   2.888
 6409SOL    HW120126   0.259   4.166   2.842
 6409SOL    HW220127   0.294   4.234   2.986
 6410SOL     OW20128   1.959   1.451   0.047
 6410SOL    HW120129   1.930   1.545   0.061
 6410SOL    HW220130   2.017   1.422   0.123
 6411SOL     OW20131   0.505   2.909   3.272
 6411SOL    HW120132   0.461   2.869   3.352
 6411SOL    HW220133   0.519   3.007   3.288
 6412SOL     OW20134   0.080   2.935   5.765
 6412SOL    HW120135   0.130   3.001   5.821
 6412SOL    HW220136   0.060   2.853   5.819
 6413SOL     OW20137   5.173   4.992   3.129
 6413SOL    HW120138   5.199   4.929   3.055
 6413SOL    HW220139   5.180   4.945   3.217
 6414SOL     OW20140   5.897   0.619   1.940
 6414SOL    HW120141   5.841   0.539   1.919
 6414SOL    HW220142   5.991   0.590   1.960
 6415SOL     OW20143   2.647   2.211   2.524
 6415SOL    HW120144   2.627   2.289   2.465
 6415SOL    HW220145   2.694   2.242   2.606
 6416SOL     OW20146   0.996   0.995   5.479
 6416SOL    HW120147   0.946   0.935   5.543
 6416SOL    HW220148   1.044   1.065   5.531
 6417SOL     OW20149   0.119   4.387   2.285
 6417SOL    HW120150   0.195   4.362   2.345
 6417SOL    HW220151   0.034   4.388   2.337
 6418SOL     OW20152   5.769   4.796   2.061
 6418SOL    HW120153   5.730   4.795   2.153
 6418SOL    HW220154   5.865   4.824   2.067
 6419SOL     OW20155   2.434   5.133   2.606
 6419SOL    HW120156   2.395   5.078   2.532
 6419SOL    HW220157   2.362   5.190   2.647
 6420SOL     OW20158   2.928   3.420   5.710
 6420SOL    HW120159   2.985   3.351   5.754
 6420SOL    HW220160   2.918   3.397   5.613
 6421SOL     OW20161   5.890   1.673   2.271
 6421SOL    HW120162   5.853   1.728   2.346
 6421SOL    HW220163   5.905   1.579   2.302
 6422SOL     OW20164   0.099   0.215   4.051
 6422SOL    HW120165   0.158   0.142   4.018
 6422SOL    HW220166   0.030   0.177   4.114
 6423SOL     OW20167   5.025   4.637   2.292
 6423SOL    HW120168   5.099   4.579   2.259
 6423SOL    HW220169   4.937   4.604   2.258
 6424SOL     OW20170   6.873   5.511   5.814
 6424SOL    HW120171   6.855   5.541   5.720
 6424SOL    HW220172   6.837   5.418   5.826
 6425SOL     OW20173   6.629   5.427   3.527
 6425SOL    HW120174   6.609   5.358   3.458
 6425SOL    HW220175   6.543   5.464   3.564
 6426SOL     OW20176   0.570   4.603   3.461
 6426SOL    HW120177   0.563   4.510   3.498
 6426SOL    HW220178   0.493   4.658   3.493
 6427SOL     OW20179   1.897   3.362   6.755
 6427SOL    HW120180   1.814   3.410   6.726
 6427SOL    HW220181   1.923   3.296   6.684
 6428SOL     OW20182   6.518   3.432   0.669
 6428SOL    HW120183   6.429   3.477   0.669
 6428SOL    HW220184   6.587   3.495   0.704
 6429SOL     OW20185   0.641   1.331   4.873
 6429SOL    HW120186   0.615   1.284   4.789
 6429SOL    HW220187   0.565   1.326   4.938
 6430SOL     OW20188   5.029   0.939   2.321
 6430SOL    HW120189   4.986   0.956   2.410
 6430SOL    HW220190   5.050   0.841   2.312
 6431SOL     OW20191   5.526   0.036   3.240
 6431SOL    HW120192   5.435   7.018   3.241
 6431SOL    HW220193   5.516   0.133   3.219
 6432SOL     OW20194   3.872   3.902   6.927
 6432SOL    HW120195   3.876   3.993   6.970
 6432SOL    HW220196   3.778   3.870   6.925
 6433SOL     OW20197   3.760   4.293   0.650
 6433SOL    HW120198   3.802   4.367   0.702
 6433SOL    HW220199   3.692   4.246   0.707
 6434SOL     OW20200   2.094   3.882   0.611
 6434SOL    HW120201   2.077   3.931   0.526
 6434SOL    HW220202   2.084   3.945   0.688
 6435SOL     OW20203   3.890   5.530   0.065
 6435SOL    HW120204   3.986   5.506   0.051
 6435SOL    HW220205   3.874   5.625   0.038
 6436SOL     OW20206   2.165   3.111   4.029
 6436SOL    HW120207   2.078   3.080   4.067
 6436SOL    HW220208   2.227   3.033   4.020
 6437SOL     OW20209   1.733   0.932   0.821
 6437SOL    HW120210   1.652   0.895   0.866
 6437SOL    HW220211   1.773   1.004   0.877
 6438SOL     OW20212   0.341   4.528   6.111
 6438SOL    HW120213   0.314   4.593   6.040
 6438SOL    HW220214   0.388   4.450   6.069
 6439SOL     OW20215   6.928   0.218   1.751
 6439SOL    HW120216   6.923   0.311   1.787
 6439SOL    HW220217   6.878   0.214   1.664
 6440SOL     OW20218   2.029   1.591   1.760
 6440SOL    HW120219   2.073   1.587   1.849
 6440SOL    HW220220   2.018   1.687   1.733
 6441SOL     OW20221   0.719   0.400   2.635
 6441SOL    HW120222   0.622   0.425   2.630
 6441SOL    HW220223   0.745   0.351   2.552
 6442SOL     OW20224   1.976   1.385   3.172
 6442SOL    HW120225   2.042   1.319   3.208
 6442SOL    HW220226   2.006   1.416   3.082
 6443SOL     OW20227   3.792   2.656   0.243
 6443SOL    HW120228   3.694   2.657   0.262
 6443SOL    HW220229   3.837   2.730   0.293
 6444SOL     OW20230   1.063   2.729   3.817
 6444SOL    HW120231   1.103   2.817   3.791
 6444SOL    HW220232   0.976   2.744   3.863
 6445SOL     OW20233   4.760   2.646   5.757
 6445SOL    HW120234   4.808   2.612   5.676
 6445SOL    HW220235   4.804   2.728   5.791
 6446SOL     OW20236   0.927   1.037   6.170
 6446SOL    HW120237   1.006   1.078   6.216
 6446SOL    HW220238   0.956   1.002   6.081
 6447SOL     OW20239   0.038   5.762   2.530
 6447SOL    HW120240   0.015   5.808   2.445
 6447SOL    HW220241   0.124   5.799   2.565
 6448SOL     OW20242   5.430   4.594   2.191
 6448SOL    HW120243   5.460   4.562   2.102
 6448SOL    HW220244   5.349   4.544   2.220
 6449SOL     OW20245   3.851   4.727   0.894
 6449SOL    HW120246   3.809   4.788   0.826
 6449SOL    HW220247   3.779   4.680   0.945
 6450SOL     OW20248   0.254   3.448   1.457
 6450SOL    HW120249   0.205   3.373   1.412
 6450SOL    HW220250   0.303   3.502   1.389
 6451SOL     OW20251   2.502   6.333   4.911
 6451SOL    HW120252   2.592   6.353   4.871
 6451SOL    HW220253   2.432   6.337   4.840
 6452SOL     OW20254   3.447   5.890   5.245
 6452SOL    HW120255   3.400   5.957   5.302
 6452SOL    HW220256   3.496   5.937   5.171
 6453SOL     OW20257   1.636   6.157   0.096
 6453SOL    HW120258   1.669   6.243   0.056
 6453SOL    HW220259   1.597   6.100   0.025
 6454SOL     OW20260   3.084   1.224   3.617
 6454SOL    HW120261   3.179   1.252   3.607
 6454SOL    HW220262   3.038   1.285   3.682
 6455SOL     OW20263   0.846   2.058   3.955
 6455SOL    HW120264   0.906   1.985   3.923
 6455SOL    HW220265   0.888   2.146   3.938
 6456SOL     OW20266   1.906   0.263   3.626
 6456SOL    HW120267   1.830   0.224   3.678
 6456SOL    HW220268   1.875   0.287   3.534
 6457SOL     OW20269   5.095   0.982   1.254
 6457SOL    HW120270   5.061   0.931   1.333
 6457SOL    HW220271   5.021   1.034   1.213
 6458SOL     OW20272   1.026   6.790   3.462
 6458SOL    HW120273   1.124   6.792   3.442
 6458SOL    HW220274   0.984   6.876   3.433
 6459SOL     OW20275   5.664   5.524   0.670
 6459SOL    HW120276   5.607   5.587   0.618
 6459SOL    HW220277   5.608   5.477   0.739
 6460SOL     OW20278   4.577   4.987   5.815
 6460SOL    HW120279   4.638   4.974   5.737
 6460SOL    HW220280   4.611   5.061   5.873
 6461SOL     OW20281   2.897   4.958   5.274
 6461SOL    HW120282   2.931   4.886   5.335
 6461SOL    HW220283   2.837   4.917   5.205
 6462SOL     OW20284   2.152   2.827   4.906
 6462SOL    HW120285   2.207   2.896   4.953
 6462SOL    HW220286   2.212   2.756   4.869
 6463SOL     OW20287   1.728   4.146   6.639
 6463SOL    HW120288   1.681   4.142   6.551
 6463SOL    HW220289   1.827   4.146   6.625
 6464SOL     OW20290   0.964   4.702   5.212
 6464SOL    HW120291   0.962   4.745   5.122
 6464SOL    HW220292   0.968   4.603   5.202
 6465SOL     OW20293   6.484   2.773   3.853
 6465SOL    HW120294   6.459   2.676   3.855
 6465SOL    HW220295   6.564   2.788   3.910
 6466SOL     OW20296   0.463   1.188   6.602
 6466SOL    HW120297   0.401   1.236   6.541
 6466SOL    HW220298   0.465   1.232   6.691
 6467SOL     OW20299   3.103   0.987   0.025
 6467SOL    HW120300   3.006   0.971   0.039
 6467SOL    HW220301   3.140   1.037   0.104
 6468SOL     OW20302   3.920   6.471   1.825
 6468SOL    HW120303   3.935   6.385   1.873
 6468SOL    HW220304   4.005   6.524   1.822
 6469SOL     OW20305   4.942   0.349   5.114
 6469SOL    HW120306   4.843   0.367   5.113
 6469SOL    HW220307   4.971   0.331   5.208
 6470SOL     OW20308   5.958   5.209   6.501
 6470SOL    HW120309   5.939   5.180   6.407
 6470SOL    HW220310   6.054   5.239   6.509
 6471SOL     OW20311   6.675   5.708   5.936
 6471SOL    HW120312   6.719   5.641   5.876
 6471SOL    HW220313   6.605   5.758   5.884
 6472SOL     OW20314   0.346   4.649   0.953
 6472SOL    HW120315   0.372   4.567   1.003
 6472SOL    HW220316   0.280   4.701   1.008
 6473SOL     OW20317   2.282   1.938   4.281
 6473SOL    HW120318   2.357   1.919   4.344
 6473SOL    HW220319   2.254   2.034   4.291
 6474SOL     OW20320   1.932   3.254   5.909
 6474SOL    HW120321   1.865   3.308   5.857
 6474SOL    HW220322   1.926   3.158   5.881
 6475SOL     OW20323   6.976   5.297   4.653
 6475SOL    HW120324   6.968   5.397   4.644
 6475SOL    HW220325   6.936   5.253   4.573
 6476SOL     OW20326   4.387   3.796   1.612
 6476SOL    HW120327   4.349   3.873   1.663
 6476SOL    HW220328   4.334   3.713   1.630
 6477SOL     OW20329   0.436   4.893   1.390
 6477SOL    HW120330   0.473   4.818   1.445
 6477SOL    HW220331   0.508   4.929   1.331
 6478SOL     OW20332   3.527   6.373   2.354
 6478SOL    HW120333   3.435   6.393   2.321
 6478SOL    HW220334   3.521   6.312   2.433
 6479SOL     OW20335   3.852   5.534   3.259
 6479SOL    HW120336   3.827   5.538   3.162
 6479SOL    HW220337   3.792   5.595   3.311
 6480SOL     OW20338   3.318   2.883   5.519
 6480SOL    HW120339   3.315   2.982   5.529
 6480SOL    HW220340   3.411   2.851   5.534
 6481SOL     OW20341   3.111   1.884   1.875
 6481SOL    HW120342   3.152   1.973   1.894
 6481SOL    HW220343   3.029   1.895   1.819
 6482SOL     OW20344   0.044   0.884   6.339
 6482SOL    HW120345   0.042   0.835   6.426
 6482SOL    HW220346   0.118   0.847   6.282
 6483SOL     OW20347   2.424   5.621   1.375
 6483SOL    HW120348   2.491   5.695   1.384
 6483SOL    HW220349   2.391   5.617   1.281
 6484SOL     OW20350   3.648   0.343   3.063
 6484SOL    HW120351   3.552   0.361   3.082
 6484SOL    HW220352   3.699   0.341   3.150
 6485SOL     OW20353   2.138   3.478   3.833
 6485SOL    HW120354   2.157   3.570   3.799
 6485SOL    HW220355   2.079   3.484   3.913
 6486SOL     OW20356   1.147   4.531   4.250
 6486SOL    HW120357   1.234   4.562   4.212
 6486SOL    HW220358   1.094   4.610   4.281
 6487SOL     OW20359   6.464   5.987   4.969
 6487SOL    HW120360   6.479   5.888   4.971
 6487SOL    HW220361   6.525   6.031   5.035
 6488SOL     OW20362   2.558   5.758   4.926
 6488SOL    HW120363   2.542   5.855   4.904
 6488SOL    HW220364   2.643   5.750   4.979
 6489SOL     OW20365   2.438   3.825   6.694
 6489SOL    HW120366   2.511   3.878   6.736
 6489SOL    HW220367   2.464   3.729   6.690
 6490SOL     OW20368   4.073   2.871   6.888
 6490SOL    HW120369   3.984   2.864   6.933
 6490SOL    HW220370   4.104   2.780   6.861
 6491SOL     OW20371   4.214   1.204   6.679
 6491SOL    HW120372   4.291   1.178   6.621
 6491SOL    HW220373   4.197   1.303   6.670
 6492SOL     OW20374   5.877   6.276   6.973
 6492SOL    HW120375   5.805   6.210   6.997
 6492SOL    HW220376   5.962   6.227   6.954
 6493SOL     OW20377   1.601   6.098   5.357
 6493SOL    HW120378   1.573   6.030   5.290
 6493SOL    HW220379   1.616   6.186   5.311
 6494SOL     OW20380   6.952   1.191   3.335
 6494SOL    HW120381   6.954   1.136   3.251
 6494SOL    HW220382   6.871   1.167   3.389
 6495SOL     OW20383   4.817   6.222   4.625
 6495SOL    HW120384   4.852   6.205   4.533
 6495SOL    HW220385   4.756   6.302   4.623
 6496SOL     OW20386   0.047   6.383   2.398
 6496SOL    HW120387   0.111   6.373   2.322
 6496SOL    HW220388   0.097   6.380   2.484
 6497SOL     OW20389   2.726   3.461   6.924
 6497SOL    HW120390   2.750   3.405   7.003
 6497SOL    HW220391   2.807   3.512   6.894
 6498SOL     OW20392   2.603   4.636   4.191
 6498SOL    HW120393   2.674   4.706   4.185
 6498SOL    HW220394   2.625   4.573   4.266
 6499SOL     OW20395   6.030   1.845   5.193
 6499SOL    HW120396   6.112   1.882   5.151
 6499SOL    HW220397   6.050   1.822   5.289
 6500SOL     OW20398   0.329   4.262   4.167
 6500SOL    HW120399   0.345   4.174   4.211
 6500SOL    HW220400   0.296   4.328   4.235
 6501SOL     OW20401   6.812   2.238   0.464
 6501SOL    HW120402   6.894   2.210   0.413
 6501SOL    HW220403   6.765   2.310   0.413
 6502SOL     OW20404   6.573   3.972   3.005
 6502SOL    HW120405   6.619   4.060   2.987
 6502SOL    HW220406   6.601   3.905   2.936
 6503SOL     OW20407   5.181   6.850   3.893
 6503SOL    HW120408   5.155   6.760   3.858
 6503SOL    HW220409   5.263   6.843   3.950
 6504SOL     OW20410   4.718   6.470   6.133
 6504SOL    HW120411   4.760   6.561   6.138
 6504SOL    HW220412   4.761   6.411   6.201
 6505SOL     OW20413   5.767   4.651   1.682
 6505SOL    HW120414   5.697   4.718   1.706
 6505SOL    HW220415   5.797   4.666   1.588
 6506SOL     OW20416   0.378   2.976   0.847
 6506SOL    HW120417   0.331   2.892   0.820
 6506SOL    HW220418   0.477   2.960   0.849
 6507SOL     OW20419   1.649   5.929   6.268
 6507SOL    HW120420   1.623   5.857   6.332
 6507SOL    HW220421   1.749   5.940   6.271
 6508SOL     OW20422   2.150   1.708   3.490
 6508SOL    HW120423   2.148   1.785   3.554
 6508SOL    HW220424   2.244   1.693   3.459
 6509SOL     OW20425   2.304   2.642   4.422
 6509SOL    HW120426   2.270   2.709   4.356
 6509SOL    HW220427   2.231   2.578   4.445
 6510SOL     OW20428   0.354   5.160   6.619
 6510SOL    HW120429   0.326   5.132   6.711
 6510SOL    HW220430   0.285   5.221   6.580
 6511SOL     OW20431   5.134   0.983   4.898
 6511SOL    HW120432   5.200   0.992   4.823
 6511SOL    HW220433   5.064   1.054   4.889
 6512SOL     OW20434   5.272   0.191   2.547
 6512SOL    HW120435   5.186   0.197   2.598
 6512SOL    HW220436   5.342   0.146   2.604
 6513SOL     OW20437   3.221   5.974   3.268
 6513SOL    HW120438   3.309   5.970   3.221
 6513SOL    HW220439   3.196   6.070   3.285
 6514SOL     OW20440   6.002   0.477   3.339
 6514SOL    HW120441   5.980   0.454   3.245
 6514SOL    HW220442   5.973   0.403   3.400
 6515SOL     OW20443   0.339   4.984   4.107
 6515SOL    HW120444   0.292   4.958   4.192
 6515SOL    HW220445   0.302   5.070   4.073
 6516SOL     OW20446   0.673   2.679   0.657
 6516SOL    HW120447   0.750   2.742   0.649
 6516SOL    HW220448   0.650   2.642   0.567
 6517SOL     OW20449   5.772   1.131   0.685
 6517SOL    HW120450   5.871   1.128   0.697
 6517SOL    HW220451   5.727   1.105   0.771
 6518SOL     OW20452   0.553   6.119   6.739
 6518SOL    HW120453   0.618   6.121   6.815
 6518SOL    HW220454   0.464   6.150   6.770
 6519SOL     OW20455   2.587   1.792   3.018
 6519SOL    HW120456   2.497   1.785   3.062
 6519SOL    HW220457   2.584   1.863   2.947
 6520SOL     OW20458   6.758   5.698   3.111
 6520SOL    HW120459   6.720   5.644   3.035
 6520SOL    HW220460   6.845   5.739   3.082
 6521SOL     OW20461   0.976   1.518   4.415
 6521SOL    HW120462   0.913   1.583   4.373
 6521SOL    HW220463   0.949   1.500   4.509
 6522SOL     OW20464   3.022   4.391   6.888
 6522SOL    HW120465   3.083   4.387   6.809
 6522SOL    HW220466   2.927   4.400   6.857
 6523SOL     OW20467   3.033   1.151   6.311
 6523SOL    HW120468   3.028   1.071   6.371
 6523SOL    HW220469   3.087   1.128   6.230
 6524SOL     OW20470   3.432   3.091   2.802
 6524SOL    HW120471   3.434   3.181   2.845
 6524SOL    HW220472   3.487   3.027   2.857
 6525SOL     OW20473   2.166   3.170   2.652
 6525SOL    HW120474   2.185   3.259   2.692
 6525SOL    HW220475   2.145   3.180   2.555
 6526SOL     OW20476   0.737   6.326   4.869
 6526SOL    HW120477   0.698   6.391   4.804
 6526SOL    HW220478   0.675   6.247   4.879
 6527SOL     OW20479   0.549   1.554   4.335
 6527SOL    HW120480   0.516   1.621   4.403
 6527SOL    HW220481   0.640   1.522   4.362
 6528SOL     OW20482   0.230   0.586   3.791
 6528SOL    HW120483   0.206   0.658   3.856
 6528SOL    HW220484   0.302   0.619   3.729
 6529SOL     OW20485   6.129   1.523   3.707
 6529SOL    HW120486   6.219   1.487   3.682
 6529SOL    HW220487   6.117   1.517   3.806
 6530SOL     OW20488   6.705   3.952   1.142
 6530SOL    HW120489   6.752   4.038   1.161
 6530SOL    HW220490   6.767   3.876   1.161
 6531SOL     OW20491   5.312   3.274   4.457
 6531SOL    HW120492   5.252   3.338   4.504
 6531SOL    HW220493   5.362   3.219   4.524
 6532SOL     OW20494   5.734   1.280   0.954
 6532SOL    HW120495   5.658   1.252   0.895
 6532SOL    HW220496   5.705   1.276   1.049
 6533SOL     OW20497   5.388   5.832   1.591
 6533SOL    HW120498   5.432   5.909   1.546
 6533SOL    HW220499   5.307   5.863   1.640
 6534SOL     OW20500   3.047   4.539   1.456
 6534SOL    HW120501   3.059   4.580   1.546
 6534SOL    HW220502   3.133   4.497   1.427
 6535SOL     OW20503   0.111   3.214   4.407
 6535SOL    HW120504   0.204   3.249   4.399
 6535SOL    HW220505   0.106   3.151   4.484
 6536SOL     OW20506   6.812   2.075   5.975
 6536SOL    HW120507   6.818   2.091   5.877
 6536SOL    HW220508   6.902   2.083   6.016
 6537SOL     OW20509   6.186   5.985   6.756
 6537SOL    HW120510   6.122   6.036   6.699
 6537SOL    HW220511   6.275   5.979   6.709
 6538SOL     OW20512   3.795   4.323   6.839
 6538SOL    HW120513   3.812   4.258   6.913
 6538SOL    HW220514   3.795   4.416   6.876
 6539SOL     OW20515   2.618   1.725   5.973
 6539SOL    HW120516   2.564   1.705   6.055
 6539SOL    HW220517   2.701   1.670   5.974
 6540SOL     OW20518   4.665   1.973   5.264
 6540SOL    HW120519   4.593   1.953   5.197
 6540SOL    HW220520   4.625   2.010   5.347
 6541SOL     OW20521   3.785   1.946   4.503
 6541SOL    HW120522   3.850   2.004   4.553
 6541SOL    HW220523   3.707   2.001   4.473
 6542SOL     OW20524   6.893   4.586   3.530
 6542SOL    HW120525   6.872   4.631   3.443
 6542SOL    HW220526   6.925   4.655   3.596
 6543SOL     OW20527   6.293   4.177   0.156
 6543SOL    HW120528   6.227   4.246   0.126
 6543SOL    HW220529   6.264   4.087   0.122
 6544SOL     OW20530   0.666   6.149   3.379
 6544SOL    HW120531   0.617   6.199   3.307
 6544SOL    HW220532   0.606   6.077   3.415
 6545SOL     OW20533   5.107   2.190   6.701
 6545SOL    HW120534   5.113   2.289   6.706
 6545SOL    HW220535   5.198   2.149   6.713
 6546SOL     OW20536   4.395   4.512   6.230
 6546SOL    HW120537   4.366   4.429   6.278
 6546SOL    HW220538   4.321   4.544   6.171
 6547SOL     OW20539   4.118   1.704   5.940
 6547SOL    HW120540   4.159   1.760   5.868
 6547SOL    HW220541   4.114   1.609   5.911
 6548SOL     OW20542   0.763   3.851   6.588
 6548SOL    HW120543   0.709   3.772   6.559
 6548SOL    HW220544   0.859   3.838   6.562
 6549SOL     OW20545   3.342   1.285   0.460
 6549SOL    HW120546   3.387   1.246   0.380
 6549SOL    HW220547   3.253   1.243   0.473
 6550SOL     OW20548   6.896   6.163   3.454
 6550SOL    HW120549   6.798   6.178   3.442
 6550SOL    HW220550   6.910   6.073   3.495
 6551SOL     OW20551   1.903   4.085   2.033
 6551SOL    HW120552   1.993   4.095   2.076
 6551SOL    HW220553   1.913   4.046   1.941
 6552SOL     OW20554   2.633   6.961   4.894
 6552SOL    HW120555   2.666   6.908   4.816
 6552SOL    HW220556   2.643   0.034   4.875
 6553SOL     OW20557   0.221   1.766   1.526
 6553SOL    HW120558   0.230   1.694   1.456
 6553SOL    HW220559   0.199   1.724   1.614
 6554SOL     OW20560   5.793   1.990   6.028
 6554SOL    HW120561   5.858   1.931   5.981
 6554SOL    HW220562   5.804   1.979   6.127
 6555SOL     OW20563   1.390   1.559   1.851
 6555SOL    HW120564   1.474   1.614   1.848
 6555SOL    HW220565   1.395   1.488   1.781
 6556SOL     OW20566   4.583   4.596   5.153
 6556SOL    HW120567   4.610   4.688   5.124
 6556SOL    HW220568   4.488   4.580   5.128
 6557SOL     OW20569   5.260   5.533   1.528
 6557SOL    HW120570   5.280   5.627   1.503
 6557SOL    HW220571   5.306   5.511   1.614
 6558SOL     OW20572   6.169   6.099   1.457
 6558SOL    HW120573   6.202   6.125   1.548
 6558SOL    HW220574   6.209   6.011   1.431
 6559SOL     OW20575   6.555   4.191   0.293
 6559SOL    HW120576   6.570   4.097   0.322
 6559SOL    HW220577   6.462   4.201   0.258
 6560SOL     OW20578   3.599   3.028   1.957
 6560SOL    HW120579   3.577   2.987   2.046
 6560SOL    HW220580   3.520   3.018   1.896
 6561SOL     OW20581   3.321   3.664   2.107
 6561SOL    HW120582   3.393   3.599   2.082
 6561SOL    HW220583   3.265   3.625   2.180
 6562SOL     OW20584   5.829   4.877   6.708
 6562SOL    HW120585   5.867   4.846   6.621
 6562SOL    HW220586   5.835   4.977   6.714
 6563SOL     OW20587   0.521   6.529   6.938
 6563SOL    HW120588   0.572   6.594   6.882
 6563SOL    HW220589   0.461   6.578   7.001
 6564SOL     OW20590   0.558   3.632   2.209
 6564SOL    HW120591   0.508   3.685   2.276
 6564SOL    HW220592   0.656   3.650   2.218
 6565SOL     OW20593   6.310   1.971   4.255
 6565SOL    HW120594   6.248   1.937   4.326
 6565SOL    HW220595   6.373   1.898   4.228
 6566SOL     OW20596   3.659   6.849   1.220
 6566SOL    HW120597   3.610   6.929   1.254
 6566SOL    HW220598   3.715   6.810   1.293
 6567SOL     OW20599   4.176   2.329   1.431
 6567SOL    HW120600   4.097   2.313   1.372
 6567SOL    HW220601   4.146   2.342   1.525
 6568SOL     OW20602   4.875   4.941   2.816
 6568SOL    HW120603   4.839   5.034   2.826
 6568SOL    HW220604   4.949   4.941   2.749
 6569SOL     OW20605   3.574   4.488   1.411
 6569SOL    HW120606   3.545   4.498   1.506
 6569SOL    HW220607   3.588   4.578   1.371
 6570SOL     OW20608   4.614   6.757   1.362
 6570SOL    HW120609   4.673   6.817   1.417
 6570SOL    HW220610   4.637   6.768   1.266
 6571SOL     OW20611   2.430   6.648   2.229
 6571SOL    HW120612   2.331   6.646   2.244
 6571SOL    HW220613   2.464   6.555   2.217
 6572SOL     OW20614   6.533   4.923   5.298
 6572SOL    HW120615   6.495   4.832   5.281
 6572SOL    HW220616   6.624   4.929   5.258
 6573SOL     OW20617   3.177   1.561   2.578
 6573SOL    HW120618   3.247   1.597   2.639
 6573SOL    HW220619   3.090   1.555   2.626
 6574SOL     OW20620   2.713   6.126   2.508
 6574SOL    HW120621   2.769   6.208   2.523
 6574SOL    HW220622   2.768   6.057   2.461
 6575SOL     OW20623   0.766   1.685   1.556
 6575SOL    HW120624   0.738   1.680   1.460
 6575SOL    HW220625   0.749   1.777   1.590
 6576SOL     OW20626   1.195   6.337   6.672
 6576SOL    HW120627   1.190   6.431   6.639
 6576SOL    HW220628   1.290   6.307   6.675
 6577SOL     OW20629   0.825   1.608   3.227
 6577SOL    HW120630   0.792   1.670   3.299
 6577SOL    HW220631   0.892   1.656   3.171
 6578SOL     OW20632   0.385   4.643   2.954
 6578SOL    HW120633   0.452   4.570   2.964
 6578SOL    HW220634   0.292   4.605   2.958
 6579SOL     OW20635   0.171   4.024   4.489
 6579SOL    HW120636   0.176   4.117   4.527
 6579SOL    HW220637   0.129   3.963   4.557
 6580SOL     OW20638   6.077   1.254   1.193
 6580SOL    HW120639   6.111   1.184   1.256
 6580SOL    HW220640   6.037   1.330   1.244
 6581SOL     OW20641   3.862   0.773   6.099
 6581SOL    HW120642   3.801   0.695   6.110
 6581SOL    HW220643   3.952   0.742   6.071
 6582SOL     OW20644   1.511   0.612   1.734
 6582SOL    HW120645   1.526   0.582   1.828
 6582SOL    HW220646   1.596   0.646   1.695
 6583SOL     OW20647   4.008   0.397   5.713
 6583SOL    HW120648   4.104   0.371   5.700
 6583SOL    HW220649   3.957   0.378   5.630
 6584SOL     OW20650   5.052   1.519   0.121
 6584SOL    HW120651   4.974   1.483   0.070
 6584SOL    HW220652   5.063   1.617   0.101
 6585SOL     OW20653   6.327   1.344   0.081
 6585SOL    HW120654   6.369   1.393   0.005
 6585SOL    HW220655   6.259   1.403   0.125
 6586SOL     OW20656   5.845   2.554   6.052
 6586SOL    HW120657   5.875   2.529   5.960
 6586SOL    HW220658   5.753   2.593   6.048
 6587SOL     OW20659   2.882   5.573   3.959
 6587SOL    HW120660   2.836   5.577   3.870
 6587SOL    HW220661   2.963   5.632   3.957
 6588SOL     OW20662   1.960   3.863   1.558
 6588SOL    HW120663   1.926   3.774   1.527
 6588SOL    HW220664   2.040   3.888   1.504
 6589SOL     OW20665   4.091   0.469   6.476
 6589SOL    HW120666   4.049   0.391   6.523
 6589SOL    HW220667   4.049   0.479   6.385
 6590SOL     OW20668   0.643   1.522   6.181
 6590SOL    HW120669   0.720   1.581   6.155
 6590SOL    HW220670   0.618   1.540   6.276
 6591SOL     OW20671   5.622   6.235   2.355
 6591SOL    HW120672   5.588   6.146   2.323
 6591SOL    HW220673   5.687   6.271   2.289
 6592SOL     OW20674   5.374   6.557   4.071
 6592SOL    HW120675   5.346   6.553   4.167
 6592SOL    HW220676   5.413   6.647   4.051
 6593SOL     OW20677   2.340   2.326   3.341
 6593SOL    HW120678   2.305   2.420   3.343
 6593SOL    HW220679   2.369   2.300   3.433
 6594SOL     OW20680   3.523   0.871   0.604
 6594SOL    HW120681   3.587   0.916   0.542
 6594SOL    HW220682   3.464   0.809   0.551
 6595SOL     OW20683   0.404   3.988   0.593
 6595SOL    HW120684   0.481   3.963   0.533
 6595SOL    HW220685   0.379   3.909   0.649
 6596SOL     OW20686   3.995   0.042   4.602
 6596SOL    HW120687   4.020   0.108   4.532
 6596SOL    HW220688   4.071   7.003   4.617
 6597SOL     OW20689   1.672   6.351   2.968
 6597SOL    HW120690   1.579   6.319   2.983
 6597SOL    HW220691   1.708   6.310   2.884
 6598SOL     OW20692   1.385   6.274   4.937
 6598SOL    HW120693   1.419   6.319   4.854
 6598SOL    HW220694   1.460   6.228   4.984
 6599SOL     OW20695   3.951   5.212   5.804
 6599SOL    HW120696   3.991   5.275   5.871
 6599SOL    HW220697   3.863   5.248   5.773
 6600SOL     OW20698   5.097   5.431   5.581
 6600SOL    HW120699   5.065   5.441   5.675
 6600SOL    HW220700   5.026   5.388   5.525
 6601SOL     OW20701   1.140   0.750   0.603
 6601SOL    HW120702   1.185   0.833   0.570
 6601SOL    HW220703   1.162   0.738   0.700
 6602SOL     OW20704   6.207   1.709   1.757
 6602SOL    HW120705   6.116   1.721   1.796
 6602SOL    HW220706   6.255   1.635   1.805
 6603SOL     OW20707   1.089   2.771   4.193
 6603SOL    HW120708   1.126   2.714   4.119
 6603SOL    HW220709   1.160   2.833   4.226
 6604SOL     OW20710   2.494   6.300   1.594
 6604SOL    HW120711   2.443   6.279   1.511
 6604SOL    HW220712   2.473   6.393   1.624
 6605SOL     OW20713   5.119   5.103   0.595
 6605SOL    HW120714   5.093   5.100   0.692
 6605SOL    HW220715   5.149   5.195   0.571
 6606SOL     OW20716   4.829   6.654   2.157
 6606SOL    HW120717   4.771   6.599   2.097
 6606SOL    HW220718   4.778   6.735   2.187
 6607SOL     OW20719   2.289   1.995   1.311
 6607SOL    HW120720   2.376   2.032   1.343
 6607SOL    HW220721   2.253   1.930   1.378
 6608SOL     OW20722   5.219   5.081   2.007
 6608SOL    HW120723   5.137   5.040   2.047
 6608SOL    HW220724   5.218   5.180   2.024
 6609SOL     OW20725   4.533   0.982   6.383
 6609SOL    HW120726   4.492   0.909   6.439
 6609SOL    HW220727   4.495   1.070   6.411
 6610SOL     OW20728   2.623   0.316   6.595
 6610SOL    HW120729   2.602   0.412   6.578
 6610SOL    HW220730   2.712   0.294   6.555
 6611SOL     OW20731   6.682   2.467   3.262
 6611SOL    HW120732   6.664   2.441   3.357
 6611SOL    HW220733   6.600   2.451   3.207
 6612SOL     OW20734   0.111   3.721   0.027
 6612SOL    HW120735   0.014   3.745   0.022
 6612SOL    HW220736   0.164   3.803   0.045
 6613SOL     OW20737   5.533   5.781   3.800
 6613SOL    HW120738   5.475   5.727   3.861
 6613SOL    HW220739   5.607   5.822   3.852
 6614SOL     OW20740   4.901   6.720   6.649
 6614SOL    HW120741   4.894   6.644   6.714
 6614SOL    HW220742   4.998   6.741   6.632
 6615SOL     OW20743   1.022   4.086   4.370
 6615SOL    HW120744   1.109   4.135   4.369
 6615SOL    HW220745   1.019   4.022   4.294
 6616SOL     OW20746   4.238   0.937   6.170
 6616SOL    HW120747   4.173   0.998   6.216
 6616SOL    HW220748   4.284   0.988   6.097
 6617SOL     OW20749   3.053   6.120   2.818
 6617SOL    HW120750   3.078   6.023   2.814
 6617SOL    HW220751   2.954   6.128   2.829
 6618SOL     OW20752   0.616   3.751   3.000
 6618SOL    HW120753   0.667   3.695   2.935
 6618SOL    HW220754   0.595   3.697   3.081
 6619SOL     OW20755   6.579   6.792   4.901
 6619SOL    HW120756   6.548   6.727   4.832
 6619SOL    HW220757   6.501   6.847   4.932
 6620SOL     OW20758   1.780   2.722   5.243
 6620SOL    HW120759   1.869   2.732   5.287
 6620SOL    HW220760   1.784   2.757   5.149
 6621SOL     OW20761   2.827   3.299   0.083
 6621SOL    HW120762   2.926   3.295   0.084
 6621SOL    HW220763   2.790   3.227   0.141
 6622SOL     OW20764   6.378   6.377   1.964
 6622SOL    HW120765   6.296   6.425   1.995
 6622SOL    HW220766   6.363   6.278   1.971
 6623SOL     OW20767   2.934   3.366   1.611
 6623SOL    HW120768   2.970   3.378   1.518
 6623SOL    HW220769   3.004   3.391   1.677
 6624SOL     OW20770   2.264   0.159   4.113
 6624SOL    HW120771   2.187   0.159   4.176
 6624SOL    HW220772   2.262   0.076   4.057
 6625SOL     OW20773   5.456   2.144   6.732
 6625SOL    HW120774   5.488   2.142   6.637
 6625SOL    HW220775   5.499   2.221   6.779
 6626SOL     OW20776   3.728   5.075   3.720
 6626SOL    HW120777   3.672   5.045   3.797
 6626SOL    HW220778   3.786   4.998   3.689
 6627SOL     OW20779   2.424   0.645   5.785
 6627SOL    HW120780   2.377   0.559   5.764
 6627SOL    HW220781   2.390   0.681   5.872
 6628SOL     OW20782   4.919   5.241   3.596
 6628SOL    HW120783   5.007   5.208   3.628
 6628SOL    HW220784   4.888   5.317   3.654
 6629SOL     OW20785   2.532   6.388   0.559
 6629SOL    HW120786   2.495   6.314   0.615
 6629SOL    HW220787   2.604   6.435   0.610
 6630SOL     OW20788   3.521   1.866   1.089
 6630SOL    HW120789   3.567   1.884   1.176
 6630SOL    HW220790   3.579   1.897   1.014
 6631SOL     OW20791   4.422   0.366   2.342
 6631SOL    HW120792   4.359   0.292   2.320
 6631SOL    HW220793   4.372   0.443   2.382
 6632SOL     OW20794   0.108   0.961   1.534
 6632SOL    HW120795   0.064   1.016   1.463
 6632SOL    HW220796   0.040   0.930   1.600
 6633SOL     OW20797   1.574   5.493   5.898
 6633SOL    HW120798   1.571   5.481   5.799
 6633SOL    HW220799   1.557   5.405   5.943
 6634SOL     OW20800   5.746   3.428   5.670
 6634SOL    HW120801   5.707   3.341   5.702
 6634SOL    HW220802   5.720   3.501   5.733
 6635SOL     OW20803   4.314   5.262   3.368
 6635SOL    HW120804   4.366   5.188   3.325
 6635SOL    HW220805   4.242   5.291   3.306
 6636SOL     OW20806   2.808   2.085   5.798
 6636SOL    HW120807   2.741   2.144   5.754
 6636SOL    HW220808   2.855   2.029   5.729
 6637SOL     OW20809   1.739   0.205   6.816
 6637SOL    HW120810   1.678   0.281   6.791
 6637SOL    HW220811   1.721   0.177   6.910
 6638SOL     OW20812   3.969   4.796   5.192
 6638SOL    HW120813   3.950   4.894   5.184
 6638SOL    HW220814   3.893   4.750   5.237
 6639SOL     OW20815   5.600   6.212   6.791
 6639SOL    HW120816   5.652   6.220   6.705
 6639SOL    HW220817   5.641   6.271   6.860
 6640SOL     OW20818   0.117   1.873   5.455
 6640SOL    HW120819   0.032   1.841   5.413
 6640SOL    HW220820   0.153   1.950   5.402
 6641SOL     OW20821   2.360   2.983   6.577
 6641SOL    HW120822   2.328   3.077   6.577
 6641SOL    HW220823   2.285   2.921   6.554
 6642SOL     OW20824   2.982   5.173   0.808
 6642SOL    HW120825   2.986   5.271   0.789
 6642SOL    HW220826   3.070   5.131   0.788
 6643SOL     OW20827   6.373   4.547   6.611
 6643SOL    HW120828   6.398   4.452   6.626
 6643SOL    HW220829   6.444   4.592   6.556
 6644SOL     OW20830   2.716   4.801   1.849
 6644SOL    HW120831   2.661   4.734   1.799
 6644SOL    HW220832   2.766   4.755   1.923
 6645SOL     OW20833   6.652   5.301   0.413
 6645SOL    HW120834   6.608   5.328   0.499
 6645SOL    HW220835   6.712   5.375   0.382
 6646SOL     OW20836   4.264   6.083   4.427
 6646SOL    HW120837   4.167   6.102   4.416
 6646SOL    HW220838   4.312   6.102   4.341
 6647SOL     OW20839   3.624   1.510   2.192
 6647SOL    HW120840   3.546   1.532   2.251
 6647SOL    HW220841   3.646   1.413   2.202
 6648SOL     OW20842   3.009   5.951   2.135
 6648SOL    HW120843   3.078   6.008   2.090
 6648SOL    HW220844   2.994   5.868   2.080
 6649SOL     OW20845   5.050   1.769   0.041
 6649SOL    HW120846   5.084   1.801   6.977
 6649SOL    HW220847   4.953   1.746   0.032
 6650SOL     OW20848   4.226   1.580   5.214
 6650SOL    HW120849   4.284   1.518   5.266
 6650SOL    HW220850   4.134   1.542   5.206
 6651SOL     OW20851   1.401   1.948   0.064
 6651SOL    HW120852   1.361   1.960   6.998
 6651SOL    HW220853   1.474   2.016   0.077
 6652SOL     OW20854   6.530   4.879   0.234
 6652SOL    HW120855   6.529   4.947   0.308
 6652SOL    HW220856   6.438   4.872   0.194
 6653SOL     OW20857   3.923   3.273   3.198
 6653SOL    HW120858   3.904   3.184   3.240
 6653SOL    HW220859   3.843   3.301   3.145
 6654SOL     OW20860   2.338   2.938   0.613
 6654SOL    HW120861   2.264   2.959   0.676
 6654SOL    HW220862   2.359   2.840   0.616
 6655SOL     OW20863   3.184   6.903   1.648
 6655SOL    HW120864   3.237   6.879   1.729
 6655SOL    HW220865   3.201   6.998   1.624
 6656SOL     OW20866   6.028   1.541   2.912
 6656SOL    HW120867   5.995   1.625   2.868
 6656SOL    HW220868   6.037   1.469   2.842
 6657SOL     OW20869   4.827   6.301   6.314
 6657SOL    HW120870   4.826   6.201   6.319
 6657SOL    HW220871   4.880   6.337   6.390
 6658SOL     OW20872   6.145   1.693   4.801
 6658SOL    HW120873   6.155   1.681   4.899
 6658SOL    HW220874   6.119   1.605   4.759
 6659SOL     OW20875   2.786   2.335   0.238
 6659SOL    HW120876   2.775   2.295   0.329
 6659SOL    HW220877   2.859   2.403   0.239
 6660SOL     OW20878   0.363   6.312   0.999
 6660SOL    HW120879   0.429   6.387   0.994
 6660SOL    HW220880   0.282   6.337   0.946
 6661SOL     OW20881   0.708   5.475   3.805
 6661SOL    HW120882   0.789   5.488   3.861
 6661SOL    HW220883   0.678   5.379   3.811
 6662SOL     OW20884   1.873   0.035   6.644
 6662SOL    HW120885   1.824   0.102   6.700
 6662SOL    HW220886   1.913   0.081   6.565
 6663SOL     OW20887   6.929   5.491   3.147
 6663SOL    HW120888   6.903   5.430   3.073
 6663SOL    HW220889   6.886   5.580   3.134
 6664SOL     OW20890   1.657   6.782   1.206
 6664SOL    HW120891   1.623   6.760   1.114
 6664SOL    HW220892   1.598   6.851   1.247
 6665SOL     OW20893   1.943   0.484   2.674
 6665SOL    HW120894   1.979   0.401   2.717
 6665SOL    HW220895   1.848   0.470   2.648
 6666SOL     OW20896   5.848   1.792   5.668
 6666SOL    HW120897   5.780   1.737   5.716
 6666SOL    HW220898   5.804   1.873   5.630
 6667SOL     OW20899   6.953   5.269   5.255
 6667SOL    HW120900   6.857   5.294   5.248
 6667SOL    HW220901   6.962   5.169   5.254
 6668SOL     OW20902   6.855   6.008   1.702
 6668SOL    HW120903   6.759   5.989   1.722
 6668SOL    HW220904   6.866   6.106   1.683
 6669SOL     OW20905   2.154   2.809   4.246
 6669SOL    HW120906   2.201   2.824   4.159
 6669SOL    HW220907   2.067   2.763   4.230
 6670SOL     OW20908   3.584   3.658   6.445
 6670SOL    HW120909   3.509   3.698   6.497
 6670SOL    HW220910   3.659   3.635   6.508
 6671SOL     OW20911   5.357   5.762   1.124
 6671SOL    HW120912   5.295   5.702   1.174
 6671SOL    HW220913   5.446   5.764   1.169
 6672SOL     OW20914   1.109   1.709   5.033
 6672SOL    HW120915   1.126   1.728   4.936
 6672SOL    HW220916   1.075   1.792   5.078
 6673SOL     OW20917   4.229   5.954   3.006
 6673SOL    HW120918   4.288   5.874   3.020
 6673SOL    HW220919   4.278   6.022   2.951
 6674SOL     OW20920   0.872   5.214   6.546
 6674SOL    HW120921   0.828   5.157   6.616
 6674SOL    HW220922   0.804   5.245   6.480
 6675SOL     OW20923   4.591   4.141   1.665
 6675SOL    HW120924   4.659   4.093   1.720
 6675SOL    HW220925   4.515   4.170   1.724
 6676SOL     OW20926   0.183   3.703   5.602
 6676SOL    HW120927   0.115   3.758   5.651
 6676SOL    HW220928   0.274   3.729   5.632
 6677SOL     OW20929   0.266   3.031   0.179
 6677SOL    HW120930   0.257   2.932   0.185
 6677SOL    HW220931   0.217   3.064   0.098
 6678SOL     OW20932   1.640   2.506   0.033
 6678SOL    HW120933   1.583   2.562   0.094
 6678SOL    HW220934   1.633   2.410   0.060
 6679SOL     OW20935   2.657   1.767   4.247
 6679SOL    HW120936   2.612   1.680   4.263
 6679SOL    HW220937   2.684   1.807   4.335
 6680SOL     OW20938   4.571   6.028   5.984
 6680SOL    HW120939   4.540   6.034   5.888
 6680SOL    HW220940   4.563   6.119   6.026
 6681SOL     OW20941   4.909   4.978   0.035
 6681SOL    HW120942   4.951   4.905   0.088
 6681SOL    HW220943   4.962   4.993   6.976
 6682SOL     OW20944   0.884   3.985   2.540
 6682SOL    HW120945   0.934   4.055   2.489
 6682SOL    HW220946   0.787   4.009   2.541
 6683SOL     OW20947   5.295   2.761   5.993
 6683SOL    HW120948   5.306   2.755   6.092
 6683SOL    HW220949   5.370   2.815   5.954
 6684SOL     OW20950   1.947   6.888   1.107
 6684SOL    HW120951   1.963   6.943   1.189
 6684SOL    HW220952   1.957   6.945   1.026
 6685SOL     OW20953   5.440   2.065   5.662
 6685SOL    HW120954   5.445   1.969   5.632
 6685SOL    HW220955   5.392   2.070   5.749
 6686SOL     OW20956   5.449   5.357   3.603
 6686SOL    HW120957   5.356   5.357   3.639
 6686SOL    HW220958   5.477   5.451   3.585
 6687SOL     OW20959   0.521   1.545   1.369
 6687SOL    HW120960   0.524   1.642   1.348
 6687SOL    HW220961   0.610   1.504   1.351
 6688SOL     OW20962   0.325   4.169   1.899
 6688SOL    HW120963   0.236   4.168   1.945
 6688SOL    HW220964   0.365   4.260   1.907
 6689SOL     OW20965   4.608   2.384   0.607
 6689SOL    HW120966   4.676   2.364   0.536
 6689SOL    HW220967   4.606   2.308   0.672
 6690SOL     OW20968   2.554   0.974   1.929
 6690SOL    HW120969   2.580   0.913   1.853
 6690SOL    HW220970   2.637   1.011   1.971
 6691SOL     OW20971   3.321   5.543   1.660
 6691SOL    HW120972   3.331   5.634   1.701
 6691SOL    HW220973   3.366   5.542   1.571
 6692SOL     OW20974   2.857   4.689   5.422
 6692SOL    HW120975   2.768   4.682   5.468
 6692SOL    HW220976   2.854   4.639   5.335
 6693SOL     OW20977   5.185   3.492   6.397
 6693SOL    HW120978   5.211   3.580   6.437
 6693SOL    HW220979   5.268   3.439   6.377
 6694SOL     OW20980   4.769   6.071   6.907
 6694SOL    HW120981   4.843   6.053   6.841
 6694SOL    HW220982   4.681   6.072   6.859
 6695SOL     OW20983   1.347   1.718   6.125
 6695SOL    HW120984   1.296   1.745   6.206
 6695SOL    HW220985   1.387   1.627   6.139
 6696SOL     OW20986   1.826   2.305   0.699
 6696SOL    HW120987   1.832   2.330   0.602
 6696SOL    HW220988   1.893   2.233   0.718
 6697SOL     OW20989   4.510   2.252   3.079
 6697SOL    HW120990   4.592   2.303   3.053
 6697SOL    HW220991   4.461   2.301   3.151
 6698SOL     OW20992   3.523   2.645   0.277
 6698SOL    HW120993   3.457   2.625   0.205
 6698SOL    HW220994   3.475   2.672   0.360
 6699SOL     OW20995   3.746   4.561   6.952
 6699SOL    HW120996   3.650   4.573   6.978
 6699SOL    HW220997   3.769   4.628   6.881
 6700SOL     OW20998   0.118   5.741   0.884
 6700SOL    HW120999   0.165   5.818   0.839
 6700SOL    HW221000   0.127   5.751   0.983
 6701SOL     OW21001   5.966   2.789   1.199
 6701SOL    HW121002   5.993   2.839   1.116
 6701SOL    HW221003   6.045   2.783   1.260
 6702SOL     OW21004   2.899   2.549   0.072
 6702SOL    HW121005   2.887   2.647   0.063
 6702SOL    HW221006   2.811   2.503   0.064
 6703SOL     OW21007   6.127   1.959   6.854
 6703SOL    HW121008   6.118   1.937   6.951
 6703SOL    HW221009   6.037   1.977   6.815
 6704SOL     OW21010   4.257   2.305   2.568
 6704SOL    HW121011   4.207   2.385   2.533
 6704SOL    HW221012   4.218   2.222   2.531
 6705SOL     OW21013   0.173   1.917   1.967
 6705SOL    HW121014   0.228   1.960   1.896
 6705SOL    HW221015   0.108   1.984   2.004
 6706SOL     OW21016   1.200   4.240   0.469
 6706SOL    HW121017   1.278   4.217   0.527
 6706SOL    HW221018   1.136   4.164   0.468
 6707SOL     OW21019   6.594   5.594   4.751
 6707SOL    HW121020   6.679   5.640   4.725
 6707SOL    HW221021   6.526   5.606   4.679
 6708SOL     OW21022   1.873   5.735   2.580
 6708SOL    HW121023   1.842   5.641   2.566
 6708SOL    HW221024   1.913   5.771   2.495
 6709SOL     OW21025   3.233   5.828   1.303
 6709SOL    HW121026   3.327   5.854   1.283
 6709SOL    HW221027   3.220   5.730   1.286
 6710SOL     OW21028   2.329   2.137   6.035
 6710SOL    HW121029   2.281   2.194   5.968
 6710SOL    HW221030   2.269   2.065   6.068
 6711SOL     OW21031   5.853   4.591   6.761
 6711SOL    HW121032   5.947   4.586   6.726
 6711SOL    HW221033   5.826   4.687   6.770
 6712SOL     OW21034   4.441   5.426   0.342
 6712SOL    HW121035   4.429   5.523   0.364
 6712SOL    HW221036   4.361   5.392   0.292
 6713SOL     OW21037   2.167   1.527   1.509
 6713SOL    HW121038   2.248   1.480   1.545
 6713SOL    HW221039   2.133   1.591   1.578
 6714SOL     OW21040   5.593   0.729   5.605
 6714SOL    HW121041   5.545   0.817   5.599
 6714SOL    HW221042   5.596   0.687   5.514
 6715SOL     OW21043   0.121   0.690   0.271
 6715SOL    HW121044   0.214   0.657   0.288
 6715SOL    HW221045   0.100   0.765   0.334
 6716SOL     OW21046   1.098   6.260   1.659
 6716SOL    HW121047   1.106   6.163   1.682
 6716SOL    HW221048   1.008   6.278   1.620
 6717SOL     OW21049   4.601   2.750   0.766
 6717SOL    HW121050   4.627   2.835   0.811
 6717SOL    HW221051   4.668   2.727   0.696
 6718SOL     OW21052   4.171   6.039   6.511
 6718SOL    HW121053   4.211   5.951   6.485
 6718SOL    HW221054   4.178   6.102   6.434
 6719SOL     OW21055   0.751   0.407   6.103
 6719SOL    HW121056   0.710   0.448   6.185
 6719SOL    HW221057   0.741   0.307   6.108
 6720SOL     OW21058   2.301   6.155   2.051
 6720SOL    HW121059   2.383   6.147   2.108
 6720SOL    HW221060   2.317   6.221   1.978
 6721SOL     OW21061   5.820   6.565   4.463
 6721SOL    HW121062   5.906   6.532   4.422
 6721SOL    HW221063   5.755   6.489   4.468
 6722SOL     OW21064   5.085   3.021   1.097
 6722SOL    HW121065   5.174   2.994   1.134
 6722SOL    HW221066   5.012   2.983   1.154
 6723SOL     OW21067   2.104   6.853   3.245
 6723SOL    HW121068   2.071   6.862   3.151
 6723SOL    HW221069   2.204   6.854   3.246
 6724SOL     OW21070   1.350   4.352   5.653
 6724SOL    HW121071   1.429   4.294   5.676
 6724SOL    HW221072   1.268   4.296   5.644
 6725SOL     OW21073   0.854   4.274   2.135
 6725SOL    HW121074   0.889   4.184   2.160
 6725SOL    HW221075   0.904   4.345   2.184
 6726SOL     OW21076   1.795   2.088   4.471
 6726SOL    HW121077   1.823   2.071   4.565
 6726SOL    HW221078   1.695   2.095   4.467
 6727SOL     OW21079   5.706   3.617   5.862
 6727SOL    HW121080   5.763   3.583   5.937
 6727SOL    HW221081   5.733   3.711   5.840
 6728SOL     OW21082   4.478   1.434   4.509
 6728SOL    HW121083   4.386   1.424   4.471
 6728SOL    HW221084   4.517   1.343   4.525
 6729SOL     OW21085   6.649   1.583   2.465
 6729SOL    HW121086   6.610   1.491   2.476
 6729SOL    HW221087   6.722   1.581   2.397
 6730SOL     OW21088   2.221   6.569   6.620
 6730SOL    HW121089   2.165   6.585   6.539
 6730SOL    HW221090   2.310   6.531   6.592
 6731SOL     OW21091   2.704   4.382   1.131
 6731SOL    HW121092   2.798   4.390   1.098
 6731SOL    HW221093   2.653   4.464   1.106
 6732SOL     OW21094   2.936   5.857   6.542
 6732SOL    HW121095   2.875   5.839   6.465
 6732SOL    HW221096   2.979   5.772   6.571
 6733SOL     OW21097   4.478   5.525   6.377
 6733SOL    HW121098   4.482   5.540   6.278
 6733SOL    HW221099   4.535   5.446   6.401
 6734SOL     OW21100   0.619   3.228   5.829
 6734SOL    HW121101   0.592   3.203   5.736
 6734SOL    HW221102   0.593   3.155   5.892
 6735SOL     OW21103   0.374   5.326   5.492
 6735SOL    HW121104   0.397   5.268   5.570
 6735SOL    HW221105   0.457   5.346   5.439
 6736SOL     OW21106   1.802   3.473   0.547
 6736SOL    HW121107   1.886   3.436   0.586
 6736SOL    HW221108   1.819   3.505   0.454
 6737SOL     OW21109   2.095   1.705   1.272
 6737SOL    HW121110   2.161   1.657   1.329
 6737SOL    HW221111   2.102   1.673   1.178
 6738SOL     OW21112   1.948   2.640   1.880
 6738SOL    HW121113   1.937   2.731   1.919
 6738SOL    HW221114   2.045   2.624   1.858
 6739SOL     OW21115   3.262   5.542   5.775
 6739SOL    HW121116   3.343   5.493   5.744
 6739SOL    HW221117   3.278   5.640   5.768
 6740SOL     OW21118   2.098   1.697   4.460
 6740SOL    HW121119   2.044   1.615   4.439
 6740SOL    HW221120   2.053   1.777   4.421
 6741SOL     OW21121   4.510   1.640   5.994
 6741SOL    HW121122   4.463   1.681   5.916
 6741SOL    HW221123   4.591   1.694   6.017
 6742SOL     OW21124   0.080   5.974   4.210
 6742SOL    HW121125   0.173   5.988   4.242
 6742SOL    HW221126   0.081   5.914   4.130
 6743SOL     OW21127   4.034   3.910   6.469
 6743SOL    HW121128   4.129   3.891   6.445
 6743SOL    HW221129   3.990   3.958   6.393
 6744SOL     OW21130   3.997   5.651   6.143
 6744SOL    HW121131   4.078   5.613   6.188
 6744SOL    HW221132   4.024   5.725   6.083
 6745SOL     OW21133   0.901   5.235   2.725
 6745SOL    HW121134   0.935   5.253   2.633
 6745SOL    HW221135   0.890   5.321   2.774
 6746SOL     OW21136   0.359   0.537   1.949
 6746SOL    HW121137   0.405   0.492   2.026
 6746SOL    HW221138   0.315   0.621   1.981
 6747SOL     OW21139   5.605   6.321   4.428
 6747SOL    HW121140   5.630   6.336   4.524
 6747SOL    HW221141   5.538   6.246   4.423
 6748SOL     OW21142   0.917   1.064   2.512
 6748SOL    HW121143   0.939   0.984   2.456
 6748SOL    HW221144   1.002   1.111   2.537
 6749SOL     OW21145   3.068   6.978   0.041
 6749SOL    HW121146   3.161   6.966   0.008
 6749SOL    HW221147   3.018   0.014   7.004
 6750SOL     OW21148   3.482   1.803   4.559
 6750SOL    HW121149   3.522   1.790   4.468
 6750SOL    HW221150   3.496   1.898   4.588
 6751SOL     OW21151   2.850   2.282   3.703
 6751SOL    HW121152   2.932   2.280   3.647
 6751SOL    HW221153   2.780   2.339   3.657
 6752SOL     OW21154   6.100   2.390   1.651
 6752SOL    HW121155   6.029   2.353   1.711
 6752SOL    HW221156   6.149   2.463   1.698
 6753SOL     OW21157   4.246   1.620   6.847
 6753SOL    HW121158   4.160   1.661   6.815
 6753SOL    HW221159   4.246   1.617   6.947
 6754SOL     OW21160   6.568   2.252   6.448
 6754SOL    HW121161   6.521   2.180   6.500
 6754SOL    HW221162   6.594   2.326   6.510
 6755SOL     OW21163   5.067   1.501   3.939
 6755SOL    HW121164   5.111   1.566   3.878
 6755SOL    HW221165   5.036   1.548   4.022
 6756SOL     OW21166   4.790   4.020   4.111
 6756SOL    HW121167   4.736   4.010   4.028
 6756SOL    HW221168   4.795   3.933   4.159
 6757SOL     OW21169   4.535   5.662   0.469
 6757SOL    HW121170   4.532   5.762   0.469
 6757SOL    HW221171   4.630   5.631   0.475
 6758SOL     OW21172   5.115   3.526   2.109
 6758SOL    HW121173   5.017   3.537   2.091
 6758SOL    HW221174   5.148   3.603   2.163
 6759SOL     OW21175   1.292   3.924   3.703
 6759SOL    HW121176   1.386   3.957   3.692
 6759SOL    HW221177   1.231   3.975   3.643
 6760SOL     OW21178   0.107   5.021   5.187
 6760SOL    HW121179   0.093   5.039   5.090
 6760SOL    HW221180   0.171   5.087   5.225
 6761SOL     OW21181   5.549   2.878   5.867
 6761SOL    HW121182   5.558   2.803   5.802
 6761SOL    HW221183   5.528   2.963   5.818
 6762SOL     OW21184   6.432   4.974   3.187
 6762SOL    HW121185   6.338   4.998   3.211
 6762SOL    HW221186   6.495   5.036   3.233
 6763SOL     OW21187   5.808   5.656   4.752
 6763SOL    HW121188   5.859   5.658   4.838
 6763SOL    HW221189   5.871   5.644   4.676
 6764SOL     OW21190   3.249   3.743   5.867
 6764SOL    HW121191   3.276   3.656   5.826
 6764SOL    HW221192   3.152   3.739   5.894
 6765SOL     OW21193   6.270   4.641   3.633
 6765SOL    HW121194   6.278   4.741   3.629
 6765SOL    HW221195   6.175   4.616   3.650
 6766SOL     OW21196   2.165   0.317   6.223
 6766SOL    HW121197   2.258   0.288   6.202
 6766SOL    HW221198   2.157   0.416   6.208
 6767SOL     OW21199   0.315   2.484   0.260
 6767SOL    HW121200   0.312   2.536   0.346
 6767SOL    HW221201   0.241   2.417   0.259
 6768SOL     OW21202   0.732   0.698   3.526
 6768SOL    HW121203   0.766   0.675   3.435
 6768SOL    HW221204   0.736   0.797   3.539
 6769SOL     OW21205   3.202   1.777   5.218
 6769SOL    HW121206   3.102   1.776   5.221
 6769SOL    HW221207   3.231   1.810   5.128
 6770SOL     OW21208   0.203   2.869   3.844
 6770SOL    HW121209   0.290   2.847   3.800
 6770SOL    HW221210   0.128   2.833   3.789
 6771SOL     OW21211   3.474   2.140   3.410
 6771SOL    HW121212   3.435   2.055   3.376
 6771SOL    HW221213   3.557   2.162   3.357
 6772SOL     OW21214   5.459   1.603   2.783
 6772SOL    HW121215   5.429   1.651   2.866
 6772SOL    HW221216   5.419   1.647   2.703
 6773SOL     OW21217   6.910   6.462   1.499
 6773SOL    HW121218   6.822   6.511   1.500
 6773SOL    HW221219   6.943   6.456   1.405
 6774SOL     OW21220   1.855   1.977   5.247
 6774SOL    HW121221   1.791   2.054   5.248
 6774SOL    HW221222   1.946   2.010   5.224
 6775SOL     OW21223   0.713   1.910   4.155
 6775SOL    HW121224   0.649   1.979   4.188
 6775SOL    HW221225   0.781   1.952   4.096
 6776SOL     OW21226   3.972   4.086   1.135
 6776SOL    HW121227   4.039   4.012   1.135
 6776SOL    HW221228   3.969   4.130   1.045
 6777SOL     OW21229   4.808   5.721   1.156
 6777SOL    HW121230   4.746   5.649   1.124
 6777SOL    HW221231   4.755   5.803   1.178
 6778SOL     OW21232   5.721   3.275   2.701
 6778SOL    HW121233   5.671   3.354   2.667
 6778SOL    HW221234   5.673   3.237   2.781
 6779SOL     OW21235   5.892   4.312   5.718
 6779SOL    HW121236   5.932   4.275   5.802
 6779SOL    HW221237   5.795   4.333   5.733
 6780SOL     OW21238   2.494   2.637   2.995
 6780SOL    HW121239   2.432   2.713   3.013
 6780SOL    HW221240   2.514   2.590   3.081
 6781SOL     OW21241   6.249   1.529   4.366
 6781SOL    HW121242   6.262   1.531   4.267
 6781SOL    HW221243   6.193   1.449   4.390
 6782SOL     OW21244   6.676   1.580   3.484
 6782SOL    HW121245   6.675   1.522   3.402
 6782SOL    HW221246   6.606   1.651   3.475
 6783SOL     OW21247   1.134   4.548   5.928
 6783SOL    HW121248   1.169   4.538   6.021
 6783SOL    HW221249   1.208   4.532   5.863
 6784SOL     OW21250   2.188   3.206   1.432
 6784SOL    HW121251   2.100   3.220   1.388
 6784SOL    HW221252   2.205   3.108   1.443
 6785SOL     OW21253   5.578   4.603   4.768
 6785SOL    HW121254   5.632   4.687   4.761
 6785SOL    HW221255   5.484   4.625   4.794
 6786SOL     OW21256   6.471   2.582   1.223
 6786SOL    HW121257   6.547   2.639   1.189
 6786SOL    HW221258   6.384   2.623   1.195
 6787SOL     OW21259   3.773   2.377   0.208
 6787SOL    HW121260   3.789   2.473   0.231
 6787SOL    HW221261   3.716   2.371   0.126
 6788SOL     OW21262   0.746   3.997   3.545
 6788SOL    HW121263   0.809   4.000   3.623
 6788SOL    HW221264   0.656   3.964   3.576
 6789SOL     OW21265   7.013   3.789   3.822
 6789SOL    HW121266   0.066   3.744   3.866
 6789SOL    HW221267   6.939   3.724   3.808
 6790SOL     OW21268   0.810   4.580   6.067
 6790SOL    HW121269   0.854   4.598   6.155
 6790SOL    HW221270   0.764   4.663   6.035
 6791SOL     OW21271   4.424   1.457   4.004
 6791SOL    HW121272   4.400   1.390   4.074
 6791SOL    HW221273   4.367   1.538   4.013
 6792SOL     OW21274   4.547   6.963   5.563
 6792SOL    HW121275   4.464   6.909   5.576
 6792SOL    HW221276   4.625   6.902   5.552
 6793SOL     OW21277   2.456   3.207   0.181
 6793SOL    HW121278   2.400   3.226   0.262
 6793SOL    HW221279   2.552   3.199   0.207
 6794SOL     OW21280   4.383   1.295   5.786
 6794SOL    HW121281   4.458   1.354   5.755
 6794SOL    HW221282   4.331   1.263   5.706
 6795SOL     OW21283   1.093   0.921   0.962
 6795SOL    HW121284   1.047   0.976   0.892
 6795SOL    HW221285   1.154   0.979   1.015
 6796SOL     OW21286   5.873   1.686   2.000
 6796SOL    HW121287   5.859   1.668   2.097
 6796SOL    HW221288   5.793   1.734   1.963
 6797SOL     OW21289   0.286   2.025   1.755
 6797SOL    HW121290   0.214   2.010   1.688
 6797SOL    HW221291   0.373   1.995   1.717
 6798SOL     OW21292   5.678   0.413   1.930
 6798SOL    HW121293   5.582   0.441   1.934
 6798SOL    HW221294   5.685   0.316   1.950
 6799SOL     OW21295   5.249   0.006   3.164
 6799SOL    HW121296   5.182   0.040   3.098
 6799SOL    HW221297   5.205   7.019   3.253
 6800SOL     OW21298   0.838   1.245   1.484
 6800SOL    HW121299   0.828   1.173   1.416
 6800SOL    HW221300   0.747   1.279   1.511
 6801SOL     OW21301   1.029   6.347   4.899
 6801SOL    HW121302   0.933   6.367   4.877
 6801SOL    HW221303   1.088   6.408   4.848
 6802SOL     OW21304   3.378   5.776   1.809
 6802SOL    HW121305   3.471   5.810   1.797
 6802SOL    HW221306   3.314   5.853   1.812
 6803SOL     OW21307   5.195   4.670   6.819
 6803SOL    HW121308   5.219   4.575   6.838
 6803SOL    HW221309   5.175   4.717   6.904
 6804SOL     OW21310   2.581   4.781   2.910
 6804SOL    HW121311   2.580   4.773   2.810
 6804SOL    HW221312   2.675   4.772   2.943
 6805SOL     OW21313   0.238   4.654   5.903
 6805SOL    HW121314   0.216   4.751   5.910
 6805SOL    HW221315   0.273   4.634   5.811
 6806SOL     OW21316   6.717   0.372   3.275
 6806SOL    HW121317   6.687   0.377   3.370
 6806SOL    HW221318   6.728   0.276   3.248
 6807SOL     OW21319   3.316   4.023   2.508
 6807SOL    HW121320   3.304   4.030   2.607
 6807SOL    HW221321   3.404   4.065   2.482
 6808SOL     OW21322   4.423   2.009   5.062
 6808SOL    HW121323   4.425   2.024   4.963
 6808SOL    HW221324   4.373   2.084   5.106
 6809SOL     OW21325   6.209   4.824   1.909
 6809SOL    HW121326   6.246   4.917   1.905
 6809SOL    HW221327   6.148   4.816   1.988
 6810SOL     OW21328   2.939   1.301   3.348
 6810SOL    HW121329   2.951   1.300   3.447
 6810SOL    HW221330   2.944   1.207   3.313
 6811SOL     OW21331   6.227   1.827   2.253
 6811SOL    HW121332   6.145   1.856   2.303
 6811SOL    HW221333   6.296   1.795   2.318
 6812SOL     OW21334   2.818   3.847   5.176
 6812SOL    HW121335   2.813   3.946   5.161
 6812SOL    HW221336   2.732   3.815   5.215
 6813SOL     OW21337   5.333   3.419   1.734
 6813SOL    HW121338   5.366   3.335   1.691
 6813SOL    HW221339   5.285   3.396   1.818
 6814SOL     OW21340   4.382   1.481   6.359
 6814SOL    HW121341   4.418   1.447   6.272
 6814SOL    HW221342   4.356   1.577   6.348
 6815SOL     OW21343   2.422   5.159   6.661
 6815SOL    HW121344   2.372   5.239   6.628
 6815SOL    HW221345   2.358   5.095   6.704
 6816SOL     OW21346   0.553   2.036   4.461
 6816SOL    HW121347   0.631   2.012   4.518
 6816SOL    HW221348   0.496   1.956   4.447
 6817SOL     OW21349   3.256   2.088   2.401
 6817SOL    HW121350   3.228   2.117   2.493
 6817SOL    HW221351   3.189   2.120   2.334
 6818SOL     OW21352   2.126   6.622   6.187
 6818SOL    HW121353   2.084   6.688   6.125
 6818SOL    HW221354   2.224   6.617   6.169
 6819SOL     OW21355   4.653   4.694   3.120
 6819SOL    HW121356   4.624   4.638   3.198
 6819SOL    HW221357   4.595   4.674   3.041
 6820SOL     OW21358   2.201   6.434   1.568
 6820SOL    HW121359   2.102   6.437   1.555
 6820SOL    HW221360   2.232   6.520   1.608
 6821SOL     OW21361   4.475   3.060   5.325
 6821SOL    HW121362   4.560   3.109   5.346
 6821SOL    HW221363   4.397   3.119   5.347
 6822SOL     OW21364   0.151   2.334   6.476
 6822SOL    HW121365   0.250   2.323   6.463
 6822SOL    HW221366   0.134   2.398   6.550
 6823SOL     OW21367   5.328   3.324   0.097
 6823SOL    HW121368   5.326   3.424   0.085
 6823SOL    HW221369   5.358   3.303   0.190
 6824SOL     OW21370   1.557   1.820   6.615
 6824SOL    HW121371   1.625   1.890   6.590
 6824SOL    HW221372   1.513   1.786   6.532
 6825SOL     OW21373   0.064   5.871   1.648
 6825SOL    HW121374   0.039   5.787   1.696
 6825SOL    HW221375   0.003   5.945   1.677
 6826SOL     OW21376   0.677   3.608   3.224
 6826SOL    HW121377   0.713   3.669   3.295
 6826SOL    HW221378   0.730   3.523   3.223
 6827SOL     OW21379   4.190   6.020   4.852
 6827SOL    HW121380   4.200   6.119   4.857
 6827SOL    HW221381   4.175   5.983   4.944
 6828SOL     OW21382   3.573   2.039   2.928
 6828SOL    HW121383   3.663   2.058   2.889
 6828SOL    HW221384   3.579   2.039   3.028
 6829SOL     OW21385   5.452   6.566   4.698
 6829SOL    HW121386   5.389   6.547   4.773
 6829SOL    HW221387   5.486   6.479   4.662
 6830SOL     OW21388   5.697   0.530   3.242
 6830SOL    HW121389   5.733   0.604   3.298
 6830SOL    HW221390   5.772   0.485   3.193
 6831SOL     OW21391   1.366   1.244   6.057
 6831SOL    HW121392   1.368   1.321   6.122
 6831SOL    HW221393   1.354   1.279   5.964
 6832SOL     OW21394   3.127   2.471   0.745
 6832SOL    HW121395   3.071   2.501   0.822
 6832SOL    HW221396   3.079   2.398   0.696
 6833SOL     OW21397   2.662   5.319   5.842
 6833SOL    HW121398   2.715   5.404   5.841
 6833SOL    HW221399   2.660   5.281   5.749
 6834SOL     OW21400   5.016   6.954   0.548
 6834SOL    HW121401   4.986   7.005   0.468
 6834SOL    HW221402   4.939   6.904   0.588
 6835SOL     OW21403   3.050   2.186   4.237
 6835SOL    HW121404   3.145   2.215   4.248
 6835SOL    HW221405   3.032   2.107   4.295
 6836SOL     OW21406   1.994   5.148   6.605
 6836SOL    HW121407   1.989   5.057   6.647
 6836SOL    HW221408   1.974   5.141   6.508
 6837SOL     OW21409   0.925   0.788   2.100
 6837SOL    HW121410   1.025   0.792   2.105
 6837SOL    HW221411   0.897   0.700   2.063
 6838SOL     OW21412   2.702   4.437   5.346
 6838SOL    HW121413   2.656   4.357   5.307
 6838SOL    HW221414   2.762   4.477   5.277
 6839SOL     OW21415   5.477   2.589   3.785
 6839SOL    HW121416   5.408   2.645   3.832
 6839SOL    HW221417   5.501   2.632   3.698
 6840SOL     OW21418   2.553   6.438   5.154
 6840SOL    HW121419   2.590   6.523   5.115
 6840SOL    HW221420   2.526   6.376   5.080
 6841SOL     OW21421   3.827   5.598   1.840
 6841SOL    HW121422   3.793   5.562   1.927
 6841SOL    HW221423   3.845   5.523   1.777
 6842SOL     OW21424   0.734   3.574   0.000
 6842SOL    HW121425   0.656   3.635   0.016
 6842SOL    HW221426   0.754   3.524   0.085
 6843SOL     OW21427   3.928   2.228   1.775
 6843SOL    HW121428   3.968   2.150   1.822
 6843SOL    HW221429   3.850   2.262   1.829
 6844SOL     OW21430   4.512   5.022   4.080
 6844SOL    HW121431   4.554   4.947   4.030
 6844SOL    HW221432   4.532   5.109   4.035
 6845SOL     OW21433   4.573   5.250   2.382
 6845SOL    HW121434   4.620   5.228   2.297
 6845SOL    HW221435   4.640   5.278   2.451
 6846SOL     OW21436   4.058   3.115   2.904
 6846SOL    HW121437   4.100   3.201   2.931
 6846SOL    HW221438   4.130   3.049   2.881
 6847SOL     OW21439   5.294   3.967   1.880
 6847SOL    HW121440   5.393   3.954   1.879
 6847SOL    HW221441   5.251   3.892   1.830
 6848SOL     OW21442   0.379   5.437   4.677
 6848SOL    HW121443   0.443   5.498   4.725
 6848SOL    HW221444   0.421   5.407   4.591
 6849SOL     OW21445   3.292   5.817   3.926
 6849SOL    HW121446   3.357   5.787   3.856
 6849SOL    HW221447   3.332   5.804   4.017
 6850SOL     OW21448   5.676   2.437   3.476
 6850SOL    HW121449   5.696   2.459   3.381
 6850SOL    HW221450   5.616   2.508   3.515
 6851SOL     OW21451   2.046   5.070   5.861
 6851SOL    HW121452   1.961   5.083   5.911
 6851SOL    HW221453   2.040   4.987   5.806
 6852SOL     OW21454   1.218   4.123   1.287
 6852SOL    HW121455   1.164   4.080   1.361
 6852SOL    HW221456   1.191   4.219   1.278
 6853SOL     OW21457   0.509   5.404   5.833
 6853SOL    HW121458   0.442   5.337   5.800
 6853SOL    HW221459   0.601   5.367   5.822
 6854SOL     OW21460   6.630   1.886   6.022
 6854SOL    HW121461   6.700   1.954   6.001
 6854SOL    HW221462   6.654   1.798   5.981
 6855SOL     OW21463   4.180   0.124   2.941
 6855SOL    HW121464   4.127   0.166   2.868
 6855SOL    HW221465   4.271   0.166   2.945
 6856SOL     OW21466   6.339   3.612   4.524
 6856SOL    HW121467   6.400   3.552   4.473
 6856SOL    HW221468   6.376   3.628   4.616
 6857SOL     OW21469   3.070   2.117   6.135
 6857SOL    HW121470   2.977   2.153   6.121
 6857SOL    HW221471   3.099   2.136   6.229
 6858SOL     OW21472   3.912   3.600   4.638
 6858SOL    HW121473   3.837   3.666   4.638
 6858SOL    HW221474   3.956   3.599   4.548
 6859SOL     OW21475   2.433   6.930   0.995
 6859SOL    HW121476   2.402   6.837   0.979
 6859SOL    HW221477   2.387   6.992   0.931
 6860SOL     OW21478   5.705   4.803   1.177
 6860SOL    HW121479   5.780   4.822   1.113
 6860SOL    HW221480   5.681   4.888   1.224
 6861SOL     OW21481   5.595   5.695   6.935
 6861SOL    HW121482   5.608   5.623   6.867
 6861SOL    HW221483   5.582   5.654   0.000
 6862SOL     OW21484   3.046   5.329   5.233
 6862SOL    HW121485   2.955   5.313   5.196
 6862SOL    HW221486   3.045   5.314   5.332
 6863SOL     OW21487   6.036   1.350   4.204
 6863SOL    HW121488   5.965   1.419   4.214
 6863SOL    HW221489   6.093   1.371   4.124
 6864SOL     OW21490   2.823   6.027   3.220
 6864SOL    HW121491   2.737   5.993   3.182
 6864SOL    HW221492   2.900   5.987   3.170
 6865SOL     OW21493   6.376   3.922   4.792
 6865SOL    HW121494   6.401   3.828   4.814
 6865SOL    HW221495   6.443   3.961   4.729
 6866SOL     OW21496   6.979   3.848   2.083
 6866SOL    HW121497   7.021   3.888   2.165
 6866SOL    HW221498   6.974   3.918   2.012
 6867SOL     OW21499   1.689   4.507   1.665
 6867SOL    HW121500   1.781   4.468   1.679
 6867SOL    HW221501   1.620   4.436   1.680
 6868SOL     OW21502   1.932   6.337   4.675
 6868SOL    HW121503   1.909   6.434   4.685
 6868SOL    HW221504   1.861   6.291   4.621
 6869SOL     OW21505   5.568   2.459   5.536
 6869SOL    HW121506   5.487   2.401   5.523
 6869SOL    HW221507   5.633   2.413   5.597
 6870SOL     OW21508   5.821   3.638   3.079
 6870SOL    HW121509   5.733   3.625   3.124
 6870SOL    HW221510   5.892   3.588   3.129
 6871SOL     OW21511   6.192   4.088   1.378
 6871SOL    HW121512   6.193   4.066   1.280
 6871SOL    HW221513   6.286   4.089   1.413
 6872SOL     OW21514   1.997   3.564   1.016
 6872SOL    HW121515   1.929   3.628   0.980
 6872SOL    HW221516   2.004   3.485   0.956
 6873SOL     OW21517   5.911   2.816   5.816
 6873SOL    HW121518   5.972   2.885   5.777
 6873SOL    HW221519   5.857   2.857   5.889
 6874SOL     OW21520   6.852   2.878   3.855
 6874SOL    HW121521   6.838   2.923   3.942
 6874SOL    HW221522   6.947   2.848   3.848
 6875SOL     OW21523   1.185   1.643   2.688
 6875SOL    HW121524   1.284   1.630   2.677
 6875SOL    HW221525   1.158   1.612   2.780
 6876SOL     OW21526   3.549   5.742   6.911
 6876SOL    HW121527   3.537   5.721   7.008
 6876SOL    HW221528   3.647   5.737   6.888
 6877SOL     OW21529   2.310   3.794   7.014
 6877SOL    HW121530   2.383   3.786   0.058
 6877SOL    HW221531   2.294   3.891   6.993
 6878SOL     OW21532   2.247   1.503   5.613
 6878SOL    HW121533   2.269   1.411   5.581
 6878SOL    HW221534   2.321   1.537   5.671
 6879SOL     OW21535   0.223   1.949   6.730
 6879SOL    HW121536   0.267   1.876   6.677
 6879SOL    HW221537   0.201   1.915   6.821
 6880SOL     OW21538   2.202   4.096   5.282
 6880SOL    HW121539   2.115   4.092   5.233
 6880SOL    HW221540   2.277   4.074   5.219
 6881SOL     OW21541   0.071   4.331   1.448
 6881SOL    HW121542   7.016   4.384   1.478
 6881SOL    HW221543   0.087   4.349   1.350
 6882SOL     OW21544   2.122   1.170   4.662
 6882SOL    HW121545   2.090   1.135   4.749
 6882SOL    HW221546   2.050   1.226   4.620
 6883SOL     OW21547   3.974   6.889   1.320
 6883SOL    HW121548   3.899   6.929   1.374
 6883SOL    HW221549   3.986   6.942   1.236
 6884SOL     OW21550   2.455   4.501   4.806
 6884SOL    HW121551   2.484   4.416   4.849
 6884SOL    HW221552   2.357   4.497   4.787
 6885SOL     OW21553   2.763   6.311   3.226
 6885SOL    HW121554   2.732   6.217   3.235
 6885SOL    HW221555   2.686   6.374   3.237
 6886SOL     OW21556   5.242   1.254   2.645
 6886SOL    HW121557   5.219   1.210   2.558
 6886SOL    HW221558   5.338   1.235   2.667
 6887SOL     OW21559   6.086   0.329   5.213
 6887SOL    HW121560   6.060   0.288   5.125
 6887SOL    HW221561   6.104   0.257   5.280
 6888SOL     OW21562   6.322   0.563   4.881
 6888SOL    HW121563   6.327   0.471   4.921
 6888SOL    HW221564   6.227   0.590   4.872
 6889SOL     OW21565   0.668   2.718   6.233
 6889SOL    HW121566   0.691   2.758   6.322
 6889SOL    HW221567   0.590   2.657   6.243
 6890SOL     OW21568   2.713   0.621   0.816
 6890SOL    HW121569   2.682   0.583   0.729
 6890SOL    HW221570   2.789   0.566   0.852
 6891SOL     OW21571   2.086   3.850   4.583
 6891SOL    HW121572   2.063   3.765   4.631
 6891SOL    HW221573   2.086   3.834   4.484
 6892SOL     OW21574   4.004   0.201   4.376
 6892SOL    HW121575   3.951   0.282   4.350
 6892SOL    HW221576   4.016   0.142   4.296
 6893SOL     OW21577   5.095   5.867   3.109
 6893SOL    HW121578   5.110   5.924   3.029
 6893SOL    HW221579   5.097   5.924   3.192
 6894SOL     OW21580   6.285   5.646   0.102
 6894SOL    HW121581   6.209   5.686   0.154
 6894SOL    HW221582   6.368   5.698   0.120
 6895SOL     OW21583   2.782   4.026   0.273
 6895SOL    HW121584   2.834   3.984   0.198
 6895SOL    HW221585   2.846   4.073   0.335
 6896SOL     OW21586   3.236   0.797   3.630
 6896SOL    HW121587   3.238   0.721   3.694
 6896SOL    HW221588   3.144   0.838   3.629
 6897SOL     OW21589   3.185   3.403   0.385
 6897SOL    HW121590   3.163   3.342   0.309
 6897SOL    HW221591   3.144   3.368   0.469
 6898SOL     OW21592   4.215   0.604   2.056
 6898SOL    HW121593   4.132   0.612   2.112
 6898SOL    HW221594   4.274   0.683   2.074
 6899SOL     OW21595   5.444   0.000   5.986
 6899SOL    HW121596   5.510   0.071   5.964
 6899SOL    HW221597   5.407   0.015   6.077
 6900SOL     OW21598   5.374   0.856   5.858
 6900SOL    HW121599   5.381   0.777   5.918
 6900SOL    HW221600   5.305   0.919   5.893
 6901SOL     OW21601   1.083   0.246   6.101
 6901SOL    HW121602   1.180   0.265   6.085
 6901SOL    HW221603   1.049   0.306   6.174
 6902SOL     OW21604   0.743   0.125   6.931
 6902SOL    HW121605   0.729   0.202   6.994
 6902SOL    HW221606   0.817   0.067   6.964
 6903SOL     OW21607   3.611   3.424   0.195
 6903SOL    HW121608   3.703   3.445   0.163
 6903SOL    HW221609   3.590   3.329   0.174
 6904SOL     OW21610   6.937   0.748   4.049
 6904SOL    HW121611   6.909   0.674   4.110
 6904SOL    HW221612   6.944   0.713   3.956
 6905SOL     OW21613   6.530   6.550   0.894
 6905SOL    HW121614   6.563   6.643   0.906
 6905SOL    HW221615   6.475   6.523   0.972
 6906SOL     OW21616   3.675   1.068   4.037
 6906SOL    HW121617   3.689   0.969   4.037
 6906SOL    HW221618   3.707   1.106   3.950
 6907SOL     OW21619   3.802   1.281   1.222
 6907SOL    HW121620   3.733   1.345   1.255
 6907SOL    HW221621   3.767   1.233   1.142
 6908SOL     OW21622   1.247   0.248   5.621
 6908SOL    HW121623   1.264   0.150   5.628
 6908SOL    HW221624   1.334   0.296   5.611
 6909SOL     OW21625   4.282   5.043   1.024
 6909SOL    HW121626   4.205   5.105   1.041
 6909SOL    HW221627   4.248   4.959   0.980
 6910SOL     OW21628   6.310   1.317   2.418
 6910SOL    HW121629   6.282   1.345   2.510
 6910SOL    HW221630   6.266   1.376   2.350
 6911SOL     OW21631   4.120   0.472   3.926
 6911SOL    HW121632   4.127   0.419   4.011
 6911SOL    HW221633   4.155   0.564   3.941
 6912SOL     OW21634   4.761   4.912   1.457
 6912SOL    HW121635   4.689   4.905   1.388
 6912SOL    HW221636   4.754   5.000   1.504
 6913SOL     OW21637   4.831   4.785   4.467
 6913SOL    HW121638   4.869   4.693   4.457
 6913SOL    HW221639   4.731   4.779   4.469
 6914SOL     OW21640   5.986   5.560   6.760
 6914SOL    HW121641   5.976   5.608   6.673
 6914SOL    HW221642   6.059   5.492   6.752
 6915SOL     OW21643   0.663   4.828   2.564
 6915SOL    HW121644   0.633   4.741   2.603
 6915SOL    HW221645   0.658   4.899   2.634
 6916SOL     OW21646   6.445   4.293   6.612
 6916SOL    HW121647   6.433   4.267   6.708
 6916SOL    HW221648   6.532   4.258   6.579
 6917SOL     OW21649   4.814   5.950   5.877
 6917SOL    HW121650   4.899   6.003   5.878
 6917SOL    HW221651   4.745   5.996   5.932
 6918SOL     OW21652   0.401   3.648   4.267
 6918SOL    HW121653   0.348   3.703   4.203
 6918SOL    HW221654   0.460   3.585   4.215
 6919SOL     OW21655   1.996   6.277   2.299
 6919SOL    HW121656   1.985   6.207   2.229
 6919SOL    HW221657   1.918   6.340   2.295
 6920SOL     OW21658   4.955   5.218   4.986
 6920SOL    HW121659   4.957   5.276   4.904
 6920SOL    HW221660   4.881   5.152   4.979
 6921SOL     OW21661   5.866   5.994   3.448
 6921SOL    HW121662   5.778   6.037   3.465
 6921SOL    HW221663   5.852   5.897   3.427
 6922SOL     OW21664   1.813   6.184   6.679
 6922SOL    HW121665   1.730   6.236   6.657
 6922SOL    HW221666   1.883   6.204   6.610
 6923SOL     OW21667   4.547   6.859   3.653
 6923SOL    HW121668   4.598   6.900   3.730
 6923SOL    HW221669   4.600   6.783   3.615
 6924SOL     OW21670   0.895   4.603   0.405
 6924SOL    HW121671   0.921   4.551   0.323
 6924SOL    HW221672   0.802   4.578   0.432
 6925SOL     OW21673   3.731   6.244   3.849
 6925SOL    HW121674   3.643   6.210   3.814
 6925SOL    HW221675   3.772   6.175   3.909
 6926SOL     OW21676   3.948   3.643   3.708
 6926SOL    HW121677   3.889   3.686   3.640
 6926SOL    HW221678   4.017   3.586   3.662
 6927SOL     OW21679   5.053   3.870   6.593
 6927SOL    HW121680   4.989   3.928   6.542
 6927SOL    HW221681   5.004   3.825   6.667
 6928SOL     OW21682   4.370   0.110   6.443
 6928SOL    HW121683   4.277   0.082   6.419
 6928SOL    HW221684   4.412   0.156   6.365
 6929SOL     OW21685   4.673   6.439   6.623
 6929SOL    HW121686   4.762   6.395   6.626
 6929SOL    HW221687   4.621   6.403   6.545
 6930SOL     OW21688   0.314   6.633   2.128
 6930SOL    HW121689   0.408   6.624   2.160
 6930SOL    HW221690   0.267   6.704   2.180
 6931SOL     OW21691   0.707   0.258   1.506
 6931SOL    HW121692   0.795   0.302   1.524
 6931SOL    HW221693   0.648   0.269   1.586
 6932SOL     OW21694   3.011   0.915   6.458
 6932SOL    HW121695   3.045   0.821   6.451
 6932SOL    HW221696   3.007   0.942   6.555
 6933SOL     OW21697   3.584   5.767   4.933
 6933SOL    HW121698   3.678   5.742   4.908
 6933SOL    HW221699   3.522   5.691   4.911
 6934SOL     OW21700   5.209   2.919   0.323
 6934SOL    HW121701   5.233   2.897   0.229
 6934SOL    HW221702   5.115   2.888   0.341
 6935SOL     OW21703   4.227   5.936   3.326
 6935SOL    HW121704   4.174   5.857   3.357
 6935SOL    HW221705   4.230   5.938   3.226
 6936SOL     OW21706   7.003   2.092   2.069
 6936SOL    HW121707   0.004   2.102   2.165
 6936SOL    HW221708   6.984   2.181   2.029
 6937SOL     OW21709   4.543   6.270   6.072
 6937SOL    HW121710   4.628   6.320   6.087
 6937SOL    HW221711   4.467   6.335   6.064
 6938SOL     OW21712   5.122   3.781   6.032
 6938SOL    HW121713   5.059   3.738   6.097
 6938SOL    HW221714   5.078   3.787   5.943
 6939SOL     OW21715   0.390   4.792   2.282
 6939SOL    HW121716   0.480   4.763   2.248
 6939SOL    HW221717   0.323   4.720   2.265
 6940SOL     OW21718   4.859   0.614   0.036
 6940SOL    HW121719   4.761   0.594   0.039
 6940SOL    HW221720   4.885   0.637   6.966
 6941SOL     OW21721   3.302   3.299   2.243
 6941SOL    HW121722   3.227   3.357   2.276
 6941SOL    HW221723   3.265   3.227   2.185
 6942SOL     OW21724   0.295   2.681   0.508
 6942SOL    HW121725   0.281   2.709   0.603
 6942SOL    HW221726   0.317   2.762   0.453
 6943SOL     OW21727   5.321   6.696   6.134
 6943SOL    HW121728   5.420   6.700   6.126
 6943SOL    HW221729   5.285   6.621   6.079
 6944SOL     OW21730   1.407   5.764   5.433
 6944SOL    HW121731   1.409   5.821   5.351
 6944SOL    HW221732   1.339   5.799   5.496
 6945SOL     OW21733   6.110   3.480   6.539
 6945SOL    HW121734   6.017   3.497   6.574
 6945SOL    HW221735   6.106   3.467   6.440
 6946SOL     OW21736   5.926   4.964   2.379
 6946SOL    HW121737   5.964   4.894   2.441
 6946SOL    HW221738   5.840   4.930   2.340
 6947SOL     OW21739   3.983   6.947   3.636
 6947SOL    HW121740   3.988   6.849   3.617
 6947SOL    HW221741   3.952   6.996   3.555
 6948SOL     OW21742   4.818   0.549   0.717
 6948SOL    HW121743   4.827   0.450   0.704
 6948SOL    HW221744   4.740   0.583   0.664
 6949SOL     OW21745   4.698   6.498   3.090
 6949SOL    HW121746   4.732   6.577   3.141
 6949SOL    HW221747   4.757   6.482   3.011
 6950SOL     OW21748   2.153   0.456   2.974
 6950SOL    HW121749   2.210   0.374   2.973
 6950SOL    HW221750   2.211   0.538   2.971
 6951SOL     OW21751   6.595   6.342   6.128
 6951SOL    HW121752   6.570   6.431   6.090
 6951SOL    HW221753   6.684   6.314   6.092
 6952SOL     OW21754   0.213   5.078   3.416
 6952SOL    HW121755   0.312   5.080   3.424
 6952SOL    HW221756   0.172   5.133   3.489
 6953SOL     OW21757   5.140   1.014   5.961
 6953SOL    HW121758   5.169   1.098   5.915
 6953SOL    HW221759   5.089   1.037   6.043
 6954SOL     OW21760   0.631   2.967   4.164
 6954SOL    HW121761   0.606   2.920   4.079
 6954SOL    HW221762   0.710   2.923   4.205
 6955SOL     OW21763   0.092   0.032   1.753
 6955SOL    HW121764   0.162   0.071   1.813
 6955SOL    HW221765   0.013   0.093   1.751
 6956SOL     OW21766   4.265   5.633   2.089
 6956SOL    HW121767   4.278   5.650   1.991
 6956SOL    HW221768   4.171   5.656   2.115
 6957SOL     OW21769   6.826   4.979   1.641
 6957SOL    HW121770   6.764   4.938   1.574
 6957SOL    HW221771   6.846   4.912   1.713
 6958SOL     OW21772   2.265   2.501   5.876
 6958SOL    HW121773   2.362   2.499   5.854
 6958SOL    HW221774   2.221   2.419   5.841
 6959SOL     OW21775   3.548   1.479   5.010
 6959SOL    HW121776   3.582   1.414   4.942
 6959SOL    HW221777   3.516   1.430   5.090
 6960SOL     OW21778   6.947   4.781   7.001
 6960SOL    HW121779   6.898   4.747   0.057
 6960SOL    HW221780   6.881   4.812   6.932
 6961SOL     OW21781   0.490   2.185   3.610
 6961SOL    HW121782   0.524   2.092   3.600
 6961SOL    HW221783   0.523   2.241   3.533
 6962SOL     OW21784   5.465   5.100   2.721
 6962SOL    HW121785   5.509   5.033   2.779
 6962SOL    HW221786   5.446   5.183   2.774
 6963SOL     OW21787   0.064   5.389   1.497
 6963SOL    HW121788   0.143   5.446   1.472
 6963SOL    HW221789   7.006   5.445   1.499
 6964SOL     OW21790   4.695   4.948   5.324
 6964SOL    HW121791   4.668   5.044   5.332
 6964SOL    HW221792   4.688   4.919   5.228
 6965SOL     OW21793   6.407   3.364   6.111
 6965SOL    HW121794   6.472   3.363   6.035
 6965SOL    HW221795   6.431   3.437   6.175
 6966SOL     OW21796   5.556   2.602   3.060
 6966SOL    HW121797   5.598   2.690   3.037
 6966SOL    HW221798   5.484   2.580   2.994
 6967SOL     OW21799   1.850   1.766   5.410
 6967SOL    HW121800   1.856   1.845   5.349
 6967SOL    HW221801   1.855   1.682   5.356
 6968SOL     OW21802   4.137   6.089   1.210
 6968SOL    HW121803   4.142   6.030   1.129
 6968SOL    HW221804   4.220   6.144   1.216
 6969SOL     OW21805   4.167   1.467   1.660
 6969SOL    HW121806   4.075   1.455   1.621
 6969SOL    HW221807   4.175   1.413   1.743
 6970SOL     OW21808   4.003   4.170   0.853
 6970SOL    HW121809   3.978   4.088   0.802
 6970SOL    HW221810   4.035   4.241   0.790
 6971SOL     OW21811   6.472   2.559   1.927
 6971SOL    HW121812   6.502   2.478   1.876
 6971SOL    HW221813   6.525   2.638   1.898
 6972SOL     OW21814   5.327   4.355   4.377
 6972SOL    HW121815   5.361   4.270   4.416
 6972SOL    HW221816   5.323   4.347   4.277
 6973SOL     OW21817   1.890   4.606   5.101
 6973SOL    HW121818   1.938   4.666   5.036
 6973SOL    HW221819   1.799   4.643   5.119
 6974SOL     OW21820   3.700   3.229   3.461
 6974SOL    HW121821   3.754   3.190   3.386
 6974SOL    HW221822   3.756   3.231   3.544
 6975SOL     OW21823   2.986   6.947   5.370
 6975SOL    HW121824   3.042   6.926   5.450
 6975SOL    HW221825   2.937   0.008   5.386
 6976SOL     OW21826   3.378   4.799   6.827
 6976SOL    HW121827   3.438   4.873   6.796
 6976SOL    HW221828   3.430   4.713   6.829
 6977SOL     OW21829   4.891   1.911   2.026
 6977SOL    HW121830   4.822   1.847   2.059
 6977SOL    HW221831   4.919   1.886   1.933
 6978SOL     OW21832   6.628   0.827   1.755
 6978SOL    HW121833   6.666   0.822   1.848
 6978SOL    HW221834   6.679   0.765   1.695
 6979SOL     OW21835   1.312   5.653   2.068
 6979SOL    HW121836   1.303   5.597   1.985
 6979SOL    HW221837   1.330   5.593   2.146
 6980SOL     OW21838   2.241   0.752   3.330
 6980SOL    HW121839   2.254   0.837   3.381
 6980SOL    HW221840   2.143   0.740   3.311
 6981SOL     OW21841   2.630   4.092   6.585
 6981SOL    HW121842   2.711   4.132   6.542
 6981SOL    HW221843   2.581   4.035   6.519
 6982SOL     OW21844   1.497   0.734   3.934
 6982SOL    HW121845   1.453   0.697   4.015
 6982SOL    HW221846   1.571   0.796   3.961
 6983SOL     OW21847   0.304   0.862   4.221
 6983SOL    HW121848   0.215   0.878   4.265
 6983SOL    HW221849   0.368   0.826   4.288
 6984SOL     OW21850   2.245   1.845   5.141
 6984SOL    HW121851   2.162   1.805   5.102
 6984SOL    HW221852   2.297   1.890   5.069
 6985SOL     OW21853   3.772   5.607   2.343
 6985SOL    HW121854   3.722   5.692   2.363
 6985SOL    HW221855   3.707   5.531   2.339
 6986SOL     OW21856   2.202   6.341   5.871
 6986SOL    HW121857   2.218   6.261   5.929
 6986SOL    HW221858   2.104   6.347   5.849
 6987SOL     OW21859   0.277   2.131   5.970
 6987SOL    HW121860   0.193   2.165   6.011
 6987SOL    HW221861   0.258   2.047   5.920
 6988SOL     OW21862   5.758   1.285   4.949
 6988SOL    HW121863   5.703   1.248   5.024
 6988SOL    HW221864   5.847   1.240   4.948
 6989SOL     OW21865   0.891   1.992   3.454
 6989SOL    HW121866   0.819   1.943   3.504
 6989SOL    HW221867   0.871   1.987   3.356
 6990SOL     OW21868   5.024   2.242   0.312
 6990SOL    HW121869   4.979   2.155   0.293
 6990SOL    HW221870   5.100   2.255   0.248
 6991SOL     OW21871   2.692   4.822   5.107
 6991SOL    HW121872   2.607   4.785   5.145
 6991SOL    HW221873   2.750   4.747   5.075
 6992SOL     OW21874   6.042   6.011   4.528
 6992SOL    HW121875   6.140   5.992   4.539
 6992SOL    HW221876   6.025   6.108   4.548
 6993SOL     OW21877   6.261   6.559   3.348
 6993SOL    HW121878   6.260   6.470   3.393
 6993SOL    HW221879   6.175   6.571   3.298
 6994SOL     OW21880   1.053   3.705   5.630
 6994SOL    HW121881   1.145   3.674   5.604
 6994SOL    HW221882   1.040   3.693   5.728
 6995SOL     OW21883   6.166   5.500   4.839
 6995SOL    HW121884   6.222   5.435   4.890
 6995SOL    HW221885   6.073   5.500   4.876
 6996SOL     OW21886   2.918   0.720   5.162
 6996SOL    HW121887   2.849   0.647   5.158
 6996SOL    HW221888   2.913   0.775   5.079
 6997SOL     OW21889   4.912   6.333   5.379
 6997SOL    HW121890   4.837   6.347   5.313
 6997SOL    HW221891   4.890   6.382   5.464
 6998SOL     OW21892   1.665   3.152   1.501
 6998SOL    HW121893   1.608   3.229   1.472
 6998SOL    HW221894   1.761   3.171   1.479
 6999SOL     OW21895   2.480   1.550   6.681
 6999SOL    HW121896   2.485   1.608   6.600
 6999SOL    HW221897   2.542   1.585   6.751
 7000SOL     OW21898   0.425   6.134   2.848
 7000SOL    HW121899   0.365   6.199   2.894
 7000SOL    HW221900   0.430   6.156   2.751
 7001SOL     OW21901   2.678   2.715   5.862
 7001SOL    HW121902   2.594   2.664   5.844
 7001SOL    HW221903   2.752   2.677   5.807
 7002SOL     OW21904   2.530   4.770   3.528
 7002SOL    HW121905   2.539   4.699   3.598
 7002SOL    HW221906   2.589   4.848   3.551
 7003SOL     OW21907   2.973   0.135   6.788
 7003SOL    HW121908   2.880   0.127   6.753
 7003SOL    HW221909   2.981   0.220   6.840
 7004SOL     OW21910   2.109   4.168   1.721
 7004SOL    HW121911   2.197   4.158   1.767
 7004SOL    HW221912   2.055   4.084   1.734
 7005SOL     OW21913   0.016   6.367   5.554
 7005SOL    HW121914   7.006   6.407   5.639
 7005SOL    HW221915   7.025   6.269   5.554
 7006SOL     OW21916   5.154   4.363   5.032
 7006SOL    HW121917   5.148   4.274   4.987
 7006SOL    HW221918   5.161   4.349   5.131
 7007SOL     OW21919   4.833   6.693   3.237
 7007SOL    HW121920   4.818   6.786   3.270
 7007SOL    HW221921   4.900   6.694   3.163
 7008SOL     OW21922   2.432   5.039   4.117
 7008SOL    HW121923   2.352   5.087   4.082
 7008SOL    HW221924   2.405   4.979   4.192
 7009SOL     OW21925   6.491   5.221   2.285
 7009SOL    HW121926   6.478   5.183   2.376
 7009SOL    HW221927   6.559   5.167   2.235
 7010SOL     OW21928   4.046   5.006   6.057
 7010SOL    HW121929   4.042   5.091   6.004
 7010SOL    HW221930   4.129   4.956   6.033
 7011SOL     OW21931   1.278   6.667   5.368
 7011SOL    HW121932   1.181   6.662   5.393
 7011SOL    HW221933   1.304   6.583   5.320
 7012SOL     OW21934   1.335   0.845   1.726
 7012SOL    HW121935   1.399   0.920   1.706
 7012SOL    HW221936   1.385   0.758   1.725
 7013SOL     OW21937   0.723   6.617   1.151
 7013SOL    HW121938   0.795   6.610   1.082
 7013SOL    HW221939   0.764   6.632   1.241
 7014SOL     OW21940   4.480   3.780   1.001
 7014SOL    HW121941   4.534   3.728   0.935
 7014SOL    HW221942   4.421   3.845   0.953
 7015SOL     OW21943   5.790   3.775   1.946
 7015SOL    HW121944   5.868   3.810   1.894
 7015SOL    HW221945   5.802   3.799   2.043
 7016SOL     OW21946   4.268   4.847   2.429
 7016SOL    HW121947   4.281   4.773   2.494
 7016SOL    HW221948   4.176   4.841   2.390
 7017SOL     OW21949   2.501   1.330   2.276
 7017SOL    HW121950   2.421   1.271   2.290
 7017SOL    HW221951   2.483   1.420   2.314
 7018SOL     OW21952   6.755   4.031   5.031
 7018SOL    HW121953   6.783   4.029   4.935
 7018SOL    HW221954   6.771   4.122   5.068
 7019SOL     OW21955   2.771   4.966   6.742
 7019SOL    HW121956   2.780   4.871   6.772
 7019SOL    HW221957   2.693   4.974   6.680
 7020SOL     OW21958   5.313   7.018   0.486
 7020SOL    HW121959   5.221   0.005   0.523
 7020SOL    HW221960   5.310   6.950   0.413
 7021SOL     OW21961   2.976   1.035   5.259
 7021SOL    HW121962   2.972   0.955   5.318
 7021SOL    HW221963   2.883   1.067   5.239
 7022SOL     OW21964   5.339   3.924   0.554
 7022SOL    HW121965   5.294   3.851   0.605
 7022SOL    HW221966   5.425   3.948   0.599
 7023SOL     OW21967   6.407   2.318   3.291
 7023SOL    HW121968   6.423   2.339   3.387
 7023SOL    HW221969   6.455   2.233   3.267
 7024SOL     OW21970   1.930   5.904   6.282
 7024SOL    HW121971   1.970   5.834   6.222
 7024SOL    HW221972   1.975   5.992   6.264
 7025SOL     OW21973   3.389   1.382   6.470
 7025SOL    HW121974   3.341   1.323   6.406
 7025SOL    HW221975   3.412   1.469   6.425
 7026SOL     OW21976   2.938   1.492   1.869
 7026SOL    HW121977   2.859   1.433   1.886
 7026SOL    HW221978   2.913   1.564   1.804
 7027SOL     OW21979   3.482   5.992   3.162
 7027SOL    HW121980   3.542   5.918   3.193
 7027SOL    HW221981   3.498   6.010   3.065
 7028SOL     OW21982   5.343   6.498   4.332
 7028SOL    HW121983   5.420   6.555   4.362
 7028SOL    HW221984   5.377   6.409   4.301
 7029SOL     OW21985   3.763   6.389   6.675
 7029SOL    HW121986   3.721   6.302   6.649
 7029SOL    HW221987   3.816   6.376   6.759
 7030SOL     OW21988   0.417   3.410   5.929
 7030SOL    HW121989   0.321   3.379   5.927
 7030SOL    HW221990   0.476   3.334   5.902
 7031SOL     OW21991   2.267   5.659   3.598
 7031SOL    HW121992   2.331   5.653   3.675
 7031SOL    HW221993   2.230   5.568   3.579
 7032SOL     OW21994   4.289   0.035   3.307
 7032SOL    HW121995   4.299   0.131   3.283
 7032SOL    HW221996   4.304   7.004   3.225
 7033SOL     OW21997   6.600   1.174   4.127
 7033SOL    HW121998   6.685   1.189   4.177
 7033SOL    HW221999   6.525   1.160   4.193
 7034SOL     OW22000   5.474   0.586   2.808
 7034SOL    HW122001   5.548   0.561   2.746
 7034SOL    HW222002   5.393   0.611   2.756
 7035SOL     OW22003   1.113   6.910   2.794
 7035SOL    HW122004   1.199   6.865   2.767
 7035SOL    HW222005   1.062   6.935   2.712
 7036SOL     OW22006   6.580   5.971   1.733
 7036SOL    HW122007   6.572   5.910   1.654
 7036SOL    HW222008   6.520   5.939   1.806
 7037SOL     OW22009   0.331   6.454   6.543
 7037SOL    HW122010   0.345   6.397   6.625
 7037SOL    HW222011   0.302   6.545   6.571
 7038SOL     OW22012   1.632   3.707   4.572
 7038SOL    HW122013   1.629   3.807   4.577
 7038SOL    HW222014   1.719   3.678   4.533
 7039SOL     OW22015   3.097   6.592   0.301
 7039SOL    HW122016   3.044   6.519   0.345
 7039SOL    HW222017   3.099   6.672   0.360
 7040SOL     OW22018   4.820   2.575   6.102
 7040SOL    HW122019   4.860   2.485   6.124
 7040SOL    HW222020   4.815   2.585   6.003
 7041SOL     OW22021   1.156   1.923   3.293
 7041SOL    HW122022   1.196   1.839   3.257
 7041SOL    HW222023   1.070   1.942   3.245
 7042SOL     OW22024   5.136   4.954   6.443
 7042SOL    HW122025   5.074   4.903   6.385
 7042SOL    HW222026   5.223   4.968   6.396
 7043SOL     OW22027   2.197   2.979   3.294
 7043SOL    HW122028   2.195   3.045   3.369
 7043SOL    HW222029   2.155   3.020   3.213
 7044SOL     OW22030   5.025   4.663   3.224
 7044SOL    HW122031   5.001   4.574   3.262
 7044SOL    HW222032   4.967   4.682   3.145
 7045SOL     OW22033   4.694   6.436   1.126
 7045SOL    HW122034   4.698   6.526   1.084
 7045SOL    HW222035   4.780   6.418   1.174
 7046SOL     OW22036   3.745   1.732   3.869
 7046SOL    HW122037   3.788   1.818   3.840
 7046SOL    HW222038   3.798   1.690   3.942
 7047SOL     OW22039   1.207   2.276   2.911
 7047SOL    HW122040   1.127   2.336   2.899
 7047SOL    HW222041   1.240   2.247   2.822
 7048SOL     OW22042   1.265   5.700   1.191
 7048SOL    HW122043   1.201   5.713   1.115
 7048SOL    HW222044   1.357   5.727   1.161
 7049SOL     OW22045   2.594   0.867   0.784
 7049SOL    HW122046   2.621   0.783   0.832
 7049SOL    HW222047   2.572   0.844   0.689
 7050SOL     OW22048   3.178   4.075   3.795
 7050SOL    HW122049   3.253   4.088   3.730
 7050SOL    HW222050   3.167   4.158   3.850
 7051SOL     OW22051   0.150   0.268   0.987
 7051SOL    HW122052   0.115   0.192   1.042
 7051SOL    HW222053   0.225   0.312   1.035
 7052SOL     OW22054   6.749   2.321   4.830
 7052SOL    HW122055   6.755   2.402   4.888
 7052SOL    HW222056   6.815   2.330   4.755
 7053SOL     OW22057   0.098   3.449   6.624
 7053SOL    HW122058   0.181   3.398   6.646
 7053SOL    HW222059   0.056   3.483   6.708
 7054SOL     OW22060   0.892   6.333   1.174
 7054SOL    HW122061   0.850   6.382   1.250
 7054SOL    HW222062   0.848   6.360   1.088
 7055SOL     OW22063   4.543   6.380   5.437
 7055SOL    HW122064   4.630   6.336   5.460
 7055SOL    HW222065   4.545   6.412   5.342
 7056SOL     OW22066   5.583   4.793   3.857
 7056SOL    HW122067   5.572   4.698   3.887
 7056SOL    HW222068   5.512   4.850   3.899
 7057SOL     OW22069   0.732   4.065   4.601
 7057SOL    HW122070   0.798   4.007   4.553
 7057SOL    HW222071   0.781   4.131   4.658
 7058SOL     OW22072   0.071   5.746   5.632
 7058SOL    HW122073   0.021   5.821   5.675
 7058SOL    HW222074   0.132   5.704   5.699
 7059SOL     OW22075   0.045   0.280   2.185
 7059SOL    HW122076   6.980   0.318   2.208
 7059SOL    HW222077   0.049   0.261   2.086
 7060SOL     OW22078   3.572   0.224   1.643
 7060SOL    HW122079   3.672   0.225   1.650
 7060SOL    HW222080   3.540   0.315   1.615
 7061SOL     OW22081   0.240   2.142   3.671
 7061SOL    HW122082   0.332   2.179   3.653
 7061SOL    HW222083   0.249   2.049   3.708
 7062SOL     OW22084   5.646   1.423   5.673
 7062SOL    HW122085   5.643   1.324   5.660
 7062SOL    HW222086   5.597   1.469   5.600
 7063SOL     OW22087   1.222   6.290   0.775
 7063SOL    HW122088   1.264   6.237   0.701
 7063SOL    HW222089   1.152   6.235   0.820
 7064SOL     OW22090   4.561   2.458   1.520
 7064SOL    HW122091   4.503   2.430   1.597
 7064SOL    HW222092   4.509   2.519   1.460
 7065SOL     OW22093   5.310   3.900   1.210
 7065SOL    HW122094   5.349   3.811   1.234
 7065SOL    HW222095   5.255   3.933   1.287
 7066SOL     OW22096   3.759   0.395   0.853
 7066SOL    HW122097   3.674   0.377   0.903
 7066SOL    HW222098   3.773   0.322   0.786
 7067SOL     OW22099   1.302   2.717   5.508
 7067SOL    HW122100   1.391   2.702   5.464
 7067SOL    HW222101   1.290   2.814   5.527
 7068SOL     OW22102   0.638   3.382   2.987
 7068SOL    HW122103   0.675   3.475   2.987
 7068SOL    HW222104   0.568   3.375   2.915
 7069SOL     OW22105   6.624   3.188   4.710
 7069SOL    HW122106   6.627   3.180   4.810
 7069SOL    HW222107   6.562   3.263   4.684
 7070SOL     OW22108   6.700   5.427   5.207
 7070SOL    HW122109   6.731   5.509   5.256
 7070SOL    HW222110   6.672   5.452   5.115
 7071SOL     OW22111   0.443   6.796   5.176
 7071SOL    HW122112   0.357   6.776   5.129
 7071SOL    HW222113   0.492   6.868   5.127
 7072SOL     OW22114   6.899   0.183   6.215
 7072SOL    HW122115   6.869   0.277   6.200
 7072SOL    HW222116   6.895   0.134   6.128
 7073SOL     OW22117   6.541   0.839   4.644
 7073SOL    HW122118   6.566   0.929   4.608
 7073SOL    HW222119   6.489   0.851   4.729
 7074SOL     OW22120   3.422   2.819   2.278
 7074SOL    HW122121   3.349   2.832   2.346
 7074SOL    HW222122   3.384   2.832   2.186
 7075SOL     OW22123   1.221   6.382   4.154
 7075SOL    HW122124   1.143   6.343   4.103
 7075SOL    HW222125   1.260   6.312   4.213
 7076SOL     OW22126   3.917   2.064   0.532
 7076SOL    HW122127   3.837   2.097   0.482
 7076SOL    HW222128   3.999   2.113   0.502
 7077SOL     OW22129   2.173   5.680   5.433
 7077SOL    HW122130   2.081   5.657   5.464
 7077SOL    HW222131   2.170   5.712   5.338
 7078SOL     OW22132   6.136   7.019   2.267
 7078SOL    HW122133   6.222   0.045   2.273
 7078SOL    HW222134   6.062   0.048   2.306
 7079SOL     OW22135   6.565   6.602   6.032
 7079SOL    HW122136   6.518   6.680   6.074
 7079SOL    HW222137   6.511   6.568   5.956
 7080SOL     OW22138   4.234   1.963   3.797
 7080SOL    HW122139   4.271   2.044   3.751
 7080SOL    HW222140   4.304   1.892   3.801
 7081SOL     OW22141   4.133   0.761   5.404
 7081SOL    HW122142   4.150   0.801   5.494
 7081SOL    HW222143   4.216   0.765   5.350
 7082SOL     OW22144   5.613   6.393   0.579
 7082SOL    HW122145   5.638   6.404   0.675
 7082SOL    HW222146   5.547   6.463   0.554
 7083SOL     OW22147   3.187   1.067   6.095
 7083SOL    HW122148   3.269   1.053   6.041
 7083SOL    HW222149   3.107   1.065   6.035
 7084SOL     OW22150   0.015   6.964   5.236
 7084SOL    HW122151   0.074   6.949   5.315
 7084SOL    HW222152   0.017   6.884   5.176
 7085SOL     OW22153   1.853   0.956   3.242
 7085SOL    HW122154   1.929   1.010   3.206
 7085SOL    HW222155   1.768   0.989   3.202
 7086SOL     OW22156   5.348   1.342   6.460
 7086SOL    HW122157   5.434   1.290   6.462
 7086SOL    HW222158   5.299   1.327   6.546
 7087SOL     OW22159   0.406   3.288   4.373
 7087SOL    HW122160   0.506   3.280   4.365
 7087SOL    HW222161   0.384   3.348   4.450
 7088SOL     OW22162   4.821   3.008   4.105
 7088SOL    HW122163   4.797   2.926   4.053
 7088SOL    HW222164   4.906   2.992   4.155
 7089SOL     OW22165   3.151   2.734   6.196
 7089SOL    HW122166   3.217   2.750   6.123
 7089SOL    HW222167   3.059   2.730   6.157
 7090SOL     OW22168   2.238   1.185   5.511
 7090SOL    HW122169   2.323   1.220   5.472
 7090SOL    HW222170   2.256   1.146   5.602
 7091SOL     OW22171   0.051   1.807   6.451
 7091SOL    HW122172   0.009   1.895   6.475
 7091SOL    HW222173   0.098   1.770   6.531
 7092SOL     OW22174   4.231   2.939   0.080
 7092SOL    HW122175   4.245   2.878   0.158
 7092SOL    HW222176   4.186   2.889   0.006
 7093SOL     OW22177   3.240   3.931   4.057
 7093SOL    HW122178   3.189   3.884   3.985
 7093SOL    HW222179   3.273   4.019   4.022
 7094SOL     OW22180   0.380   6.632   5.647
 7094SOL    HW122181   0.375   6.557   5.714
 7094SOL    HW222182   0.446   6.700   5.679
 7095SOL     OW22183   2.840   2.816   0.053
 7095SOL    HW122184   2.827   2.907   0.012
 7095SOL    HW222185   2.854   2.826   0.151
 7096SOL     OW22186   6.000   1.216   3.975
 7096SOL    HW122187   5.962   1.218   4.068
 7096SOL    HW222188   5.926   1.217   3.908
 7097SOL     OW22189   6.739   0.596   1.624
 7097SOL    HW122190   6.825   0.579   1.672
 7097SOL    HW222191   6.667   0.540   1.665
 7098SOL     OW22192   1.135   6.131   5.095
 7098SOL    HW122193   1.103   6.223   5.073
 7098SOL    HW222194   1.184   6.093   5.016
 7099SOL     OW22195   1.782   0.988   4.244
 7099SOL    HW122196   1.746   1.080   4.228
 7099SOL    HW222197   1.817   0.982   4.338
 7100SOL     OW22198   5.316   3.220   1.137
 7100SOL    HW122199   5.222   3.187   1.143
 7100SOL    HW222200   5.376   3.159   1.189
 7101SOL     OW22201   2.540   0.364   4.594
 7101SOL    HW122202   2.522   0.462   4.585
 7101SOL    HW222203   2.557   0.342   4.690
 7102SOL     OW22204   4.488   0.515   1.053
 7102SOL    HW122205   4.535   0.576   0.990
 7102SOL    HW222206   4.397   0.493   1.017
 7103SOL     OW22207   3.860   5.824   0.060
 7103SOL    HW122208   3.859   5.910   0.009
 7103SOL    HW222209   3.873   5.843   0.157
 7104SOL     OW22210   1.054   3.457   4.561
 7104SOL    HW122211   1.101   3.525   4.618
 7104SOL    HW222212   0.970   3.428   4.607
 7105SOL     OW22213   3.640   2.949   5.277
 7105SOL    HW122214   3.574   3.024   5.277
 7105SOL    HW222215   3.636   2.901   5.364
 7106SOL     OW22216   3.455   3.101   3.784
 7106SOL    HW122217   3.497   3.151   3.860
 7106SOL    HW222218   3.525   3.078   3.716
 7107SOL     OW22219   2.461   1.166   0.587
 7107SOL    HW122220   2.485   1.201   0.678
 7107SOL    HW222221   2.529   1.098   0.558
 7108SOL     OW22222   4.564   6.224   0.989
 7108SOL    HW122223   4.618   6.302   1.021
 7108SOL    HW222224   4.478   6.257   0.949
 7109SOL     OW22225   3.645   6.846   6.269
 7109SOL    HW122226   3.710   6.920   6.288
 7109SOL    HW222227   3.654   6.775   6.339
 7110SOL     OW22228   5.302   5.172   4.030
 7110SOL    HW122229   5.240   5.247   4.005
 7110SOL    HW222230   5.333   5.185   4.124
 7111SOL     OW22231   1.274   3.050   4.544
 7111SOL    HW122232   1.270   3.148   4.526
 7111SOL    HW222233   1.325   3.033   4.628
 7112SOL     OW22234   1.726   5.717   4.436
 7112SOL    HW122235   1.778   5.636   4.464
 7112SOL    HW222236   1.789   5.784   4.395
 7113SOL     OW22237   3.266   4.017   4.699
 7113SOL    HW122238   3.289   4.028   4.796
 7113SOL    HW222239   3.342   4.048   4.642
 7114SOL     OW22240   4.259   6.909   1.698
 7114SOL    HW122241   4.328   6.904   1.626
 7114SOL    HW222242   4.173   6.869   1.665
 7115SOL     OW22243   5.165   2.253   1.736
 7115SOL    HW122244   5.220   2.268   1.654
 7115SOL    HW222245   5.222   2.214   1.808
 7116SOL     OW22246   5.850   3.199   3.304
 7116SOL    HW122247   5.888   3.251   3.227
 7116SOL    HW222248   5.877   3.243   3.389
 7117SOL     OW22249   0.156   0.104   4.339
 7117SOL    HW122250   0.083   0.061   4.286
 7117SOL    HW222251   0.150   0.203   4.332
 7118SOL     OW22252   4.624   2.932   0.460
 7118SOL    HW122253   4.684   2.888   0.527
 7118SOL    HW222254   4.531   2.937   0.497
 7119SOL     OW22255   4.778   1.497   3.512
 7119SOL    HW122256   4.686   1.467   3.488
 7119SOL    HW222257   4.831   1.417   3.541
 7120SOL     OW22258   3.727   1.509   2.832
 7120SOL    HW122259   3.801   1.456   2.791
 7120SOL    HW222260   3.764   1.570   2.902
 7121SOL     OW22261   1.952   0.144   3.078
 7121SOL    HW122262   2.007   0.161   3.160
 7121SOL    HW222263   1.855   0.137   3.104
 7122SOL     OW22264   6.344   1.269   6.586
 7122SOL    HW122265   6.361   1.368   6.591
 7122SOL    HW222266   6.413   1.221   6.641
 7123SOL     OW22267   3.524   5.332   1.349
 7123SOL    HW122268   3.432   5.302   1.374
 7123SOL    HW222269   3.591   5.280   1.402
 7124SOL     OW22270   1.095   3.754   0.291
 7124SOL    HW122271   1.067   3.794   0.204
 7124SOL    HW222272   1.092   3.654   0.285
 7125SOL     OW22273   0.009   6.446   1.242
 7125SOL    HW122274   7.014   6.382   1.168
 7125SOL    HW222275   0.098   6.424   1.282
 7126SOL     OW22276   2.359   4.319   0.560
 7126SOL    HW122277   2.405   4.234   0.532
 7126SOL    HW222278   2.428   4.385   0.590
 7127SOL     OW22279   2.586   5.653   4.268
 7127SOL    HW122280   2.655   5.581   4.277
 7127SOL    HW222281   2.613   5.715   4.194
 7128SOL     OW22282   2.781   4.832   0.445
 7128SOL    HW122283   2.866   4.882   0.459
 7128SOL    HW222284   2.706   4.884   0.487
 7129SOL     OW22285   3.204   0.865   0.941
 7129SOL    HW122286   3.174   0.877   0.846
 7129SOL    HW222287   3.186   0.949   0.992
 7130SOL     OW22288   3.329   5.076   4.801
 7130SOL    HW122289   3.294   5.004   4.861
 7130SOL    HW222290   3.291   5.064   4.710
 7131SOL     OW22291   2.245   2.019   0.363
 7131SOL    HW122292   2.161   1.981   0.402
 7131SOL    HW222293   2.294   1.948   0.313
 7132SOL     OW22294   3.915   3.862   1.522
 7132SOL    HW122295   3.870   3.891   1.438
 7132SOL    HW222296   3.958   3.941   1.566
 7133SOL     OW22297   5.494   4.758   3.426
 7133SOL    HW122298   5.458   4.714   3.509
 7133SOL    HW222299   5.484   4.697   3.348
 7134SOL     OW22300   5.995   5.462   3.130
 7134SOL    HW122301   5.957   5.504   3.048
 7134SOL    HW222302   5.944   5.379   3.151
 7135SOL     OW22303   1.752   1.284   3.254
 7135SOL    HW122304   1.827   1.336   3.213
 7135SOL    HW222305   1.672   1.344   3.266
 7136SOL     OW22306   2.032   1.609   0.555
 7136SOL    HW122307   2.091   1.528   0.550
 7136SOL    HW222308   1.972   1.601   0.634
 7137SOL     OW22309   4.748   1.184   5.009
 7137SOL    HW122310   4.826   1.186   4.946
 7137SOL    HW222311   4.777   1.146   5.096
 7138SOL     OW22312   3.092   2.715   1.170
 7138SOL    HW122313   3.144   2.660   1.235
 7138SOL    HW222314   3.075   2.806   1.209
 7139SOL     OW22315   4.836   3.059   2.303
 7139SOL    HW122316   4.810   3.048   2.207
 7139SOL    HW222317   4.776   3.003   2.360
 7140SOL     OW22318   6.219   3.496   5.014
 7140SOL    HW122319   6.219   3.440   4.931
 7140SOL    HW222320   6.302   3.478   5.066
 7141SOL     OW22321   3.324   6.757   1.175
 7141SOL    HW122322   3.335   6.768   1.274
 7141SOL    HW222323   3.233   6.790   1.148
 7142SOL     OW22324   4.263   6.687   3.049
 7142SOL    HW122325   4.362   6.675   3.046
 7142SOL    HW222326   4.224   6.627   3.119
 7143SOL     OW22327   1.154   2.520   6.365
 7143SOL    HW122328   1.134   2.510   6.463
 7143SOL    HW222329   1.072   2.555   6.319
 7144SOL     OW22330   1.092   1.524   2.930
 7144SOL    HW122331   1.188   1.529   2.957
 7144SOL    HW222332   1.069   1.430   2.904
 7145SOL     OW22333   4.035   6.456   6.363
 7145SOL    HW122334   3.980   6.388   6.315
 7145SOL    HW222335   4.038   6.540   6.309
 7146SOL     OW22336   2.432   0.305   0.187
 7146SOL    HW122337   2.416   0.400   0.162
 7146SOL    HW222338   2.452   0.252   0.105
 7147SOL     OW22339   6.481   6.871   3.578
 7147SOL    HW122340   6.386   6.857   3.552
 7147SOL    HW222341   6.502   6.818   3.660
 7148SOL     OW22342   0.454   5.897   1.902
 7148SOL    HW122343   0.509   5.818   1.874
 7148SOL    HW222344   0.357   5.877   1.888
 7149SOL     OW22345   6.973   6.808   3.317
 7149SOL    HW122346   6.942   6.714   3.334
 7149SOL    HW222347   6.899   6.872   3.336
 7150SOL     OW22348   5.051   3.019   1.669
 7150SOL    HW122349   5.009   2.993   1.757
 7150SOL    HW222350   4.988   3.076   1.617
 7151SOL     OW22351   0.464   5.507   0.620
 7151SOL    HW122352   0.451   5.606   0.630
 7151SOL    HW222353   0.540   5.477   0.677
 7152SOL     OW22354   0.406   2.902   5.789
 7152SOL    HW122355   0.505   2.888   5.791
 7152SOL    HW222356   0.360   2.815   5.767
 7153SOL     OW22357   3.049   6.150   4.513
 7153SOL    HW122358   2.975   6.100   4.558
 7153SOL    HW222359   3.136   6.106   4.531
 7154SOL     OW22360   4.008   6.068   4.672
 7154SOL    HW122361   4.091   6.042   4.722
 7154SOL    HW222362   3.931   6.068   4.735
 7155SOL     OW22363   1.899   6.253   1.587
 7155SOL    HW122364   1.975   6.201   1.625
 7155SOL    HW222365   1.930   6.307   1.509
 7156SOL     OW22366   0.761   4.913   4.560
 7156SOL    HW122367   0.769   4.955   4.470
 7156SOL    HW222368   0.838   4.941   4.617
 7157SOL     OW22369   5.990   5.289   0.954
 7157SOL    HW122370   6.066   5.244   1.001
 7157SOL    HW222371   5.964   5.235   0.873
 7158SOL     OW22372   0.238   6.882   3.334
 7158SOL    HW122373   0.216   6.969   3.378
 7158SOL    HW222374   0.155   6.826   3.328
 7159SOL     OW22375   0.429   4.186   2.394
 7159SOL    HW122376   0.511   4.240   2.415
 7159SOL    HW222377   0.435   4.153   2.300
 7160SOL     OW22378   6.760   0.781   3.052
 7160SOL    HW122379   6.685   0.843   3.027
 7160SOL    HW222380   6.724   0.709   3.111
 7161SOL     OW22381   3.297   4.124   4.268
 7161SOL    HW122382   3.243   4.203   4.237
 7161SOL    HW222383   3.356   4.093   4.193
 7162SOL     OW22384   2.768   5.849   5.424
 7162SOL    HW122385   2.787   5.910   5.501
 7162SOL    HW222386   2.855   5.815   5.387
 7163SOL     OW22387   3.278   6.619   3.869
 7163SOL    HW122388   3.228   6.699   3.836
 7163SOL    HW222389   3.275   6.617   3.969
 7164SOL     OW22390   1.820   2.364   2.903
 7164SOL    HW122391   1.770   2.348   2.988
 7164SOL    HW222392   1.800   2.456   2.869
 7165SOL     OW22393   5.996   0.834   1.094
 7165SOL    HW122394   5.971   0.910   1.035
 7165SOL    HW222395   5.928   0.825   1.167
 7166SOL     OW22396   5.420   3.987   0.954
 7166SOL    HW122397   5.483   3.930   0.902
 7166SOL    HW222398   5.394   3.939   1.038
 7167SOL     OW22399   4.919   4.071   5.190
 7167SOL    HW122400   5.000   4.128   5.173
 7167SOL    HW222401   4.848   4.092   5.123
 7168SOL     OW22402   0.940   2.252   3.508
 7168SOL    HW122403   1.028   2.298   3.495
 7168SOL    HW222404   0.951   2.154   3.489
 7169SOL     OW22405   1.026   2.941   4.851
 7169SOL    HW122406   0.953   2.925   4.785
 7169SOL    HW222407   1.059   3.035   4.843
 7170SOL     OW22408   3.867   5.280   3.369
 7170SOL    HW122409   3.958   5.249   3.397
 7170SOL    HW222410   3.875   5.365   3.318
 7171SOL     OW22411   5.730   4.091   6.114
 7171SOL    HW122412   5.817   4.135   6.092
 7171SOL    HW222413   5.729   4.066   6.211
 7172SOL     OW22414   1.445   0.177   5.914
 7172SOL    HW122415   1.429   0.248   5.982
 7172SOL    HW222416   1.366   0.116   5.909
 7173SOL     OW22417   0.383   4.460   5.276
 7173SOL    HW122418   0.346   4.544   5.316
 7173SOL    HW222419   0.478   4.474   5.251
 7174SOL     OW22420   0.906   5.413   6.789
 7174SOL    HW122421   0.917   5.351   6.712
 7174SOL    HW222422   0.868   5.500   6.758
 7175SOL     OW22423   6.011   3.183   0.755
 7175SOL    HW122424   5.978   3.136   0.673
 7175SOL    HW222425   5.960   3.149   0.834
 7176SOL     OW22426   0.249   5.429   2.992
 7176SOL    HW122427   0.252   5.369   2.912
 7176SOL    HW222428   0.247   5.524   2.962
 7177SOL     OW22429   2.291   6.294   3.344
 7177SOL    HW122430   2.279   6.362   3.416
 7177SOL    HW222431   2.207   6.240   3.335
 7178SOL     OW22432   2.284   2.453   5.597
 7178SOL    HW122433   2.291   2.497   5.507
 7178SOL    HW222434   2.191   2.467   5.633
 7179SOL     OW22435   1.582   3.238   5.333
 7179SOL    HW122436   1.681   3.246   5.346
 7179SOL    HW222437   1.535   3.290   5.404
 7180SOL     OW22438   1.120   5.162   6.128
 7180SOL    HW122439   1.108   5.125   6.220
 7180SOL    HW222440   1.168   5.095   6.072
 7181SOL     OW22441   3.090   6.821   1.104
 7181SOL    HW122442   3.036   6.781   1.030
 7181SOL    HW222443   3.031   6.873   1.165
 7182SOL     OW22444   1.135   3.106   5.444
 7182SOL    HW122445   1.207   3.068   5.503
 7182SOL    HW222446   1.062   3.144   5.501
 7183SOL     OW22447   1.836   4.789   2.004
 7183SOL    HW122448   1.861   4.737   2.085
 7183SOL    HW222449   1.743   4.764   1.976
 7184SOL     OW22450   0.529   6.804   3.774
 7184SOL    HW122451   0.466   6.842   3.706
 7184SOL    HW222452   0.559   6.877   3.836
 7185SOL     OW22453   4.736   2.282   6.094
 7185SOL    HW122454   4.788   2.199   6.112
 7185SOL    HW222455   4.680   2.270   6.012
 7186SOL     OW22456   0.351   0.037   5.855
 7186SOL    HW122457   0.417   0.107   5.830
 7186SOL    HW222458   0.272   0.042   5.793
 7187SOL     OW22459   1.825   4.554   1.218
 7187SOL    HW122460   1.841   4.623   1.148
 7187SOL    HW222461   1.750   4.583   1.278
 7188SOL     OW22462   5.573   7.013   0.575
 7188SOL    HW122463   5.484   7.021   0.531
 7188SOL    HW222464   5.645   7.020   0.506
 7189SOL     OW22465   5.939   1.094   6.877
 7189SOL    HW122466   5.896   1.163   6.818
 7189SOL    HW222467   5.932   1.004   6.835
 7190SOL     OW22468   5.297   3.566   3.231
 7190SOL    HW122469   5.391   3.548   3.259
 7190SOL    HW222470   5.259   3.484   3.188
 7191SOL     OW22471   0.743   4.202   2.395
 7191SOL    HW122472   0.729   4.300   2.376
 7191SOL    HW222473   0.840   4.184   2.408
 7192SOL     OW22474   1.873   5.900   4.702
 7192SOL    HW122475   1.849   5.867   4.611
 7192SOL    HW222476   1.967   5.874   4.723
 7193SOL     OW22477   3.084   2.050   3.313
 7193SOL    HW122478   3.068   2.097   3.226
 7193SOL    HW222479   3.107   1.955   3.297
 7194SOL     OW22480   2.529   1.801   1.105
 7194SOL    HW122481   2.493   1.886   1.066
 7194SOL    HW222482   2.627   1.795   1.088
 7195SOL     OW22483   0.373   5.137   6.998
 7195SOL    HW122484   0.372   5.226   6.953
 7195SOL    HW222485   0.414   5.146   0.064
 7196SOL     OW22486   2.870   3.540   2.515
 7196SOL    HW122487   2.903   3.446   2.503
 7196SOL    HW222488   2.810   3.564   2.439
 7197SOL     OW22489   6.753   2.577   5.755
 7197SOL    HW122490   6.732   2.674   5.771
 7197SOL    HW222491   6.682   2.520   5.794
 7198SOL     OW22492   0.843   0.665   5.247
 7198SOL    HW122493   0.891   0.752   5.253
 7198SOL    HW222494   0.753   0.679   5.204
 7199SOL     OW22495   1.610   0.903   1.997
 7199SOL    HW122496   1.568   0.980   1.948
 7199SOL    HW222497   1.706   0.896   1.971
 7200SOL     OW22498   2.515   0.521   0.019
 7200SOL    HW122499   2.440   0.549   6.983
 7200SOL    HW222500   2.602   0.532   6.996
 7201SOL     OW22501   1.544   4.851   3.082
 7201SOL    HW122502   1.514   4.757   3.065
 7201SOL    HW222503   1.547   4.901   2.996
 7202SOL     OW22504   3.767   0.127   6.390
 7202SOL    HW122505   3.693   0.194   6.396
 7202SOL    HW222506   3.810   0.133   6.300
 7203SOL     OW22507   5.766   1.185   0.419
 7203SOL    HW122508   5.755   1.174   0.518
 7203SOL    HW222509   5.687   1.147   0.372
 7204SOL     OW22510   5.558   6.661   4.445
 7204SOL    HW122511   5.648   6.645   4.487
 7204SOL    HW222512   5.486   6.648   4.513
 7205SOL     OW22513   1.705   6.387   3.368
 7205SOL    HW122514   1.773   6.439   3.317
 7205SOL    HW222515   1.619   6.383   3.317
 7206SOL     OW22516   0.828   0.840   1.535
 7206SOL    HW122517   0.858   0.889   1.617
 7206SOL    HW222518   0.828   0.903   1.457
 7207SOL     OW22519   3.871   6.980   1.751
 7207SOL    HW122520   3.854   7.013   1.659
 7207SOL    HW222521   3.924   0.024   1.801
 7208SOL     OW22522   4.231   6.399   4.343
 7208SOL    HW122523   4.193   6.336   4.412
 7208SOL    HW222524   4.218   6.360   4.252
 7209SOL     OW22525   3.044   3.182   3.249
 7209SOL    HW122526   3.009   3.216   3.162
 7209SOL    HW222527   2.996   3.228   3.324
 7210SOL     OW22528   5.233   0.039   3.709
 7210SOL    HW122529   5.310   0.103   3.709
 7210SOL    HW222530   5.241   7.002   3.788
 7211SOL     OW22531   1.463   5.596   3.646
 7211SOL    HW122532   1.519   5.582   3.727
 7211SOL    HW222533   1.446   5.694   3.633
 7212SOL     OW22534   1.060   5.652   4.090
 7212SOL    HW122535   0.977   5.701   4.115
 7212SOL    HW222536   1.139   5.712   4.103
 7213SOL     OW22537   5.848   0.019   5.303
 7213SOL    HW122538   5.754   0.029   5.336
 7213SOL    HW222539   5.890   6.963   5.346
 7214SOL     OW22540   2.622   5.163   4.281
 7214SOL    HW122541   2.600   5.212   4.366
 7214SOL    HW222542   2.539   5.152   4.226
 7215SOL     OW22543   0.696   3.536   4.441
 7215SOL    HW122544   0.722   3.463   4.377
 7215SOL    HW222545   0.743   3.620   4.415
 7216SOL     OW22546   2.925   5.962   7.007
 7216SOL    HW122547   3.004   5.910   0.015
 7216SOL    HW222548   2.956   6.049   6.969
 7217SOL     OW22549   1.687   4.696   1.460
 7217SOL    HW122550   1.769   4.752   1.471
 7217SOL    HW222551   1.684   4.627   1.532
 7218SOL     OW22552   4.520   2.925   5.771
 7218SOL    HW122553   4.433   2.975   5.767
 7218SOL    HW222554   4.517   2.857   5.844
 7219SOL     OW22555   4.661   5.863   3.038
 7219SOL    HW122556   4.576   5.837   3.085
 7219SOL    HW222557   4.736   5.867   3.104
 7220SOL     OW22558   6.611   5.826   3.699
 7220SOL    HW122559   6.615   5.804   3.601
 7220SOL    HW222560   6.696   5.799   3.743
 7221SOL     OW22561   5.364   5.059   5.114
 7221SOL    HW122562   5.460   5.070   5.089
 7221SOL    HW222563   5.358   5.018   5.205
 7222SOL     OW22564   6.363   6.426   0.381
 7222SOL    HW122565   6.391   6.510   0.334
 7222SOL    HW222566   6.322   6.450   0.469
 7223SOL     OW22567   3.176   1.756   1.550
 7223SOL    HW122568   3.132   1.846   1.549
 7223SOL    HW222569   3.225   1.742   1.464
 7224SOL     OW22570   5.866   1.987   4.569
 7224SOL    HW122571   5.816   1.985   4.482
 7224SOL    HW222572   5.801   1.989   4.645
 7225SOL     OW22573   1.505   5.243   6.738
 7225SOL    HW122574   1.603   5.223   6.735
 7225SOL    HW222575   1.484   5.293   6.822
 7226SOL     OW22576   0.337   0.535   0.508
 7226SOL    HW122577   0.264   0.501   0.568
 7226SOL    HW222578   0.374   0.460   0.454
 7227SOL     OW22579   0.774   2.223   0.488
 7227SOL    HW122580   0.710   2.257   0.557
 7227SOL    HW222581   0.731   2.150   0.435
 7228SOL     OW22582   0.174   0.459   1.669
 7228SOL    HW122583   0.224   0.417   1.593
 7228SOL    HW222584   0.209   0.552   1.685
 7229SOL     OW22585   0.801   0.379   4.026
 7229SOL    HW122586   0.837   0.373   3.933
 7229SOL    HW222587   0.782   0.475   4.048
 7230SOL     OW22588   4.403   5.420   4.765
 7230SOL    HW122589   4.455   5.393   4.685
 7230SOL    HW222590   4.463   5.467   4.829
 7231SOL     OW22591   4.590   0.507   0.145
 7231SOL    HW122592   4.546   0.592   0.116
 7231SOL    HW222593   4.532   0.430   0.120
 7232SOL     OW22594   3.760   4.877   3.465
 7232SOL    HW122595   3.831   4.813   3.493
 7232SOL    HW222596   3.789   4.926   3.383
 7233SOL     OW22597   0.477   2.876   4.882
 7233SOL    HW122598   0.459   2.881   4.783
 7233SOL    HW222599   0.569   2.910   4.900
 7234SOL     OW22600   6.240   2.588   1.786
 7234SOL    HW122601   6.298   2.559   1.862
 7234SOL    HW222602   6.219   2.685   1.796
 7235SOL     OW22603   6.505   3.962   3.489
 7235SOL    HW122604   6.438   3.906   3.440
 7235SOL    HW222605   6.533   4.039   3.431
 7236SOL     OW22606   3.287   1.678   2.804
 7236SOL    HW122607   3.374   1.675   2.854
 7236SOL    HW222608   3.212   1.669   2.869
 7237SOL     OW22609   6.601   6.591   5.212
 7237SOL    HW122610   6.614   6.520   5.282
 7237SOL    HW222611   6.546   6.665   5.250
 7238SOL     OW22612   2.459   1.922   1.873
 7238SOL    HW122613   2.554   1.948   1.860
 7238SOL    HW222614   2.455   1.830   1.913
 7239SOL     OW22615   1.967   1.649   3.294
 7239SOL    HW122616   1.999   1.577   3.232
 7239SOL    HW222617   2.029   1.657   3.371
 7240SOL     OW22618   3.081   4.104   0.243
 7240SOL    HW122619   3.037   4.048   0.173
 7240SOL    HW222620   3.136   4.046   0.303
 7241SOL     OW22621   3.550   0.205   6.116
 7241SOL    HW122622   3.598   0.261   6.183
 7241SOL    HW222623   3.530   0.259   6.035
 7242SOL     OW22624   5.743   4.406   0.198
 7242SOL    HW122625   5.676   4.339   0.228
 7242SOL    HW222626   5.703   4.498   0.203
 7243SOL     OW22627   1.361   4.553   6.375
 7243SOL    HW122628   1.449   4.516   6.345
 7243SOL    HW222629   1.357   4.554   6.475
 7244SOL     OW22630   4.624   0.710   0.913
 7244SOL    HW122631   4.699   0.653   0.881
 7244SOL    HW222632   4.659   0.780   0.975
 7245SOL     OW22633   0.277   2.614   5.132
 7245SOL    HW122634   0.281   2.713   5.148
 7245SOL    HW222635   0.222   2.571   5.203
 7246SOL     OW22636   7.023   6.597   4.749
 7246SOL    HW122637   0.009   6.691   4.782
 7246SOL    HW222638   6.951   6.595   4.680
 7247SOL     OW22639   2.513   6.904   2.295
 7247SOL    HW122640   2.506   6.815   2.250
 7247SOL    HW222641   2.477   6.896   2.388
 7248SOL     OW22642   3.464   1.128   3.524
 7248SOL    HW122643   3.500   1.221   3.511
 7248SOL    HW222644   3.460   1.107   3.621
 7249SOL     OW22645   5.831   4.455   0.950
 7249SOL    HW122646   5.753   4.409   0.992
 7249SOL    HW222647   5.897   4.482   1.020
 7250SOL     OW22648   2.459   4.893   6.288
 7250SOL    HW122649   2.426   4.807   6.327
 7250SOL    HW222650   2.542   4.877   6.235
 7251SOL     OW22651   6.371   6.821   5.731
 7251SOL    HW122652   6.362   6.732   5.777
 7251SOL    HW222653   6.323   6.891   5.783
 7252SOL     OW22654   3.522   3.424   4.613
 7252SOL    HW122655   3.463   3.352   4.650
 7252SOL    HW222656   3.489   3.514   4.644
 7253SOL     OW22657   2.001   5.905   0.677
 7253SOL    HW122658   1.989   5.940   0.770
 7253SOL    HW222659   1.922   5.850   0.651
 7254SOL     OW22660   3.280   5.498   4.403
 7254SOL    HW122661   3.202   5.548   4.441
 7254SOL    HW222662   3.270   5.492   4.304
 7255SOL     OW22663   2.759   3.280   1.812
 7255SOL    HW122664   2.831   3.285   1.742
 7255SOL    HW222665   2.801   3.289   1.902
 7256SOL     OW22666   4.431   5.092   4.660
 7256SOL    HW122667   4.418   5.182   4.702
 7256SOL    HW222668   4.349   5.037   4.672
 7257SOL     OW22669   6.516   2.816   3.246
 7257SOL    HW122670   6.584   2.794   3.316
 7257SOL    HW222671   6.465   2.733   3.223
 7258SOL     OW22672   4.450   0.476   4.190
 7258SOL    HW122673   4.520   0.483   4.261
 7258SOL    HW222674   4.367   0.438   4.229
 7259SOL     OW22675   2.769   4.374   6.788
 7259SOL    HW122676   2.680   4.336   6.816
 7259SOL    HW222677   2.802   4.327   6.706
 7260SOL     OW22678   3.954   1.743   2.960
 7260SOL    HW122679   3.972   1.841   2.968
 7260SOL    HW222680   3.988   1.696   3.042
 7261SOL     OW22681   2.305   3.238   1.752
 7261SOL    HW122682   2.393   3.214   1.711
 7261SOL    HW222683   2.308   3.334   1.781
 7262SOL     OW22684   5.684   2.763   4.371
 7262SOL    HW122685   5.619   2.792   4.441
 7262SOL    HW222686   5.755   2.707   4.413
 7263SOL     OW22687   1.269   5.451   1.586
 7263SOL    HW122688   1.310   5.375   1.536
 7263SOL    HW222689   1.242   5.523   1.522
 7264SOL     OW22690   6.923   1.410   6.909
 7264SOL    HW122691   6.968   1.414   6.998
 7264SOL    HW222692   6.830   1.445   6.916
 7265SOL     OW22693   5.411   5.299   6.186
 7265SOL    HW122694   5.374   5.376   6.238
 7265SOL    HW222695   5.510   5.291   6.204
 7266SOL     OW22696   4.864   0.962   1.427
 7266SOL    HW122697   4.903   0.915   1.507
 7266SOL    HW222698   4.828   1.051   1.455
 7267SOL     OW22699   6.796   4.283   5.086
 7267SOL    HW122700   6.773   4.279   5.184
 7267SOL    HW222701   6.894   4.300   5.076
 7268SOL     OW22702   4.060   5.874   2.384
 7268SOL    HW122703   4.149   5.877   2.338
 7268SOL    HW222704   4.050   5.955   2.443
 7269SOL     OW22705   0.749   5.392   1.609
 7269SOL    HW122706   0.719   5.373   1.703
 7269SOL    HW222707   0.798   5.480   1.608
 7270SOL     OW22708   2.547   1.977   2.825
 7270SOL    HW122709   2.519   1.914   2.752
 7270SOL    HW222710   2.498   2.064   2.814
 7271SOL     OW22711   0.194   4.210   2.497
 7271SOL    HW122712   0.282   4.214   2.451
 7271SOL    HW222713   0.202   4.155   2.580
 7272SOL     OW22714   5.022   2.694   2.854
 7272SOL    HW122715   5.089   2.745   2.907
 7272SOL    HW222716   4.934   2.696   2.902
 7273SOL     OW22717   6.042   4.494   1.721
 7273SOL    HW122718   6.045   4.452   1.631
 7273SOL    HW222719   5.964   4.457   1.772
 7274SOL     OW22720   0.170   5.003   5.714
 7274SOL    HW122721   0.105   4.932   5.741
 7274SOL    HW222722   0.196   4.989   5.618
 7275SOL     OW22723   6.614   0.673   0.170
 7275SOL    HW122724   6.605   0.613   0.090
 7275SOL    HW222725   6.526   0.716   0.189
 7276SOL     OW22726   2.335   1.889   3.660
 7276SOL    HW122727   2.252   1.928   3.621
 7276SOL    HW222728   2.403   1.877   3.587
 7277SOL     OW22729   4.746   1.236   5.829
 7277SOL    HW122730   4.835   1.227   5.785
 7277SOL    HW222731   4.684   1.285   5.768
 7278SOL     OW22732   4.039   1.396   3.329
 7278SOL    HW122733   4.004   1.304   3.348
 7278SOL    HW222734   3.969   1.464   3.347
 7279SOL     OW22735   4.516   4.120   0.954
 7279SOL    HW122736   4.538   4.179   1.031
 7279SOL    HW222737   4.420   4.131   0.930
 7280SOL     OW22738   5.420   2.241   5.462
 7280SOL    HW122739   5.462   2.197   5.383
 7280SOL    HW222740   5.451   2.196   5.546
 7281SOL     OW22741   3.711   6.876   0.837
 7281SOL    HW122742   3.660   6.821   0.903
 7281SOL    HW222743   3.664   6.873   0.749
 7282SOL     OW22744   6.641   5.409   2.075
 7282SOL    HW122745   6.623   5.383   2.170
 7282SOL    HW222746   6.685   5.333   2.027
 7283SOL     OW22747   3.153   6.143   2.536
 7283SOL    HW122748   3.134   6.182   2.626
 7283SOL    HW222749   3.088   6.180   2.469
 7284SOL     OW22750   6.647   2.385   3.793
 7284SOL    HW122751   6.706   2.306   3.808
 7284SOL    HW222752   6.697   2.469   3.817
 7285SOL     OW22753   4.982   3.022   1.967
 7285SOL    HW122754   4.887   3.028   1.997
 7285SOL    HW222755   5.037   2.978   2.039
 7286SOL     OW22756   0.982   1.075   0.779
 7286SOL    HW122757   1.072   1.118   0.776
 7286SOL    HW222758   0.911   1.143   0.759
 7287SOL     OW22759   0.774   2.710   3.625
 7287SOL    HW122760   0.711   2.652   3.677
 7287SOL    HW222761   0.862   2.664   3.615
 7288SOL     OW22762   2.766   2.306   2.740
 7288SOL    HW122763   2.857   2.265   2.748
 7288SOL    HW222764   2.721   2.306   2.830
 7289SOL     OW22765   5.960   2.477   2.285
 7289SOL    HW122766   5.913   2.492   2.199
 7289SOL    HW222767   6.022   2.552   2.303
 7290SOL     OW22768   4.314   1.161   5.537
 7290SOL    HW122769   4.223   1.118   5.539
 7290SOL    HW222770   4.353   1.151   5.445
 7291SOL     OW22771   3.318   6.906   6.976
 7291SOL    HW122772   3.373   6.928   0.032
 7291SOL    HW222773   3.377   6.868   6.904
 7292SOL     OW22774   1.597   0.178   3.390
 7292SOL    HW122775   1.539   0.249   3.429
 7292SOL    HW222776   1.582   0.092   3.438
 7293SOL     OW22777   1.446   0.395   5.102
 7293SOL    HW122778   1.382   0.465   5.135
 7293SOL    HW222779   1.454   0.401   5.002
 7294SOL     OW22780   3.072   4.656   1.691
 7294SOL    HW122781   3.120   4.719   1.753
 7294SOL    HW222782   3.000   4.609   1.741
 7295SOL     OW22783   6.858   4.837   1.878
 7295SOL    HW122784   6.881   4.747   1.913
 7295SOL    HW222785   6.763   4.859   1.902
 7296SOL     OW22786   3.965   4.957   2.581
 7296SOL    HW122787   3.999   4.864   2.596
 7296SOL    HW222788   3.875   4.967   2.624
 7297SOL     OW22789   3.392   6.638   1.745
 7297SOL    HW122790   3.424   6.684   1.828
 7297SOL    HW222791   3.463   6.576   1.712
 7298SOL     OW22792   4.988   6.013   6.724
 7298SOL    HW122793   4.953   5.929   6.683
 7298SOL    HW222794   5.082   5.999   6.753
 7299SOL     OW22795   1.378   2.980   0.172
 7299SOL    HW122796   1.441   2.923   0.225
 7299SOL    HW222797   1.422   3.007   0.086
 7300SOL     OW22798   1.273   5.510   1.837
 7300SOL    HW122799   1.315   5.425   1.867
 7300SOL    HW222800   1.266   5.510   1.737
 7301SOL     OW22801   5.910   0.301   5.529
 7301SOL    HW122802   5.853   0.347   5.461
 7301SOL    HW222803   5.853   0.270   5.605
 7302SOL     OW22804   5.137   3.026   6.192
 7302SOL    HW122805   5.134   3.089   6.115
 7302SOL    HW222806   5.073   2.951   6.177
 7303SOL     OW22807   2.669   1.337   0.756
 7303SOL    HW122808   2.720   1.360   0.840
 7303SOL    HW222809   2.648   1.422   0.707
 7304SOL     OW22810   2.644   4.831   1.282
 7304SOL    HW122811   2.551   4.851   1.315
 7304SOL    HW222812   2.686   4.763   1.341
 7305SOL     OW22813   6.017   2.399   0.420
 7305SOL    HW122814   5.933   2.369   0.464
 7305SOL    HW222815   6.017   2.499   0.413
 7306SOL     OW22816   3.249   1.928   0.965
 7306SOL    HW122817   3.337   1.937   1.011
 7306SOL    HW222818   3.263   1.923   0.866
 7307SOL     OW22819   3.326   6.392   1.900
 7307SOL    HW122820   3.328   6.471   1.839
 7307SOL    HW222821   3.416   6.348   1.901
 7308SOL     OW22822   5.474   0.894   2.024
 7308SOL    HW122823   5.571   0.876   2.006
 7308SOL    HW222824   5.432   0.933   1.942
 7309SOL     OW22825   2.406   5.801   2.571
 7309SOL    HW122826   2.450   5.714   2.594
 7309SOL    HW222827   2.459   5.877   2.610
 7310SOL     OW22828   1.596   2.916   0.501
 7310SOL    HW122829   1.497   2.921   0.511
 7310SOL    HW222830   1.635   3.008   0.513
 7311SOL     OW22831   0.221   0.079   0.620
 7311SOL    HW122832   0.233   0.138   0.540
 7311SOL    HW222833   0.127   0.087   0.653
 7312SOL     OW22834   6.927   2.090   5.726
 7312SOL    HW122835   6.971   2.176   5.703
 7312SOL    HW222836   6.992   2.015   5.714
 7313SOL     OW22837   2.312   0.962   1.526
 7313SOL    HW122838   2.269   1.036   1.473
 7313SOL    HW222839   2.375   1.002   1.593
 7314SOL     OW22840   0.068   4.117   6.989
 7314SOL    HW122841   0.098   4.192   0.023
 7314SOL    HW222842   6.995   4.100   7.003
 7315SOL     OW22843   6.946   5.032   2.553
 7315SOL    HW122844   6.953   5.018   2.651
 7315SOL    HW222845   6.881   4.966   2.514
 7316SOL     OW22846   2.832   2.440   6.226
 7316SOL    HW122847   2.738   2.404   6.224
 7316SOL    HW222848   2.841   2.510   6.155
 7317SOL     OW22849   3.819   1.299   1.766
 7317SOL    HW122850   3.728   1.325   1.797
 7317SOL    HW222851   3.831   1.328   1.671
 7318SOL     OW22852   3.635   0.026   2.378
 7318SOL    HW122853   3.570   0.091   2.418
 7318SOL    HW222854   3.696   0.074   2.315
 7319SOL     OW22855   6.757   4.651   0.192
 7319SOL    HW122856   6.820   4.697   0.255
 7319SOL    HW222857   6.663   4.664   0.223
 7320SOL     OW22858   6.920   3.848   0.944
 7320SOL    HW122859   7.004   3.817   0.901
 7320SOL    HW222860   6.884   3.776   1.004
 7321SOL     OW22861   1.953   6.034   5.925
 7321SOL    HW122862   1.897   6.063   6.003
 7321SOL    HW222863   2.045   6.072   5.934
 7322SOL     OW22864   0.816   1.370   2.812
 7322SOL    HW122865   0.900   1.402   2.767
 7322SOL    HW222866   0.809   1.271   2.800
 7323SOL     OW22867   1.844   1.799   1.301
 7323SOL    HW122868   1.939   1.767   1.307
 7323SOL    HW222869   1.804   1.803   1.393
 7324SOL     OW22870   5.602   4.957   2.954
 7324SOL    HW122871   5.688   4.943   2.905
 7324SOL    HW222872   5.610   4.923   3.048
 7325SOL     OW22873   3.751   0.268   5.672
 7325SOL    HW122874   3.652   0.260   5.688
 7325SOL    HW222875   3.768   0.334   5.599
 7326SOL     OW22876   2.858   0.876   6.223
 7326SOL    HW122877   2.912   0.824   6.157
 7326SOL    HW222878   2.912   0.890   6.306
 7327SOL     OW22879   5.777   3.878   3.305
 7327SOL    HW122880   5.761   3.794   3.254
 7327SOL    HW222881   5.836   3.860   3.384
 7328SOL     OW22882   3.833   5.479   5.588
 7328SOL    HW122883   3.794   5.464   5.679
 7328SOL    HW222884   3.766   5.452   5.519
 7329SOL     OW22885   2.219   2.914   0.368
 7329SOL    HW122886   2.121   2.932   0.379
 7329SOL    HW222887   2.260   2.899   0.457
 7330SOL     OW22888   2.994   3.046   1.486
 7330SOL    HW122889   2.980   3.143   1.465
 7330SOL    HW222890   3.012   2.996   1.401
 7331SOL     OW22891   4.750   0.465   2.076
 7331SOL    HW122892   4.690   0.415   2.014
 7331SOL    HW222893   4.811   0.401   2.123
 7332SOL     OW22894   3.492   3.924   0.165
 7332SOL    HW122895   3.503   3.982   0.245
 7332SOL    HW222896   3.565   3.942   0.100
 7333SOL     OW22897   6.720   3.073   1.626
 7333SOL    HW122898   6.689   3.052   1.534
 7333SOL    HW222899   6.658   3.139   1.668
 7334SOL     OW22900   2.506   0.199   5.191
 7334SOL    HW122901   2.555   0.243   5.266
 7334SOL    HW222902   2.560   0.122   5.156
 7335SOL     OW22903   6.996   3.496   2.905
 7335SOL    HW122904   0.004   3.409   2.941
 7335SOL    HW222905   7.015   3.569   2.970
 7336SOL     OW22906   1.478   6.385   0.796
 7336SOL    HW122907   1.487   6.480   0.766
 7336SOL    HW222908   1.388   6.350   0.771
 7337SOL     OW22909   2.884   2.848   1.624
 7337SOL    HW122910   2.785   2.858   1.631
 7337SOL    HW222911   2.920   2.919   1.563
 7338SOL     OW22912   5.583   3.065   1.163
 7338SOL    HW122913   5.601   2.995   1.232
 7338SOL    HW222914   5.610   3.154   1.198
 7339SOL     OW22915   0.272   6.141   5.131
 7339SOL    HW122916   0.201   6.113   5.194
 7339SOL    HW222917   0.342   6.194   5.180
 7340SOL     OW22918   3.039   0.671   6.894
 7340SOL    HW122919   3.063   0.706   6.803
 7340SOL    HW222920   3.115   0.688   6.957
 7341SOL     OW22921   0.107   4.761   4.027
 7341SOL    HW122922   0.205   4.770   4.008
 7341SOL    HW222923   0.087   4.666   4.051
 7342SOL     OW22924   6.886   0.841   0.196
 7342SOL    HW122925   6.854   0.864   0.288
 7342SOL    HW222926   6.818   0.784   0.151
 7343SOL     OW22927   5.777   4.202   2.441
 7343SOL    HW122928   5.832   4.286   2.442
 7343SOL    HW222929   5.794   4.152   2.357
 7344SOL     OW22930   1.548   6.626   6.736
 7344SOL    HW122931   1.598   6.695   6.684
 7344SOL    HW222932   1.541   6.542   6.681
 7345SOL     OW22933   4.222   5.048   5.515
 7345SOL    HW122934   4.281   5.087   5.445
 7345SOL    HW222935   4.135   5.097   5.516
 7346SOL     OW22936   3.862   4.436   0.837
 7346SOL    HW122937   3.858   4.533   0.862
 7346SOL    HW222938   3.832   4.381   0.915
 7347SOL     OW22939   6.326   2.385   2.299
 7347SOL    HW122940   6.233   2.410   2.273
 7347SOL    HW222941   6.391   2.424   2.234
 7348SOL     OW22942   1.496   2.850   3.962
 7348SOL    HW122943   1.517   2.941   3.998
 7348SOL    HW222944   1.467   2.790   4.036
 7349SOL     OW22945   3.521   2.125   1.425
 7349SOL    HW122946   3.575   2.055   1.378
 7349SOL    HW222947   3.559   2.140   1.516
 7350SOL     OW22948   0.638   2.510   3.758
 7350SOL    HW122949   0.694   2.427   3.754
 7350SOL    HW222950   0.548   2.487   3.795
 7351SOL     OW22951   3.887   4.644   6.098
 7351SOL    HW122952   3.842   4.716   6.151
 7351SOL    HW222953   3.850   4.555   6.124
 7352SOL     OW22954   1.177   1.769   2.404
 7352SOL    HW122955   1.255   1.730   2.354
 7352SOL    HW222956   1.181   1.740   2.499
 7353SOL     OW22957   6.426   1.737   4.840
 7353SOL    HW122958   6.332   1.716   4.813
 7353SOL    HW222959   6.469   1.794   4.770
 7354SOL     OW22960   6.645   0.681   6.436
 7354SOL    HW122961   6.615   0.718   6.348
 7354SOL    HW222962   6.575   0.620   6.472
 7355SOL     OW22963   0.832   6.357   1.519
 7355SOL    HW122964   0.843   6.265   1.481
 7355SOL    HW222965   0.738   6.369   1.551
 7356SOL     OW22966   5.779   2.363   6.521
 7356SOL    HW122967   5.807   2.370   6.617
 7356SOL    HW222968   5.855   2.392   6.462
 7357SOL     OW22969   4.631   0.727   0.347
 7357SOL    HW122970   4.711   0.787   0.346
 7357SOL    HW222971   4.640   0.659   0.274
 7358SOL     OW22972   3.773   2.015   3.793
 7358SOL    HW122973   3.797   2.072   3.715
 7358SOL    HW222974   3.817   2.052   3.875
 7359SOL     OW22975   3.636   2.951   2.357
 7359SOL    HW122976   3.562   2.894   2.322
 7359SOL    HW222977   3.718   2.896   2.369
 7360SOL     OW22978   1.652   2.779   5.640
 7360SOL    HW122979   1.591   2.737   5.707
 7360SOL    HW222980   1.615   2.766   5.548
 7361SOL     OW22981   5.212   6.814   0.705
 7361SOL    HW122982   5.161   6.875   0.643
 7361SOL    HW222983   5.242   6.866   0.785
 7362SOL     OW22984   0.972   6.853   4.855
 7362SOL    HW122985   0.932   6.773   4.899
 7362SOL    HW222986   0.899   6.917   4.829
 7363SOL     OW22987   5.872   2.651   0.628
 7363SOL    HW122988   5.924   2.670   0.545
 7363SOL    HW222989   5.822   2.565   0.618
 7364SOL     OW22990   4.251   6.861   0.779
 7364SOL    HW122991   4.175   6.922   0.802
 7364SOL    HW222992   4.213   6.773   0.747
 7365SOL     OW22993   2.810   0.040   2.860
 7365SOL    HW122994   2.833   0.104   2.787
 7365SOL    HW222995   2.745   0.083   2.923
 7366SOL     OW22996   0.772   5.101   6.781
 7366SOL    HW122997   0.859   5.060   6.807
 7366SOL    HW222998   0.728   5.139   6.862
 7367SOL     OW22999   4.855   3.808   1.531
 7367SOL    HW123000   4.839   3.907   1.533
 7367SOL    HW223001   4.893   3.782   1.443
 7368SOL     OW23002   3.453   3.406   4.215
 7368SOL    HW123003   3.409   3.488   4.251
 7368SOL    HW223004   3.506   3.428   4.134
 7369SOL     OW23005   5.002   3.684   1.312
 7369SOL    HW123006   4.924   3.624   1.330
 7369SOL    HW223007   5.067   3.637   1.252
 7370SOL     OW23008   2.038   7.005   6.854
 7370SOL    HW123009   2.128   7.020   6.812
 7370SOL    HW223010   1.966   0.007   6.790
 7371SOL     OW23011   2.728   5.354   3.986
 7371SOL    HW123012   2.804   5.419   3.987
 7371SOL    HW223013   2.760   5.265   3.953
 7372SOL     OW23014   3.451   6.960   5.423
 7372SOL    HW123015   3.541   6.917   5.413
 7372SOL    HW223016   3.450   0.023   5.374
 7373SOL     OW23017   4.022   1.064   3.573
 7373SOL    HW123018   4.111   1.109   3.572
 7373SOL    HW223019   4.027   0.982   3.631
 7374SOL     OW23020   1.546   2.789   5.389
 7374SOL    HW123021   1.628   2.786   5.333
 7374SOL    HW223022   1.480   2.854   5.350
 7375SOL     OW23023   1.382   1.815   4.559
 7375SOL    HW123024   1.390   1.716   4.573
 7375SOL    HW223025   1.306   1.850   4.614
 7376SOL     OW23026   3.204   2.968   6.916
 7376SOL    HW123027   3.198   2.893   6.982
 7376SOL    HW223028   3.254   2.938   6.835
 7377SOL     OW23029   4.842   4.646   1.502
 7377SOL    HW123030   4.937   4.670   1.520
 7377SOL    HW223031   4.789   4.729   1.489
 7378SOL     OW23032   0.097   2.102   4.766
 7378SOL    HW123033   0.029   2.063   4.705
 7378SOL    HW223034   0.188   2.092   4.726
 7379SOL     OW23035   4.181   1.302   2.203
 7379SOL    HW123036   4.265   1.325   2.153
 7379SOL    HW223037   4.102   1.342   2.157
 7380SOL     OW23038   6.648   3.329   5.937
 7380SOL    HW123039   6.728   3.269   5.948
 7380SOL    HW223040   6.678   3.425   5.945
 7381SOL     OW23041   4.817   2.839   2.481
 7381SOL    HW123042   4.873   2.756   2.473
 7381SOL    HW223043   4.859   2.901   2.547
 7382SOL     OW23044   0.447   4.753   5.169
 7382SOL    HW123045   0.538   4.716   5.185
 7382SOL    HW223046   0.439   4.785   5.075
 7383SOL     OW23047   0.490   6.304   2.332
 7383SOL    HW123048   0.493   6.245   2.412
 7383SOL    HW223049   0.397   6.309   2.297
 7384SOL     OW23050   5.350   0.733   2.217
 7384SOL    HW123051   5.392   0.790   2.146
 7384SOL    HW223052   5.413   0.724   2.294
 7385SOL     OW23053   4.332   5.878   2.230
 7385SOL    HW123054   4.362   5.948   2.166
 7385SOL    HW223055   4.341   5.788   2.188
 7386SOL     OW23056   0.922   2.153   5.689
 7386SOL    HW123057   0.858   2.082   5.660
 7386SOL    HW223058   0.928   2.224   5.619
 7387SOL     OW23059   4.179   5.826   4.226
 7387SOL    HW123060   4.178   5.753   4.294
 7387SOL    HW223061   4.093   5.877   4.230
 7388SOL     OW23062   6.539   5.077   3.998
 7388SOL    HW123063   6.467   5.137   4.031
 7388SOL    HW223064   6.504   4.984   3.990
 7389SOL     OW23065   1.319   4.321   6.952
 7389SOL    HW123066   1.240   4.275   6.910
 7389SOL    HW223067   1.334   4.284   0.019
 7390SOL     OW23068   0.475   1.853   6.347
 7390SOL    HW123069   0.454   1.824   6.440
 7390SOL    HW223070   0.561   1.905   6.348
 7391SOL     OW23071   5.422   4.307   6.237
 7391SOL    HW123072   5.489   4.362   6.187
 7391SOL    HW223073   5.391   4.357   6.317
 7392SOL     OW23074   1.589   5.774   5.685
 7392SOL    HW123075   1.536   5.698   5.647
 7392SOL    HW223076   1.552   5.800   5.774
 7393SOL     OW23077   5.994   5.387   1.946
 7393SOL    HW123078   6.039   5.470   1.979
 7393SOL    HW223079   5.922   5.412   1.881
 7394SOL     OW23080   3.562   3.377   6.135
 7394SOL    HW123081   3.605   3.376   6.226
 7394SOL    HW223082   3.611   3.315   6.074
 7395SOL     OW23083   0.725   0.585   6.507
 7395SOL    HW123084   0.811   0.632   6.487
 7395SOL    HW223085   0.722   0.498   6.459
 7396SOL     OW23086   1.779   0.833   6.070
 7396SOL    HW123087   1.701   0.886   6.103
 7396SOL    HW223088   1.771   0.738   6.102
 7397SOL     OW23089   6.251   4.260   4.854
 7397SOL    HW123090   6.325   4.323   4.832
 7397SOL    HW223091   6.285   4.190   4.918
 7398SOL     OW23092   4.058   5.291   3.860
 7398SOL    HW123093   3.986   5.254   3.919
 7398SOL    HW223094   4.123   5.344   3.915
 7399SOL     OW23095   6.862   3.986   5.888
 7399SOL    HW123096   6.878   4.085   5.878
 7399SOL    HW223097   6.815   3.969   5.975
 7400SOL     OW23098   3.169   4.088   6.677
 7400SOL    HW123099   3.131   4.026   6.746
 7400SOL    HW223100   3.178   4.041   6.590
 7401SOL     OW23101   0.430   1.134   3.554
 7401SOL    HW123102   0.336   1.158   3.532
 7401SOL    HW223103   0.431   1.071   3.631
 7402SOL     OW23104   2.139   6.949   4.032
 7402SOL    HW123105   2.170   6.865   4.077
 7402SOL    HW223106   2.076   6.997   4.093
 7403SOL     OW23107   1.945   2.948   4.004
 7403SOL    HW123108   1.900   2.862   4.029
 7403SOL    HW223109   2.017   2.930   3.938
 7404SOL     OW23110   2.406   0.690   0.950
 7404SOL    HW123111   2.345   0.675   0.872
 7404SOL    HW223112   2.464   0.610   0.962
 7405SOL     OW23113   1.635   5.017   4.672
 7405SOL    HW123114   1.681   5.071   4.602
 7405SOL    HW223115   1.549   5.061   4.698
 7406SOL     OW23116   1.244   3.932   2.275
 7406SOL    HW123117   1.254   3.832   2.280
 7406SOL    HW223118   1.230   3.968   2.367
 7407SOL     OW23119   0.172   6.084   4.859
 7407SOL    HW123120   0.160   6.158   4.793
 7407SOL    HW223121   0.235   6.113   4.931
 7408SOL     OW23122   2.052   4.450   6.045
 7408SOL    HW123123   2.131   4.411   5.997
 7408SOL    HW223124   2.051   4.416   6.140
 7409SOL     OW23125   0.950   1.303   4.774
 7409SOL    HW123126   0.937   1.390   4.822
 7409SOL    HW223127   0.892   1.302   4.692
 7410SOL     OW23128   0.237   4.726   1.231
 7410SOL    HW123129   0.240   4.792   1.306
 7410SOL    HW223130   0.286   4.643   1.258
 7411SOL     OW23131   2.574   6.711   4.390
 7411SOL    HW123132   2.611   6.643   4.327
 7411SOL    HW223133   2.555   6.796   4.341
 7412SOL     OW23134   2.631   1.009   1.092
 7412SOL    HW123135   2.645   1.025   0.994
 7412SOL    HW223136   2.682   0.927   1.119
 7413SOL     OW23137   0.289   3.541   3.729
 7413SOL    HW123138   0.380   3.500   3.736
 7413SOL    HW223139   0.291   3.612   3.659
 7414SOL     OW23140   6.608   6.905   2.731
 7414SOL    HW123141   6.599   6.967   2.653
 7414SOL    HW223142   6.576   6.814   2.705
 7415SOL     OW23143   1.250   3.253   2.951
 7415SOL    HW123144   1.187   3.180   2.923
 7415SOL    HW223145   1.208   3.308   3.022
 7416SOL     OW23146   3.409   1.310   4.460
 7416SOL    HW123147   3.336   1.250   4.428
 7416SOL    HW223148   3.494   1.258   4.469
 7417SOL     OW23149   1.654   6.410   5.945
 7417SOL    HW123150   1.665   6.314   5.967
 7417SOL    HW223151   1.589   6.420   5.869
 7418SOL     OW23152   3.288   4.460   1.369
 7418SOL    HW123153   3.367   4.516   1.394
 7418SOL    HW223154   3.276   4.387   1.436
 7419SOL     OW23155   5.559   1.782   4.279
 7419SOL    HW123156   5.490   1.768   4.351
 7419SOL    HW223157   5.516   1.773   4.190
 7420SOL     OW23158   6.556   6.929   2.087
 7420SOL    HW123159   6.638   6.978   2.058
 7420SOL    HW223160   6.580   6.867   2.162
 7421SOL     OW23161   3.526   3.860   1.596
 7421SOL    HW123162   3.562   3.948   1.567
 7421SOL    HW223163   3.456   3.874   1.667
 7422SOL     OW23164   6.985   3.457   1.208
 7422SOL    HW123165   0.012   3.383   1.165
 7422SOL    HW223166   6.945   3.424   1.294
 7423SOL     OW23167   1.894   4.665   6.099
 7423SOL    HW123168   1.826   4.672   6.026
 7423SOL    HW223169   1.930   4.572   6.102
 7424SOL     OW23170   5.821   1.519   4.283
 7424SOL    HW123171   5.751   1.453   4.311
 7424SOL    HW223172   5.798   1.555   4.193
 7425SOL     OW23173   4.288   4.622   6.500
 7425SOL    HW123174   4.383   4.590   6.496
 7425SOL    HW223175   4.286   4.720   6.479
 7426SOL     OW23176   0.332   2.220   6.973
 7426SOL    HW123177   0.239   2.195   7.002
 7426SOL    HW223178   0.343   2.319   6.978
 7427SOL     OW23179   2.951   5.848   4.229
 7427SOL    HW123180   2.856   5.871   4.251
 7427SOL    HW223181   2.970   5.871   4.134
 7428SOL     OW23182   3.642   2.039   5.033
 7428SOL    HW123183   3.609   1.951   5.066
 7428SOL    HW223184   3.581   2.112   5.066
 7429SOL     OW23185   6.730   0.316   2.383
 7429SOL    HW123186   6.633   0.294   2.390
 7429SOL    HW223187   6.782   0.252   2.440
 7430SOL     OW23188   0.029   4.664   5.550
 7430SOL    HW123189   7.006   4.630   5.632
 7430SOL    HW223190   0.126   4.676   5.571
 7431SOL     OW23191   0.632   3.578   1.089
 7431SOL    HW123192   0.647   3.483   1.117
 7431SOL    HW223193   0.537   3.604   1.109
 7432SOL     OW23194   0.899   6.082   3.576
 7432SOL    HW123195   0.848   6.014   3.629
 7432SOL    HW223196   0.835   6.140   3.526
 7433SOL     OW23197   6.255   5.338   1.293
 7433SOL    HW123198   6.259   5.437   1.277
 7433SOL    HW223199   6.347   5.301   1.297
 7434SOL     OW23200   2.763   1.657   6.907
 7434SOL    HW123201   2.832   1.726   6.926
 7434SOL    HW223202   2.736   1.612   6.992
 7435SOL     OW23203   3.562   6.525   5.593
 7435SOL    HW123204   3.525   6.442   5.551
 7435SOL    HW223205   3.597   6.504   5.684
 7436SOL     OW23206   6.054   3.005   6.840
 7436SOL    HW123207   6.121   2.972   6.907
 7436SOL    HW223208   6.016   3.092   6.872
 7437SOL     OW23209   6.566   5.195   6.548
 7437SOL    HW123210   6.663   5.170   6.545
 7437SOL    HW223211   6.543   5.253   6.470
 7438SOL     OW23212   0.852   4.093   1.886
 7438SOL    HW123213   0.814   4.006   1.916
 7438SOL    HW223214   0.802   4.168   1.929
 7439SOL     OW23215   2.724   7.018   3.704
 7439SOL    HW123216   2.641   0.042   3.732
 7439SOL    HW223217   2.763   6.971   3.782
 7440SOL     OW23218   1.135   3.208   4.829
 7440SOL    HW123219   1.225   3.235   4.862
 7440SOL    HW223220   1.121   3.245   4.737
 7441SOL     OW23221   5.623   6.740   3.960
 7441SOL    HW123222   5.716   6.774   3.943
 7441SOL    HW223223   5.599   6.675   3.889
 7442SOL     OW23224   1.198   1.179   6.460
 7442SOL    HW123225   1.122   1.193   6.524
 7442SOL    HW223226   1.269   1.125   6.505
 7443SOL     OW23227   6.708   1.813   0.622
 7443SOL    HW123228   6.731   1.826   0.526
 7443SOL    HW223229   6.787   1.775   0.670
 7444SOL     OW23230   6.776   3.567   6.601
 7444SOL    HW123231   6.694   3.624   6.596
 7444SOL    HW223232   6.768   3.491   6.537
 7445SOL     OW23233   4.863   1.630   1.818
 7445SOL    HW123234   4.767   1.656   1.821
 7445SOL    HW223235   4.920   1.712   1.831
 7446SOL     OW23236   6.452   4.253   6.876
 7446SOL    HW123237   6.516   4.329   6.878
 7446SOL    HW223238   6.434   4.223   6.970
 7447SOL     OW23239   2.338   4.578   6.709
 7447SOL    HW123240   2.417   4.561   6.648
 7447SOL    HW223241   2.254   4.550   6.662
 7448SOL     OW23242   5.667   6.778   5.695
 7448SOL    HW123243   5.708   6.867   5.676
 7448SOL    HW223244   5.714   6.708   5.642
 7449SOL     OW23245   4.766   2.252   2.241
 7449SOL    HW123246   4.679   2.209   2.217
 7449SOL    HW223247   4.839   2.216   2.182
 7450SOL     OW23248   4.997   2.678   3.658
 7450SOL    HW123249   4.911   2.627   3.660
 7450SOL    HW223250   5.069   2.621   3.618
 7451SOL     OW23251   1.635   0.435   3.921
 7451SOL    HW123252   1.678   0.346   3.941
 7451SOL    HW223253   1.537   0.430   3.941
 7452SOL     OW23254   1.756   0.219   4.822
 7452SOL    HW123255   1.843   0.170   4.837
 7452SOL    HW223256   1.758   0.305   4.872
 7453SOL     OW23257   5.865   6.197   5.178
 7453SOL    HW123258   5.946   6.149   5.146
 7453SOL    HW223259   5.855   6.183   5.277
 7454SOL     OW23260   1.070   3.614   1.030
 7454SOL    HW123261   1.104   3.540   1.088
 7454SOL    HW223262   0.971   3.605   1.020
 7455SOL     OW23263   5.526   1.687   1.406
 7455SOL    HW123264   5.615   1.645   1.390
 7455SOL    HW223265   5.514   1.765   1.345
 7456SOL     OW23266   1.534   2.397   4.520
 7456SOL    HW123267   1.446   2.429   4.555
 7456SOL    HW223268   1.602   2.401   4.594
 7457SOL     OW23269   5.780   0.695   5.271
 7457SOL    HW123270   5.802   0.605   5.234
 7457SOL    HW223271   5.864   0.747   5.283
 7458SOL     OW23272   2.397   6.616   6.991
 7458SOL    HW123273   2.322   6.612   6.924
 7458SOL    HW223274   2.359   6.623   0.058
 7459SOL     OW23275   4.568   0.181   6.254
 7459SOL    HW123276   4.584   0.198   6.156
 7459SOL    HW223277   4.655   0.186   6.303
 7460SOL     OW23278   2.224   5.707   0.687
 7460SOL    HW123279   2.146   5.723   0.626
 7460SOL    HW223280   2.302   5.676   0.633
 7461SOL     OW23281   5.234   1.215   5.805
 7461SOL    HW123282   5.236   1.209   5.705
 7461SOL    HW223283   5.298   1.286   5.835
 7462SOL     OW23284   2.152   2.283   1.386
 7462SOL    HW123285   2.116   2.193   1.362
 7462SOL    HW223286   2.243   2.294   1.345
 7463SOL     OW23287   3.634   2.852   1.566
 7463SOL    HW123288   3.724   2.861   1.609
 7463SOL    HW223289   3.620   2.928   1.503
 7464SOL     OW23290   3.943   5.993   6.761
 7464SOL    HW123291   4.042   5.999   6.751
 7464SOL    HW223292   3.911   6.067   6.821
 7465SOL     OW23293   1.737   0.190   1.041
 7465SOL    HW123294   1.769   0.122   0.974
 7465SOL    HW223295   1.774   0.166   1.131
 7466SOL     OW23296   0.903   0.736   6.393
 7466SOL    HW123297   0.970   0.698   6.329
 7466SOL    HW223298   0.900   0.835   6.383
 7467SOL     OW23299   6.395   2.091   1.312
 7467SOL    HW123300   6.384   2.120   1.408
 7467SOL    HW223301   6.434   2.167   1.259
 7468SOL     OW23302   4.687   2.113   2.515
 7468SOL    HW123303   4.782   2.081   2.521
 7468SOL    HW223304   4.686   2.212   2.504
 7469SOL     OW23305   0.996   0.020   6.649
 7469SOL    HW123306   1.066   6.982   6.683
 7469SOL    HW223307   1.012   0.112   6.684
 7470SOL     OW23308   0.837   2.993   2.665
 7470SOL    HW123309   0.848   2.921   2.734
 7470SOL    HW223310   0.915   2.992   2.603
 7471SOL     OW23311   6.246   6.730   4.907
 7471SOL    HW123312   6.207   6.715   4.997
 7471SOL    HW223313   6.341   6.697   4.906
 7472SOL     OW23314   4.630   6.753   4.316
 7472SOL    HW123315   4.623   6.727   4.220
 7472SOL    HW223316   4.667   6.846   4.323
 7473SOL     OW23317   0.021   4.367   3.495
 7473SOL    HW123318   0.104   4.358   3.550
 7473SOL    HW223319   6.997   4.450   3.522
 7474SOL     OW23320   3.112   0.955   4.294
 7474SOL    HW123321   3.097   0.856   4.282
 7474SOL    HW223322   3.176   0.987   4.224
 7475SOL     OW23323   4.943   0.551   2.412
 7475SOL    HW123324   4.983   0.629   2.364
 7475SOL    HW223325   4.879   0.583   2.482
 7476SOL     OW23326   4.503   6.201   4.817
 7476SOL    HW123327   4.481   6.110   4.783
 7476SOL    HW223328   4.476   6.269   4.748
 7477SOL     OW23329   4.493   0.607   3.950
 7477SOL    HW123330   4.472   0.564   4.038
 7477SOL    HW223331   4.579   0.658   3.957
 7478SOL     OW23332   3.965   4.041   6.062
 7478SOL    HW123333   3.904   4.024   6.139
 7478SOL    HW223334   4.048   4.087   6.095
 7479SOL     OW23335   3.824   1.962   1.047
 7479SOL    HW123336   3.892   1.892   1.027
 7479SOL    HW223337   3.737   1.938   1.003
 7480SOL     OW23338   6.307   5.866   1.390
 7480SOL    HW123339   6.240   5.795   1.413
 7480SOL    HW223340   6.387   5.856   1.449
 7481SOL     OW23341   5.365   5.373   1.251
 7481SOL    HW123342   5.289   5.327   1.206
 7481SOL    HW223343   5.349   5.376   1.350
 7482SOL     OW23344   4.150   1.299   1.904
 7482SOL    HW123345   4.086   1.365   1.944
 7482SOL    HW223346   4.099   1.222   1.867
 7483SOL     OW23347   3.928   1.789   4.301
 7483SOL    HW123348   3.946   1.706   4.353
 7483SOL    HW223349   3.888   1.858   4.361
 7484SOL     OW23350   0.415   0.157   1.905
 7484SOL    HW123351   0.336   0.218   1.911
 7484SOL    HW223352   0.437   0.122   1.996
 7485SOL     OW23353   3.064   6.226   5.495
 7485SOL    HW123354   2.984   6.194   5.443
 7485SOL    HW223355   3.058   6.325   5.505
 7486SOL     OW23356   2.537   6.946   5.393
 7486SOL    HW123357   2.592   6.925   5.474
 7486SOL    HW223358   2.594   6.940   5.312
 7487SOL     OW23359   1.935   6.924   2.447
 7487SOL    HW123360   1.883   7.009   2.450
 7487SOL    HW223361   2.026   6.940   2.486
 7488SOL     OW23362   2.205   0.106   5.272
 7488SOL    HW123363   2.169   0.042   5.205
 7488SOL    HW223364   2.303   0.118   5.259
 7489SOL     OW23365   4.678   2.289   5.053
 7489SOL    HW123366   4.772   2.311   5.076
 7489SOL    HW223367   4.636   2.366   5.005
 7490SOL     OW23368   0.651   0.590   0.633
 7490SOL    HW123369   0.554   0.565   0.632
 7490SOL    HW223370   0.665   0.669   0.692
 7491SOL     OW23371   0.509   4.966   6.464
 7491SOL    HW123372   0.448   5.033   6.506
 7491SOL    HW223373   0.600   5.006   6.454
 7492SOL     OW23374   2.513   2.093   5.229
 7492SOL    HW123375   2.424   2.053   5.248
 7492SOL    HW223376   2.517   2.121   5.133
 7493SOL     OW23377   6.338   4.564   5.827
 7493SOL    HW123378   6.298   4.490   5.880
 7493SOL    HW223379   6.432   4.539   5.801
 7494SOL     OW23380   5.588   1.433   2.492
 7494SOL    HW123381   5.575   1.382   2.577
 7494SOL    HW223382   5.509   1.493   2.477
 7495SOL     OW23383   2.103   1.239   0.811
 7495SOL    HW123384   2.126   1.268   0.904
 7495SOL    HW223385   2.119   1.140   0.803
 7496SOL     OW23386   1.621   4.610   5.949
 7496SOL    HW123387   1.648   4.591   5.855
 7496SOL    HW223388   1.639   4.529   6.006
 7497SOL     OW23389   2.768   5.301   1.475
 7497SOL    HW123390   2.858   5.257   1.482
 7497SOL    HW223391   2.709   5.268   1.549
 7498SOL     OW23392   2.726   1.223   4.225
 7498SOL    HW123393   2.693   1.152   4.163
 7498SOL    HW223394   2.707   1.313   4.187
 7499SOL     OW23395   6.207   6.962   3.227
 7499SOL    HW123396   6.146   6.900   3.179
 7499SOL    HW223397   6.281   6.990   3.166
 7500SOL     OW23398   3.914   6.132   2.579
 7500SOL    HW123399   3.881   6.064   2.513
 7500SOL    HW223400   3.846   6.205   2.588
 7501SOL     OW23401   6.850   4.143   4.214
 7501SOL    HW123402   6.903   4.196   4.148
 7501SOL    HW223403   6.899   4.059   4.236
 7502SOL     OW23404   1.841   1.539   5.205
 7502SOL    HW123405   1.864   1.442   5.200
 7502SOL    HW223406   1.755   1.556   5.157
 7503SOL     OW23407   2.668   0.777   6.436
 7503SOL    HW123408   2.686   0.820   6.525
 7503SOL    HW223409   2.745   0.718   6.411
 7504SOL     OW23410   4.323   6.767   3.735
 7504SOL    HW123411   4.347   6.670   3.734
 7504SOL    HW223412   4.398   6.821   3.695
 7505SOL     OW23413   3.534   1.003   5.321
 7505SOL    HW123414   3.508   1.030   5.414
 7505SOL    HW223415   3.462   0.948   5.281
 7506SOL     OW23416   3.807   0.939   2.580
 7506SOL    HW123417   3.895   0.958   2.535
 7506SOL    HW223418   3.732   0.958   2.516
 7507SOL     OW23419   0.396   6.481   0.203
 7507SOL    HW123420   0.299   6.460   0.189
 7507SOL    HW223421   0.452   6.413   0.156
 7508SOL     OW23422   5.821   6.583   2.530
 7508SOL    HW123423   5.748   6.595   2.463
 7508SOL    HW223424   5.833   6.668   2.582
 7509SOL     OW23425   4.757   4.894   0.785
 7509SOL    HW123426   4.679   4.957   0.779
 7509SOL    HW223427   4.725   4.806   0.823
 7510SOL     OW23428   3.079   4.096   4.942
 7510SOL    HW123429   3.056   4.000   4.927
 7510SOL    HW223430   3.013   4.153   4.892
 7511SOL     OW23431   1.349   0.448   2.177
 7511SOL    HW123432   1.329   0.366   2.123
 7511SOL    HW223433   1.380   0.421   2.268
 7512SOL     OW23434   3.144   4.242   1.513
 7512SOL    HW123435   3.053   4.248   1.554
 7512SOL    HW223436   3.158   4.150   1.477
 7513SOL     OW23437   1.311   3.251   0.226
 7513SOL    HW123438   1.317   3.151   0.221
 7513SOL    HW223439   1.403   3.290   0.229
 7514SOL     OW23440   2.773   6.295   1.990
 7514SOL    HW123441   2.871   6.311   1.981
 7514SOL    HW223442   2.737   6.263   1.903
 7515SOL     OW23443   0.792   0.570   2.941
 7515SOL    HW123444   0.808   0.483   2.989
 7515SOL    HW223445   0.867   0.587   2.878
 7516SOL     OW23446   6.588   6.369   4.537
 7516SOL    HW123447   6.589   6.447   4.474
 7516SOL    HW223448   6.678   6.361   4.580
 7517SOL     OW23449   6.842   3.696   1.148
 7517SOL    HW123450   6.875   3.719   1.239
 7517SOL    HW223451   6.841   3.596   1.137
 7518SOL     OW23452   3.480   5.783   3.734
 7518SOL    HW123453   3.433   5.852   3.679
 7518SOL    HW223454   3.560   5.824   3.778
 7519SOL     OW23455   0.647   6.079   4.109
 7519SOL    HW123456   0.746   6.073   4.101
 7519SOL    HW223457   0.616   6.168   4.073
 7520SOL     OW23458   2.001   0.620   2.156
 7520SOL    HW123459   1.938   0.576   2.092
 7520SOL    HW223460   2.027   0.555   2.227
 7521SOL     OW23461   4.256   4.539   5.465
 7521SOL    HW123462   4.163   4.548   5.501
 7521SOL    HW223463   4.296   4.630   5.455
 7522SOL     OW23464   2.645   1.035   6.072
 7522SOL    HW123465   2.704   0.958   6.094
 7522SOL    HW223466   2.687   1.120   6.104
 7523SOL     OW23467   6.463   0.906   5.347
 7523SOL    HW123468   6.377   0.957   5.342
 7523SOL    HW223469   6.498   0.910   5.441
 7524SOL     OW23470   0.414   2.569   6.234
 7524SOL    HW123471   0.391   2.472   6.246
 7524SOL    HW223472   0.374   2.601   6.148
 7525SOL     OW23473   2.218   0.222   6.632
 7525SOL    HW123474   2.269   0.307   6.622
 7525SOL    HW223475   2.140   0.222   6.571
 7526SOL     OW23476   3.858   2.962   3.595
 7526SOL    HW123477   3.847   3.058   3.620
 7526SOL    HW223478   3.857   2.905   3.677
 7527SOL     OW23479   4.544   4.859   2.710
 7527SOL    HW123480   4.509   4.949   2.736
 7527SOL    HW223481   4.614   4.870   2.640
 7528SOL     OW23482   4.515   2.022   0.365
 7528SOL    HW123483   4.613   2.031   0.380
 7528SOL    HW223484   4.465   2.060   0.443
 7529SOL     OW23485   5.395   1.245   4.023
 7529SOL    HW123486   5.468   1.310   4.045
 7529SOL    HW223487   5.398   1.224   3.925
 7530SOL     OW23488   6.947   3.217   2.189
 7530SOL    HW123489   6.895   3.232   2.106
 7530SOL    HW223490   6.919   3.131   2.231
 7531SOL     OW23491   4.660   1.870   4.570
 7531SOL    HW123492   4.629   1.958   4.533
 7531SOL    HW223493   4.735   1.835   4.514
 7532SOL     OW23494   5.278   5.425   1.819
 7532SOL    HW123495   5.209   5.370   1.866
 7532SOL    HW223496   5.278   5.518   1.856
 7533SOL     OW23497   1.649   0.869   2.979
 7533SOL    HW123498   1.743   0.840   2.996
 7533SOL    HW223499   1.594   0.790   2.954
 7534SOL     OW23500   3.677   6.186   4.803
 7534SOL    HW123501   3.614   6.127   4.853
 7534SOL    HW223502   3.647   6.194   4.708
 7535SOL     OW23503   2.821   1.214   5.632
 7535SOL    HW123504   2.815   1.310   5.657
 7535SOL    HW223505   2.905   1.175   5.671
 7536SOL     OW23506   5.155   4.791   5.261
 7536SOL    HW123507   5.174   4.885   5.291
 7536SOL    HW223508   5.064   4.764   5.291
 7537SOL     OW23509   1.998   4.525   5.355
 7537SOL    HW123510   1.945   4.517   5.270
 7537SOL    HW223511   2.093   4.550   5.332
 7538SOL     OW23512   3.285   3.708   2.478
 7538SOL    HW123513   3.361   3.660   2.522
 7538SOL    HW223514   3.314   3.802   2.457
 7539SOL     OW23515   2.430   2.354   5.147
 7539SOL    HW123516   2.503   2.346   5.080
 7539SOL    HW223517   2.466   2.334   5.238
 7540SOL     OW23518   3.341   0.804   6.117
 7540SOL    HW123519   3.401   0.848   6.184
 7540SOL    HW223520   3.368   0.831   6.025
 7541SOL     OW23521   0.009   3.898   5.376
 7541SOL    HW123522   0.051   3.841   5.447
 7541SOL    HW223523   6.934   3.896   5.387
 7542SOL     OW23524   0.848   6.821   5.913
 7542SOL    HW123525   0.908   6.896   5.939
 7542SOL    HW223526   0.902   6.746   5.876
 7543SOL     OW23527   3.939   1.600   0.419
 7543SOL    HW123528   3.976   1.692   0.411
 7543SOL    HW223529   4.010   1.538   0.451
 7544SOL     OW23530   6.892   1.794   3.315
 7544SOL    HW123531   6.955   1.754   3.382
 7544SOL    HW223532   6.864   1.723   3.250
 7545SOL     OW23533   4.683   6.573   2.770
 7545SOL    HW123534   4.711   6.497   2.829
 7545SOL    HW223535   4.735   6.569   2.685
 7546SOL     OW23536   4.325   0.731   0.355
 7546SOL    HW123537   4.423   0.747   0.347
 7546SOL    HW223538   4.275   0.802   0.305
 7547SOL     OW23539   3.974   6.626   0.249
 7547SOL    HW123540   3.923   6.541   0.234
 7547SOL    HW223541   3.952   6.691   0.176
 7548SOL     OW23542   2.219   1.814   0.008
 7548SOL    HW123543   2.128   1.844   0.039
 7548SOL    HW223544   2.269   1.776   0.085
 7549SOL     OW23545   5.590   1.923   2.308
 7549SOL    HW123546   5.637   1.874   2.382
 7549SOL    HW223547   5.652   1.934   2.230
 7550SOL     OW23548   2.148   5.622   2.606
 7550SOL    HW123549   2.236   5.669   2.597
 7550SOL    HW223550   2.101   5.625   2.518
 7551SOL     OW23551   4.557   3.948   6.850
 7551SOL    HW123552   4.641   3.996   6.826
 7551SOL    HW223553   4.576   3.849   6.853
 7552SOL     OW23554   2.538   5.626   3.426
 7552SOL    HW123555   2.467   5.691   3.453
 7552SOL    HW223556   2.574   5.580   3.507
 7553SOL     OW23557   3.605   4.896   6.106
 7553SOL    HW123558   3.579   4.800   6.100
 7553SOL    HW223559   3.671   4.917   6.034
 7554SOL     OW23560   5.245   1.225   0.675
 7554SOL    HW123561   5.304   1.278   0.613
 7554SOL    HW223562   5.213   1.284   0.749
 7555SOL     OW23563   1.058   5.461   4.943
 7555SOL    HW123564   1.113   5.497   4.868
 7555SOL    HW223565   1.077   5.513   5.027
 7556SOL     OW23566   0.277   2.339   5.437
 7556SOL    HW123567   0.328   2.367   5.518
 7556SOL    HW223568   0.324   2.371   5.355
 7557SOL     OW23569   5.217   3.972   6.240
 7557SOL    HW123570   5.297   3.929   6.280
 7557SOL    HW223571   5.172   3.908   6.176
 7558SOL     OW23572   2.509   2.557   4.149
 7558SOL    HW123573   2.595   2.609   4.143
 7558SOL    HW223574   2.520   2.485   4.218
 7559SOL     OW23575   6.305   5.627   1.156
 7559SOL    HW123576   6.368   5.568   1.206
 7559SOL    HW223577   6.320   5.722   1.183
 7560SOL     OW23578   5.365   6.870   6.773
 7560SOL    HW123579   5.307   6.804   6.822
 7560SOL    HW223580   5.392   6.831   6.685
 7561SOL     OW23581   0.855   3.463   0.225
 7561SOL    HW123582   0.949   3.439   0.202
 7561SOL    HW223583   0.819   3.399   0.293
 7562SOL     OW23584   5.155   6.075   4.495
 7562SOL    HW123585   5.126   5.981   4.481
 7562SOL    HW223586   5.092   6.137   4.447
 7563SOL     OW23587   2.881   0.246   1.281
 7563SOL    HW123588   2.903   0.167   1.225
 7563SOL    HW223589   2.798   0.227   1.334
 7564SOL     OW23590   4.878   0.959   3.351
 7564SOL    HW123591   4.803   1.019   3.322
 7564SOL    HW223592   4.870   0.942   3.449
 7565SOL     OW23593   4.611   4.560   0.151
 7565SOL    HW123594   4.587   4.501   0.075
 7565SOL    HW223595   4.586   4.655   0.129
 7566SOL     OW23596   1.017   4.808   3.457
 7566SOL    HW123597   0.921   4.828   3.477
 7566SOL    HW223598   1.023   4.728   3.398
 7567SOL     OW23599   1.316   3.385   5.801
 7567SOL    HW123600   1.398   3.329   5.816
 7567SOL    HW223601   1.235   3.332   5.824
 7568SOL     OW23602   5.699   5.244   4.333
 7568SOL    HW123603   5.772   5.300   4.294
 7568SOL    HW223604   5.701   5.251   4.433
 7569SOL     OW23605   4.854   6.003   6.329
 7569SOL    HW123606   4.877   5.960   6.416
 7569SOL    HW223607   4.761   5.977   6.303
 7570SOL     OW23608   5.568   4.752   5.378
 7570SOL    HW123609   5.516   4.737   5.293
 7570SOL    HW223610   5.532   4.693   5.450
 7571SOL     OW23611   5.261   4.724   1.630
 7571SOL    HW123612   5.228   4.742   1.537
 7571SOL    HW223613   5.309   4.636   1.632
 7572SOL     OW23614   4.827   0.224   3.710
 7572SOL    HW123615   4.741   0.250   3.753
 7572SOL    HW223616   4.844   0.284   3.632
 7573SOL     OW23617   5.349   5.681   4.020
 7573SOL    HW123618   5.360   5.667   4.118
 7573SOL    HW223619   5.252   5.675   3.997
 7574SOL     OW23620   5.606   1.417   4.395
 7574SOL    HW123621   5.576   1.327   4.425
 7574SOL    HW223622   5.568   1.487   4.455
 7575SOL     OW23623   4.117   0.757   5.998
 7575SOL    HW123624   4.180   0.688   5.963
 7575SOL    HW223625   4.166   0.820   6.059
 7576SOL     OW23626   6.035   5.765   6.928
 7576SOL    HW123627   6.093   5.834   6.885
 7576SOL    HW223628   6.002   5.701   6.858
 7577SOL     OW23629   6.836   0.050   4.901
 7577SOL    HW123630   6.862   0.139   4.865
 7577SOL    HW223631   6.845   0.051   5.001
 7578SOL     OW23632   1.724   6.214   3.888
 7578SOL    HW123633   1.750   6.285   3.953
 7578SOL    HW223634   1.670   6.255   3.814
 7579SOL     OW23635   4.168   2.216   2.094
 7579SOL    HW123636   4.225   2.298   2.096
 7579SOL    HW223637   4.169   2.177   2.002
 7580SOL     OW23638   1.301   3.649   4.110
 7580SOL    HW123639   1.311   3.712   4.187
 7580SOL    HW223640   1.373   3.580   4.113
 7581SOL     OW23641   4.555   1.416   0.685
 7581SOL    HW123642   4.494   1.346   0.721
 7581SOL    HW223643   4.567   1.489   0.753
 7582SOL     OW23644   3.678   1.647   0.360
 7582SOL    HW123645   3.769   1.655   0.400
 7582SOL    HW223646   3.684   1.599   0.272
 7583SOL     OW23647   6.146   3.434   1.728
 7583SOL    HW123648   6.085   3.406   1.654
 7583SOL    HW223649   6.214   3.498   1.694
 7584SOL     OW23650   2.609   6.922   1.415
 7584SOL    HW123651   2.543   6.899   1.487
 7584SOL    HW223652   2.565   6.983   1.349
 7585SOL     OW23653   1.706   3.390   5.801
 7585SOL    HW123654   1.707   3.477   5.851
 7585SOL    HW223655   1.611   3.359   5.792
 7586SOL     OW23656   2.887   0.714   2.829
 7586SOL    HW123657   2.870   0.633   2.774
 7586SOL    HW223658   2.944   0.691   2.907
 7587SOL     OW23659   2.547   1.260   6.618
 7587SOL    HW123660   2.636   1.236   6.580
 7587SOL    HW223661   2.537   1.360   6.619
 7588SOL     OW23662   0.567   3.948   1.620
 7588SOL    HW123663   0.655   3.967   1.577
 7588SOL    HW223664   0.499   4.013   1.587
 7589SOL     OW23665   5.937   5.892   0.822
 7589SOL    HW123666   5.886   5.822   0.872
 7589SOL    HW223667   5.918   5.882   0.724
 7590SOL     OW23668   3.258   1.768   6.167
 7590SOL    HW123669   3.190   1.781   6.239
 7590SOL    HW223670   3.323   1.844   6.168
 7591SOL     OW23671   0.350   5.499   0.356
 7591SOL    HW123672   0.432   5.517   0.410
 7591SOL    HW223673   0.375   5.497   0.259
 7592SOL     OW23674   6.801   4.512   6.682
 7592SOL    HW123675   6.758   4.511   6.591
 7592SOL    HW223676   6.871   4.441   6.686
 7593SOL     OW23677   5.809   2.713   6.735
 7593SOL    HW123678   5.835   2.727   6.640
 7593SOL    HW223679   5.888   2.730   6.794
 7594SOL     OW23680   0.501   4.684   1.939
 7594SOL    HW123681   0.552   4.745   1.999
 7594SOL    HW223682   0.446   4.738   1.875
 7595SOL     OW23683   0.421   2.788   6.409
 7595SOL    HW123684   0.399   2.709   6.352
 7595SOL    HW223685   0.427   2.870   6.352
 7596SOL     OW23686   5.164   5.555   2.195
 7596SOL    HW123687   5.183   5.512   2.283
 7596SOL    HW223688   5.202   5.648   2.195
 7597SOL     OW23689   2.696   5.777   1.595
 7597SOL    HW123690   2.777   5.808   1.645
 7597SOL    HW223691   2.724   5.731   1.511
 7598SOL     OW23692   6.187   0.842   2.900
 7598SOL    HW123693   6.219   0.873   2.990
 7598SOL    HW223694   6.091   0.813   2.908
 7599SOL     OW23695   5.235   1.043   3.465
 7599SOL    HW123696   5.192   1.132   3.484
 7599SOL    HW223697   5.175   0.989   3.406
 7600SOL     OW23698   1.861   0.842   2.278
 7600SOL    HW123699   1.926   0.783   2.230
 7600SOL    HW223700   1.863   0.934   2.239
 7601SOL     OW23701   2.106   5.401   3.115
 7601SOL    HW123702   2.020   5.390   3.165
 7601SOL    HW223703   2.155   5.481   3.150
 7602SOL     OW23704   1.605   3.992   5.153
 7602SOL    HW123705   1.620   3.964   5.058
 7602SOL    HW223706   1.628   4.089   5.163
 7603SOL     OW23707   1.280   6.059   6.541
 7603SOL    HW123708   1.192   6.090   6.504
 7603SOL    HW223709   1.347   6.052   6.467
 7604SOL     OW23710   2.714   5.781   4.049
 7604SOL    HW123711   2.747   5.704   3.994
 7604SOL    HW223712   2.693   5.858   3.988
 7605SOL     OW23713   1.868   6.047   0.242
 7605SOL    HW123714   1.802   6.120   0.223
 7605SOL    HW223715   1.941   6.083   0.301
 7606SOL     OW23716   0.151   2.317   2.356
 7606SOL    HW123717   0.182   2.372   2.433
 7606SOL    HW223718   0.100   2.375   2.292
 7607SOL     OW23719   4.304   6.576   0.047
 7607SOL    HW123720   4.369   6.614   7.006
 7607SOL    HW223721   4.344   6.578   0.139
 7608SOL     OW23722   3.347   3.842   3.495
 7608SOL    HW123723   3.349   3.802   3.404
 7608SOL    HW223724   3.254   3.875   3.515
 7609SOL     OW23725   6.577   3.556   3.070
 7609SOL    HW123726   6.649   3.606   3.023
 7609SOL    HW223727   6.603   3.460   3.080
 7610SOL     OW23728   5.988   1.036   0.401
 7610SOL    HW123729   5.893   1.065   0.389
 7610SOL    HW223730   6.046   1.116   0.414
 7611SOL     OW23731   0.563   1.817   0.206
 7611SOL    HW123732   0.507   1.868   0.140
 7611SOL    HW223733   0.594   1.732   0.165
 7612SOL     OW23734   4.056   2.017   4.186
 7612SOL    HW123735   4.051   2.080   4.263
 7612SOL    HW223736   3.994   1.940   4.201
 7613SOL     OW23737   4.643   2.169   1.831
 7613SOL    HW123738   4.621   2.116   1.913
 7613SOL    HW223739   4.742   2.169   1.816
 7614SOL     OW23740   4.166   2.866   1.674
 7614SOL    HW123741   4.183   2.915   1.588
 7614SOL    HW223742   4.236   2.796   1.687
 7615SOL     OW23743   5.159   4.613   6.316
 7615SOL    HW123744   5.235   4.574   6.368
 7615SOL    HW223745   5.192   4.643   6.226
 7616SOL     OW23746   0.650   4.296   4.206
 7616SOL    HW123747   0.705   4.213   4.197
 7616SOL    HW223748   0.567   4.288   4.150
 7617SOL     OW23749   2.808   5.775   2.712
 7617SOL    HW123750   2.830   5.757   2.807
 7617SOL    HW223751   2.890   5.804   2.663
 7618SOL     OW23752   0.991   1.710   6.743
 7618SOL    HW123753   0.985   1.770   6.823
 7618SOL    HW223754   0.944   1.753   6.666
 7619SOL     OW23755   5.954   3.280   5.164
 7619SOL    HW123756   5.861   3.308   5.142
 7619SOL    HW223757   5.996   3.236   5.085
 7620SOL     OW23758   3.522   6.003   0.466
 7620SOL    HW123759   3.620   6.001   0.488
 7620SOL    HW223760   3.471   6.041   0.543
 7621SOL     OW23761   0.640   1.103   0.439
 7621SOL    HW123762   0.604   1.139   0.353
 7621SOL    HW223763   0.693   1.173   0.485
 7622SOL     OW23764   5.636   3.589   1.836
 7622SOL    HW123765   5.692   3.665   1.870
 7622SOL    HW223766   5.694   3.509   1.820
 7623SOL     OW23767   4.319   4.883   6.381
 7623SOL    HW123768   4.372   4.857   6.300
 7623SOL    HW223769   4.349   4.973   6.413
 7624SOL     OW23770   0.395   2.777   4.235
 7624SOL    HW123771   0.357   2.868   4.249
 7624SOL    HW223772   0.380   2.722   4.317
 7625SOL     OW23773   4.617   0.336   0.779
 7625SOL    HW123774   4.538   0.348   0.718
 7625SOL    HW223775   4.615   0.406   0.850
 7626SOL     OW23776   6.885   6.551   5.410
 7626SOL    HW123777   6.954   6.618   5.438
 7626SOL    HW223778   6.910   6.461   5.446
 7627SOL     OW23779   6.358   3.398   6.974
 7627SOL    HW123780   6.360   3.410   6.875
 7627SOL    HW223781   6.418   3.322   7.000
 7628SOL     OW23782   3.377   0.677   1.015
 7628SOL    HW123783   3.304   0.737   0.982
 7628SOL    HW223784   3.450   0.733   1.054
 7629SOL     OW23785   6.684   6.412   2.690
 7629SOL    HW123786   6.608   6.386   2.749
 7629SOL    HW223787   6.686   6.512   2.680
 7630SOL     OW23788   6.356   6.096   2.105
 7630SOL    HW123789   6.443   6.107   2.153
 7630SOL    HW223790   6.281   6.111   2.169
 7631SOL     OW23791   0.983   1.491   5.643
 7631SOL    HW123792   0.990   1.513   5.546
 7631SOL    HW223793   0.896   1.447   5.662
 7632SOL     OW23794   3.995   2.097   1.347
 7632SOL    HW123795   4.058   2.074   1.272
 7632SOL    HW223796   4.005   2.030   1.420
 7633SOL     OW23797   5.155   2.229   0.564
 7633SOL    HW123798   5.208   2.145   0.559
 7633SOL    HW223799   5.099   2.238   0.482
 7634SOL     OW23800   1.236   1.393   2.401
 7634SOL    HW123801   1.141   1.414   2.377
 7634SOL    HW223802   1.254   1.296   2.385
 7635SOL     OW23803   2.512   4.903   5.428
 7635SOL    HW123804   2.562   4.816   5.431
 7635SOL    HW223805   2.512   4.943   5.520
 7636SOL     OW23806   1.073   1.728   3.486
 7636SOL    HW123807   1.105   1.800   3.424
 7636SOL    HW223808   1.132   1.725   3.567
 7637SOL     OW23809   1.604   6.840   2.502
 7637SOL    HW123810   1.552   6.799   2.577
 7637SOL    HW223811   1.630   6.768   2.437
 7638SOL     OW23812   5.000   5.829   2.301
 7638SOL    HW123813   5.044   5.903   2.250
 7638SOL    HW223814   5.006   5.847   2.399
 7639SOL     OW23815   1.217   2.256   0.313
 7639SOL    HW123816   1.302   2.248   0.364
 7639SOL    HW223817   1.236   2.257   0.215
 7640SOL     OW23818   2.809   2.234   6.949
 7640SOL    HW123819   2.846   2.269   0.011
 7640SOL    HW223820   2.740   2.165   6.969
 7641SOL     OW23821   0.784   4.189   1.616
 7641SOL    HW123822   0.795   4.164   1.712
 7641SOL    HW223823   0.772   4.288   1.608
 7642SOL     OW23824   2.784   1.622   2.958
 7642SOL    HW123825   2.746   1.530   2.972
 7642SOL    HW223826   2.721   1.690   2.994
 7643SOL     OW23827   4.331   2.004   4.199
 7643SOL    HW123828   4.399   2.076   4.185
 7643SOL    HW223829   4.244   2.031   4.157
 7644SOL     OW23830   6.397   1.825   2.841
 7644SOL    HW123831   6.433   1.855   2.753
 7644SOL    HW223832   6.339   1.897   2.880
 7645SOL     OW23833   4.562   4.704   6.102
 7645SOL    HW123834   4.551   4.691   6.004
 7645SOL    HW223835   4.499   4.644   6.151
 7646SOL     OW23836   1.786   2.648   2.585
 7646SOL    HW123837   1.875   2.666   2.543
 7646SOL    HW223838   1.744   2.569   2.540
 7647SOL     OW23839   1.466   2.998   1.135
 7647SOL    HW123840   1.368   3.021   1.136
 7647SOL    HW223841   1.490   2.950   1.219
 7648SOL     OW23842   4.080   2.225   3.679
 7648SOL    HW123843   4.024   2.188   3.753
 7648SOL    HW223844   4.040   2.197   3.591
 7649SOL     OW23845   1.440   1.050   2.963
 7649SOL    HW123846   1.364   0.990   2.989
 7649SOL    HW223847   1.524   0.997   2.956
 7650SOL     OW23848   6.120   3.198   1.443
 7650SOL    HW123849   6.092   3.294   1.441
 7650SOL    HW223850   6.117   3.160   1.351
 7651SOL     OW23851   2.613   0.267   5.502
 7651SOL    HW123852   2.521   0.306   5.511
 7651SOL    HW223853   2.675   0.315   5.563
 7652SOL     OW23854   6.771   3.635   4.373
 7652SOL    HW123855   6.810   3.543   4.376
 7652SOL    HW223856   6.777   3.671   4.279
 7653SOL     OW23857   2.029   1.843   0.401
 7653SOL    HW123858   2.030   1.769   0.468
 7653SOL    HW223859   1.942   1.844   0.353
 7654SOL     OW23860   5.228   2.848   3.124
 7654SOL    HW123861   5.255   2.899   3.205
 7654SOL    HW223862   5.194   2.758   3.151
 7655SOL     OW23863   3.568   0.658   3.682
 7655SOL    HW123864   3.639   0.727   3.689
 7655SOL    HW223865   3.516   0.672   3.597
 7656SOL     OW23866   1.034   5.924   5.906
 7656SOL    HW123867   1.011   5.986   5.831
 7656SOL    HW223868   1.125   5.946   5.940
 7657SOL     OW23869   2.505   2.473   2.775
 7657SOL    HW123870   2.497   2.497   2.871
 7657SOL    HW223871   2.601   2.469   2.749
 7658SOL     OW23872   4.629   6.574   5.834
 7658SOL    HW123873   4.616   6.596   5.931
 7658SOL    HW223874   4.723   6.596   5.808
 7659SOL     OW23875   5.687   6.558   6.322
 7659SOL    HW123876   5.640   6.602   6.246
 7659SOL    HW223877   5.778   6.527   6.292
 7660SOL     OW23878   6.421   5.602   4.526
 7660SOL    HW123879   6.441   5.517   4.475
 7660SOL    HW223880   6.474   5.677   4.487
 7661SOL     OW23881   6.153   1.788   4.403
 7661SOL    HW123882   6.064   1.798   4.448
 7661SOL    HW223883   6.187   1.695   4.417
 7662SOL     OW23884   1.016   2.235   1.942
 7662SOL    HW123885   0.968   2.303   1.886
 7662SOL    HW223886   0.990   2.246   2.038
 7663SOL     OW23887   6.270   6.788   6.079
 7663SOL    HW123888   6.282   6.836   6.166
 7663SOL    HW223889   6.266   6.854   6.005
 7664SOL     OW23890   3.442   0.197   2.429
 7664SOL    HW123891   3.433   0.198   2.330
 7664SOL    HW223892   3.434   0.291   2.464
 7665SOL     OW23893   3.920   0.573   3.755
 7665SOL    HW123894   3.997   0.549   3.813
 7665SOL    HW223895   3.835   0.561   3.806
 7666SOL     OW23896   6.787   0.178   1.188
 7666SOL    HW123897   6.833   0.090   1.180
 7666SOL    HW223898   6.856   0.250   1.203
 7667SOL     OW23899   5.067   5.727   1.227
 7667SOL    HW123900   5.056   5.799   1.296
 7667SOL    HW223901   4.977   5.700   1.193
 7668SOL     OW23902   2.943   4.403   1.034
 7668SOL    HW123903   2.954   4.308   1.064
 7668SOL    HW223904   3.030   4.452   1.044
 7669SOL     OW23905   5.556   1.683   5.187
 7669SOL    HW123906   5.462   1.664   5.157
 7669SOL    HW223907   5.620   1.648   5.118
 7670SOL     OW23908   1.492   5.756   6.392
 7670SOL    HW123909   1.432   5.727   6.317
 7670SOL    HW223910   1.540   5.676   6.429
 7671SOL     OW23911   4.274   1.164   5.012
 7671SOL    HW123912   4.296   1.162   4.915
 7671SOL    HW223913   4.205   1.234   5.029
 7672SOL     OW23914   5.455   6.123   3.995
 7672SOL    HW123915   5.554   6.112   3.981
 7672SOL    HW223916   5.426   6.065   4.071
 7673SOL     OW23917   2.375   4.910   0.200
 7673SOL    HW123918   2.402   4.900   0.104
 7673SOL    HW223919   2.341   5.003   0.215
 7674SOL     OW23920   6.382   2.188   4.471
 7674SOL    HW123921   6.303   2.241   4.439
 7674SOL    HW223922   6.429   2.148   4.392
 7675SOL     OW23923   5.055   0.541   2.796
 7675SOL    HW123924   5.061   0.443   2.815
 7675SOL    HW223925   5.093   0.592   2.873
 7676SOL     OW23926   1.176   1.725   0.420
 7676SOL    HW123927   1.084   1.723   0.381
 7676SOL    HW223928   1.170   1.730   0.520
 7677SOL     OW23929   1.040   3.999   1.502
 7677SOL    HW123930   0.987   4.084   1.503
 7677SOL    HW223931   1.068   3.977   1.595
 7678SOL     OW23932   1.617   1.016   5.615
 7678SOL    HW123933   1.678   1.072   5.671
 7678SOL    HW223934   1.566   0.953   5.673
 7679SOL     OW23935   1.015   6.464   5.141
 7679SOL    HW123936   1.005   6.395   5.070
 7679SOL    HW223937   1.072   6.539   5.107
 7680SOL     OW23938   1.939   2.582   0.261
 7680SOL    HW123939   2.006   2.602   0.189
 7680SOL    HW223940   1.909   2.488   0.253
 7681SOL     OW23941   3.067   0.213   0.364
 7681SOL    HW123942   3.024   0.126   0.389
 7681SOL    HW223943   3.026   0.287   0.418
 7682SOL     OW23944   2.493   0.409   1.929
 7682SOL    HW123945   2.516   0.432   1.835
 7682SOL    HW223946   2.399   0.375   1.933
 7683SOL     OW23947   6.767   2.163   4.424
 7683SOL    HW123948   6.762   2.106   4.342
 7683SOL    HW223949   6.691   2.227   4.425
 7684SOL     OW23950   5.640   2.085   0.290
 7684SOL    HW123951   5.607   2.110   0.199
 7684SOL    HW223952   5.575   2.117   0.359
 7685SOL     OW23953   3.523   3.182   0.095
 7685SOL    HW123954   3.540   3.085   0.076
 7685SOL    HW223955   3.448   3.215   0.037
 7686SOL     OW23956   4.580   0.436   3.361
 7686SOL    HW123957   4.571   0.390   3.272
 7686SOL    HW223958   4.501   0.413   3.418
 7687SOL     OW23959   6.214   5.670   5.122
 7687SOL    HW123960   6.124   5.626   5.129
 7687SOL    HW223961   6.203   5.765   5.093
 7688SOL     OW23962   0.656   0.809   6.644
 7688SOL    HW123963   0.690   0.739   6.582
 7688SOL    HW223964   0.562   0.833   6.619
 7689SOL     OW23965   5.028   5.859   3.691
 7689SOL    HW123966   5.072   5.948   3.680
 7689SOL    HW223967   5.082   5.789   3.644
 7690SOL     OW23968   6.211   5.212   1.576
 7690SOL    HW123969   6.241   5.279   1.508
 7690SOL    HW223970   6.192   5.257   1.662
 7691SOL     OW23971   4.616   2.699   4.253
 7691SOL    HW123972   4.648   2.769   4.188
 7691SOL    HW223973   4.517   2.704   4.262
 7692SOL     OW23974   0.705   6.945   1.088
 7692SOL    HW123975   0.664   6.854   1.075
 7692SOL    HW223976   0.788   6.952   1.032
 7693SOL     OW23977   4.496   6.894   0.669
 7693SOL    HW123978   4.401   6.894   0.701
 7693SOL    HW223979   4.528   6.800   0.661
 7694SOL     OW23980   0.340   4.010   4.295
 7694SOL    HW123981   0.432   3.979   4.321
 7694SOL    HW223982   0.282   4.011   4.377
 7695SOL     OW23983   3.955   6.842   1.004
 7695SOL    HW123984   3.906   6.849   0.918
 7695SOL    HW223985   3.947   6.749   1.039
 7696SOL     OW23986   6.941   2.033   4.581
 7696SOL    HW123987   6.889   2.089   4.516
 7696SOL    HW223988   6.961   1.944   4.540
 7697SOL     OW23989   2.636   0.848   2.758
 7697SOL    HW123990   2.567   0.776   2.748
 7697SOL    HW223991   2.720   0.808   2.794
 7698SOL     OW23992   0.395   2.876   4.622
 7698SOL    HW123993   0.342   2.957   4.650
 7698SOL    HW223994   0.344   2.827   4.551
 7699SOL     OW23995   3.402   5.439   6.598
 7699SOL    HW123996   3.392   5.439   6.498
 7699SOL    HW223997   3.361   5.356   6.636
 7700SOL     OW23998   5.514   6.953   5.225
 7700SOL    HW123999   5.435   6.990   5.175
 7700SOL    HW224000   5.555   0.001   5.280
 7701SOL     OW24001   5.990   1.731   6.673
 7701SOL    HW124002   5.976   1.694   6.765
 7701SOL    HW224003   6.081   1.772   6.667
 7702SOL     OW24004   3.308   6.110   5.428
 7702SOL    HW124005   3.228   6.126   5.485
 7702SOL    HW224006   3.285   6.126   5.332
 7703SOL     OW24007   6.712   1.246   4.846
 7703SOL    HW124008   6.715   1.283   4.939
 7703SOL    HW224009   6.710   1.322   4.781
 7704SOL     OW24010   4.636   4.773   5.546
 7704SOL    HW124011   4.688   4.851   5.512
 7704SOL    HW224012   4.538   4.789   5.530
 7705SOL     OW24013   3.580   4.613   6.111
 7705SOL    HW124014   3.571   4.572   6.020
 7705SOL    HW224015   3.652   4.566   6.162
 7706SOL     OW24016   4.957   1.579   6.092
 7706SOL    HW124017   4.983   1.595   5.996
 7706SOL    HW224018   4.933   1.483   6.105
 7707SOL     OW24019   0.758   5.581   6.615
 7707SOL    HW124020   0.790   5.674   6.600
 7707SOL    HW224021   0.743   5.536   6.527
 7708SOL     OW24022   5.082   6.137   5.485
 7708SOL    HW124023   5.034   6.050   5.469
 7708SOL    HW224024   5.038   6.209   5.432
 7709SOL     OW24025   5.429   3.579   2.086
 7709SOL    HW124026   5.368   3.516   2.037
 7709SOL    HW224027   5.502   3.610   2.024
 7710SOL     OW24028   2.342   0.924   1.088
 7710SOL    HW124029   2.345   0.836   1.040
 7710SOL    HW224030   2.435   0.958   1.102
 7711SOL     OW24031   6.458   6.250   4.884
 7711SOL    HW124032   6.364   6.282   4.875
 7711SOL    HW224033   6.458   6.151   4.898
 7712SOL     OW24034   6.731   4.928   0.919
 7712SOL    HW124035   6.748   5.013   0.969
 7712SOL    HW224036   6.701   4.949   0.826
 7713SOL     OW24037   2.072   4.478   0.626
 7713SOL    HW124038   2.080   4.555   0.562
 7713SOL    HW224039   2.163   4.447   0.652
 7714SOL     OW24040   6.761   5.658   5.360
 7714SOL    HW124041   6.684   5.631   5.417
 7714SOL    HW224042   6.846   5.631   5.406
 7715SOL     OW24043   4.880   1.359   1.405
 7715SOL    HW124044   4.968   1.400   1.379
 7715SOL    HW224045   4.875   1.351   1.504
 7716SOL     OW24046   5.544   3.142   3.642
 7716SOL    HW124047   5.482   3.217   3.664
 7716SOL    HW224048   5.635   3.178   3.624
 7717SOL     OW24049   2.820   1.347   4.916
 7717SOL    HW124050   2.846   1.343   4.820
 7717SOL    HW224051   2.902   1.336   4.973
 7718SOL     OW24052   1.769   2.623   2.866
 7718SOL    HW124053   1.790   2.709   2.913
 7718SOL    HW224054   1.772   2.637   2.767
 7719SOL     OW24055   0.033   3.181   3.507
 7719SOL    HW124056   6.967   3.211   3.476
 7719SOL    HW224057   0.057   3.231   3.591
 7720SOL     OW24058   0.145   6.747   0.519
 7720SOL    HW124059   0.090   6.713   0.595
 7720SOL    HW224060   0.229   6.789   0.554
 7721SOL     OW24061   1.719   4.196   3.455
 7721SOL    HW124062   1.760   4.208   3.545
 7721SOL    HW224063   1.663   4.277   3.433
 7722SOL     OW24064   0.286   5.110   2.800
 7722SOL    HW124065   0.350   5.033   2.801
 7722SOL    HW224066   0.227   5.106   2.880
 7723SOL     OW24067   6.535   4.160   0.597
 7723SOL    HW124068   6.506   4.111   0.515
 7723SOL    HW224069   6.633   4.142   0.613
 7724SOL     OW24070   2.314   4.597   2.218
 7724SOL    HW124071   2.402   4.643   2.202
 7724SOL    HW224072   2.323   4.500   2.193
 7725SOL     OW24073   5.089   2.635   3.240
 7725SOL    HW124074   4.997   2.659   3.271
 7725SOL    HW224075   5.091   2.539   3.211
 7726SOL     OW24076   0.006   5.104   3.922
 7726SOL    HW124077   6.980   5.118   4.007
 7726SOL    HW224078   6.977   5.047   3.860
 7727SOL     OW24079   6.016   1.926   3.339
 7727SOL    HW124080   6.024   1.917   3.240
 7727SOL    HW224081   6.053   2.015   3.367
 7728SOL     OW24082   0.949   3.811   3.747
 7728SOL    HW124083   1.016   3.762   3.803
 7728SOL    HW224084   0.969   3.909   3.751
 7729SOL     OW24085   5.854   2.548   2.017
 7729SOL    HW124086   5.888   2.467   1.970
 7729SOL    HW224087   5.903   2.629   1.983
 7730SOL     OW24088   5.748   5.562   2.224
 7730SOL    HW124089   5.816   5.492   2.245
 7730SOL    HW224090   5.675   5.522   2.170
 7731SOL     OW24091   5.963   1.068   0.988
 7731SOL    HW124092   5.983   1.151   1.041
 7731SOL    HW224093   5.864   1.056   0.983
 7732SOL     OW24094   4.608   5.957   0.476
 7732SOL    HW124095   4.696   5.917   0.452
 7732SOL    HW224096   4.594   5.950   0.575
 7733SOL     OW24097   4.346   6.275   1.952
 7733SOL    HW124098   4.415   6.300   1.884
 7733SOL    HW224099   4.321   6.355   2.005
 7734SOL     OW24100   1.880   3.804   3.769
 7734SOL    HW124101   1.930   3.890   3.782
 7734SOL    HW224102   1.782   3.820   3.783
 7735SOL     OW24103   3.742   4.944   6.553
 7735SOL    HW124104   3.678   4.958   6.629
 7735SOL    HW224105   3.733   5.020   6.489
 7736SOL     OW24106   5.053   4.361   0.136
 7736SOL    HW124107   5.110   4.321   0.208
 7736SOL    HW224108   4.999   4.436   0.174
 7737SOL     OW24109   4.455   0.949   0.918
 7737SOL    HW124110   4.520   1.016   0.952
 7737SOL    HW224111   4.497   0.858   0.916
 7738SOL     OW24112   2.137   5.705   6.676
 7738SOL    HW124113   2.217   5.726   6.732
 7738SOL    HW224114   2.074   5.782   6.678
 7739SOL     OW24115   0.100   1.445   1.612
 7739SOL    HW124116   0.120   1.513   1.683
 7739SOL    HW224117   0.001   1.431   1.607
 7740SOL     OW24118   0.459   0.786   2.693
 7740SOL    HW124119   0.399   0.753   2.620
 7740SOL    HW224120   0.468   0.886   2.686
 7741SOL     OW24121   1.303   6.227   4.366
 7741SOL    HW124122   1.241   6.235   4.444
 7741SOL    HW224123   1.317   6.131   4.344
 7742SOL     OW24124   6.236   1.824   3.466
 7742SOL    HW124125   6.176   1.804   3.389
 7742SOL    HW224126   6.200   1.903   3.517
 7743SOL     OW24127   4.238   2.712   6.576
 7743SOL    HW124128   4.230   2.714   6.676
 7743SOL    HW224129   4.317   2.658   6.550
 7744SOL     OW24130   0.644   5.943   4.340
 7744SOL    HW124131   0.646   5.997   4.256
 7744SOL    HW224132   0.693   5.991   4.413
 7745SOL     OW24133   3.446   2.233   5.522
 7745SOL    HW124134   3.506   2.280   5.586
 7745SOL    HW224135   3.361   2.207   5.568
 7746SOL     OW24136   2.694   0.032   6.782
 7746SOL    HW124137   2.615   0.053   6.724
 7746SOL    HW224138   2.692   6.959   6.806
 7747SOL     OW24139   4.653   5.966   1.140
 7747SOL    HW124140   4.556   5.955   1.116
 7747SOL    HW224141   4.699   6.022   1.071
 7748SOL     OW24142   2.881   3.695   5.594
 7748SOL    HW124143   2.850   3.673   5.501
 7748SOL    HW224144   2.967   3.646   5.612
 7749SOL     OW24145   4.448   3.683   6.194
 7749SOL    HW124146   4.499   3.627   6.259
 7749SOL    HW224147   4.356   3.699   6.230
 7750SOL     OW24148   0.571   6.150   1.260
 7750SOL    HW124149   0.608   6.145   1.353
 7750SOL    HW224150   0.550   6.246   1.239
 7751SOL     OW24151   0.976   1.428   2.047
 7751SOL    HW124152   1.075   1.423   2.058
 7751SOL    HW224153   0.951   1.522   2.023
 7752SOL     OW24154   5.166   0.469   4.989
 7752SOL    HW124155   5.140   0.548   4.933
 7752SOL    HW224156   5.084   0.431   5.032
 7753SOL     OW24157   1.828   1.592   4.816
 7753SOL    HW124158   1.794   1.507   4.856
 7753SOL    HW224159   1.922   1.579   4.785
 7754SOL     OW24160   3.703   6.080   1.311
 7754SOL    HW124161   3.746   6.043   1.393
 7754SOL    HW224162   3.742   6.169   1.290
 7755SOL     OW24163   1.339   3.401   6.142
 7755SOL    HW124164   1.345   3.303   6.126
 7755SOL    HW224165   1.247   3.425   6.174
 7756SOL     OW24166   2.797   6.728   1.598
 7756SOL    HW124167   2.737   6.794   1.643
 7756SOL    HW224168   2.842   6.773   1.521
 7757SOL     OW24169   6.746   4.736   1.080
 7757SOL    HW124170   6.738   4.654   1.023
 7757SOL    HW224171   6.737   4.817   1.023
 7758SOL     OW24172   1.528   0.048   6.284
 7758SOL    HW124173   1.562   0.015   6.373
 7758SOL    HW224174   1.601   0.096   6.236
 7759SOL     OW24175   3.062   2.041   5.867
 7759SOL    HW124176   3.076   2.070   5.961
 7759SOL    HW224177   2.969   2.062   5.839
 7760SOL     OW24178   5.156   2.273   2.235
 7760SOL    HW124179   5.108   2.208   2.175
 7760SOL    HW224180   5.240   2.230   2.268
 7761SOL     OW24181   5.574   5.710   5.018
 7761SOL    HW124182   5.537   5.621   4.991
 7761SOL    HW224183   5.525   5.783   4.970
 7762SOL     OW24184   1.091   0.533   4.051
 7762SOL    HW124185   1.169   0.570   4.000
 7762SOL    HW224186   1.021   0.604   4.060
 7763SOL     OW24187   2.005   0.235   5.435
 7763SOL    HW124188   2.087   0.188   5.401
 7763SOL    HW224189   2.028   0.290   5.515
 7764SOL     OW24190   3.225   3.932   5.463
 7764SOL    HW124191   3.212   3.946   5.365
 7764SOL    HW224192   3.152   3.978   5.513
 7765SOL     OW24193   6.452   3.774   4.093
 7765SOL    HW124194   6.454   3.676   4.115
 7765SOL    HW224195   6.487   3.787   4.000
 7766SOL     OW24196   0.700   4.340   0.350
 7766SOL    HW124197   0.666   4.434   0.341
 7766SOL    HW224198   0.666   4.301   0.436
 7767SOL     OW24199   4.015   6.772   2.652
 7767SOL    HW124200   3.944   6.838   2.629
 7767SOL    HW224201   4.057   6.739   2.567
 7768SOL     OW24202   4.934   4.421   3.243
 7768SOL    HW124203   4.923   4.407   3.145
 7768SOL    HW224204   4.847   4.451   3.282
 7769SOL     OW24205   3.783   2.053   5.336
 7769SOL    HW124206   3.746   2.146   5.348
 7769SOL    HW224207   3.813   2.042   5.242
 7770SOL     OW24208   0.456   3.467   4.886
 7770SOL    HW124209   0.468   3.504   4.978
 7770SOL    HW224210   0.469   3.540   4.819
 7771SOL     OW24211   2.761   1.962   6.064
 7771SOL    HW124212   2.722   1.880   6.023
 7771SOL    HW224213   2.805   2.017   5.992
 7772SOL     OW24214   5.214   0.708   1.058
 7772SOL    HW124215   5.220   0.807   1.047
 7772SOL    HW224216   5.170   0.667   0.978
 7773SOL     OW24217   2.758   6.111   0.396
 7773SOL    HW124218   2.710   6.192   0.362
 7773SOL    HW224219   2.753   6.038   0.328
 7774SOL     OW24220   4.745   2.266   3.969
 7774SOL    HW124221   4.817   2.307   3.913
 7774SOL    HW224222   4.666   2.327   3.971
 7775SOL     OW24223   3.756   0.383   6.593
 7775SOL    HW124224   3.833   0.320   6.601
 7775SOL    HW224225   3.782   0.472   6.633
 7776SOL     OW24226   0.599   6.718   6.142
 7776SOL    HW124227   0.522   6.737   6.082
 7776SOL    HW224228   0.586   6.630   6.187
 7777SOL     OW24229   5.787   5.337   4.568
 7777SOL    HW124230   5.878   5.297   4.568
 7777SOL    HW224231   5.756   5.350   4.663
 7778SOL     OW24232   6.050   3.839   2.847
 7778SOL    HW124233   5.999   3.768   2.799
 7778SOL    HW224234   5.986   3.902   2.892
 7779SOL     OW24235   3.368   6.761   2.501
 7779SOL    HW124236   3.406   6.753   2.409
 7779SOL    HW224237   3.309   6.842   2.505
 7780SOL     OW24238   0.156   6.094   6.417
 7780SOL    HW124239   0.100   6.012   6.409
 7780SOL    HW224240   0.252   6.068   6.434
 7781SOL     OW24241   1.828   3.855   0.420
 7781SOL    HW124242   1.905   3.917   0.402
 7781SOL    HW224243   1.857   3.761   0.407
 7782SOL     OW24244   6.112   5.016   3.287
 7782SOL    HW124245   6.153   4.983   3.372
 7782SOL    HW224246   6.021   5.052   3.307
 7783SOL     OW24247   0.669   0.162   5.754
 7783SOL    HW124248   0.606   0.183   5.680
 7783SOL    HW224249   0.726   0.083   5.729
 7784SOL     OW24250   2.491   2.358   1.723
 7784SOL    HW124251   2.543   2.348   1.808
 7784SOL    HW224252   2.509   2.448   1.683
 7785SOL     OW24253   1.399   6.331   3.007
 7785SOL    HW124254   1.410   6.353   3.104
 7785SOL    HW224255   1.377   6.235   2.997
 7786SOL     OW24256   4.417   0.769   6.530
 7786SOL    HW124257   4.362   0.781   6.612
 7786SOL    HW224258   4.416   0.672   6.503
 7787SOL     OW24259   2.418   3.530   1.010
 7787SOL    HW124260   2.334   3.583   1.022
 7787SOL    HW224261   2.484   3.583   0.957
 7788SOL     OW24262   1.571   5.996   1.914
 7788SOL    HW124263   1.525   5.937   1.847
 7788SOL    HW224264   1.647   6.044   1.869
 7789SOL     OW24265   3.411   6.858   6.109
 7789SOL    HW124266   3.488   6.877   6.171
 7789SOL    HW224267   3.365   6.944   6.086
 7790SOL     OW24268   6.456   5.119   2.521
 7790SOL    HW124269   6.406   5.036   2.544
 7790SOL    HW224270   6.513   5.146   2.599
 7791SOL     OW24271   2.076   5.825   1.553
 7791SOL    HW124272   2.085   5.776   1.640
 7791SOL    HW224273   2.098   5.763   1.478
 7792SOL     OW24274   0.478   1.224   2.936
 7792SOL    HW124275   0.407   1.294   2.941
 7792SOL    HW224276   0.511   1.205   3.029
 7793SOL     OW24277   4.180   1.999   6.823
 7793SOL    HW124278   4.092   2.000   6.870
 7793SOL    HW224279   4.232   1.918   6.851
 7794SOL     OW24280   0.695   5.400   2.535
 7794SOL    HW124281   0.777   5.436   2.580
 7794SOL    HW224282   0.642   5.346   2.601
 7795SOL     OW24283   3.143   5.190   5.556
 7795SOL    HW124284   3.228   5.213   5.510
 7795SOL    HW224285   3.079   5.267   5.550
 7796SOL     OW24286   3.608   3.281   5.456
 7796SOL    HW124287   3.630   3.280   5.554
 7796SOL    HW224288   3.688   3.252   5.404
 7797SOL     OW24289   1.065   5.277   2.183
 7797SOL    HW124290   1.081   5.323   2.096
 7797SOL    HW224291   1.070   5.178   2.170
 7798SOL     OW24292   0.705   1.508   1.775
 7798SOL    HW124293   0.656   1.430   1.735
 7798SOL    HW224294   0.724   1.575   1.705
 7799SOL     OW24295   2.552   6.006   2.710
 7799SOL    HW124296   2.579   5.913   2.733
 7799SOL    HW224297   2.622   6.048   2.652
 7800SOL     OW24298   1.056   5.741   1.025
 7800SOL    HW124299   0.966   5.730   1.067
 7800SOL    HW224300   1.046   5.776   0.932
 7801SOL     OW24301   1.897   2.281   2.657
 7801SOL    HW124302   1.995   2.267   2.644
 7801SOL    HW224303   1.882   2.339   2.737
 7802SOL     OW24304   6.992   4.626   6.198
 7802SOL    HW124305   7.018   4.588   6.287
 7802SOL    HW224306   0.009   4.716   6.188
 7803SOL     OW24307   5.532   2.484   6.528
 7803SOL    HW124308   5.546   2.578   6.558
 7803SOL    HW224309   5.619   2.435   6.529
 7804SOL     OW24310   2.501   2.104   3.787
 7804SOL    HW124311   2.523   2.119   3.884
 7804SOL    HW224312   2.442   2.024   3.779
 7805SOL     OW24313   5.269   2.836   1.996
 7805SOL    HW124314   5.299   2.839   2.092
 7805SOL    HW224315   5.289   2.745   1.959
 7806SOL     OW24316   6.634   2.625   5.486
 7806SOL    HW124317   6.670   2.601   5.577
 7806SOL    HW224318   6.654   2.551   5.422
 7807SOL     OW24319   2.091   4.992   6.178
 7807SOL    HW124320   2.150   5.046   6.238
 7807SOL    HW224321   2.146   4.944   6.111
 7808SOL     OW24322   4.579   4.472   2.660
 7808SOL    HW124323   4.654   4.528   2.626
 7808SOL    HW224324   4.598   4.375   2.643
 7809SOL     OW24325   4.997   4.851   4.270
 7809SOL    HW124326   4.946   4.833   4.353
 7809SOL    HW224327   5.031   4.945   4.270
 7810SOL     OW24328   4.234   6.295   4.863
 7810SOL    HW124329   4.281   6.328   4.781
 7810SOL    HW224330   4.300   6.284   4.937
 7811SOL     OW24331   0.914   6.067   2.806
 7811SOL    HW124332   0.982   6.130   2.844
 7811SOL    HW224333   0.897   5.993   2.871
 7812SOL     OW24334   2.435   2.737   5.212
 7812SOL    HW124335   2.528   2.703   5.224
 7812SOL    HW224336   2.439   2.836   5.194
 7813SOL     OW24337   4.888   2.904   1.229
 7813SOL    HW124338   4.868   2.838   1.157
 7813SOL    HW224339   4.931   2.857   1.306
 7814SOL     OW24340   6.727   3.144   1.989
 7814SOL    HW124341   6.654   3.109   2.048
 7814SOL    HW224342   6.688   3.169   1.900
 7815SOL     OW24343   6.045   2.161   4.868
 7815SOL    HW124344   6.076   2.079   4.820
 7815SOL    HW224345   6.118   2.229   4.869
 7816SOL     OW24346   0.293   1.680   5.579
 7816SOL    HW124347   0.266   1.639   5.666
 7816SOL    HW224348   0.213   1.722   5.536
 7817SOL     OW24349   3.693   4.064   5.893
 7817SOL    HW124350   3.648   3.993   5.839
 7817SOL    HW224351   3.782   4.030   5.924
 7818SOL     OW24352   4.956   1.148   2.150
 7818SOL    HW124353   4.977   1.067   2.204
 7818SOL    HW224354   4.973   1.230   2.206
 7819SOL     OW24355   0.569   3.520   4.089
 7819SOL    HW124356   0.539   3.493   3.998
 7819SOL    HW224357   0.611   3.442   4.135
 7820SOL     OW24358   1.830   0.707   5.265
 7820SOL    HW124359   1.741   0.668   5.244
 7820SOL    HW224360   1.826   0.756   5.352
 7821SOL     OW24361   6.312   6.275   0.067
 7821SOL    HW124362   6.247   6.229   0.007
 7821SOL    HW224363   6.370   6.208   0.112
 7822SOL     OW24364   1.316   1.268   4.998
 7822SOL    HW124365   1.414   1.252   5.009
 7822SOL    HW224366   1.273   1.186   4.960
 7823SOL     OW24367   1.437   4.488   6.634
 7823SOL    HW124368   1.421   4.390   6.621
 7823SOL    HW224369   1.444   4.508   6.732
 7824SOL     OW24370   5.348   1.444   3.710
 7824SOL    HW124371   5.316   1.538   3.721
 7824SOL    HW224372   5.445   1.439   3.733
 7825SOL     OW24373   2.182   2.978   1.084
 7825SOL    HW124374   2.149   3.068   1.112
 7825SOL    HW224375   2.161   2.911   1.154
 7826SOL     OW24376   5.641   0.853   0.450
 7826SOL    HW124377   5.630   0.926   0.382
 7826SOL    HW224378   5.579   0.778   0.428
 7827SOL     OW24379   4.173   4.896   1.649
 7827SOL    HW124380   4.190   4.979   1.596
 7827SOL    HW224381   4.257   4.869   1.697
 7828SOL     OW24382   0.802   6.021   0.826
 7828SOL    HW124383   0.779   6.102   0.773
 7828SOL    HW224384   0.774   6.034   0.921
 7829SOL     OW24385   2.433   3.311   1.431
 7829SOL    HW124386   2.342   3.275   1.454
 7829SOL    HW224387   2.502   3.259   1.481
 7830SOL     OW24388   5.626   3.460   6.275
 7830SOL    HW124389   5.559   3.461   6.200
 7830SOL    HW224390   5.578   3.464   6.362
 7831SOL     OW24391   1.691   4.009   0.230
 7831SOL    HW124392   1.688   4.101   0.269
 7831SOL    HW224393   1.722   3.944   0.299
 7832SOL     OW24394   3.324   1.886   4.966
 7832SOL    HW124395   3.268   1.890   4.882
 7832SOL    HW224396   3.335   1.979   5.002
 7833SOL     OW24397   0.474   0.271   0.482
 7833SOL    HW124398   0.492   0.287   0.579
 7833SOL    HW224399   0.561   0.253   0.435
 7834SOL     OW24400   0.250   1.193   2.221
 7834SOL    HW124401   0.291   1.220   2.134
 7834SOL    HW224402   0.274   1.099   2.242
 7835SOL     OW24403   2.297   2.849   4.631
 7835SOL    HW124404   2.332   2.805   4.548
 7835SOL    HW224405   2.328   2.797   4.711
 7836SOL     OW24406   3.224   6.715   6.291
 7836SOL    HW124407   3.308   6.666   6.265
 7836SOL    HW224408   3.247   6.789   6.355
 7837SOL     OW24409   6.230   6.289   2.443
 7837SOL    HW124410   6.215   6.200   2.398
 7837SOL    HW224411   6.142   6.334   2.458
 7838SOL     OW24412   5.025   6.419   4.948
 7838SOL    HW124413   4.985   6.445   5.036
 7838SOL    HW224414   4.962   6.357   4.901
 7839SOL     OW24415   6.130   3.765   4.430
 7839SOL    HW124416   6.197   3.703   4.470
 7839SOL    HW224417   6.139   3.856   4.471
 7840SOL     OW24418   4.985   2.313   4.334
 7840SOL    HW124419   5.012   2.261   4.415
 7840SOL    HW224420   5.066   2.343   4.285
 7841SOL     OW24421   5.540   2.744   6.676
 7841SOL    HW124422   5.636   2.718   6.679
 7841SOL    HW224423   5.530   2.838   6.709
 7842SOL     OW24424   1.337   1.495   3.548
 7842SOL    HW124425   1.301   1.574   3.597
 7842SOL    HW224426   1.413   1.456   3.600
 7843SOL     OW24427   5.634   3.765   1.135
 7843SOL    HW124428   5.576   3.717   1.200
 7843SOL    HW224429   5.666   3.851   1.176
 7844SOL     OW24430   4.456   1.127   3.487
 7844SOL    HW124431   4.384   1.169   3.542
 7844SOL    HW224432   4.471   1.033   3.517
 7845SOL     OW24433   0.947   0.780   4.038
 7845SOL    HW124434   0.961   0.769   3.940
 7845SOL    HW224435   0.971   0.873   4.065
 7846SOL     OW24436   2.162   1.148   1.399
 7846SOL    HW124437   2.087   1.082   1.404
 7846SOL    HW224438   2.142   1.214   1.326
 7847SOL     OW24439   0.554   1.093   0.888
 7847SOL    HW124440   0.541   1.068   0.792
 7847SOL    HW224441   0.633   1.045   0.925
 7848SOL     OW24442   3.813   4.469   1.232
 7848SOL    HW124443   3.792   4.485   1.135
 7848SOL    HW224444   3.728   4.463   1.284
 7849SOL     OW24445   5.030   3.403   3.663
 7849SOL    HW124446   5.028   3.303   3.652
 7849SOL    HW224447   5.098   3.442   3.602
 7850SOL     OW24448   0.291   1.387   4.044
 7850SOL    HW124449   0.267   1.312   4.106
 7850SOL    HW224450   0.313   1.350   3.954
 7851SOL     OW24451   6.096   6.475   0.051
 7851SOL    HW124452   6.035   6.415   7.024
 7851SOL    HW224453   6.154   6.420   0.111
 7852SOL     OW24454   2.632   6.501   0.077
 7852SOL    HW124455   2.553   6.559   0.054
 7852SOL    HW224456   2.711   6.558   0.098
 7853SOL     OW24457   2.964   1.411   0.425
 7853SOL    HW124458   2.897   1.344   0.393
 7853SOL    HW224459   3.032   1.427   0.354
 7854SOL     OW24460   3.711   3.666   1.462
 7854SOL    HW124461   3.802   3.707   1.455
 7854SOL    HW224462   3.649   3.731   1.506
 7855SOL     OW24463   4.284   5.814   6.444
 7855SOL    HW124464   4.337   5.731   6.463
 7855SOL    HW224465   4.286   5.833   6.346
 7856SOL     OW24466   6.684   4.281   4.585
 7856SOL    HW124467   6.665   4.186   4.561
 7856SOL    HW224468   6.693   4.335   4.502
 7857SOL     OW24469   6.260   2.570   6.042
 7857SOL    HW124470   6.289   2.597   5.951
 7857SOL    HW224471   6.211   2.482   6.036
 7858SOL     OW24472   5.636   4.306   3.828
 7858SOL    HW124473   5.699   4.253   3.885
 7858SOL    HW224474   5.671   4.311   3.735
 7859SOL     OW24475   0.932   4.230   6.393
 7859SOL    HW124476   0.953   4.274   6.306
 7859SOL    HW224477   0.837   4.250   6.418
 7860SOL     OW24478   4.018   6.435   2.511
 7860SOL    HW124479   4.021   6.438   2.611
 7860SOL    HW224480   3.925   6.457   2.480
 7861SOL     OW24481   4.436   5.271   1.792
 7861SOL    HW124482   4.394   5.362   1.795
 7861SOL    HW224483   4.508   5.270   1.723
 7862SOL     OW24484   2.909   4.299   1.627
 7862SOL    HW124485   2.907   4.367   1.700
 7862SOL    HW224486   2.842   4.324   1.557
 7863SOL     OW24487   6.504   6.150   3.416
 7863SOL    HW124488   6.525   6.125   3.510
 7863SOL    HW224489   6.407   6.169   3.407
 7864SOL     OW24490   0.251   6.386   5.409
 7864SOL    HW124491   0.167   6.391   5.463
 7864SOL    HW224492   0.235   6.424   5.318
 7865SOL     OW24493   3.861   6.369   3.656
 7865SOL    HW124494   3.824   6.314   3.731
 7865SOL    HW224495   3.835   6.329   3.569
 7866SOL     OW24496   2.989   1.429   2.337
 7866SOL    HW124497   2.997   1.521   2.377
 7866SOL    HW224498   3.081   1.393   2.320
 7867SOL     OW24499   5.726   5.933   2.835
 7867SOL    HW124500   5.819   5.935   2.872
 7867SOL    HW224501   5.710   5.844   2.790
 7868SOL     OW24502   5.211   6.399   1.725
 7868SOL    HW124503   5.153   6.433   1.799
 7868SOL    HW224504   5.291   6.457   1.716
 7869SOL     OW24505   6.504   3.551   1.037
 7869SOL    HW124506   6.565   3.520   1.110
 7869SOL    HW224507   6.434   3.481   1.020
 7870SOL     OW24508   6.273   5.203   3.579
 7870SOL    HW124509   6.312   5.238   3.494
 7870SOL    HW224510   6.180   5.237   3.590
 7871SOL     OW24511   5.878   2.924   3.385
 7871SOL    HW124512   5.904   3.011   3.342
 7871SOL    HW224513   5.802   2.939   3.448
 7872SOL     OW24514   1.039   3.842   2.977
 7872SOL    HW124515   1.035   3.830   2.878
 7872SOL    HW224516   1.112   3.785   3.015
 7873SOL     OW24517   6.735   0.673   6.084
 7873SOL    HW124518   6.792   0.754   6.092
 7873SOL    HW224519   6.681   0.678   6.000
 7874SOL     OW24520   6.642   1.420   6.959
 7874SOL    HW124521   6.567   1.430   6.894
 7874SOL    HW224522   6.657   1.508   7.006
 7875SOL     OW24523   4.876   4.531   0.274
 7875SOL    HW124524   4.799   4.488   0.227
 7875SOL    HW224525   4.890   4.487   0.363
 7876SOL     OW24526   6.784   0.399   5.015
 7876SOL    HW124527   6.810   0.454   5.094
 7876SOL    HW224528   6.863   0.348   4.982
 7877SOL     OW24529   0.056   1.880   3.043
 7877SOL    HW124530   0.022   1.889   3.137
 7877SOL    HW224531   0.110   1.796   3.036
 7878SOL     OW24532   4.914   4.524   2.759
 7878SOL    HW124533   4.882   4.587   2.829
 7878SOL    HW224534   4.887   4.558   2.669
 7879SOL     OW24535   4.859   5.789   3.250
 7879SOL    HW124536   4.926   5.820   3.183
 7879SOL    HW224537   4.907   5.742   3.324
 7880SOL     OW24538   0.735   6.368   0.280
 7880SOL    HW124539   0.769   6.278   0.308
 7880SOL    HW224540   0.682   6.360   0.196
 7881SOL     OW24541   7.022   3.903   4.312
 7881SOL    HW124542   0.080   3.958   4.324
 7881SOL    HW224543   6.963   3.914   4.392
 7882SOL     OW24544   1.054   2.873   2.529
 7882SOL    HW124545   1.111   2.942   2.574
 7882SOL    HW224546   1.018   2.810   2.598
 7883SOL     OW24547   2.460   1.136   1.729
 7883SOL    HW124548   2.479   1.078   1.808
 7883SOL    HW224549   2.364   1.163   1.730
 7884SOL     OW24550   1.488   4.278   3.702
 7884SOL    HW124551   1.500   4.340   3.625
 7884SOL    HW224552   1.450   4.328   3.780
 7885SOL     OW24553   5.975   5.506   2.687
 7885SOL    HW124554   6.048   5.439   2.679
 7885SOL    HW224555   5.984   5.556   2.773
 7886SOL     OW24556   5.092   3.456   1.548
 7886SOL    HW124557   5.067   3.549   1.523
 7886SOL    HW224558   5.146   3.456   1.632
 7887SOL     OW24559   3.334   3.200   5.550
 7887SOL    HW124560   3.278   3.256   5.488
 7887SOL    HW224561   3.426   3.239   5.556
 7888SOL     OW24562   6.383   1.685   3.873
 7888SOL    HW124563   6.460   1.728   3.826
 7888SOL    HW224564   6.332   1.629   3.807
 7889SOL     OW24565   6.469   5.618   0.422
 7889SOL    HW124566   6.552   5.635   0.476
 7889SOL    HW224567   6.437   5.524   0.440
 7890SOL     OW24568   1.563   2.667   4.239
 7890SOL    HW124569   1.505   2.626   4.309
 7890SOL    HW224570   1.573   2.765   4.257
 7891SOL     OW24571   0.848   2.846   4.298
 7891SOL    HW124572   0.808   2.773   4.353
 7891SOL    HW224573   0.931   2.812   4.253
 7892SOL     OW24574   1.895   2.286   4.342
 7892SOL    HW124575   1.853   2.201   4.373
 7892SOL    HW224576   1.915   2.344   4.422
 7893SOL     OW24577   6.591   6.554   1.998
 7893SOL    HW124578   6.508   6.508   2.030
 7893SOL    HW224579   6.568   6.613   1.921
 7894SOL     OW24580   2.567   1.858   6.646
 7894SOL    HW124581   2.495   1.862   6.715
 7894SOL    HW224582   2.552   1.929   6.578
 7895SOL     OW24583   3.615   6.040   4.252
 7895SOL    HW124584   3.704   6.085   4.265
 7895SOL    HW224585   3.628   5.953   4.205
 7896SOL     OW24586   4.476   3.200   1.411
 7896SOL    HW124587   4.427   3.130   1.463
 7896SOL    HW224588   4.550   3.157   1.358
 7897SOL     OW24589   3.429   4.240   6.485
 7897SOL    HW124590   3.437   4.309   6.556
 7897SOL    HW224591   3.359   4.267   6.419
 7898SOL     OW24592   4.965   0.438   4.036
 7898SOL    HW124593   4.888   0.376   4.019
 7898SOL    HW224594   4.950   0.488   4.121
 7899SOL     OW24595   5.600   5.648   1.693
 7899SOL    HW124596   5.514   5.697   1.707
 7899SOL    HW224597   5.627   5.657   1.597
 7900SOL     OW24598   0.154   4.060   0.552
 7900SOL    HW124599   0.249   4.040   0.577
 7900SOL    HW224600   0.127   4.001   0.476
 7901SOL     OW24601   5.043   1.147   6.180
 7901SOL    HW124602   5.004   1.216   6.242
 7901SOL    HW224603   5.143   1.157   6.179
 7902SOL     OW24604   0.436   6.225   3.168
 7902SOL    HW124605   0.337   6.216   3.155
 7902SOL    HW224606   0.481   6.227   3.079
 7903SOL     OW24607   3.386   1.588   3.857
 7903SOL    HW124608   3.428   1.624   3.774
 7903SOL    HW224609   3.369   1.663   3.922
 7904SOL     OW24610   6.327   0.681   2.724
 7904SOL    HW124611   6.424   0.657   2.734
 7904SOL    HW224612   6.292   0.714   2.812
 7905SOL     OW24613   5.358   0.943   0.459
 7905SOL    HW124614   5.415   0.960   0.539
 7905SOL    HW224615   5.379   0.853   0.420
 7906SOL     OW24616   1.530   5.028   1.323
 7906SOL    HW124617   1.582   4.995   1.245
 7906SOL    HW224618   1.450   4.970   1.337
 7907SOL     OW24619   5.891   0.386   3.085
 7907SOL    HW124620   5.925   0.420   2.997
 7907SOL    HW224621   5.859   0.292   3.075
 7908SOL     OW24622   0.486   1.955   7.009
 7908SOL    HW124623   0.529   2.037   0.023
 7908SOL    HW224624   0.406   1.982   6.955
 7909SOL     OW24625   5.149   4.368   2.810
 7909SOL    HW124626   5.070   4.429   2.800
 7909SOL    HW224627   5.118   4.277   2.835
 7910SOL     OW24628   1.692   3.219   0.688
 7910SOL    HW124629   1.687   3.276   0.606
 7910SOL    HW224630   1.599   3.197   0.718
 7911SOL     OW24631   0.962   4.136   1.094
 7911SOL    HW124632   0.983   4.192   1.175
 7911SOL    HW224633   1.038   4.075   1.075
 7912SOL     OW24634   5.696   5.592   0.250
 7912SOL    HW124635   5.661   5.502   0.276
 7912SOL    HW224636   5.765   5.582   0.178
 7913SOL     OW24637   1.844   3.938   0.976
 7913SOL    HW124638   1.774   4.010   0.974
 7913SOL    HW224639   1.906   3.951   0.899
 7914SOL     OW24640   6.917   5.396   6.440
 7914SOL    HW124641   6.879   5.467   6.499
 7914SOL    HW224642   6.949   5.438   6.354
 7915SOL     OW24643   4.134   0.755   2.813
 7915SOL    HW124644   4.229   0.763   2.841
 7915SOL    HW224645   4.126   0.774   2.715
 7916SOL     OW24646   0.278   0.298   4.767
 7916SOL    HW124647   0.345   0.278   4.696
 7916SOL    HW224648   0.260   0.215   4.820
 7917SOL     OW24649   3.868   2.658   6.456
 7917SOL    HW124650   3.963   2.636   6.435
 7917SOL    HW224651   3.835   2.600   6.530
 7918SOL     OW24652   1.790   1.339   4.884
 7918SOL    HW124653   1.728   1.287   4.826
 7918SOL    HW224654   1.775   1.314   4.980
 7919SOL     OW24655   1.014   5.098   3.130
 7919SOL    HW124656   1.096   5.138   3.170
 7919SOL    HW224657   1.010   5.001   3.152
 7920SOL     OW24658   5.035   0.828   1.615
 7920SOL    HW124659   5.135   0.830   1.615
 7920SOL    HW224660   5.001   0.873   1.698
 7921SOL     OW24661   5.031   1.837   1.801
 7921SOL    HW124662   5.125   1.867   1.814
 7921SOL    HW224663   4.986   1.898   1.735
 7922SOL     OW24664   0.852   6.478   6.464
 7922SOL    HW124665   0.818   6.570   6.443
 7922SOL    HW224666   0.777   6.423   6.500
 7923SOL     OW24667   3.031   2.151   6.440
 7923SOL    HW124668   3.106   2.197   6.393
 7923SOL    HW224669   2.980   2.218   6.495
 7924SOL     OW24670   5.757   6.802   1.015
 7924SOL    HW124671   5.671   6.840   0.981
 7924SOL    HW224672   5.750   6.785   1.113
 7925SOL     OW24673   2.430   6.650   0.949
 7925SOL    HW124674   2.408   6.588   1.024
 7925SOL    HW224675   2.379   6.623   0.867
 7926SOL     OW24676   5.563   1.132   6.493
 7926SOL    HW124677   5.562   1.050   6.434
 7926SOL    HW224678   5.651   1.178   6.483
 7927SOL     OW24679   5.369   0.134   2.280
 7927SOL    HW124680   5.320   0.221   2.268
 7927SOL    HW224681   5.364   0.106   2.376
 7928SOL     OW24682   6.723   1.139   3.468
 7928SOL    HW124683   6.690   1.225   3.428
 7928SOL    HW224684   6.688   1.131   3.562
 7929SOL     OW24685   4.365   4.126   6.867
 7929SOL    HW124686   4.314   4.091   6.945
 7929SOL    HW224687   4.446   4.069   6.851
 7930SOL     OW24688   3.589   5.585   6.063
 7930SOL    HW124689   3.659   5.640   6.109
 7930SOL    HW224690   3.623   5.556   5.974
 7931SOL     OW24691   3.296   2.854   0.464
 7931SOL    HW124692   3.245   2.811   0.539
 7931SOL    HW224693   3.385   2.883   0.498
 7932SOL     OW24694   6.844   5.476   0.782
 7932SOL    HW124695   6.797   5.556   0.819
 7932SOL    HW224696   6.924   5.505   0.730
 7933SOL     OW24697   6.579   0.648   5.868
 7933SOL    HW124698   6.608   0.641   5.773
 7933SOL    HW224699   6.480   0.664   5.872
 7934SOL     OW24700   1.780   4.969   0.726
 7934SOL    HW124701   1.742   5.016   0.805
 7934SOL    HW224702   1.787   5.032   0.649
 7935SOL     OW24703   5.507   4.290   2.377
 7935SOL    HW124704   5.478   4.240   2.296
 7935SOL    HW224705   5.583   4.243   2.420
 7936SOL     OW24706   2.714   6.476   3.678
 7936SOL    HW124707   2.636   6.434   3.723
 7936SOL    HW224708   2.761   6.537   3.742
 7937SOL     OW24709   1.433   6.025   4.586
 7937SOL    HW124710   1.484   5.942   4.610
 7937SOL    HW224711   1.395   6.066   4.669
 7938SOL     OW24712   5.375   0.418   5.407
 7938SOL    HW124713   5.325   0.370   5.335
 7938SOL    HW224714   5.335   0.509   5.421
 7939SOL     OW24715   0.690   1.875   5.073
 7939SOL    HW124716   0.740   1.805   5.125
 7939SOL    HW224717   0.730   1.885   4.982
 7940SOL     OW24718   3.941   1.785   2.147
 7940SOL    HW124719   3.985   1.868   2.181
 7940SOL    HW224720   3.862   1.810   2.091
 7941SOL     OW24721   4.414   6.412   3.033
 7941SOL    HW124722   4.510   6.421   3.058
 7941SOL    HW224723   4.358   6.459   3.102
 7942SOL     OW24724   0.889   2.753   2.035
 7942SOL    HW124725   0.911   2.806   2.116
 7942SOL    HW224726   0.972   2.713   1.997
 7943SOL     OW24727   1.403   4.628   5.659
 7943SOL    HW124728   1.498   4.602   5.674
 7943SOL    HW224729   1.348   4.547   5.640
 7944SOL     OW24730   0.865   2.439   1.809
 7944SOL    HW124731   0.807   2.482   1.879
 7944SOL    HW224732   0.813   2.431   1.724
 7945SOL     OW24733   6.174   5.332   2.736
 7945SOL    HW124734   6.159   5.233   2.733
 7945SOL    HW224735   6.243   5.353   2.805
 7946SOL     OW24736   4.012   6.896   5.637
 7946SOL    HW124737   3.990   6.813   5.688
 7946SOL    HW224738   3.996   6.976   5.694
 7947SOL     OW24739   1.982   2.373   5.061
 7947SOL    HW124740   1.979   2.408   5.155
 7947SOL    HW224741   1.889   2.365   5.026
 7948SOL     OW24742   1.398   4.614   1.870
 7948SOL    HW124743   1.440   4.658   1.950
 7948SOL    HW224744   1.428   4.661   1.787
 7949SOL     OW24745   4.539   4.659   5.821
 7949SOL    HW124746   4.538   4.741   5.765
 7949SOL    HW224747   4.511   4.580   5.766
 7950SOL     OW24748   6.082   5.974   5.385
 7950SOL    HW124749   5.983   5.971   5.393
 7950SOL    HW224750   6.114   6.068   5.385
 7951SOL     OW24751   2.738   5.125   2.981
 7951SOL    HW124752   2.702   5.102   2.890
 7951SOL    HW224753   2.802   5.202   2.973
 7952SOL     OW24754   6.208   3.640   0.000
 7952SOL    HW124755   6.257   3.559   6.995
 7952SOL    HW224756   6.129   3.655   6.966
 7953SOL     OW24757   3.998   1.679   0.695
 7953SOL    HW124758   4.062   1.742   0.738
 7953SOL    HW224759   3.969   1.717   0.607
 7954SOL     OW24760   4.134   3.766   6.169
 7954SOL    HW124761   4.183   3.822   6.236
 7954SOL    HW224762   4.133   3.813   6.081
 7955SOL     OW24763   2.177   1.168   6.041
 7955SOL    HW124764   2.083   1.178   6.009
 7955SOL    HW224765   2.186   1.210   6.131
 7956SOL     OW24766   5.667   1.824   1.631
 7956SOL    HW124767   5.757   1.814   1.589
 7956SOL    HW224768   5.598   1.780   1.574
 7957SOL     OW24769   3.980   0.094   5.783
 7957SOL    HW124770   3.913   0.142   5.726
 7957SOL    HW224771   4.029   0.160   5.839
 7958SOL     OW24772   5.700   4.383   6.608
 7958SOL    HW124773   5.624   4.389   6.673
 7958SOL    HW224774   5.774   4.443   6.637
 7959SOL     OW24775   5.090   0.778   6.230
 7959SOL    HW124776   4.993   0.803   6.219
 7959SOL    HW224777   5.137   0.851   6.279
 7960SOL     OW24778   0.094   1.155   6.423
 7960SOL    HW124779   0.072   1.080   6.361
 7960SOL    HW224780   0.122   1.118   6.512
 7961SOL     OW24781   6.568   6.803   0.865
 7961SOL    HW124782   6.658   6.846   0.856
 7961SOL    HW224783   6.510   6.831   0.789
 7962SOL     OW24784   6.970   1.369   6.486
 7962SOL    HW124785   0.010   1.298   6.459
 7962SOL    HW224786   7.017   1.458   6.490
 7963SOL     OW24787   6.146   4.397   3.986
 7963SOL    HW124788   6.196   4.329   4.039
 7963SOL    HW224789   6.123   4.475   4.045
 7964SOL     OW24790   6.889   2.978   1.841
 7964SOL    HW124791   6.843   3.052   1.891
 7964SOL    HW224792   6.823   2.930   1.784
 7965SOL     OW24793   4.917   2.666   0.108
 7965SOL    HW124794   4.821   2.645   0.123
 7965SOL    HW224795   4.926   2.755   0.065
 7966SOL     OW24796   4.254   3.543   6.015
 7966SOL    HW124797   4.231   3.628   6.062
 7966SOL    HW224798   4.205   3.539   5.928
 7967SOL     OW24799   1.808   5.168   2.071
 7967SOL    HW124800   1.906   5.188   2.061
 7967SOL    HW224801   1.757   5.254   2.077
 7968SOL     OW24802   6.637   1.631   4.990
 7968SOL    HW124803   6.694   1.696   5.041
 7968SOL    HW224804   6.574   1.681   4.932
 7969SOL     OW24805   4.856   6.025   0.317
 7969SOL    HW124806   4.852   6.112   0.366
 7969SOL    HW224807   4.940   5.977   0.340
 7970SOL     OW24808   6.056   2.877   2.701
 7970SOL    HW124809   6.118   2.892   2.778
 7970SOL    HW224810   6.010   2.789   2.712
 7971SOL     OW24811   3.072   1.996   1.548
 7971SOL    HW124812   3.123   2.077   1.576
 7971SOL    HW224813   3.053   2.001   1.450
 7972SOL     OW24814   3.803   3.157   1.797
 7972SOL    HW124815   3.814   3.133   1.700
 7972SOL    HW224816   3.717   3.117   1.831
 7973SOL     OW24817   5.437   4.058   3.689
 7973SOL    HW124818   5.483   4.135   3.732
 7973SOL    HW224819   5.351   4.088   3.648
 7974SOL     OW24820   6.334   1.257   4.583
 7974SOL    HW124821   6.362   1.284   4.675
 7974SOL    HW224822   6.243   1.293   4.564
 7975SOL     OW24823   4.253   0.947   0.225
 7975SOL    HW124824   4.206   1.029   0.260
 7975SOL    HW224825   4.189   0.893   0.171
 7976SOL     OW24826   0.892   0.351   5.773
 7976SOL    HW124827   0.905   0.291   5.694
 7976SOL    HW224828   0.891   0.296   5.856
 7977SOL     OW24829   5.909   6.216   2.707
 7977SOL    HW124830   5.826   6.210   2.651
 7977SOL    HW224831   5.927   6.128   2.750
 7978SOL     OW24832   0.521   4.001   0.160
 7978SOL    HW124833   0.504   3.940   0.237
 7978SOL    HW224834   0.578   3.954   0.092
 7979SOL     OW24835   1.754   4.188   5.322
 7979SOL    HW124836   1.837   4.231   5.357
 7979SOL    HW224837   1.685   4.184   5.395
 7980SOL     OW24838   3.427   5.041   5.976
 7980SOL    HW124839   3.486   4.982   6.031
 7980SOL    HW224840   3.371   4.985   5.915
 7981SOL     OW24841   1.232   4.818   2.105
 7981SOL    HW124842   1.204   4.907   2.068
 7981SOL    HW224843   1.326   4.799   2.077
 7982SOL     OW24844   1.299   1.316   5.792
 7982SOL    HW124845   1.375   1.293   5.731
 7982SOL    HW224846   1.305   1.412   5.818
 7983SOL     OW24847   5.615   1.284   1.204
 7983SOL    HW124848   5.520   1.254   1.212
 7983SOL    HW224849   5.640   1.336   1.285
 7984SOL     OW24850   0.692   1.521   0.850
 7984SOL    HW124851   0.659   1.532   0.757
 7984SOL    HW224852   0.617   1.493   0.910
 7985SOL     OW24853   2.468   2.131   4.624
 7985SOL    HW124854   2.497   2.051   4.676
 7985SOL    HW224855   2.519   2.212   4.654
 7986SOL     OW24856   3.954   1.536   5.170
 7986SOL    HW124857   3.884   1.508   5.235
 7986SOL    HW224858   3.913   1.593   5.099
 7987SOL     OW24859   2.132   3.949   1.106
 7987SOL    HW124860   2.044   3.946   1.058
 7987SOL    HW224861   2.177   4.037   1.089
 7988SOL     OW24862   0.435   0.676   1.330
 7988SOL    HW124863   0.442   0.640   1.237
 7988SOL    HW224864   0.341   0.703   1.349
 7989SOL     OW24865   1.647   4.299   0.098
 7989SOL    HW124866   1.555   4.261   0.113
 7989SOL    HW224867   1.696   4.241   0.033
 7990SOL     OW24868   2.683   6.226   4.288
 7990SOL    HW124869   2.635   6.280   4.357
 7990SOL    HW224870   2.685   6.130   4.317
 7991SOL     OW24871   5.248   1.854   4.393
 7991SOL    HW124872   5.239   1.903   4.307
 7991SOL    HW224873   5.191   1.772   4.392
 7992SOL     OW24874   2.673   0.452   0.573
 7992SOL    HW124875   2.602   0.444   0.504
 7992SOL    HW224876   2.759   0.414   0.538
 7993SOL     OW24877   0.218   6.845   2.269
 7993SOL    HW124878   0.122   6.818   2.259
 7993SOL    HW224879   0.225   6.944   2.276
 7994SOL     OW24880   5.073   0.643   3.045
 7994SOL    HW124881   5.144   0.698   3.089
 7994SOL    HW224882   4.983   0.670   3.078
 7995SOL     OW24883   5.736   4.638   2.644
 7995SOL    HW124884   5.702   4.614   2.735
 7995SOL    HW224885   5.663   4.625   2.577
 7996SOL     OW24886   4.178   0.209   4.103
 7996SOL    HW124887   4.216   0.264   4.178
 7996SOL    HW224888   4.253   0.168   4.051
 7997SOL     OW24889   0.191   1.917   0.226
 7997SOL    HW124890   0.136   1.979   0.283
 7997SOL    HW224891   0.220   1.839   0.281
 7998SOL     OW24892   3.079   6.872   0.349
 7998SOL    HW124893   2.995   6.924   0.363
 7998SOL    HW224894   3.107   6.880   0.253
 7999SOL     OW24895   1.280   1.584   5.885
 7999SOL    HW124896   1.190   1.615   5.856
 7999SOL    HW224897   1.316   1.645   5.956
 8000SOL     OW24898   6.109   0.101   6.425
 8000SOL    HW124899   6.133   0.185   6.475
 8000SOL    HW224900   6.120   0.022   6.486
 8001SOL     OW24901   4.538   6.468   1.347
 8001SOL    HW124902   4.557   6.558   1.386
 8001SOL    HW224903   4.597   6.452   1.268
 8002SOL     OW24904   0.640   1.396   5.235
 8002SOL    HW124905   0.652   1.470   5.302
 8002SOL    HW224906   0.727   1.351   5.219
 8003SOL     OW24907   1.602   6.760   2.186
 8003SOL    HW124908   1.582   6.720   2.097
 8003SOL    HW224909   1.543   6.840   2.200
 8004SOL     OW24910   2.341   2.786   3.698
 8004SOL    HW124911   2.374   2.700   3.738
 8004SOL    HW224912   2.358   2.785   3.599
 8005SOL     OW24913   2.887   0.319   3.946
 8005SOL    HW124914   2.847   0.302   3.856
 8005SOL    HW224915   2.953   0.247   3.968
 8006SOL     OW24916   3.361   5.579   5.502
 8006SOL    HW124917   3.279   5.525   5.521
 8006SOL    HW224918   3.372   5.588   5.403
 8007SOL     OW24919   5.550   2.292   6.286
 8007SOL    HW124920   5.579   2.220   6.348
 8007SOL    HW224921   5.549   2.380   6.334
 8008SOL     OW24922   3.375   6.559   0.494
 8008SOL    HW124923   3.384   6.497   0.416
 8008SOL    HW224924   3.327   6.513   0.568
 8009SOL     OW24925   4.742   0.930   1.175
 8009SOL    HW124926   4.791   0.904   1.259
 8009SOL    HW224927   4.651   0.964   1.199
 8010SOL     OW24928   3.078   2.594   5.380
 8010SOL    HW124929   3.101   2.526   5.310
 8010SOL    HW224930   3.099   2.686   5.345
 8011SOL     OW24931   3.412   2.116   1.798
 8011SOL    HW124932   3.473   2.180   1.844
 8011SOL    HW224933   3.320   2.123   1.838
 8012SOL     OW24934   0.961   2.613   6.220
 8012SOL    HW124935   0.920   2.537   6.170
 8012SOL    HW224936   0.895   2.689   6.225
 8013SOL     OW24937   0.920   2.472   3.187
 8013SOL    HW124938   0.865   2.492   3.268
 8013SOL    HW224939   1.017   2.489   3.208
 8014SOL     OW24940   1.727   0.120   3.754
 8014SOL    HW124941   1.640   0.157   3.724
 8014SOL    HW224942   1.714   0.067   3.838
 8015SOL     OW24943   2.122   0.054   5.921
 8015SOL    HW124944   2.212   0.055   5.877
 8015SOL    HW224945   2.131   0.016   6.013
 8016SOL     OW24946   3.977   1.390   4.716
 8016SOL    HW124947   3.894   1.398   4.772
 8016SOL    HW224948   4.054   1.368   4.776
 8017SOL     OW24949   6.740   6.998   0.287
 8017SOL    HW124950   6.654   7.013   0.336
 8017SOL    HW224951   6.817   7.021   0.347
 8018SOL     OW24952   3.818   2.819   7.017
 8018SOL    HW124953   3.733   2.847   6.973
 8018SOL    HW224954   3.814   2.721   0.012
 8019SOL     OW24955   2.443   3.809   0.743
 8019SOL    HW124956   2.479   3.781   0.832
 8019SOL    HW224957   2.358   3.759   0.724
 8020SOL     OW24958   5.853   0.248   6.372
 8020SOL    HW124959   5.767   0.197   6.376
 8020SOL    HW224960   5.927   0.187   6.342
 8021SOL     OW24961   1.952   2.615   1.229
 8021SOL    HW124962   1.935   2.555   1.307
 8021SOL    HW224963   1.880   2.603   1.161
 8022SOL     OW24964   6.162   0.305   1.777
 8022SOL    HW124965   6.233   0.243   1.745
 8022SOL    HW224966   6.089   0.252   1.820
 8023SOL     OW24967   5.691   5.424   2.841
 8023SOL    HW124968   5.717   5.499   2.780
 8023SOL    HW224969   5.688   5.338   2.789
 8024SOL     OW24970   1.320   5.682   6.181
 8024SOL    HW124971   1.411   5.701   6.145
 8024SOL    HW224972   1.292   5.589   6.156
 8025SOL     OW24973   1.626   4.891   1.116
 8025SOL    HW124974   1.565   4.819   1.149
 8025SOL    HW224975   1.712   4.851   1.085
 8026SOL     OW24976   0.046   4.709   0.612
 8026SOL    HW124977   0.047   4.788   0.673
 8026SOL    HW224978   0.109   4.639   0.646
 8027SOL     OW24979   3.373   6.623   5.151
 8027SOL    HW124980   3.414   6.671   5.073
 8027SOL    HW224981   3.282   6.591   5.126
 8028SOL     OW24982   2.423   5.961   4.191
 8028SOL    HW124983   2.383   5.920   4.109
 8028SOL    HW224984   2.457   6.052   4.170
 8029SOL     OW24985   4.912   2.279   1.807
 8029SOL    HW124986   5.008   2.275   1.780
 8029SOL    HW224987   4.874   2.367   1.778
 8030SOL     OW24988   6.362   5.357   0.509
 8030SOL    HW124989   6.359   5.388   0.604
 8030SOL    HW224990   6.271   5.365   0.468
 8031SOL     OW24991   6.065   6.726   3.097
 8031SOL    HW124992   5.990   6.685   3.045
 8031SOL    HW224993   6.151   6.715   3.047
 8032SOL     OW24994   5.133   3.818   1.708
 8032SOL    HW124995   5.076   3.738   1.724
 8032SOL    HW224996   5.094   3.873   1.634
 8033SOL     OW24997   4.639   3.506   0.262
 8033SOL    HW124998   4.691   3.458   0.333
 8033SOL    HW224999   4.577   3.572   0.305
 8034SOL     OW25000   5.844   0.439   5.156
 8034SOL    HW125001   5.786   0.429   5.075
 8034SOL    HW225002   5.937   0.410   5.134
 8035SOL     OW25003   4.742   0.967   2.094
 8035SOL    HW125004   4.784   1.052   2.126
 8035SOL    HW225005   4.644   0.980   2.083
 8036SOL     OW25006   6.888   2.901   3.298
 8036SOL    HW125007   6.822   2.911   3.222
 8036SOL    HW225008   6.919   2.806   3.301
 8037SOL     OW25009   1.068   3.384   0.083
 8037SOL    HW125010   1.123   3.313   0.127
 8037SOL    HW225011   1.127   3.461   0.058
 8038SOL     OW25012   5.773   6.280   2.133
 8038SOL    HW125013   5.776   6.247   2.039
 8038SOL    HW225014   5.860   6.324   2.156
 8039SOL     OW25015   0.411   2.399   5.190
 8039SOL    HW125016   0.387   2.484   5.144
 8039SOL    HW225017   0.501   2.407   5.232
 8040SOL     OW25018   1.910   5.944   6.673
 8040SOL    HW125019   1.896   5.944   6.574
 8040SOL    HW225020   1.869   6.026   6.713
 8041SOL     OW25021   3.194   1.209   2.718
 8041SOL    HW125022   3.146   1.277   2.772
 8041SOL    HW225023   3.290   1.204   2.746
 8042SOL     OW25024   4.342   4.205   5.486
 8042SOL    HW125025   4.405   4.225   5.561
 8042SOL    HW225026   4.286   4.126   5.510
 8043SOL     OW25027   3.802   5.419   0.775
 8043SOL    HW125028   3.859   5.427   0.857
 8043SOL    HW225029   3.737   5.344   0.787
 8044SOL     OW25030   3.386   3.195   0.980
 8044SOL    HW125031   3.480   3.223   0.998
 8044SOL    HW225032   3.351   3.242   0.899
 8045SOL     OW25033   6.963   1.712   2.719
 8045SOL    HW125034   6.974   1.696   2.620
 8045SOL    HW225035   7.017   1.791   2.746
 8046SOL     OW25036   0.568   5.121   2.143
 8046SOL    HW125037   0.484   5.118   2.088
 8046SOL    HW225038   0.578   5.034   2.192
 8047SOL     OW25039   3.729   6.707   6.490
 8047SOL    HW125040   3.686   6.617   6.494
 8047SOL    HW225041   3.815   6.705   6.541
 8048SOL     OW25042   3.618   2.811   6.601
 8048SOL    HW125043   3.614   2.736   6.535
 8048SOL    HW225044   3.624   2.898   6.552
 8049SOL     OW25045   1.370   6.267   0.253
 8049SOL    HW125046   1.408   6.358   0.272
 8049SOL    HW225047   1.443   6.205   0.226
 8050SOL     OW25048   1.987   4.269   4.577
 8050SOL    HW125049   1.908   4.283   4.637
 8050SOL    HW225050   2.063   4.231   4.630
 8051SOL     OW25051   4.800   5.698   4.233
 8051SOL    HW125052   4.719   5.715   4.289
 8051SOL    HW225053   4.776   5.702   4.137
 8052SOL     OW25054   2.581   2.109   2.178
 8052SOL    HW125055   2.594   2.055   2.261
 8052SOL    HW225056   2.664   2.105   2.122
 8053SOL     OW25057   2.874   2.899   5.396
 8053SOL    HW125058   2.964   2.870   5.365
 8053SOL    HW225059   2.879   2.928   5.491
 8054SOL     OW25060   5.830   3.910   5.073
 8054SOL    HW125061   5.928   3.890   5.069
 8054SOL    HW225062   5.811   3.994   5.021
 8055SOL     OW25063   0.172   0.912   5.835
 8055SOL    HW125064   0.214   0.823   5.851
 8055SOL    HW225065   0.210   0.951   5.751
 8056SOL     OW25066   2.996   6.640   3.323
 8056SOL    HW125067   3.053   6.589   3.258
 8056SOL    HW225068   2.939   6.577   3.375
 8057SOL     OW25069   2.839   1.872   2.163
 8057SOL    HW125070   2.822   1.928   2.082
 8057SOL    HW225071   2.864   1.779   2.135
 8058SOL     OW25072   2.852   6.547   2.810
 8058SOL    HW125073   2.840   6.502   2.898
 8058SOL    HW225074   2.775   6.609   2.793
 8059SOL     OW25075   3.475   0.948   5.595
 8059SOL    HW125076   3.449   0.899   5.678
 8059SOL    HW225077   3.563   0.915   5.562
 8060SOL     OW25078   6.939   0.965   5.900
 8060SOL    HW125079   6.944   0.965   6.000
 8060SOL    HW225080   0.006   0.959   5.861
 8061SOL     OW25081   0.138   1.017   3.003
 8061SOL    HW125082   0.160   1.011   2.906
 8061SOL    HW225083   0.211   1.065   3.051
 8062SOL     OW25084   4.164   5.390   4.898
 8062SOL    HW125085   4.251   5.403   4.851
 8062SOL    HW225086   4.180   5.380   4.996
 8063SOL     OW25087   2.944   1.106   2.633
 8063SOL    HW125088   3.022   1.156   2.670
 8063SOL    HW225089   2.861   1.134   2.682
 8064SOL     OW25090   6.539   3.202   0.041
 8064SOL    HW125091   6.632   3.237   0.046
 8064SOL    HW225092   6.514   3.164   0.131
 8065SOL     OW25093   3.816   0.092   4.802
 8065SOL    HW125094   3.870   0.085   4.718
 8065SOL    HW225095   3.818   0.004   4.850
 8066SOL     OW25096   6.530   0.432   4.376
 8066SOL    HW125097   6.500   0.464   4.466
 8066SOL    HW225098   6.533   0.509   4.313
 8067SOL     OW25099   5.204   2.544   3.886
 8067SOL    HW125100   5.165   2.625   3.929
 8067SOL    HW225101   5.168   2.462   3.930
 8068SOL     OW25102   0.546   4.826   0.903
 8068SOL    HW125103   0.533   4.882   0.821
 8068SOL    HW225104   0.476   4.755   0.906
 8069SOL     OW25105   2.686   5.044   1.626
 8069SOL    HW125106   2.649   4.951   1.636
 8069SOL    HW225107   2.786   5.040   1.634
 8070SOL     OW25108   3.897   3.617   0.834
 8070SOL    HW125109   3.873   3.524   0.806
 8070SOL    HW225110   3.862   3.682   0.766
 8071SOL     OW25111   3.923   6.879   4.870
 8071SOL    HW125112   3.912   6.790   4.916
 8071SOL    HW225113   3.965   6.865   4.781
 8072SOL     OW25114   3.460   2.648   0.796
 8072SOL    HW125115   3.465   2.584   0.872
 8072SOL    HW225116   3.382   2.709   0.809
 8073SOL     OW25117   2.760   6.885   5.577
 8073SOL    HW125118   2.823   6.919   5.508
 8073SOL    HW225119   2.769   6.785   5.584
 8074SOL     OW25120   2.238   1.338   1.036
 8074SOL    HW125121   2.215   1.397   1.113
 8074SOL    HW225122   2.293   1.390   0.970
 8075SOL     OW25123   0.520   6.824   0.876
 8075SOL    HW125124   0.443   6.887   0.882
 8075SOL    HW225125   0.573   6.843   0.793
 8076SOL     OW25126   0.384   0.041   6.209
 8076SOL    HW125127   0.392   6.966   6.204
 8076SOL    HW225128   0.417   0.082   6.124
 8077SOL     OW25129   3.765   5.985   2.401
 8077SOL    HW125130   3.694   6.001   2.333
 8077SOL    HW225131   3.844   5.943   2.358
 8078SOL     OW25132   0.890   1.699   0.952
 8078SOL    HW125133   0.902   1.752   0.868
 8078SOL    HW225134   0.818   1.631   0.938
 8079SOL     OW25135   6.698   1.596   3.975
 8079SOL    HW125136   6.773   1.659   3.998
 8079SOL    HW225137   6.722   1.547   3.891
 8080SOL     OW25138   1.681   2.781   1.788
 8080SOL    HW125139   1.618   2.741   1.721
 8080SOL    HW225140   1.657   2.748   1.880
 8081SOL     OW25141   6.375   5.002   5.544
 8081SOL    HW125142   6.431   4.988   5.462
 8081SOL    HW225143   6.282   5.029   5.516
 8082SOL     OW25144   3.381   0.631   2.182
 8082SOL    HW125145   3.327   0.633   2.266
 8082SOL    HW225146   3.479   0.630   2.205
 8083SOL     OW25147   5.288   2.836   4.329
 8083SOL    HW125148   5.305   2.738   4.318
 8083SOL    HW225149   5.358   2.888   4.282
 8084SOL     OW25150   3.045   1.043   5.689
 8084SOL    HW125151   3.105   1.098   5.630
 8084SOL    HW225152   3.025   0.956   5.643
 8085SOL     OW25153   6.702   6.277   3.052
 8085SOL    HW125154   6.638   6.293   2.977
 8085SOL    HW225155   6.671   6.326   3.134
 8086SOL     OW25156   0.051   1.130   1.097
 8086SOL    HW125157   0.148   1.145   1.081
 8086SOL    HW225158   0.031   1.140   1.194
 8087SOL     OW25159   1.765   0.180   6.215
 8087SOL    HW125160   1.770   0.217   6.122
 8087SOL    HW225161   1.749   0.254   6.280
 8088SOL     OW25162   5.818   7.012   6.551
 8088SOL    HW125163   5.773   6.968   6.629
 8088SOL    HW225164   5.917   7.001   6.559
 8089SOL     OW25165   5.861   2.748   6.480
 8089SOL    HW125166   5.806   2.765   6.398
 8089SOL    HW225167   5.923   2.671   6.463
 8090SOL     OW25168   4.221   1.427   6.024
 8090SOL    HW125169   4.317   1.425   6.050
 8090SOL    HW225170   4.209   1.381   5.936
 8091SOL     OW25171   1.664   4.246   4.636
 8091SOL    HW125172   1.599   4.225   4.563
 8091SOL    HW225173   1.655   4.343   4.661
 8092SOL     OW25174   5.094   2.246   5.763
 8092SOL    HW125175   5.116   2.301   5.683
 8092SOL    HW225176   5.071   2.307   5.839
 8093SOL     OW25177   3.428   5.373   3.395
 8093SOL    HW125178   3.496   5.303   3.417
 8093SOL    HW225179   3.438   5.450   3.458
 8094SOL     OW25180   0.934   3.193   5.589
 8094SOL    HW125181   0.889   3.281   5.603
 8094SOL    HW225182   0.874   3.133   5.537
 8095SOL     OW25183   0.524   5.311   4.492
 8095SOL    HW125184   0.564   5.291   4.403
 8095SOL    HW225185   0.447   5.250   4.508
 8096SOL     OW25186   1.568   0.614   2.932
 8096SOL    HW125187   1.663   0.586   2.938
 8096SOL    HW225188   1.512   0.555   2.990
 8097SOL     OW25189   4.232   0.370   4.323
 8097SOL    HW125190   4.197   0.287   4.366
 8097SOL    HW225191   4.201   0.450   4.374
 8098SOL     OW25192   2.101   6.323   3.665
 8098SOL    HW125193   2.011   6.307   3.623
 8098SOL    HW225194   2.139   6.409   3.629
 8099SOL     OW25195   4.520   6.351   4.422
 8099SOL    HW125196   4.437   6.393   4.384
 8099SOL    HW225197   4.542   6.268   4.371
 8100SOL     OW25198   6.723   1.805   6.628
 8100SOL    HW125199   6.741   1.850   6.541
 8100SOL    HW225200   6.703   1.709   6.612
 8101SOL     OW25201   1.790   5.405   0.546
 8101SOL    HW125202   1.887   5.428   0.553
 8101SOL    HW225203   1.780   5.306   0.549
 8102SOL     OW25204   0.682   3.750   3.757
 8102SOL    HW125205   0.780   3.730   3.748
 8102SOL    HW225206   0.633   3.664   3.774
 8103SOL     OW25207   3.634   0.364   2.198
 8103SOL    HW125208   3.635   0.430   2.273
 8103SOL    HW225209   3.725   0.324   2.188
 8104SOL     OW25210   1.877   0.084   5.250
 8104SOL    HW125211   1.917   0.146   5.317
 8104SOL    HW225212   1.818   0.136   5.187
 8105SOL     OW25213   6.992   2.543   2.451
 8105SOL    HW125214   0.025   2.624   2.442
 8105SOL    HW225215   6.954   2.519   2.361
 8106SOL     OW25216   2.537   6.486   3.189
 8106SOL    HW125217   2.544   6.520   3.283
 8106SOL    HW225218   2.442   6.461   3.169
 8107SOL     OW25219   1.209   6.060   4.105
 8107SOL    HW125220   1.294   6.043   4.154
 8107SOL    HW225221   1.207   6.004   4.022
 8108SOL     OW25222   6.378   2.006   0.240
 8108SOL    HW125223   6.289   2.034   0.277
 8108SOL    HW225224   6.384   2.031   0.144
 8109SOL     OW25225   0.342   3.742   6.877
 8109SOL    HW125226   0.256   3.700   6.907
 8109SOL    HW225227   0.323   3.831   6.836
 8110SOL     OW25228   4.131   4.811   2.017
 8110SOL    HW125229   4.054   4.876   2.014
 8110SOL    HW225230   4.116   4.739   1.949
 8111SOL     OW25231   4.865   1.168   4.090
 8111SOL    HW125232   4.898   1.201   4.179
 8111SOL    HW225233   4.932   1.192   4.019
 8112SOL     OW25234   1.837   3.030   4.246
 8112SOL    HW125235   1.897   3.043   4.325
 8112SOL    HW225236   1.892   3.029   4.162
 8113SOL     OW25237   6.695   3.610   0.807
 8113SOL    HW125238   6.706   3.610   0.906
 8113SOL    HW225239   6.651   3.695   0.778
 8114SOL     OW25240   1.608   3.416   2.078
 8114SOL    HW125241   1.620   3.516   2.078
 8114SOL    HW225242   1.625   3.382   1.985
 8115SOL     OW25243   2.998   6.397   5.791
 8115SOL    HW125244   2.958   6.322   5.843
 8115SOL    HW225245   3.041   6.361   5.708
 8116SOL     OW25246   4.257   5.009   0.246
 8116SOL    HW125247   4.279   5.012   0.343
 8116SOL    HW225248   4.189   4.938   0.229
 8117SOL     OW25249   2.498   0.046   3.390
 8117SOL    HW125250   2.598   0.049   3.392
 8117SOL    HW225251   2.464   0.102   3.314
 8118SOL     OW25252   5.695   4.243   6.368
 8118SOL    HW125253   5.688   4.311   6.441
 8118SOL    HW225254   5.603   4.217   6.337
 8119SOL     OW25255   5.217   6.485   6.004
 8119SOL    HW125256   5.138   6.426   6.021
 8119SOL    HW225257   5.297   6.429   5.981
 8120SOL     OW25258   2.994   4.987   0.524
 8120SOL    HW125259   3.028   5.039   0.446
 8120SOL    HW225260   3.059   4.993   0.600
 8121SOL     OW25261   0.801   4.824   1.377
 8121SOL    HW125262   0.743   4.889   1.328
 8121SOL    HW225263   0.775   4.730   1.352
 8122SOL     OW25264   0.635   4.282   3.243
 8122SOL    HW125265   0.650   4.320   3.152
 8122SOL    HW225266   0.657   4.185   3.243
 8123SOL     OW25267   6.395   1.993   6.986
 8123SOL    HW125268   6.313   2.023   6.937
 8123SOL    HW225269   6.477   2.028   6.939
 8124SOL     OW25270   5.267   6.207   3.492
 8124SOL    HW125271   5.322   6.166   3.420
 8124SOL    HW225272   5.244   6.138   3.560
 8125SOL     OW25273   1.331   1.057   2.620
 8125SOL    HW125274   1.270   1.107   2.682
 8125SOL    HW225275   1.317   1.090   2.526
 8126SOL     OW25276   5.274   4.585   3.084
 8126SOL    HW125277   5.193   4.612   3.136
 8126SOL    HW225278   5.273   4.628   2.994
 8127SOL     OW25279   2.743   3.256   6.300
 8127SOL    HW125280   2.822   3.300   6.258
 8127SOL    HW225281   2.675   3.235   6.231
 8128SOL     OW25282   3.195   2.121   1.958
 8128SOL    HW125283   3.253   2.103   2.038
 8128SOL    HW225284   3.128   2.192   1.982
 8129SOL     OW25285   3.782   1.610   6.588
 8129SOL    HW125286   3.827   1.524   6.563
 8129SOL    HW225287   3.721   1.638   6.513
 8130SOL     OW25288   0.859   6.172   6.638
 8130SOL    HW125289   0.816   6.262   6.634
 8130SOL    HW225290   0.945   6.174   6.588
 8131SOL     OW25291   3.201   1.708   2.045
 8131SOL    HW125292   3.213   1.650   1.965
 8131SOL    HW225293   3.156   1.793   2.018
 8132SOL     OW25294   5.573   6.122   4.750
 8132SOL    HW125295   5.593   6.025   4.732
 8132SOL    HW225296   5.476   6.139   4.735
 8133SOL     OW25297   3.639   5.385   2.308
 8133SOL    HW125298   3.546   5.399   2.274
 8133SOL    HW225299   3.646   5.295   2.350
 8134SOL     OW25300   7.017   1.623   6.271
 8134SOL    HW125301   0.025   1.681   6.345
 8134SOL    HW225302   0.062   1.616   6.199
 8135SOL     OW25303   1.642   1.438   1.655
 8135SOL    HW125304   1.588   1.373   1.602
 8135SOL    HW225305   1.710   1.481   1.596
 8136SOL     OW25306   5.504   5.520   2.066
 8136SOL    HW125307   5.432   5.575   2.024
 8136SOL    HW225308   5.555   5.472   1.995
 8137SOL     OW25309   3.262   1.499   5.662
 8137SOL    HW125310   3.199   1.504   5.585
 8137SOL    HW225311   3.250   1.580   5.720
 8138SOL     OW25312   5.582   1.117   1.504
 8138SOL    HW125313   5.682   1.118   1.494
 8138SOL    HW225314   5.546   1.035   1.461
 8139SOL     OW25315   0.136   0.968   1.927
 8139SOL    HW125316   0.067   0.977   1.998
 8139SOL    HW225317   0.148   1.057   1.881
 8140SOL     OW25318   5.221   1.088   5.173
 8140SOL    HW125319   5.271   1.023   5.230
 8140SOL    HW225320   5.192   1.042   5.089
 8141SOL     OW25321   4.730   5.201   5.939
 8141SOL    HW125322   4.823   5.179   5.967
 8141SOL    HW225323   4.726   5.297   5.909
 8142SOL     OW25324   6.522   5.199   0.006
 8142SOL    HW125325   6.470   5.123   6.992
 8142SOL    HW225326   6.473   5.238   0.083
 8143SOL     OW25327   6.458   5.106   0.457
 8143SOL    HW125328   6.455   5.203   0.435
 8143SOL    HW225329   6.529   5.090   0.526
 8144SOL     OW25330   5.706   6.888   6.747
 8144SOL    HW125331   5.659   6.899   6.835
 8144SOL    HW225332   5.692   6.794   6.714
 8145SOL     OW25333   5.485   5.881   1.921
 8145SOL    HW125334   5.507   5.962   1.868
 8145SOL    HW225335   5.565   5.853   1.975
 8146SOL     OW25336   3.693   1.313   4.785
 8146SOL    HW125337   3.630   1.235   4.789
 8146SOL    HW225338   3.644   1.394   4.752
 8147SOL     OW25339   5.833   2.321   3.044
 8147SOL    HW125340   5.925   2.283   3.059
 8147SOL    HW225341   5.816   2.393   3.110
 8148SOL     OW25342   5.380   3.986   2.493
 8148SOL    HW125343   5.478   3.993   2.510
 8148SOL    HW225344   5.360   4.014   2.399
 8149SOL     OW25345   2.617   5.354   2.253
 8149SOL    HW125346   2.639   5.370   2.157
 8149SOL    HW225347   2.661   5.269   2.284
 8150SOL     OW25348   0.085   5.141   0.434
 8150SOL    HW125349   0.119   5.074   0.500
 8150SOL    HW225350   0.045   5.093   0.356
 8151SOL     OW25351   0.454   2.461   3.003
 8151SOL    HW125352   0.514   2.432   2.929
 8151SOL    HW225353   0.491   2.430   3.091
 8152SOL     OW25354   0.801   2.031   2.628
 8152SOL    HW125355   0.890   2.069   2.601
 8152SOL    HW225356   0.768   1.970   2.556
 8153SOL     OW25357   3.445   0.051   3.383
 8153SOL    HW125358   3.535   0.024   3.350
 8153SOL    HW225359   3.447   0.149   3.405
 8154SOL     OW25360   2.117   5.893   3.791
 8154SOL    HW125361   2.165   5.975   3.760
 8154SOL    HW225362   2.109   5.828   3.716
 8155SOL     OW25363   2.753   3.585   1.664
 8155SOL    HW125364   2.815   3.506   1.655
 8155SOL    HW225365   2.658   3.553   1.664
 8156SOL     OW25366   5.823   0.510   5.890
 8156SOL    HW125367   5.799   0.502   5.986
 8156SOL    HW225368   5.750   0.558   5.841
 8157SOL     OW25369   5.663   5.734   6.164
 8157SOL    HW125370   5.646   5.664   6.095
 8157SOL    HW225371   5.741   5.790   6.138
 8158SOL     OW25372   0.897   5.691   0.397
 8158SOL    HW125373   0.861   5.774   0.438
 8158SOL    HW225374   0.997   5.690   0.404
 8159SOL     OW25375   2.354   5.466   2.125
 8159SOL    HW125376   2.370   5.370   2.100
 8159SOL    HW225377   2.419   5.524   2.078
 8160SOL     OW25378   4.507   1.477   1.559
 8160SOL    HW125379   4.413   1.506   1.579
 8160SOL    HW225380   4.557   1.467   1.645
 8161SOL     OW25381   5.225   0.554   1.278
 8161SOL    HW125382   5.222   0.608   1.194
 8161SOL    HW225383   5.175   0.468   1.264
 8162SOL     OW25384   6.468   6.570   6.391
 8162SOL    HW125385   6.562   6.596   6.370
 8162SOL    HW225386   6.417   6.649   6.423
 8163SOL     OW25387   2.604   4.197   5.703
 8163SOL    HW125388   2.555   4.164   5.622
 8163SOL    HW225389   2.625   4.120   5.763
 8164SOL     OW25390   5.769   3.319   0.670
 8164SOL    HW125391   5.839   3.303   0.741
 8164SOL    HW225392   5.806   3.382   0.601
 8165SOL     OW25393   1.687   4.700   0.681
 8165SOL    HW125394   1.689   4.678   0.583
 8165SOL    HW225395   1.731   4.789   0.696
 8166SOL     OW25396   2.226   1.245   1.857
 8166SOL    HW125397   2.137   1.275   1.821
 8166SOL    HW225398   2.284   1.324   1.874
 8167SOL     OW25399   5.524   1.459   4.131
 8167SOL    HW125400   5.539   1.445   4.229
 8167SOL    HW225401   5.601   1.509   4.092
 8168SOL     OW25402   3.279   2.114   2.690
 8168SOL    HW125403   3.280   2.141   2.786
 8168SOL    HW225404   3.356   2.053   2.672
 8169SOL     OW25405   4.600   3.103   1.085
 8169SOL    HW125406   4.690   3.077   1.121
 8169SOL    HW225407   4.585   3.200   1.100
 8170SOL     OW25408   1.702   5.616   3.293
 8170SOL    HW125409   1.612   5.610   3.338
 8170SOL    HW225410   1.764   5.667   3.352
 8171SOL     OW25411   0.671   2.032   6.637
 8171SOL    HW125412   0.667   2.018   6.538
 8171SOL    HW225413   0.585   2.072   6.669
 8172SOL     OW25414   0.266   0.830   0.875
 8172SOL    HW125415   0.297   0.747   0.922
 8172SOL    HW225416   0.268   0.815   0.776
 8173SOL     OW25417   3.190   2.005   0.137
 8173SOL    HW125418   3.184   2.009   0.038
 8173SOL    HW225419   3.168   1.912   0.168
 8174SOL     OW25420   5.207   1.947   1.099
 8174SOL    HW125421   5.244   1.983   1.184
 8174SOL    HW225422   5.127   1.891   1.118
 8175SOL     OW25423   0.035   2.408   6.905
 8175SOL    HW125424   0.066   2.422   6.811
 8175SOL    HW225425   0.036   2.495   6.953
 8176SOL     OW25426   2.689   5.606   2.318
 8176SOL    HW125427   2.672   5.513   2.288
 8176SOL    HW225428   2.623   5.668   2.276
 8177SOL     OW25429   1.341   5.868   3.628
 8177SOL    HW125430   1.247   5.841   3.650
 8177SOL    HW225431   1.359   5.849   3.532
 8178SOL     OW25432   1.494   0.311   5.648
 8178SOL    HW125433   1.474   0.250   5.725
 8178SOL    HW225434   1.590   0.299   5.621
 8179SOL     OW25435   3.858   3.482   0.087
 8179SOL    HW125436   3.911   3.427   0.152
 8179SOL    HW225437   3.919   3.516   0.015
 8180SOL     OW25438   6.673   7.007   3.854
 8180SOL    HW125439   6.648   6.983   3.948
 8180SOL    HW225440   6.644   6.935   3.792
 8181SOL     OW25441   2.405   2.200   2.788
 8181SOL    HW125442   2.329   2.185   2.725
 8181SOL    HW225443   2.453   2.284   2.763
 8182SOL     OW25444   3.292   1.986   6.451
 8182SOL    HW125445   3.211   2.045   6.460
 8182SOL    HW225446   3.340   2.008   6.367
 8183SOL     OW25447   0.794   3.050   5.317
 8183SOL    HW125448   0.868   3.082   5.257
 8183SOL    HW225449   0.723   3.006   5.262
 8184SOL     OW25450   6.318   1.312   5.723
 8184SOL    HW125451   6.233   1.355   5.692
 8184SOL    HW225452   6.334   1.334   5.819
 8185SOL     OW25453   2.940   0.352   0.562
 8185SOL    HW125454   2.979   0.429   0.611
 8185SOL    HW225455   2.922   0.277   0.626
 8186SOL     OW25456   3.330   6.202   5.810
 8186SOL    HW125457   3.395   6.241   5.745
 8186SOL    HW225458   3.253   6.161   5.760
 8187SOL     OW25459   1.287   1.610   5.199
 8187SOL    HW125460   1.220   1.650   5.137
 8187SOL    HW225461   1.307   1.674   5.273
 8188SOL     OW25462   4.998   1.903   2.844
 8188SOL    HW125463   4.939   1.943   2.773
 8188SOL    HW225464   4.970   1.937   2.933
 8189SOL     OW25465   5.003   4.225   2.303
 8189SOL    HW125466   4.916   4.268   2.326
 8189SOL    HW225467   5.061   4.221   2.384
 8190SOL     OW25468   5.617   4.252   4.199
 8190SOL    HW125469   5.698   4.307   4.219
 8190SOL    HW225470   5.637   4.156   4.217
 8191SOL     OW25471   1.873   5.126   3.403
 8191SOL    HW125472   1.863   5.081   3.314
 8191SOL    HW225473   1.855   5.061   3.476
 8192SOL     OW25474   2.783   5.545   0.656
 8192SOL    HW125475   2.759   5.499   0.741
 8192SOL    HW225476   2.707   5.537   0.591
 8193SOL     OW25477   6.187   6.405   4.848
 8193SOL    HW125478   6.210   6.400   4.751
 8193SOL    HW225479   6.138   6.491   4.866
 8194SOL     OW25480   6.414   2.344   0.319
 8194SOL    HW125481   6.411   2.280   0.396
 8194SOL    HW225482   6.322   2.377   0.299
 8195SOL     OW25483   0.195   0.389   0.687
 8195SOL    HW125484   0.150   0.346   0.765
 8195SOL    HW225485   0.177   0.336   0.604
 8196SOL     OW25486   4.101   6.420   5.588
 8196SOL    HW125487   4.019   6.376   5.550
 8196SOL    HW225488   4.150   6.466   5.514
 8197SOL     OW25489   6.014   1.173   6.279
 8197SOL    HW125490   6.065   1.242   6.228
 8197SOL    HW225491   6.077   1.108   6.321
 8198SOL     OW25492   2.630   6.679   2.698
 8198SOL    HW125493   2.622   6.727   2.785
 8198SOL    HW225494   2.630   6.746   2.623
 8199SOL     OW25495   0.409   3.773   0.285
 8199SOL    HW125496   0.317   3.777   0.324
 8199SOL    HW225497   0.439   3.677   0.280
 8200SOL     OW25498   4.486   5.077   1.462
 8200SOL    HW125499   4.509   5.075   1.365
 8200SOL    HW225500   4.570   5.078   1.516
 8201SOL     OW25501   4.836   1.023   4.645
 8201SOL    HW125502   4.890   1.003   4.563
 8201SOL    HW225503   4.794   0.939   4.679
 8202SOL     OW25504   1.851   5.194   3.760
 8202SOL    HW125505   1.881   5.102   3.737
 8202SOL    HW225506   1.903   5.260   3.706
 8203SOL     OW25507   4.657   3.414   1.082
 8203SOL    HW125508   4.756   3.397   1.087
 8203SOL    HW225509   4.637   3.503   1.125
 8204SOL     OW25510   3.510   6.422   1.663
 8204SOL    HW125511   3.555   6.362   1.730
 8204SOL    HW225512   3.483   6.368   1.583
 8205SOL     OW25513   5.564   5.249   1.460
 8205SOL    HW125514   5.640   5.266   1.523
 8205SOL    HW225515   5.480   5.237   1.511
 8206SOL     OW25516   3.479   2.558   6.097
 8206SOL    HW125517   3.398   2.565   6.039
 8206SOL    HW225518   3.501   2.648   6.134
 8207SOL     OW25519   2.945   4.730   5.673
 8207SOL    HW125520   2.920   4.706   5.579
 8207SOL    HW225521   2.993   4.818   5.673
 8208SOL     OW25522   2.261   5.892   1.929
 8208SOL    HW125523   2.356   5.862   1.918
 8208SOL    HW225524   2.259   5.988   1.955
 8209SOL     OW25525   1.752   1.136   5.411
 8209SOL    HW125526   1.810   1.217   5.424
 8209SOL    HW225527   1.687   1.129   5.486
 8210SOL     OW25528   2.382   0.837   0.525
 8210SOL    HW125529   2.338   0.813   0.438
 8210SOL    HW225530   2.425   0.926   0.517
 8211SOL     OW25531   3.644   4.082   4.672
 8211SOL    HW125532   3.641   4.128   4.761
 8211SOL    HW225533   3.566   4.112   4.617
 8212SOL     OW25534   2.329   0.087   0.775
 8212SOL    HW125535   2.271   0.150   0.827
 8212SOL    HW225536   2.271   0.027   0.719
 8213SOL     OW25537   4.277   5.023   3.015
 8213SOL    HW125538   4.282   5.067   3.105
 8213SOL    HW225539   4.360   5.042   2.964
 8214SOL     OW25540   2.659   5.986   3.906
 8214SOL    HW125541   2.562   5.968   3.892
 8214SOL    HW225542   2.696   6.034   3.827
 8215SOL     OW25543   4.036   6.583   6.956
 8215SOL    HW125544   4.136   6.577   6.968
 8215SOL    HW225545   4.003   6.667   6.998
 8216SOL     OW25546   4.820   6.364   2.874
 8216SOL    HW125547   4.920   6.360   2.870
 8216SOL    HW225548   4.781   6.297   2.810
 8217SOL     OW25549   2.185   4.035   3.132
 8217SOL    HW125550   2.185   4.016   3.034
 8217SOL    HW225551   2.136   4.120   3.150
 8218SOL     OW25552   1.955   0.467   4.759
 8218SOL    HW125553   1.896   0.458   4.840
 8218SOL    HW225554   1.908   0.521   4.690
 8219SOL     OW25555   3.378   3.912   1.952
 8219SOL    HW125556   3.299   3.927   1.893
 8219SOL    HW225557   3.355   3.843   2.021
 8220SOL     OW25558   3.221   4.175   5.349
 8220SOL    HW125559   3.153   4.248   5.339
 8220SOL    HW225560   3.265   4.183   5.439
 8221SOL     OW25561   6.063   3.767   3.201
 8221SOL    HW125562   6.029   3.790   3.110
 8221SOL    HW225563   6.123   3.687   3.196
 8222SOL     OW25564   6.443   2.881   1.422
 8222SOL    HW125565   6.344   2.868   1.414
 8222SOL    HW225566   6.483   2.891   1.332
 8223SOL     OW25567   0.200   5.865   5.425
 8223SOL    HW125568   0.143   5.820   5.494
 8223SOL    HW225569   0.268   5.801   5.391
 8224SOL     OW25570   4.895   1.780   0.796
 8224SOL    HW125571   4.840   1.775   0.713
 8224SOL    HW225572   4.989   1.753   0.776
 8225SOL     OW25573   4.219   0.676   6.992
 8225SOL    HW125574   4.162   0.724   0.034
 8225SOL    HW225575   4.210   0.578   7.004
 8226SOL     OW25576   3.592   0.621   6.978
 8226SOL    HW125577   3.574   0.690   0.024
 8226SOL    HW225578   3.622   0.667   6.894
 8227SOL     OW25579   5.185   1.607   3.215
 8227SOL    HW125580   5.097   1.626   3.260
 8227SOL    HW225581   5.216   1.515   3.241
 8228SOL     OW25582   0.602   1.064   5.065
 8228SOL    HW125583   0.506   1.057   5.042
 8228SOL    HW225584   0.614   1.047   5.163
 8229SOL     OW25585   3.847   4.974   1.402
 8229SOL    HW125586   3.910   4.954   1.327
 8229SOL    HW225587   3.898   5.014   1.478
 8230SOL     OW25588   4.329   0.611   5.886
 8230SOL    HW125589   4.386   0.693   5.890
 8230SOL    HW225590   4.354   0.555   5.807
 8231SOL     OW25591   3.320   1.017   1.751
 8231SOL    HW125592   3.280   0.962   1.678
 8231SOL    HW225593   3.248   1.068   1.798
 8232SOL     OW25594   4.391   0.989   2.303
 8232SOL    HW125595   4.308   1.044   2.312
 8232SOL    HW225596   4.465   1.045   2.264
 8233SOL     OW25597   0.626   0.995   5.321
 8233SOL    HW125598   0.599   1.053   5.398
 8233SOL    HW225599   0.601   0.900   5.341
 8234SOL     OW25600   2.560   3.763   0.131
 8234SOL    HW125601   2.595   3.856   0.143
 8234SOL    HW225602   2.632   3.697   0.148
 8235SOL     OW25603   0.002   5.075   6.765
 8235SOL    HW125604   0.073   5.014   6.731
 8235SOL    HW225605   0.023   5.102   6.859
 8236SOL     OW25606   0.437   6.276   6.034
 8236SOL    HW125607   0.517   6.215   6.028
 8236SOL    HW225608   0.418   6.297   6.130
 8237SOL     OW25609   4.783   5.470   6.183
 8237SOL    HW125610   4.785   5.561   6.141
 8237SOL    HW225611   4.862   5.417   6.151
 8238SOL     OW25612   2.801   5.219   0.619
 8238SOL    HW125613   2.868   5.176   0.681
 8238SOL    HW225614   2.843   5.236   0.531
 8239SOL     OW25615   0.883   1.519   4.940
 8239SOL    HW125616   0.823   1.464   4.999
 8239SOL    HW225617   0.935   1.583   4.997
 8240SOL     OW25618   4.101   3.269   4.440
 8240SOL    HW125619   4.148   3.308   4.520
 8240SOL    HW225620   4.037   3.199   4.470
 8241SOL     OW25621   1.031   3.243   6.564
 8241SOL    HW125622   1.126   3.268   6.547
 8241SOL    HW225623   1.021   3.204   6.655
 8242SOL     OW25624   1.196   3.750   4.591
 8242SOL    HW125625   1.126   3.821   4.598
 8242SOL    HW225626   1.197   3.696   4.675
 8243SOL     OW25627   0.606   4.506   5.854
 8243SOL    HW125628   0.628   4.458   5.768
 8243SOL    HW225629   0.665   4.471   5.927
 8244SOL     OW25630   0.805   0.314   3.688
 8244SOL    HW125631   0.813   0.217   3.712
 8244SOL    HW225632   0.824   0.327   3.591
 8245SOL     OW25633   4.983   1.256   4.326
 8245SOL    HW125634   4.985   1.171   4.377
 8245SOL    HW225635   5.073   1.300   4.329
 8246SOL     OW25636   1.105   4.042   6.370
 8246SOL    HW125637   1.075   3.962   6.423
 8246SOL    HW225638   1.033   4.111   6.372
 8247SOL     OW25639   3.195   4.864   3.645
 8247SOL    HW125640   3.217   4.874   3.742
 8247SOL    HW225641   3.270   4.901   3.590
 8248SOL     OW25642   0.511   5.663   2.713
 8248SOL    HW125643   0.601   5.695   2.683
 8248SOL    HW225644   0.468   5.610   2.640
 8249SOL     OW25645   2.086   1.850   5.706
 8249SOL    HW125646   2.170   1.876   5.658
 8249SOL    HW225647   2.101   1.763   5.753
 8250SOL     OW25648   2.098   1.755   6.694
 8250SOL    HW125649   2.180   1.765   6.750
 8250SOL    HW225650   2.055   1.667   6.715
 8251SOL     OW25651   0.303   2.890   5.106
 8251SOL    HW125652   0.284   2.982   5.139
 8251SOL    HW225653   0.373   2.894   5.035
 8252SOL     OW25654   2.475   2.587   6.393
 8252SOL    HW125655   2.406   2.596   6.465
 8252SOL    HW225656   2.436   2.617   6.306
 8253SOL     OW25657   3.786   5.462   6.860
 8253SOL    HW125658   3.804   5.471   6.958
 8253SOL    HW225659   3.807   5.549   6.815
 8254SOL     OW25660   5.467   5.221   0.526
 8254SOL    HW125661   5.465   5.267   0.615
 8254SOL    HW225662   5.378   5.233   0.481
 8255SOL     OW25663   0.427   0.337   6.073
 8255SOL    HW125664   0.502   0.271   6.063
 8255SOL    HW225665   0.455   0.411   6.134
 8256SOL     OW25666   1.197   6.451   2.649
 8256SOL    HW125667   1.275   6.482   2.703
 8256SOL    HW225668   1.136   6.528   2.631
 8257SOL     OW25669   5.217   4.247   4.133
 8257SOL    HW125670   5.293   4.229   4.070
 8257SOL    HW225671   5.152   4.171   4.130
 8258SOL     OW25672   5.782   3.111   1.506
 8258SOL    HW125673   5.771   3.066   1.417
 8258SOL    HW225674   5.807   3.043   1.575
 8259SOL     OW25675   4.512   2.422   4.354
 8259SOL    HW125676   4.602   2.435   4.313
 8259SOL    HW225677   4.519   2.428   4.454
 8260SOL     OW25678   2.401   0.077   0.406
 8260SOL    HW125679   2.329   0.087   0.474
 8260SOL    HW225680   2.371   0.118   0.320
 8261SOL     OW25681   5.574   6.521   2.988
 8261SOL    HW125682   5.605   6.603   3.035
 8261SOL    HW225683   5.645   6.451   2.993
 8262SOL     OW25684   0.543   4.536   0.566
 8262SOL    HW125685   0.448   4.538   0.537
 8262SOL    HW225686   0.562   4.448   0.611
 8263SOL     OW25687   6.827   2.024   0.157
 8263SOL    HW125688   6.761   2.100   0.158
 8263SOL    HW225689   6.802   1.959   0.086
 8264SOL     OW25690   1.896   0.186   2.203
 8264SOL    HW125691   1.896   0.208   2.300
 8264SOL    HW225692   1.971   0.234   2.158
 8265SOL     OW25693   4.893   0.518   1.100
 8265SOL    HW125694   4.824   0.468   1.152
 8265SOL    HW225695   4.930   0.592   1.156
 8266SOL     OW25696   2.433   6.836   3.508
 8266SOL    HW125697   2.450   6.918   3.454
 8266SOL    HW225698   2.435   6.859   3.605
 8267SOL     OW25699   1.023   4.335   2.676
 8267SOL    HW125700   1.081   4.394   2.620
 8267SOL    HW225701   0.944   4.387   2.709
 8268SOL     OW25702   3.402   3.731   6.685
 8268SOL    HW125703   3.438   3.824   6.684
 8268SOL    HW225704   3.304   3.734   6.664
 8269SOL     OW25705   4.356   2.207   2.808
 8269SOL    HW125706   4.402   2.275   2.864
 8269SOL    HW225707   4.304   2.252   2.736
 8270SOL     OW25708   3.918   6.744   5.388
 8270SOL    HW125709   3.957   6.826   5.430
 8270SOL    HW225710   3.818   6.750   5.389
 8271SOL     OW25711   5.208   6.437   4.606
 8271SOL    HW125712   5.116   6.473   4.592
 8271SOL    HW225713   5.273   6.489   4.550
 8272SOL     OW25714   0.519   0.404   2.151
 8272SOL    HW125715   0.612   0.439   2.147
 8272SOL    HW225716   0.468   0.452   2.223
 8273SOL     OW25717   2.660   6.337   6.883
 8273SOL    HW125718   2.660   6.394   6.966
 8273SOL    HW225719   2.731   6.267   6.891
 8274SOL     OW25720   4.954   5.285   6.979
 8274SOL    HW125721   5.037   5.337   7.000
 8274SOL    HW225722   4.892   5.289   0.032
 8275SOL     OW25723   6.727   0.273   3.983
 8275SOL    HW125724   6.707   0.176   3.969
 8275SOL    HW225725   6.642   0.323   3.998
 8276SOL     OW25726   6.718   2.790   6.528
 8276SOL    HW125727   6.658   2.814   6.452
 8276SOL    HW225728   6.796   2.739   6.494
 8277SOL     OW25729   1.510   5.937   5.900
 8277SOL    HW125730   1.438   5.935   5.969
 8277SOL    HW225731   1.487   6.005   5.830
 8278SOL     OW25732   3.510   1.957   6.612
 8278SOL    HW125733   3.490   2.027   6.681
 8278SOL    HW225734   3.428   1.940   6.557
 8279SOL     OW25735   4.547   6.297   6.439
 8279SOL    HW125736   4.454   6.324   6.415
 8279SOL    HW225737   4.603   6.294   6.357
 8280SOL     OW25738   5.205   2.566   1.019
 8280SOL    HW125739   5.111   2.541   1.045
 8280SOL    HW225740   5.206   2.661   0.986
 8281SOL     OW25741   1.599   5.021   0.369
 8281SOL    HW125742   1.536   5.029   0.292
 8281SOL    HW225743   1.548   5.027   0.455
 8282SOL     OW25744   3.067   2.980   1.239
 8282SOL    HW125745   3.023   3.038   1.171
 8282SOL    HW225746   3.167   2.991   1.234
 8283SOL     OW25747   0.465   4.809   3.959
 8283SOL    HW125748   0.403   4.879   3.995
 8283SOL    HW225749   0.415   4.723   3.948
 8284SOL     OW25750   2.379   2.316   2.185
 8284SOL    HW125751   2.440   2.238   2.197
 8284SOL    HW225752   2.287   2.292   2.216
 8285SOL     OW25753   3.218   4.509   5.930
 8285SOL    HW125754   3.187   4.593   5.974
 8285SOL    HW225755   3.190   4.509   5.834
 8286SOL     OW25756   5.065   0.966   4.479
 8286SOL    HW125757   5.162   0.990   4.472
 8286SOL    HW225758   5.051   0.873   4.446
 8287SOL     OW25759   1.090   0.441   3.490
 8287SOL    HW125760   1.167   0.388   3.456
 8287SOL    HW225761   1.124   0.520   3.541
 8288SOL     OW25762   1.872   1.836   2.238
 8288SOL    HW125763   1.845   1.924   2.275
 8288SOL    HW225764   1.947   1.849   2.173
 8289SOL     OW25765   6.411   2.029   5.436
 8289SOL    HW125766   6.371   2.080   5.360
 8289SOL    HW225767   6.495   2.075   5.466
 8290SOL     OW25768   3.684   2.575   1.767
 8290SOL    HW125769   3.656   2.494   1.819
 8290SOL    HW225770   3.696   2.652   1.830
 8291SOL     OW25771   5.991   6.823   6.254
 8291SOL    HW125772   5.964   6.809   6.159
 8291SOL    HW225773   6.080   6.869   6.256
 8292SOL     OW25774   0.776   4.534   5.417
 8292SOL    HW125775   0.722   4.613   5.386
 8292SOL    HW225776   0.762   4.457   5.354
 8293SOL     OW25777   2.768   5.121   2.356
 8293SOL    HW125778   2.794   5.031   2.390
 8293SOL    HW225779   2.850   5.167   2.320
 8294SOL     OW25780   6.594   3.650   6.253
 8294SOL    HW125781   6.582   3.563   6.299
 8294SOL    HW225782   6.672   3.644   6.190
 8295SOL     OW25783   5.104   4.120   2.906
 8295SOL    HW125784   5.093   4.049   2.976
 8295SOL    HW225785   5.164   4.086   2.833
 8296SOL     OW25786   3.029   5.443   0.740
 8296SOL    HW125787   2.940   5.476   0.709
 8296SOL    HW225788   3.097   5.461   0.669
 8297SOL     OW25789   6.430   4.481   2.898
 8297SOL    HW125790   6.517   4.438   2.920
 8297SOL    HW225791   6.404   4.542   2.972
 8298SOL     OW25792   0.409   0.900   0.156
 8298SOL    HW125793   0.410   0.847   0.241
 8298SOL    HW225794   0.500   0.897   0.114
 8299SOL     OW25795   0.467   3.706   1.700
 8299SOL    HW125796   0.502   3.793   1.667
 8299SOL    HW225797   0.510   3.682   1.787
 8300SOL     OW25798   6.258   4.919   3.645
 8300SOL    HW125799   6.310   5.002   3.626
 8300SOL    HW225800   6.242   4.911   3.743
 8301SOL     OW25801   3.679   6.635   0.634
 8301SOL    HW125802   3.769   6.664   0.601
 8301SOL    HW225803   3.610   6.698   0.600
 8302SOL     OW25804   3.568   6.354   4.286
 8302SOL    HW125805   3.518   6.287   4.230
 8302SOL    HW225806   3.614   6.419   4.227
 8303SOL     OW25807   6.156   6.752   2.238
 8303SOL    HW125808   6.190   6.730   2.147
 8303SOL    HW225809   6.156   6.851   2.252
 8304SOL     OW25810   5.901   3.685   3.813
 8304SOL    HW125811   5.932   3.597   3.850
 8304SOL    HW225812   5.834   3.726   3.875
 8305SOL     OW25813   4.603   5.240   3.957
 8305SOL    HW125814   4.683   5.298   3.962
 8305SOL    HW225815   4.563   5.246   3.866
 8306SOL     OW25816   6.387   1.044   2.388
 8306SOL    HW125817   6.417   1.137   2.365
 8306SOL    HW225818   6.297   1.027   2.349
 8307SOL     OW25819   1.867   4.956   1.764
 8307SOL    HW125820   1.778   4.944   1.720
 8307SOL    HW225821   1.866   4.912   1.854
 8308SOL     OW25822   0.752   4.881   0.016
 8308SOL    HW125823   0.820   4.952   0.001
 8308SOL    HW225824   0.732   4.873   0.114
 8309SOL     OW25825   6.890   4.198   4.746
 8309SOL    HW125826   6.800   4.218   4.707
 8309SOL    HW225827   6.914   4.268   4.814
 8310SOL     OW25828   0.638   6.887   0.649
 8310SOL    HW125829   0.696   6.951   0.701
 8310SOL    HW225830   0.696   6.824   0.598
 8311SOL     OW25831   5.905   6.559   3.895
 8311SOL    HW125832   5.867   6.605   3.816
 8311SOL    HW225833   5.850   6.479   3.918
 8312SOL     OW25834   4.798   0.272   6.713
 8312SOL    HW125835   4.730   0.318   6.657
 8312SOL    HW225836   4.857   0.340   6.757
 8313SOL     OW25837   4.396   0.581   4.786
 8313SOL    HW125838   4.322   0.644   4.762
 8313SOL    HW225839   4.381   0.493   4.742
 8314SOL     OW25840   5.586   6.403   5.573
 8314SOL    HW125841   5.643   6.322   5.589
 8314SOL    HW225842   5.499   6.374   5.532
 8315SOL     OW25843   3.491   2.998   4.680
 8315SOL    HW125844   3.401   3.003   4.723
 8315SOL    HW225845   3.553   2.948   4.740
 8316SOL     OW25846   1.024   2.576   0.288
 8316SOL    HW125847   1.065   2.514   0.221
 8316SOL    HW225848   0.927   2.589   0.267
 8317SOL     OW25849   1.865   1.890   4.276
 8317SOL    HW125850   1.842   1.957   4.347
 8317SOL    HW225851   1.923   1.933   4.207
 8318SOL     OW25852   3.597   0.351   6.377
 8318SOL    HW125853   3.638   0.367   6.466
 8318SOL    HW225854   3.559   0.437   6.342
 8319SOL     OW25855   1.626   7.009   5.924
 8319SOL    HW125856   1.590   6.927   5.968
 8319SOL    HW225857   1.555   0.055   5.923
 8320SOL     OW25858   3.712   3.811   4.658
 8320SOL    HW125859   3.707   3.797   4.757
 8320SOL    HW225860   3.700   3.909   4.638
 8321SOL     OW25861   0.366   6.971   0.123
 8321SOL    HW125862   0.338   6.877   0.105
 8321SOL    HW225863   0.344   0.004   0.044
 8322SOL     OW25864   6.573   1.019   0.018
 8322SOL    HW125865   6.498   0.955   0.035
 8322SOL    HW225866   6.560   1.101   0.073
 8323SOL     OW25867   4.719   4.615   1.079
 8323SOL    HW125868   4.632   4.619   1.029
 8323SOL    HW225869   4.777   4.545   1.038
 8324SOL     OW25870   6.614   6.865   6.652
 8324SOL    HW125871   6.700   6.834   6.614
 8324SOL    HW225872   6.629   6.950   6.703
 8325SOL     OW25873   1.419   5.678   5.042
 8325SOL    HW125874   1.356   5.648   4.970
 8325SOL    HW225875   1.441   5.599   5.100
 8326SOL     OW25876   2.663   3.804   0.533
 8326SOL    HW125877   2.619   3.854   0.459
 8326SOL    HW225878   2.601   3.798   0.611
 8327SOL     OW25879   0.614   0.674   5.064
 8327SOL    HW125880   0.583   0.609   4.995
 8327SOL    HW225881   0.549   0.749   5.071
 8328SOL     OW25882   0.674   6.549   5.795
 8328SOL    HW125883   0.693   6.615   5.867
 8328SOL    HW225884   0.575   6.546   5.778
 8329SOL     OW25885   0.722   2.996   4.935
 8329SOL    HW125886   0.746   3.083   4.979
 8329SOL    HW225887   0.762   2.921   4.986
 8330SOL     OW25888   3.615   0.779   6.747
 8330SOL    HW125889   3.707   0.742   6.755
 8330SOL    HW225890   3.618   0.879   6.757
 8331SOL     OW25891   1.872   1.952   0.118
 8331SOL    HW125892   1.814   1.936   0.198
 8331SOL    HW225893   1.818   1.995   0.046
 8332SOL     OW25894   5.362   4.952   1.802
 8332SOL    HW125895   5.303   4.878   1.767
 8332SOL    HW225896   5.322   4.990   1.885
 8333SOL     OW25897   2.185   4.632   1.272
 8333SOL    HW125898   2.101   4.686   1.267
 8333SOL    HW225899   2.264   4.693   1.273
 8334SOL     OW25900   2.877   2.528   6.507
 8334SOL    HW125901   2.858   2.479   6.422
 8334SOL    HW225902   2.800   2.517   6.570
 8335SOL     OW25903   5.060   2.936   6.447
 8335SOL    HW125904   5.065   2.836   6.456
 8335SOL    HW225905   5.086   2.962   6.354
 8336SOL     OW25906   1.098   3.468   3.073
 8336SOL    HW125907   1.013   3.435   3.115
 8336SOL    HW225908   1.081   3.488   2.977
 8337SOL     OW25909   0.961   1.246   4.311
 8337SOL    HW125910   0.890   1.317   4.312
 8337SOL    HW225911   1.049   1.286   4.337
 8338SOL     OW25912   3.718   4.919   2.198
 8338SOL    HW125913   3.661   4.903   2.279
 8338SOL    HW225914   3.684   4.864   2.122
 8339SOL     OW25915   6.894   0.648   0.619
 8339SOL    HW125916   6.877   0.744   0.595
 8339SOL    HW225917   6.940   0.603   0.542
 8340SOL     OW25918   5.035   2.290   1.184
 8340SOL    HW125919   4.953   2.232   1.189
 8340SOL    HW225920   5.007   2.386   1.181
 8341SOL     OW25921   3.690   0.395   0.076
 8341SOL    HW125922   3.769   0.411   0.136
 8341SOL    HW225923   3.665   0.481   0.031
 8342SOL     OW25924   3.924   6.332   6.917
 8342SOL    HW125925   3.983   6.408   6.945
 8342SOL    HW225926   3.942   6.253   6.974
 8343SOL     OW25927   6.985   4.306   4.009
 8343SOL    HW125928   7.023   4.238   3.945
 8343SOL    HW225929   6.894   4.334   3.977
 8344SOL     OW25930   0.972   5.298   4.279
 8344SOL    HW125931   0.932   5.206   4.281
 8344SOL    HW225932   0.943   5.345   4.195
 8345SOL     OW25933   5.117   0.921   2.795
 8345SOL    HW125934   5.192   0.949   2.735
 8345SOL    HW225935   5.135   0.954   2.888
 8346SOL     OW25936   4.224   3.310   5.637
 8346SOL    HW125937   4.141   3.326   5.690
 8346SOL    HW225938   4.261   3.220   5.660
 8347SOL     OW25939   2.365   0.080   5.810
 8347SOL    HW125940   2.432   0.007   5.813
 8347SOL    HW225941   2.362   0.119   5.718
 8348SOL     OW25942   3.922   6.484   1.538
 8348SOL    HW125943   3.942   6.431   1.456
 8348SOL    HW225944   3.913   6.423   1.617
 8349SOL     OW25945   1.080   6.769   2.280
 8349SOL    HW125946   1.027   6.753   2.363
 8349SOL    HW225947   1.076   6.866   2.256
 8350SOL     OW25948   2.837   0.153   6.109
 8350SOL    HW125949   2.761   0.090   6.094
 8350SOL    HW225950   2.922   0.112   6.074
 8351SOL     OW25951   6.748   4.361   4.333
 8351SOL    HW125952   6.781   4.274   4.297
 8351SOL    HW225953   6.695   4.409   4.263
 8352SOL     OW25954   2.523   5.842   1.799
 8352SOL    HW125955   2.565   5.813   1.714
 8352SOL    HW225956   2.523   5.942   1.804
 8353SOL     OW25957   1.042   3.662   2.032
 8353SOL    HW125958   1.090   3.675   1.945
 8353SOL    HW225959   1.108   3.666   2.107
 8354SOL     OW25960   3.663   6.562   4.113
 8354SOL    HW125961   3.653   6.652   4.156
 8354SOL    HW225962   3.654   6.571   4.014
 8355SOL     OW25963   1.256   6.821   5.722
 8355SOL    HW125964   1.265   6.885   5.798
 8355SOL    HW225965   1.279   6.866   5.636
 8356SOL     OW25966   1.913   5.426   1.363
 8356SOL    HW125967   1.980   5.485   1.409
 8356SOL    HW225968   1.957   5.379   1.287
 8357SOL     OW25969   4.089   5.562   5.714
 8357SOL    HW125970   4.161   5.525   5.656
 8357SOL    HW225971   4.004   5.512   5.698
 8358SOL     OW25972   1.256   2.298   5.233
 8358SOL    HW125973   1.191   2.365   5.196
 8358SOL    HW225974   1.239   2.285   5.331
 8359SOL     OW25975   3.186   1.022   5.051
 8359SOL    HW125976   3.144   1.073   5.126
 8359SOL    HW225977   3.249   0.953   5.089
 8360SOL     OW25978   4.988   6.302   0.504
 8360SOL    HW125979   5.066   6.269   0.451
 8360SOL    HW225980   4.982   6.402   0.495
 8361SOL     OW25981   2.280   6.809   6.717
 8361SOL    HW125982   2.320   6.869   6.648
 8361SOL    HW225983   2.306   6.714   6.697
 8362SOL     OW25984   6.515   3.049   0.584
 8362SOL    HW125985   6.421   3.073   0.609
 8362SOL    HW225986   6.568   3.132   0.565
 8363SOL     OW25987   3.939   2.083   0.811
 8363SOL    HW125988   3.891   2.067   0.725
 8363SOL    HW225989   3.893   2.034   0.885
 8364SOL     OW25990   0.447   2.752   3.733
 8364SOL    HW125991   0.443   2.654   3.713
 8364SOL    HW225992   0.480   2.766   3.826
 8365SOL     OW25993   2.193   2.572   1.821
 8365SOL    HW125994   2.188   2.524   1.733
 8365SOL    HW225995   2.275   2.542   1.870
 8366SOL     OW25996   4.391   5.578   0.941
 8366SOL    HW125997   4.308   5.525   0.959
 8366SOL    HW225998   4.421   5.563   0.847
 8367SOL     OW25999   3.953   5.142   5.105
 8367SOL    HW126000   3.997   5.227   5.133
 8367SOL    HW226001   3.930   5.145   5.008
 8368SOL     OW26002   1.120   6.110   0.302
 8368SOL    HW126003   1.201   6.158   0.268
 8368SOL    HW226004   1.106   6.027   0.249
 8369SOL     OW26005   1.076   1.669   0.695
 8369SOL    HW126006   1.155   1.692   0.752
 8369SOL    HW226007   1.045   1.577   0.718
 8370SOL     OW26008   2.915   1.912   6.979
 8370SOL    HW126009   2.988   1.880   0.015
 8370SOL    HW226010   2.953   1.929   6.888
 8371SOL     OW26011   1.512   3.186   5.783
 8371SOL    HW126012   1.476   3.116   5.845
 8371SOL    HW226013   1.582   3.145   5.724
 8372SOL     OW26014   2.150   6.703   2.300
 8372SOL    HW126015   2.062   6.730   2.261
 8372SOL    HW226016   2.135   6.650   2.384
 8373SOL     OW26017   0.631   1.279   4.358
 8373SOL    HW126018   0.545   1.327   4.337
 8373SOL    HW226019   0.612   1.182   4.372
 8374SOL     OW26020   1.237   1.173   4.329
 8374SOL    HW126021   1.264   1.128   4.414
 8374SOL    HW226022   1.273   1.267   4.328
 8375SOL     OW26023   4.435   0.867   5.868
 8375SOL    HW126024   4.413   0.958   5.904
 8375SOL    HW226025   4.513   0.829   5.917
 8376SOL     OW26026   1.581   0.805   3.289
 8376SOL    HW126027   1.641   0.815   3.369
 8376SOL    HW226028   1.575   0.892   3.241
 8377SOL     OW26029   5.618   5.499   6.754
 8377SOL    HW126030   5.640   5.420   6.811
 8377SOL    HW226031   5.642   5.480   6.659
 8378SOL     OW26032   5.356   5.638   3.326
 8378SOL    HW126033   5.276   5.617   3.270
 8378SOL    HW226034   5.427   5.570   3.310
 8379SOL     OW26035   5.376   1.754   2.307
 8379SOL    HW126036   5.410   1.688   2.241
 8379SOL    HW226037   5.447   1.823   2.325
 8380SOL     OW26038   0.030   5.668   6.572
 8380SOL    HW126039   7.014   5.677   6.481
 8380SOL    HW226040   0.106   5.732   6.581
 8381SOL     OW26041   6.899   2.125   2.619
 8381SOL    HW126042   6.961   2.049   2.640
 8381SOL    HW226043   6.940   2.211   2.650
 8382SOL     OW26044   2.678   0.250   6.961
 8382SOL    HW126045   2.586   0.286   6.944
 8382SOL    HW226046   2.690   0.164   6.911
 8383SOL     OW26047   2.702   7.017   4.403
 8383SOL    HW126048   2.698   0.070   4.340
 8383SOL    HW226049   2.769   6.951   4.370
 8384SOL     OW26050   6.695   2.123   1.342
 8384SOL    HW126051   6.619   2.156   1.286
 8384SOL    HW226052   6.660   2.061   1.412
 8385SOL     OW26053   4.835   3.382   0.810
 8385SOL    HW126054   4.883   3.295   0.801
 8385SOL    HW226055   4.758   3.371   0.873
 8386SOL     OW26056   1.975   6.617   1.673
 8386SOL    HW126057   1.929   6.704   1.693
 8386SOL    HW226058   1.907   6.548   1.648
 8387SOL     OW26059   2.612   1.500   1.035
 8387SOL    HW126060   2.689   1.559   1.056
 8387SOL    HW226061   2.563   1.478   1.120
 8388SOL     OW26062   2.417   6.602   0.436
 8388SOL    HW126063   2.459   6.524   0.483
 8388SOL    HW226064   2.479   6.680   0.439
 8389SOL     OW26065   1.299   3.336   4.490
 8389SOL    HW126066   1.236   3.404   4.452
 8389SOL    HW226067   1.369   3.315   4.421
 8390SOL     OW26068   2.671   0.627   5.858
 8390SOL    HW126069   2.663   0.643   5.956
 8390SOL    HW226070   2.583   0.645   5.814
 8391SOL     OW26071   5.323   5.678   1.936
 8391SOL    HW126072   5.233   5.718   1.950
 8391SOL    HW226073   5.389   5.750   1.917
 8392SOL     OW26074   6.220   5.720   4.662
 8392SOL    HW126075   6.290   5.678   4.604
 8392SOL    HW226076   6.176   5.649   4.717
 8393SOL     OW26077   6.531   6.694   3.361
 8393SOL    HW126078   6.442   6.654   3.341
 8393SOL    HW226079   6.526   6.747   3.445
 8394SOL     OW26080   0.698   1.601   2.726
 8394SOL    HW126081   0.693   1.512   2.772
 8394SOL    HW226082   0.791   1.636   2.731
 8395SOL     OW26083   0.796   6.056   4.539
 8395SOL    HW126084   0.703   6.070   4.572
 8395SOL    HW226085   0.846   5.998   4.605
 8396SOL     OW26086   4.577   4.465   2.313
 8396SOL    HW126087   4.526   4.481   2.228
 8396SOL    HW226088   4.606   4.552   2.351
 8397SOL     OW26089   1.836   6.924   2.743
 8397SOL    HW126090   1.755   6.885   2.787
 8397SOL    HW226091   1.840   6.894   2.648
 8398SOL     OW26092   3.997   1.575   0.144
 8398SOL    HW126093   4.096   1.584   0.134
 8398SOL    HW226094   3.975   1.556   0.239
 8399SOL     OW26095   5.728   5.771   1.004
 8399SOL    HW126096   5.660   5.818   0.947
 8399SOL    HW226097   5.723   5.806   1.097
 8400SOL     OW26098   0.176   0.435   2.653
 8400SOL    HW126099   0.094   0.462   2.704
 8400SOL    HW226100   0.221   0.360   2.701
 8401SOL     OW26101   4.375   3.121   6.196
 8401SOL    HW126102   4.328   3.208   6.212
 8401SOL    HW226103   4.321   3.064   6.134
 8402SOL     OW26104   3.628   2.007   6.006
 8402SOL    HW126105   3.579   2.016   5.919
 8402SOL    HW226106   3.699   1.936   5.996
 8403SOL     OW26107   1.223   1.719   3.706
 8403SOL    HW126108   1.285   1.767   3.768
 8403SOL    HW226109   1.171   1.650   3.756
 8404SOL     OW26110   5.413   6.268   5.836
 8404SOL    HW126111   5.341   6.298   5.773
 8404SOL    HW226112   5.427   6.170   5.825
 8405SOL     OW26113   1.376   2.008   6.799
 8405SOL    HW126114   1.418   2.057   6.723
 8405SOL    HW226115   1.406   1.912   6.797
 8406SOL     OW26116   4.306   1.844   0.756
 8406SOL    HW126117   4.320   1.757   0.710
 8406SOL    HW226118   4.395   1.889   0.770
 8407SOL     OW26119   5.591   4.456   4.477
 8407SOL    HW126120   5.528   4.471   4.400
 8407SOL    HW226121   5.542   4.471   4.563
 8408SOL     OW26122   4.963   7.019   3.902
 8408SOL    HW126123   5.048   6.967   3.891
 8408SOL    HW226124   4.969   0.079   3.848
 8409SOL     OW26125   0.548   1.967   3.869
 8409SOL    HW126126   0.597   1.935   3.788
 8409SOL    HW226127   0.606   1.957   3.950
 8410SOL     OW26128   5.295   0.290   1.903
 8410SOL    HW126129   5.310   0.208   1.959
 8410SOL    HW226130   5.308   0.372   1.958
 8411SOL     OW26131   1.300   4.857   3.953
 8411SOL    HW126132   1.300   4.948   3.993
 8411SOL    HW226133   1.250   4.858   3.866
 8412SOL     OW26134   4.637   2.315   1.267
 8412SOL    HW126135   4.686   2.368   1.337
 8412SOL    HW226136   4.559   2.368   1.234
 8413SOL     OW26137   4.040   5.119   0.756
 8413SOL    HW126138   4.074   5.025   0.765
 8413SOL    HW226139   3.989   5.127   0.670
 8414SOL     OW26140   3.800   6.928   2.637
 8414SOL    HW126141   3.745   6.954   2.559
 8414SOL    HW226142   3.751   6.949   2.722
 8415SOL     OW26143   6.952   4.926   3.734
 8415SOL    HW126144   6.898   4.909   3.652
 8415SOL    HW226145   6.976   4.840   3.778
 8416SOL     OW26146   5.269   4.328   2.527
 8416SOL    HW126147   5.346   4.323   2.463
 8416SOL    HW226148   5.298   4.375   2.610
 8417SOL     OW26149   2.635   6.392   5.411
 8417SOL    HW126150   2.615   6.415   5.316
 8417SOL    HW226151   2.637   6.476   5.465
 8418SOL     OW26152   5.683   5.728   2.428
 8418SOL    HW126153   5.645   5.800   2.369
 8418SOL    HW226154   5.719   5.654   2.372
 8419SOL     OW26155   5.090   0.380   1.772
 8419SOL    HW126156   5.118   0.379   1.676
 8419SOL    HW226157   5.166   0.351   1.830
 8420SOL     OW26158   4.474   0.267   0.079
 8420SOL    HW126159   4.459   0.279   7.005
 8420SOL    HW226160   4.493   0.170   0.098
 8421SOL     OW26161   2.092   0.311   1.659
 8421SOL    HW126162   2.149   0.394   1.662
 8421SOL    HW226163   2.150   0.231   1.676
 8422SOL     OW26164   5.557   5.936   0.850
 8422SOL    HW126165   5.610   6.019   0.864
 8422SOL    HW226166   5.460   5.960   0.838
 8423SOL     OW26167   3.872   4.994   6.891
 8423SOL    HW126168   3.922   4.908   6.885
 8423SOL    HW226169   3.915   5.054   6.958
 8424SOL     OW26170   3.513   2.026   2.441
 8424SOL    HW126171   3.522   2.010   2.540
 8424SOL    HW226172   3.419   2.056   2.421
 8425SOL     OW26173   6.863   5.405   1.236
 8425SOL    HW126174   6.923   5.422   1.157
 8425SOL    HW226175   6.891   5.465   1.311
 8426SOL     OW26176   3.903   3.254   3.656
 8426SOL    HW126177   3.881   3.226   3.750
 8426SOL    HW226178   3.982   3.315   3.656
 8427SOL     OW26179   1.578   4.215   5.740
 8427SOL    HW126180   1.676   4.194   5.738
 8427SOL    HW226181   1.545   4.210   5.835
 8428SOL     OW26182   6.886   4.389   1.778
 8428SOL    HW126183   6.969   4.341   1.751
 8428SOL    HW226184   6.821   4.324   1.818
 8429SOL     OW26185   3.020   4.883   4.581
 8429SOL    HW126186   3.052   4.805   4.636
 8429SOL    HW226187   2.920   4.878   4.572
 8430SOL     OW26188   4.671   5.505   2.545
 8430SOL    HW126189   4.683   5.527   2.642
 8430SOL    HW226190   4.589   5.550   2.510
 8431SOL     OW26191   2.909   4.930   1.366
 8431SOL    HW126192   2.823   4.945   1.316
 8431SOL    HW226193   2.901   4.846   1.420
 8432SOL     OW26194   4.528   5.420   6.082
 8432SOL    HW126195   4.625   5.445   6.090
 8432SOL    HW226196   4.508   5.344   6.144
 8433SOL     OW26197   1.169   3.103   6.988
 8433SOL    HW126198   1.097   3.136   6.928
 8433SOL    HW226199   1.256   3.102   6.938
 8434SOL     OW26200   3.949   6.637   5.025
 8434SOL    HW126201   3.854   6.668   5.018
 8434SOL    HW226202   3.981   6.647   5.120
 8435SOL     OW26203   4.702   1.857   1.546
 8435SOL    HW126204   4.686   1.813   1.634
 8435SOL    HW226205   4.751   1.943   1.560
 8436SOL     OW26206   3.728   5.476   3.013
 8436SOL    HW126207   3.733   5.491   2.914
 8436SOL    HW226208   3.632   5.471   3.040
 8437SOL     OW26209   0.480   0.744   1.592
 8437SOL    HW126210   0.471   0.703   1.501
 8437SOL    HW226211   0.554   0.699   1.642
 8438SOL     OW26212   2.896   4.915   2.838
 8438SOL    HW126213   2.893   4.870   2.749
 8438SOL    HW226214   2.809   4.962   2.854
 8439SOL     OW26215   6.390   5.443   1.893
 8439SOL    HW126216   6.475   5.423   1.942
 8439SOL    HW226217   6.325   5.485   1.955
 8440SOL     OW26218   6.950   0.959   2.117
 8440SOL    HW126219   6.863   0.946   2.070
 8440SOL    HW226220   6.952   0.904   2.201
 8441SOL     OW26221   5.476   6.532   0.120
 8441SOL    HW126222   5.562   6.579   0.137
 8441SOL    HW226223   5.435   6.504   0.207
 8442SOL     OW26224   3.437   3.522   6.861
 8442SOL    HW126225   3.426   3.559   6.954
 8442SOL    HW226226   3.411   3.591   6.794
 8443SOL     OW26227   0.939   0.603   3.238
 8443SOL    HW126228   0.851   0.603   3.190
 8443SOL    HW226229   0.999   0.535   3.197
 8444SOL     OW26230   3.463   6.221   3.704
 8444SOL    HW126231   3.400   6.297   3.717
 8444SOL    HW226232   3.481   6.209   3.607
 8445SOL     OW26233   3.325   4.939   2.620
 8445SOL    HW126234   3.265   4.976   2.691
 8445SOL    HW226235   3.271   4.885   2.555
 8446SOL     OW26236   5.128   5.930   2.843
 8446SOL    HW126237   5.166   6.022   2.841
 8446SOL    HW226238   5.193   5.866   2.802
 8447SOL     OW26239   5.584   2.363   2.414
 8447SOL    HW126240   5.598   2.444   2.357
 8447SOL    HW226241   5.497   2.371   2.462
 8448SOL     OW26242   0.281   3.935   6.287
 8448SOL    HW126243   0.354   3.985   6.241
 8448SOL    HW226244   0.197   3.942   6.234
 8449SOL     OW26245   0.399   3.216   4.806
 8449SOL    HW126246   0.416   3.313   4.826
 8449SOL    HW226247   0.486   3.168   4.796
 8450SOL     OW26248   1.793   6.409   2.658
 8450SOL    HW126249   1.702   6.447   2.674
 8450SOL    HW226250   1.784   6.313   2.630
 8451SOL     OW26251   3.994   2.571   0.819
 8451SOL    HW126252   4.042   2.547   0.735
 8451SOL    HW226253   3.924   2.501   0.839
 8452SOL     OW26254   6.757   0.239   1.524
 8452SOL    HW126255   6.672   0.272   1.484
 8452SOL    HW226256   6.772   0.143   1.499
 8453SOL     OW26257   0.090   4.853   6.199
 8453SOL    HW126258   0.137   4.850   6.287
 8453SOL    HW226259   0.152   4.890   6.129
 8454SOL     OW26260   1.475   6.570   2.388
 8454SOL    HW126261   1.442   6.665   2.385
 8454SOL    HW226262   1.506   6.543   2.297
 8455SOL     OW26263   4.865   1.582   1.219
 8455SOL    HW126264   4.784   1.545   1.264
 8455SOL    HW226265   4.840   1.615   1.127
 8456SOL     OW26266   5.937   5.743   3.748
 8456SOL    HW126267   5.996   5.702   3.817
 8456SOL    HW226268   5.965   5.837   3.732
 8457SOL     OW26269   6.896   6.914   5.755
 8457SOL    HW126270   6.924   6.818   5.760
 8457SOL    HW226271   6.805   6.920   5.716
 8458SOL     OW26272   1.937   1.207   6.691
 8458SOL    HW126273   1.957   1.246   6.601
 8458SOL    HW226274   2.022   1.173   6.732
 8459SOL     OW26275   3.885   6.732   2.037
 8459SOL    HW126276   3.824   6.809   2.059
 8459SOL    HW226277   3.916   6.740   1.943
 8460SOL     OW26278   4.205   3.059   6.760
 8460SOL    HW126279   4.186   3.153   6.789
 8460SOL    HW226280   4.144   2.996   6.807
 8461SOL     OW26281   0.574   3.589   1.447
 8461SOL    HW126282   0.545   3.623   1.357
 8461SOL    HW226283   0.517   3.632   1.518
 8462SOL     OW26284   4.024   3.334   0.294
 8462SOL    HW126285   3.946   3.293   0.342
 8462SOL    HW226286   4.072   3.264   0.242
 8463SOL     OW26287   6.894   2.405   0.708
 8463SOL    HW126288   6.885   2.330   0.643
 8463SOL    HW226289   6.816   2.467   0.698
 8464SOL     OW26290   7.001   3.862   5.680
 8464SOL    HW126291   6.915   3.839   5.635
 8464SOL    HW226292   6.983   3.925   5.756
 8465SOL     OW26293   2.678   2.475   1.268
 8465SOL    HW126294   2.708   2.466   1.173
 8465SOL    HW226295   2.734   2.543   1.315
 8466SOL     OW26296   6.091   0.742   5.548
 8466SOL    HW126297   6.109   0.809   5.476
 8466SOL    HW226298   6.103   0.650   5.512
 8467SOL     OW26299   3.981   0.575   0.923
 8467SOL    HW126300   3.910   0.520   0.879
 8467SOL    HW226301   3.981   0.667   0.884
 8468SOL     OW26302   5.847   3.667   6.433
 8468SOL    HW126303   5.916   3.641   6.366
 8468SOL    HW226304   5.756   3.656   6.393
 8469SOL     OW26305   3.342   2.600   5.814
 8469SOL    HW126306   3.321   2.504   5.833
 8469SOL    HW226307   3.292   2.629   5.732
 8470SOL     OW26308   0.963   5.141   0.406
 8470SOL    HW126309   0.886   5.163   0.465
 8470SOL    HW226310   0.996   5.049   0.427
 8471SOL     OW26311   3.880   0.185   5.165
 8471SOL    HW126312   3.894   0.086   5.158
 8471SOL    HW226313   3.866   0.223   5.074
 8472SOL     OW26314   6.040   2.116   5.621
 8472SOL    HW126315   6.002   2.151   5.707
 8472SOL    HW226316   5.974   2.054   5.578
 8473SOL     OW26317   4.227   4.604   0.590
 8473SOL    HW126318   4.183   4.515   0.576
 8473SOL    HW226319   4.319   4.590   0.626
 8474SOL     OW26320   3.305   4.064   2.793
 8474SOL    HW126321   3.306   4.130   2.868
 8474SOL    HW226322   3.222   4.008   2.798
 8475SOL     OW26323   0.403   3.163   1.409
 8475SOL    HW126324   0.387   3.072   1.446
 8475SOL    HW226325   0.491   3.197   1.444
 8476SOL     OW26326   6.820   1.011   0.986
 8476SOL    HW126327   6.780   1.029   1.075
 8476SOL    HW226328   6.917   1.036   0.986
 8477SOL     OW26329   5.576   5.970   2.249
 8477SOL    HW126330   5.505   5.980   2.179
 8477SOL    HW226331   5.658   5.929   2.208
 8478SOL     OW26332   1.052   1.164   5.679
 8478SOL    HW126333   0.975   1.227   5.668
 8478SOL    HW226334   1.129   1.212   5.720
 8479SOL     OW26335   1.468   2.351   1.590
 8479SOL    HW126336   1.443   2.441   1.553
 8479SOL    HW226337   1.394   2.317   1.648
 8480SOL     OW26338   4.908   2.692   6.759
 8480SOL    HW126339   4.928   2.618   6.823
 8480SOL    HW226340   4.818   2.731   6.781
 8481SOL     OW26341   3.935   2.148   4.616
 8481SOL    HW126342   3.873   2.169   4.692
 8481SOL    HW226343   4.014   2.096   4.651
 8482SOL     OW26344   4.578   0.653   0.607
 8482SOL    HW126345   4.528   0.713   0.669
 8482SOL    HW226346   4.592   0.699   0.520
 8483SOL     OW26347   2.748   5.824   3.624
 8483SOL    HW126348   2.664   5.856   3.581
 8483SOL    HW226349   2.790   5.900   3.674
 8484SOL     OW26350   6.789   6.047   5.002
 8484SOL    HW126351   6.755   5.980   5.067
 8484SOL    HW226352   6.814   6.131   5.050
 8485SOL     OW26353   4.115   2.501   0.255
 8485SOL    HW126354   4.024   2.500   0.214
 8485SOL    HW226355   4.158   2.412   0.243
 8486SOL     OW26356   1.861   1.128   2.532
 8486SOL    HW126357   1.787   1.060   2.532
 8486SOL    HW226358   1.891   1.145   2.438
 8487SOL     OW26359   5.358   1.597   6.361
 8487SOL    HW126360   5.353   1.501   6.387
 8487SOL    HW226361   5.319   1.610   6.270
 8488SOL     OW26362   5.361   5.298   3.349
 8488SOL    HW126363   5.393   5.341   3.433
 8488SOL    HW226364   5.405   5.343   3.271
 8489SOL     OW26365   6.533   0.448   1.777
 8489SOL    HW126366   6.481   0.386   1.720
 8489SOL    HW226367   6.583   0.396   1.847
 8490SOL     OW26368   3.639   6.749   5.432
 8490SOL    HW126369   3.628   6.688   5.510
 8490SOL    HW226370   3.573   6.724   5.361
 8491SOL     OW26371   2.132   5.647   2.898
 8491SOL    HW126372   2.124   5.747   2.899
 8491SOL    HW226373   2.104   5.613   2.809
 8492SOL     OW26374   5.844   4.746   3.981
 8492SOL    HW126375   5.770   4.754   3.915
 8492SOL    HW226376   5.910   4.820   3.965
 8493SOL     OW26377   2.629   1.349   0.227
 8493SOL    HW126378   2.634   1.447   0.243
 8493SOL    HW226379   2.538   1.315   0.254
 8494SOL     OW26380   5.289   5.322   2.102
 8494SOL    HW126381   5.372   5.356   2.056
 8494SOL    HW226382   5.245   5.398   2.150
 8495SOL     OW26383   0.167   5.691   0.425
 8495SOL    HW126384   0.223   5.611   0.442
 8495SOL    HW226385   0.121   5.719   0.510
 8496SOL     OW26386   5.234   1.117   2.374
 8496SOL    HW126387   5.211   1.207   2.337
 8496SOL    HW226388   5.165   1.050   2.345
 8497SOL     OW26389   0.812   0.002   3.796
 8497SOL    HW126390   0.831   0.027   3.891
 8497SOL    HW226391   0.870   6.949   3.771
 8498SOL     OW26392   5.800   7.018   3.244
 8498SOL    HW126393   5.821   6.934   3.294
 8498SOL    HW226394   5.701   0.000   3.230
 8499SOL     OW26395   0.622   5.201   0.463
 8499SOL    HW126396   0.523   5.205   0.472
 8499SOL    HW226397   0.658   5.290   0.436
 8500SOL     OW26398   1.549   6.745   5.993
 8500SOL    HW126399   1.451   6.743   6.011
 8500SOL    HW226400   1.586   6.652   5.999
 8501SOL     OW26401   0.593   2.239   0.077
 8501SOL    HW126402   0.498   2.249   0.047
 8501SOL    HW226403   0.610   2.299   0.155
 8502SOL     OW26404   0.880   2.866   0.707
 8502SOL    HW126405   0.960   2.818   0.743
 8502SOL    HW226406   0.909   2.954   0.670
 8503SOL     OW26407   6.703   5.823   5.157
 8503SOL    HW126408   6.638   5.778   5.095
 8503SOL    HW226409   6.719   5.765   5.237
 8504SOL     OW26410   1.954   5.525   2.123
 8504SOL    HW126411   2.020   5.467   2.075
 8504SOL    HW226412   1.978   5.621   2.108
 8505SOL     OW26413   5.284   3.993   2.742
 8505SOL    HW126414   5.328   4.005   2.653
 8505SOL    HW226415   5.271   3.895   2.760
 8506SOL     OW26416   1.385   1.042   6.733
 8506SOL    HW126417   1.437   1.092   6.802
 8506SOL    HW226418   1.324   0.977   6.778
 8507SOL     OW26419   4.728   0.218   4.708
 8507SOL    HW126420   4.689   0.291   4.764
 8507SOL    HW226421   4.806   0.253   4.657
 8508SOL     OW26422   3.885   1.848   6.033
 8508SOL    HW126423   3.881   1.906   6.114
 8508SOL    HW226424   3.973   1.801   6.030
 8509SOL     OW26425   5.354   6.542   3.796
 8509SOL    HW126426   5.321   6.453   3.764
 8509SOL    HW226427   5.351   6.544   3.896
 8510SOL     OW26428   5.178   2.907   3.695
 8510SOL    HW126429   5.190   2.930   3.792
 8510SOL    HW226430   5.095   2.853   3.684
 8511SOL     OW26431   6.412   3.352   2.119
 8511SOL    HW126432   6.319   3.329   2.144
 8511SOL    HW226433   6.411   3.427   2.053
 8512SOL     OW26434   2.351   0.273   2.903
 8512SOL    HW126435   2.334   0.323   2.818
 8512SOL    HW226436   2.366   0.177   2.882
 8513SOL     OW26437   6.902   6.240   0.398
 8513SOL    HW126438   6.973   6.246   0.328
 8513SOL    HW226439   6.813   6.232   0.354
 8514SOL     OW26440   3.350   6.766   3.163
 8514SOL    HW126441   3.343   6.694   3.094
 8514SOL    HW226442   3.284   6.750   3.236
 8515SOL     OW26443   5.296   2.358   1.473
 8515SOL    HW126444   5.308   2.361   1.374
 8515SOL    HW226445   5.200   2.336   1.494
 8516SOL     OW26446   6.477   1.440   2.898
 8516SOL    HW126447   6.464   1.343   2.880
 8516SOL    HW226448   6.575   1.461   2.900
 8517SOL     OW26449   0.984   2.621   6.867
 8517SOL    HW126450   1.019   2.542   6.917
 8517SOL    HW226451   0.902   2.595   6.816
 8518SOL     OW26452   4.419   5.129   0.549
 8518SOL    HW126453   4.384   5.036   0.537
 8518SOL    HW226454   4.496   5.144   0.487
 8519SOL     OW26455   1.903   5.844   2.326
 8519SOL    HW126456   1.922   5.823   2.230
 8519SOL    HW226457   1.833   5.915   2.331
 8520SOL     OW26458   3.634   1.052   0.414
 8520SOL    HW126459   3.698   1.037   0.338
 8520SOL    HW226460   3.652   1.141   0.456
 8521SOL     OW26461   1.180   6.158   6.169
 8521SOL    HW126462   1.164   6.218   6.091
 8521SOL    HW226463   1.133   6.195   6.250
 8522SOL     OW26464   1.339   6.340   2.420
 8522SOL    HW126465   1.410   6.410   2.411
 8522SOL    HW226466   1.276   6.366   2.494
 8523SOL     OW26467   2.099   6.938   5.544
 8523SOL    HW126468   2.089   6.897   5.453
 8523SOL    HW226469   2.149   7.024   5.537
 8524SOL     OW26470   1.201   3.556   4.789
 8524SOL    HW126471   1.178   3.571   4.885
 8524SOL    HW226472   1.294   3.521   4.782
 8525SOL     OW26473   6.186   3.481   3.167
 8525SOL    HW126474   6.186   3.454   3.070
 8525SOL    HW226475   6.266   3.443   3.212
 8526SOL     OW26476   2.549   3.166   1.658
 8526SOL    HW126477   2.590   3.232   1.721
 8526SOL    HW226478   2.615   3.144   1.586
 8527SOL     OW26479   3.882   0.910   4.237
 8527SOL    HW126480   3.881   1.004   4.202
 8527SOL    HW226481   3.790   0.883   4.262
 8528SOL     OW26482   4.849   3.798   6.791
 8528SOL    HW126483   4.889   3.781   6.881
 8528SOL    HW226484   4.841   3.897   6.777
 8529SOL     OW26485   1.678   5.507   0.308
 8529SOL    HW126486   1.719   5.458   0.385
 8529SOL    HW226487   1.708   5.602   0.308
 8530SOL     OW26488   1.743   4.967   5.484
 8530SOL    HW126489   1.742   4.985   5.583
 8530SOL    HW226490   1.695   4.881   5.466
 8531SOL     OW26491   5.558   3.791   2.947
 8531SOL    HW126492   5.473   3.768   2.995
 8531SOL    HW226493   5.600   3.707   2.913
 8532SOL     OW26494   4.032   4.889   4.872
 8532SOL    HW126495   4.033   4.795   4.908
 8532SOL    HW226496   3.945   4.932   4.892
 8533SOL     OW26497   2.386   0.988   5.209
 8533SOL    HW126498   2.320   0.937   5.265
 8533SOL    HW226499   2.349   1.078   5.186
 8534SOL     OW26500   0.650   4.085   2.813
 8534SOL    HW126501   0.705   4.044   2.886
 8534SOL    HW226502   0.656   4.028   2.731
 8535SOL     OW26503   1.094   2.243   4.458
 8535SOL    HW126504   1.016   2.264   4.518
 8535SOL    HW226505   1.115   2.323   4.402
 8536SOL     OW26506   6.456   2.630   5.208
 8536SOL    HW126507   6.469   2.600   5.114
 8536SOL    HW226508   6.486   2.558   5.271
 8537SOL     OW26509   5.793   0.787   0.719
 8537SOL    HW126510   5.841   0.726   0.656
 8537SOL    HW226511   5.757   0.865   0.669
 8538SOL     OW26512   0.063   0.399   4.941
 8538SOL    HW126513   0.096   0.421   5.033
 8538SOL    HW226514   0.136   0.356   4.889
 8539SOL     OW26515   6.665   2.229   2.504
 8539SOL    HW126516   6.743   2.177   2.537
 8539SOL    HW226517   6.592   2.227   2.573
 8540SOL     OW26518   2.655   1.013   0.517
 8540SOL    HW126519   2.725   1.071   0.560
 8540SOL    HW226520   2.687   0.918   0.517
 8541SOL     OW26521   3.024   1.350   5.082
 8541SOL    HW126522   3.075   1.314   5.161
 8541SOL    HW226523   3.087   1.395   5.019
 8542SOL     OW26524   2.875   4.265   6.549
 8542SOL    HW126525   2.855   4.346   6.493
 8542SOL    HW226526   2.974   4.254   6.557
 8543SOL     OW26527   2.521   1.958   5.585
 8543SOL    HW126528   2.495   2.039   5.534
 8543SOL    HW226529   2.502   1.972   5.682
 8544SOL     OW26530   4.751   3.789   5.306
 8544SOL    HW126531   4.690   3.813   5.381
 8544SOL    HW226532   4.724   3.700   5.268
 8545SOL     OW26533   3.742   6.750   4.625
 8545SOL    HW126534   3.669   6.739   4.691
 8545SOL    HW226535   3.814   6.682   4.642
 8546SOL     OW26536   6.139   0.505   1.583
 8546SOL    HW126537   6.229   0.523   1.544
 8546SOL    HW226538   6.147   0.437   1.656
 8547SOL     OW26539   6.956   0.302   5.830
 8547SOL    HW126540   6.890   0.336   5.897
 8547SOL    HW226541   0.017   0.280   5.877
 8548SOL     OW26542   0.286   2.926   6.084
 8548SOL    HW126543   0.348   2.938   6.162
 8548SOL    HW226544   0.339   2.929   5.999
 8549SOL     OW26545   1.497   1.352   3.722
 8549SOL    HW126546   1.501   1.271   3.781
 8549SOL    HW226547   1.589   1.376   3.691
 8550SOL     OW26548   0.499   4.504   6.707
 8550SOL    HW126549   0.538   4.556   6.783
 8550SOL    HW226550   0.491   4.408   6.732
 8551SOL     OW26551   1.782   2.484   6.541
 8551SOL    HW126552   1.878   2.459   6.550
 8551SOL    HW226553   1.774   2.573   6.497
 8552SOL     OW26554   3.082   0.842   2.103
 8552SOL    HW126555   3.168   0.882   2.136
 8552SOL    HW226556   3.005   0.883   2.152
 8553SOL     OW26557   4.159   2.992   0.767
 8553SOL    HW126558   4.099   2.964   0.693
 8553SOL    HW226559   4.175   2.916   0.829
 8554SOL     OW26560   0.967   6.902   1.015
 8554SOL    HW126561   0.974   6.803   1.025
 8554SOL    HW226562   1.002   6.929   0.925
 8555SOL     OW26563   4.349   1.719   3.813
 8555SOL    HW126564   4.378   1.711   3.908
 8555SOL    HW226565   4.383   1.641   3.761
 8556SOL     OW26566   1.961   6.395   6.101
 8556SOL    HW126567   1.966   6.378   6.003
 8556SOL    HW226568   2.029   6.464   6.127
 8557SOL     OW26569   6.371   1.028   0.266
 8557SOL    HW126570   6.367   0.932   0.294
 8557SOL    HW226571   6.315   1.041   0.185
 8558SOL     OW26572   2.495   4.927   3.106
 8558SOL    HW126573   2.568   4.974   3.156
 8558SOL    HW226574   2.532   4.889   3.022
 8559SOL     OW26575   0.899   5.615   1.863
 8559SOL    HW126576   0.945   5.528   1.874
 8559SOL    HW226577   0.949   5.686   1.912
 8560SOL     OW26578   2.156   4.888   1.097
 8560SOL    HW126579   2.108   4.971   1.125
 8560SOL    HW226580   2.240   4.878   1.151
 8561SOL     OW26581   3.386   0.582   2.968
 8561SOL    HW126582   3.305   0.616   2.922
 8561SOL    HW226583   3.371   0.487   2.997
 8562SOL     OW26584   3.618   1.073   0.084
 8562SOL    HW126585   3.596   1.104   7.016
 8562SOL    HW226586   3.556   1.116   0.149
 8563SOL     OW26587   1.602   5.667   2.493
 8563SOL    HW126588   1.656   5.722   2.557
 8563SOL    HW226589   1.649   5.661   2.406
 8564SOL     OW26590   3.659   6.415   0.262
 8564SOL    HW126591   3.754   6.385   0.255
 8564SOL    HW226592   3.625   6.442   0.171
 8565SOL     OW26593   3.701   5.605   1.330
 8565SOL    HW126594   3.758   5.523   1.334
 8565SOL    HW226595   3.612   5.586   1.371
 8566SOL     OW26596   2.598   1.017   2.537
 8566SOL    HW126597   2.640   0.984   2.452
 8566SOL    HW226598   2.625   0.958   2.613
 8567SOL     OW26599   1.251   1.768   1.140
 8567SOL    HW126600   1.306   1.703   1.192
 8567SOL    HW226601   1.309   1.817   1.075
 8568SOL     OW26602   6.772   1.367   0.212
 8568SOL    HW126603   6.811   1.327   0.295
 8568SOL    HW226604   6.792   1.308   0.134
 8569SOL     OW26605   5.602   2.654   6.042
 8569SOL    HW126606   5.547   2.578   6.007
 8569SOL    HW226607   5.558   2.741   6.019
 8570SOL     OW26608   1.439   1.975   4.808
 8570SOL    HW126609   1.494   2.005   4.885
 8570SOL    HW226610   1.498   1.960   4.729
 8571SOL     OW26611   1.723   1.280   4.162
 8571SOL    HW126612   1.807   1.280   4.109
 8571SOL    HW226613   1.705   1.373   4.195
 8572SOL     OW26614   3.062   4.065   5.652
 8572SOL    HW126615   3.082   4.163   5.650
 8572SOL    HW226616   2.969   4.051   5.684
 8573SOL     OW26617   3.022   6.079   0.385
 8573SOL    HW126618   2.925   6.070   0.408
 8573SOL    HW226619   3.041   6.175   0.363
 8574SOL     OW26620   0.240   6.694   6.173
 8574SOL    HW126621   0.268   6.744   6.255
 8574SOL    HW226622   0.166   6.631   6.195
 8575SOL     OW26623   3.566   0.600   2.413
 8575SOL    HW126624   3.508   0.574   2.491
 8575SOL    HW226625   3.583   0.698   2.416
 8576SOL     OW26626   0.814   3.785   4.427
 8576SOL    HW126627   0.818   3.755   4.522
 8576SOL    HW226628   0.894   3.751   4.378
 8577SOL     OW26629   2.302   0.795   5.993
 8577SOL    HW126630   2.211   0.819   6.028
 8577SOL    HW226631   2.359   0.877   5.992
 8578SOL     OW26632   6.501   6.346   5.505
 8578SOL    HW126633   6.549   6.428   5.536
 8578SOL    HW226634   6.462   6.298   5.584
 8579SOL     OW26635   2.503   6.394   2.330
 8579SOL    HW126636   2.559   6.417   2.410
 8579SOL    HW226637   2.406   6.396   2.356
 8580SOL     OW26638   0.885   6.098   1.446
 8580SOL    HW126639   0.915   6.048   1.364
 8580SOL    HW226640   0.873   6.033   1.521
 8581SOL     OW26641   3.599   5.006   1.302
 8581SOL    HW126642   3.589   5.092   1.250
 8581SOL    HW226643   3.691   5.000   1.339
 8582SOL     OW26644   4.005   4.564   5.586
 8582SOL    HW126645   4.022   4.662   5.597
 8582SOL    HW226646   3.946   4.532   5.661
 8583SOL     OW26647   4.161   0.890   3.206
 8583SOL    HW126648   4.197   0.799   3.183
 8583SOL    HW226649   4.088   0.913   3.143
 8584SOL     OW26650   6.455   1.162   4.944
 8584SOL    HW126651   6.414   1.252   4.929
 8584SOL    HW226652   6.550   1.164   4.911
 8585SOL     OW26653   5.859   1.857   0.947
 8585SOL    HW126654   5.860   1.944   0.897
 8585SOL    HW226655   5.863   1.876   1.045
 8586SOL     OW26656   5.803   6.334   1.551
 8586SOL    HW126657   5.852   6.281   1.482
 8586SOL    HW226658   5.863   6.349   1.630
 8587SOL     OW26659   0.834   1.852   4.845
 8587SOL    HW126660   0.805   1.872   4.751
 8587SOL    HW226661   0.916   1.904   4.866
 8588SOL     OW26662   3.675   1.476   0.067
 8588SOL    HW126663   3.685   1.572   0.042
 8588SOL    HW226664   3.605   1.433   0.010
 8589SOL     OW26665   6.823   3.043   5.193
 8589SOL    HW126666   6.914   3.001   5.185
 8589SOL    HW226667   6.783   3.019   5.281
 8590SOL     OW26668   6.828   0.629   2.821
 8590SOL    HW126669   6.748   0.609   2.766
 8590SOL    HW226670   6.802   0.686   2.899
 8591SOL     OW26671   6.251   4.928   0.481
 8591SOL    HW126672   6.334   4.983   0.492
 8591SOL    HW226673   6.273   4.832   0.497
 8592SOL     OW26674   0.560   2.690   6.886
 8592SOL    HW126675   0.546   2.610   6.945
 8592SOL    HW226676   0.509   2.768   6.923
 8593SOL     OW26677   3.157   0.774   6.648
 8593SOL    HW126678   3.205   0.861   6.659
 8593SOL    HW226679   3.223   0.703   6.622
 8594SOL     OW26680   6.056   2.669   6.185
 8594SOL    HW126681   5.967   2.640   6.150
 8594SOL    HW226682   6.122   2.671   6.111
 8595SOL     OW26683   5.631   0.141   2.857
 8595SOL    HW126684   5.568   0.195   2.912
 8595SOL    HW226685   5.707   0.109   2.914
 8596SOL     OW26686   1.189   3.363   3.494
 8596SOL    HW126687   1.099   3.322   3.507
 8596SOL    HW226688   1.188   3.456   3.530
 8597SOL     OW26689   6.410   2.459   0.860
 8597SOL    HW126690   6.355   2.381   0.890
 8597SOL    HW226691   6.421   2.523   0.936
 8598SOL     OW26692   5.521   0.747   4.914
 8598SOL    HW126693   5.484   0.682   4.980
 8598SOL    HW226694   5.573   0.817   4.963
 8599SOL     OW26695   1.539   3.044   3.438
 8599SOL    HW126696   1.474   3.017   3.509
 8599SOL    HW226697   1.560   3.141   3.447
 8600SOL     OW26698   4.899   3.684   0.995
 8600SOL    HW126699   4.982   3.643   0.957
 8600SOL    HW226700   4.925   3.747   1.069
 8601SOL     OW26701   0.586   1.373   3.506
 8601SOL    HW126702   0.530   1.291   3.516
 8601SOL    HW226703   0.561   1.421   3.422
 8602SOL     OW26704   2.543   6.605   3.439
 8602SOL    HW126705   2.505   6.697   3.453
 8602SOL    HW226706   2.625   6.595   3.495
 8603SOL     OW26707   5.733   1.402   0.116
 8603SOL    HW126708   5.748   1.460   0.196
 8603SOL    HW226709   5.803   1.421   0.048
 8604SOL     OW26710   0.410   3.261   6.374
 8604SOL    HW126711   0.373   3.341   6.327
 8604SOL    HW226712   0.353   3.241   6.454
 8605SOL     OW26713   0.351   4.602   4.494
 8605SOL    HW126714   0.252   4.620   4.497
 8605SOL    HW226715   0.379   4.590   4.399
 8606SOL     OW26716   2.720   1.898   6.332
 8606SOL    HW126717   2.669   1.971   6.377
 8606SOL    HW226718   2.741   1.926   6.238
 8607SOL     OW26719   2.398   4.956   0.697
 8607SOL    HW126720   2.310   4.962   0.650
 8607SOL    HW226721   2.470   4.994   0.639
 8608SOL     OW26722   2.608   4.636   2.671
 8608SOL    HW126723   2.611   4.593   2.581
 8608SOL    HW226724   2.534   4.597   2.725
 8609SOL     OW26725   4.965   1.023   3.762
 8609SOL    HW126726   4.983   1.095   3.829
 8609SOL    HW226727   5.048   0.969   3.748
 8610SOL     OW26728   6.970   6.309   3.052
 8610SOL    HW126729   6.874   6.308   3.082
 8610SOL    HW226730   7.015   6.390   3.089
 8611SOL     OW26731   3.050   1.092   4.019
 8611SOL    HW126732   3.029   1.166   3.954
 8611SOL    HW226733   2.986   1.016   4.004
 8612SOL     OW26734   2.871   3.675   2.755
 8612SOL    HW126735   2.867   3.653   2.658
 8612SOL    HW226736   2.782   3.655   2.797
 8613SOL     OW26737   2.822   2.682   1.367
 8613SOL    HW126738   2.880   2.758   1.394
 8613SOL    HW226739   2.865   2.595   1.391
 8614SOL     OW26740   1.154   2.585   2.212
 8614SOL    HW126741   1.169   2.650   2.137
 8614SOL    HW226742   1.239   2.575   2.264
 8615SOL     OW26743   5.156   2.062   4.803
 8615SOL    HW126744   5.100   1.980   4.818
 8615SOL    HW226745   5.149   2.122   4.882
 8616SOL     OW26746   3.188   4.860   2.408
 8616SOL    HW126747   3.129   4.933   2.372
 8616SOL    HW226748   3.235   4.815   2.332
 8617SOL     OW26749   5.744   0.062   3.991
 8617SOL    HW126750   5.687   0.061   3.909
 8617SOL    HW226751   5.804   0.142   3.989
 8618SOL     OW26752   6.469   3.834   1.055
 8618SOL    HW126753   6.475   3.735   1.048
 8618SOL    HW226754   6.553   3.870   1.097
 8619SOL     OW26755   4.607   5.088   2.152
 8619SOL    HW126756   4.629   4.992   2.167
 8619SOL    HW226757   4.529   5.095   2.090
 8620SOL     OW26758   2.015   0.367   4.385
 8620SOL    HW126759   2.109   0.389   4.411
 8620SOL    HW226760   1.954   0.382   4.464
 8621SOL     OW26761   4.731   2.769   2.197
 8621SOL    HW126762   4.747   2.810   2.287
 8621SOL    HW226763   4.730   2.842   2.128
 8622SOL     OW26764   6.304   5.360   2.154
 8622SOL    HW126765   6.387   5.310   2.180
 8622SOL    HW226766   6.262   5.400   2.236
 8623SOL     OW26767   6.875   3.287   4.714
 8623SOL    HW126768   6.930   3.220   4.763
 8623SOL    HW226769   6.779   3.263   4.722
 8624SOL     OW26770   3.411   3.612   6.126
 8624SOL    HW126771   3.454   3.523   6.113
 8624SOL    HW226772   3.437   3.673   6.051
 8625SOL     OW26773   3.935   0.940   5.262
 8625SOL    HW126774   4.013   0.899   5.310
 8625SOL    HW226775   3.887   1.002   5.323
 8626SOL     OW26776   4.421   2.560   0.620
 8626SOL    HW126777   4.451   2.655   0.625
 8626SOL    HW226778   4.500   2.502   0.601
 8627SOL     OW26779   1.613   1.651   2.164
 8627SOL    HW126780   1.611   1.657   2.064
 8627SOL    HW226781   1.654   1.733   2.202
 8628SOL     OW26782   6.758   6.773   0.118
 8628SOL    HW126783   6.747   6.857   0.171
 8628SOL    HW226784   6.714   6.783   0.029
 8629SOL     OW26785   0.933   0.038   4.647
 8629SOL    HW126786   0.835   0.054   4.642
 8629SOL    HW226787   0.957   6.984   4.590
 8630SOL     OW26788   4.920   3.071   3.466
 8630SOL    HW126789   4.853   3.048   3.537
 8630SOL    HW226790   5.003   3.108   3.509
 8631SOL     OW26791   2.412   5.700   6.736
 8631SOL    HW126792   2.434   5.603   6.726
 8631SOL    HW226793   2.473   5.742   6.804
 8632SOL     OW26794   3.980   4.422   5.355
 8632SOL    HW126795   3.996   4.479   5.435
 8632SOL    HW226796   4.064   4.415   5.301
 8633SOL     OW26797   5.344   3.858   5.896
 8633SOL    HW126798   5.309   3.862   5.802
 8633SOL    HW226799   5.267   3.850   5.960
 8634SOL     OW26800   4.960   4.872   0.506
 8634SOL    HW126801   5.003   4.962   0.518
 8634SOL    HW226802   5.029   4.807   0.473
 8635SOL     OW26803   6.207   2.895   0.012
 8635SOL    HW126804   6.139   2.822   0.018
 8635SOL    HW226805   6.236   2.922   0.104
 8636SOL     OW26806   4.093   5.694   0.566
 8636SOL    HW126807   4.094   5.743   0.479
 8636SOL    HW226808   4.182   5.706   0.612
 8637SOL     OW26809   2.191   1.301   6.540
 8637SOL    HW126810   2.277   1.304   6.490
 8637SOL    HW226811   2.118   1.270   6.479
 8638SOL     OW26812   4.206   2.767   5.395
 8638SOL    HW126813   4.173   2.715   5.316
 8638SOL    HW226814   4.209   2.707   5.475
 8639SOL     OW26815   5.056   3.299   0.006
 8639SOL    HW126816   5.155   3.311   0.019
 8639SOL    HW226817   5.021   3.372   6.972
 8640SOL     OW26818   3.854   3.124   1.519
 8640SOL    HW126819   3.908   3.199   1.557
 8640SOL    HW226820   3.812   3.153   1.433
 8641SOL     OW26821   4.224   5.369   3.620
 8641SOL    HW126822   4.161   5.304   3.661
 8641SOL    HW226823   4.272   5.324   3.544
 8642SOL     OW26824   0.526   6.299   3.996
 8642SOL    HW126825   0.431   6.312   4.025
 8642SOL    HW226826   0.554   6.376   3.939
 8643SOL     OW26827   2.557   6.864   0.398
 8643SOL    HW126828   2.464   6.887   0.370
 8643SOL    HW226829   2.593   6.938   0.456
 8644SOL     OW26830   5.922   2.256   6.127
 8644SOL    HW126831   5.893   2.351   6.136
 8644SOL    HW226832   5.842   2.196   6.128
 8645SOL     OW26833   5.388   4.484   1.482
 8645SOL    HW126834   5.288   4.482   1.485
 8645SOL    HW226835   5.418   4.539   1.404
 8646SOL     OW26836   0.075   2.290   6.094
 8646SOL    HW126837   0.016   2.304   6.173
 8646SOL    HW226838   0.058   2.360   6.025
 8647SOL     OW26839   3.239   5.317   1.374
 8647SOL    HW126840   3.220   5.245   1.307
 8647SOL    HW226841   3.181   5.304   1.455
 8648SOL     OW26842   5.514   6.500   0.893
 8648SOL    HW126843   5.485   6.574   0.954
 8648SOL    HW226844   5.488   6.522   0.799
 8649SOL     OW26845   4.560   6.438   6.885
 8649SOL    HW126846   4.605   6.433   6.796
 8649SOL    HW226847   4.462   6.455   6.871
 8650SOL     OW26848   1.670   0.144   4.324
 8650SOL    HW126849   1.697   0.050   4.341
 8650SOL    HW226850   1.572   0.155   4.342
 8651SOL     OW26851   2.861   1.333   0.989
 8651SOL    HW126852   2.891   1.238   0.990
 8651SOL    HW226853   2.815   1.355   1.076
 8652SOL     OW26854   0.657   4.934   4.166
 8652SOL    HW126855   0.699   4.846   4.189
 8652SOL    HW226856   0.572   4.918   4.116
 8653SOL     OW26857   6.381   1.617   5.801
 8653SOL    HW126858   6.390   1.654   5.709
 8653SOL    HW226859   6.390   1.691   5.868
 8654SOL     OW26860   0.969   4.831   1.598
 8654SOL    HW126861   0.909   4.820   1.518
 8654SOL    HW226862   0.965   4.925   1.630
 8655SOL     OW26863   6.352   1.160   5.267
 8655SOL    HW126864   6.395   1.182   5.354
 8655SOL    HW226865   6.420   1.121   5.205
 8656SOL     OW26866   5.349   0.033   2.026
 8656SOL    HW126867   5.266   7.005   2.040
 8656SOL    HW226868   5.376   0.077   2.111
 8657SOL     OW26869   5.828   6.316   0.383
 8657SOL    HW126870   5.773   6.233   0.374
 8657SOL    HW226871   5.778   6.382   0.440
 8658SOL     OW26872   5.936   5.606   1.013
 8658SOL    HW126873   5.858   5.669   1.011
 8658SOL    HW226874   5.978   5.608   1.103
 8659SOL     OW26875   4.562   2.560   2.905
 8659SOL    HW126876   4.590   2.494   2.835
 8659SOL    HW226877   4.605   2.649   2.886
 8660SOL     OW26878   0.291   2.754   1.658
 8660SOL    HW126879   0.265   2.807   1.739
 8660SOL    HW226880   0.357   2.684   1.684
 8661SOL     OW26881   6.446   3.404   3.261
 8661SOL    HW126882   6.484   3.485   3.215
 8661SOL    HW226883   6.465   3.410   3.359
 8662SOL     OW26884   3.556   6.080   2.230
 8662SOL    HW126885   3.560   6.106   2.133
 8662SOL    HW226886   3.597   6.152   2.285
 8663SOL     OW26887   2.841   5.718   2.977
 8663SOL    HW126888   2.882   5.798   3.020
 8663SOL    HW226889   2.854   5.638   3.035
 8664SOL     OW26890   2.008   5.318   2.855
 8664SOL    HW126891   1.925   5.296   2.907
 8664SOL    HW226892   2.067   5.376   2.909
 8665SOL     OW26893   6.581   5.129   5.859
 8665SOL    HW126894   6.631   5.171   5.783
 8665SOL    HW226895   6.531   5.049   5.826
 8666SOL     OW26896   5.726   0.037   4.240
 8666SOL    HW126897   5.728   0.054   4.142
 8666SOL    HW226898   5.738   6.964   4.258
 8667SOL     OW26899   4.965   1.185   4.845
 8667SOL    HW126900   4.986   1.274   4.805
 8667SOL    HW226901   4.932   1.123   4.774
 8668SOL     OW26902   5.157   3.025   4.762
 8668SOL    HW126903   5.112   2.967   4.829
 8668SOL    HW226904   5.214   3.093   4.810
 8669SOL     OW26905   0.013   6.807   6.409
 8669SOL    HW126906   0.019   6.743   6.332
 8669SOL    HW226907   0.105   6.832   6.439
 8670SOL     OW26908   5.401   4.937   5.858
 8670SOL    HW126909   5.403   4.883   5.942
 8670SOL    HW226910   5.471   4.903   5.795
 8671SOL     OW26911   0.421   1.779   2.079
 8671SOL    HW126912   0.327   1.813   2.087
 8671SOL    HW226913   0.452   1.789   1.984
 8672SOL     OW26914   0.387   0.559   3.337
 8672SOL    HW126915   0.468   0.506   3.312
 8672SOL    HW226916   0.305   0.504   3.319
 8673SOL     OW26917   6.712   1.661   0.054
 8673SOL    HW126918   6.635   1.708   0.097
 8673SOL    HW226919   6.786   1.651   0.121
 8674SOL     OW26920   7.006   4.137   3.033
 8674SOL    HW126921   6.940   4.211   3.019
 8674SOL    HW226922   0.037   4.127   2.950
 8675SOL     OW26923   4.064   1.351   5.756
 8675SOL    HW126924   4.038   1.256   5.737
 8675SOL    HW226925   4.095   1.394   5.671
 8676SOL     OW26926   5.769   1.062   1.258
 8676SOL    HW126927   5.825   1.082   1.338
 8676SOL    HW226928   5.704   1.136   1.242
 8677SOL     OW26929   1.893   5.988   5.344
 8677SOL    HW126930   1.810   6.040   5.367
 8677SOL    HW226931   1.959   5.998   5.418
 8678SOL     OW26932   1.118   6.663   0.157
 8678SOL    HW126933   1.193   6.685   0.219
 8678SOL    HW226934   1.092   6.745   0.105
 8679SOL     OW26935   2.237   0.974   4.126
 8679SOL    HW126936   2.248   1.029   4.209
 8679SOL    HW226937   2.326   0.948   4.090
 8680SOL     OW26938   6.360   2.639   6.495
 8680SOL    HW126939   6.286   2.702   6.472
 8680SOL    HW226940   6.330   2.579   6.570
 8681SOL     OW26941   4.690   6.102   1.391
 8681SOL    HW126942   4.739   6.121   1.306
 8681SOL    HW226943   4.605   6.053   1.371
 8682SOL     OW26944   6.579   0.609   0.934
 8682SOL    HW126945   6.615   0.682   0.876
 8682SOL    HW226946   6.582   0.523   0.884
 8683SOL     OW26947   1.401   3.258   4.905
 8683SOL    HW126948   1.401   3.293   4.999
 8683SOL    HW226949   1.444   3.326   4.845
 8684SOL     OW26950   0.348   3.511   4.540
 8684SOL    HW126951   0.411   3.557   4.603
 8684SOL    HW226952   0.364   3.544   4.447
 8685SOL     OW26953   5.269   2.543   6.661
 8685SOL    HW126954   5.229   2.623   6.617
 8685SOL    HW226955   5.352   2.515   6.613
 8686SOL     OW26956   6.526   6.532   3.082
 8686SOL    HW126957   6.439   6.527   3.033
 8686SOL    HW226958   6.575   6.615   3.054
 8687SOL     OW26959   6.180   4.250   3.106
 8687SOL    HW126960   6.157   4.231   3.201
 8687SOL    HW226961   6.097   4.254   3.050
 8688SOL     OW26962   2.005   4.136   6.572
 8688SOL    HW126963   2.089   4.136   6.626
 8688SOL    HW226964   1.982   4.042   6.546
 8689SOL     OW26965   4.749   3.141   0.599
 8689SOL    HW126966   4.840   3.113   0.571
 8689SOL    HW226967   4.681   3.102   0.536
 8690SOL     OW26968   0.737   2.295   3.015
 8690SOL    HW126969   0.776   2.368   3.070
 8690SOL    HW226970   0.810   2.236   2.980
 8691SOL     OW26971   3.517   1.765   5.100
 8691SOL    HW126972   3.549   1.682   5.053
 8691SOL    HW226973   3.436   1.800   5.054
 8692SOL     OW26974   4.107   2.089   5.682
 8692SOL    HW126975   4.051   2.155   5.633
 8692SOL    HW226976   4.115   2.005   5.629
 8693SOL     OW26977   6.622   1.546   6.520
 8693SOL    HW126978   6.654   1.468   6.573
 8693SOL    HW226979   6.523   1.556   6.531
 8694SOL     OW26980   6.068   2.458   4.648
 8694SOL    HW126981   6.021   2.372   4.630
 8694SOL    HW226982   6.122   2.450   4.732
 8695SOL     OW26983   3.976   3.398   6.290
 8695SOL    HW126984   3.923   3.481   6.278
 8695SOL    HW226985   3.996   3.385   6.387
 8696SOL     OW26986   2.159   5.990   5.145
 8696SOL    HW126987   2.062   5.970   5.132
 8696SOL    HW226988   2.171   6.089   5.156
 8697SOL     OW26989   1.656   4.534   5.635
 8697SOL    HW126990   1.733   4.518   5.696
 8697SOL    HW226991   1.606   4.448   5.620
 8698SOL     OW26992   5.280   5.859   6.155
 8698SOL    HW126993   5.369   5.896   6.182
 8698SOL    HW226994   5.219   5.860   6.234
 8699SOL     OW26995   2.431   2.991   6.292
 8699SOL    HW126996   2.453   3.064   6.228
 8699SOL    HW226997   2.482   3.004   6.377
 8700SOL     OW26998   0.987   0.481   5.031
 8700SOL    HW126999   0.969   0.409   4.964
 8700SOL    HW227000   0.935   0.562   5.006
 8701SOL     OW27001   1.631   1.538   6.821
 8701SOL    HW127002   1.681   1.467   6.871
 8701SOL    HW227003   1.586   1.599   6.887
 8702SOL     OW27004   5.056   5.357   1.542
 8702SOL    HW127005   5.006   5.359   1.456
 8702SOL    HW227006   5.129   5.426   1.540
 8703SOL     OW27007   2.803   4.634   6.735
 8703SOL    HW127008   2.779   4.539   6.754
 8703SOL    HW227009   2.855   4.639   6.649
 8704SOL     OW27010   0.105   2.558   4.232
 8704SOL    HW127011   0.109   2.583   4.135
 8704SOL    HW227012   0.023   2.503   4.249
 8705SOL     OW27013   4.639   2.454   6.627
 8705SOL    HW127014   4.719   2.462   6.567
 8705SOL    HW227015   4.666   2.409   6.712
 8706SOL     OW27016   5.930   2.842   0.223
 8706SOL    HW127017   5.832   2.829   0.240
 8706SOL    HW227018   5.946   2.937   0.196
 8707SOL     OW27019   1.491   2.063   4.115
 8707SOL    HW127020   1.564   2.043   4.050
 8707SOL    HW227021   1.522   2.131   4.181
 8708SOL     OW27022   4.921   2.130   4.129
 8708SOL    HW127023   4.871   2.196   4.072
 8708SOL    HW227024   4.969   2.178   4.202
 8709SOL     OW27025   6.712   0.204   0.074
 8709SOL    HW127026   6.732   0.144   0.152
 8709SOL    HW227027   6.689   0.149   7.019
 8710SOL     OW27028   1.925   1.828   3.878
 8710SOL    HW127029   1.877   1.878   3.807
 8710SOL    HW227030   2.024   1.837   3.864
 8711SOL     OW27031   0.996   1.312   1.711
 8711SOL    HW127032   0.928   1.314   1.638
 8711SOL    HW227033   0.966   1.369   1.787
 8712SOL     OW27034   2.685   1.934   5.324
 8712SOL    HW127035   2.612   2.000   5.308
 8712SOL    HW227036   2.648   1.841   5.316
 8713SOL     OW27037   1.094   3.970   1.785
 8713SOL    HW127038   1.013   4.009   1.829
 8713SOL    HW227039   1.120   3.886   1.832
 8714SOL     OW27040   0.389   6.417   0.495
 8714SOL    HW127041   0.368   6.445   0.401
 8714SOL    HW227042   0.353   6.485   0.559
 8715SOL     OW27043   2.758   1.920   0.188
 8715SOL    HW127044   2.789   1.949   0.279
 8715SOL    HW227045   2.808   1.972   0.119
 8716SOL     OW27046   0.101   6.136   1.531
 8716SOL    HW127047   0.021   6.152   1.588
 8716SOL    HW227048   0.166   6.077   1.579
 8717SOL     OW27049   2.537   3.597   6.187
 8717SOL    HW127050   2.597   3.594   6.267
 8717SOL    HW227051   2.457   3.540   6.203
 8718SOL     OW27052   1.227   2.994   6.340
 8718SOL    HW127053   1.234   2.896   6.323
 8718SOL    HW227054   1.279   3.017   6.422
 8719SOL     OW27055   3.927   1.081   0.026
 8719SOL    HW127056   3.881   1.140   0.093
 8719SOL    HW227057   3.865   1.062   6.975
 8720SOL     OW27058   6.810   5.005   5.188
 8720SOL    HW127059   6.789   5.076   5.120
 8720SOL    HW227060   6.908   4.984   5.185
 8721SOL     OW27061   6.839   6.347   6.664
 8721SOL    HW127062   6.768   6.331   6.595
 8721SOL    HW227063   6.929   6.350   6.619
 8722SOL     OW27064   3.116   0.568   0.705
 8722SOL    HW127065   3.193   0.528   0.656
 8722SOL    HW227066   3.131   0.559   0.804
 8723SOL     OW27067   5.701   0.171   2.239
 8723SOL    HW127068   5.634   0.245   2.244
 8723SOL    HW227069   5.667   0.092   2.291
 8724SOL     OW27070   4.682   6.997   4.523
 8724SOL    HW127071   4.596   6.949   4.542
 8724SOL    HW227072   4.692   0.049   4.586
 8725SOL     OW27073   0.563   6.535   5.158
 8725SOL    HW127074   0.534   6.631   5.157
 8725SOL    HW227075   0.549   6.497   5.249
 8726SOL     OW27076   6.946   1.647   0.221
 8726SOL    HW127077   7.023   1.635   0.159
 8726SOL    HW227078   6.917   1.558   0.256
 8727SOL     OW27079   6.353   6.826   6.587
 8727SOL    HW127080   6.449   6.841   6.609
 8727SOL    HW227081   6.296   6.848   6.667
 8728SOL     OW27082   5.392   1.122   3.105
 8728SOL    HW127083   5.452   1.177   3.048
 8728SOL    HW227084   5.439   1.038   3.132
 8729SOL     OW27085   3.163   4.891   5.420
 8729SOL    HW127086   3.212   4.864   5.502
 8729SOL    HW227087   3.131   4.985   5.429
 8730SOL     OW27088   5.350   4.056   3.220
 8730SOL    HW127089   5.332   4.139   3.167
 8730SOL    HW227090   5.432   4.011   3.185
 8731SOL     OW27091   0.237   2.416   2.861
 8731SOL    HW127092   0.315   2.444   2.918
 8731SOL    HW227093   0.152   2.425   2.914
 8732SOL     OW27094   5.416   4.805   1.247
 8732SOL    HW127095   5.508   4.790   1.210
 8732SOL    HW227096   5.410   4.897   1.285
 8733SOL     OW27097   0.531   5.584   1.025
 8733SOL    HW127098   0.537   5.485   1.010
 8733SOL    HW227099   0.607   5.629   0.978
 8734SOL     OW27100   6.711   3.756   1.989
 8734SOL    HW127101   6.690   3.672   2.040
 8734SOL    HW227102   6.798   3.794   2.021
 8735SOL     OW27103   1.516   3.444   5.137
 8735SOL    HW127104   1.562   3.366   5.180
 8735SOL    HW227105   1.433   3.466   5.189
 8736SOL     OW27106   0.556   5.632   2.166
 8736SOL    HW127107   0.577   5.671   2.076
 8736SOL    HW227108   0.458   5.638   2.183
 8737SOL     OW27109   2.328   5.722   6.476
 8737SOL    HW127110   2.257   5.653   6.461
 8737SOL    HW227111   2.344   5.732   6.575
 8738SOL     OW27112   1.042   3.678   3.528
 8738SOL    HW127113   1.039   3.753   3.595
 8738SOL    HW227114   1.137   3.653   3.511
 8739SOL     OW27115   5.509   3.747   5.227
 8739SOL    HW127116   5.589   3.806   5.243
 8739SOL    HW227117   5.487   3.697   5.311
 8740SOL     OW27118   3.716   2.092   3.183
 8740SOL    HW127119   3.795   2.122   3.130
 8740SOL    HW227120   3.744   2.019   3.246
 8741SOL     OW27121   2.166   0.019   2.598
 8741SOL    HW127122   2.085   0.033   2.655
 8741SOL    HW227123   2.202   0.107   2.569
 8742SOL     OW27124   3.822   0.636   2.695
 8742SOL    HW127125   3.774   0.620   2.781
 8742SOL    HW227126   3.784   0.716   2.649
 8743SOL     OW27127   1.496   1.054   1.720
 8743SOL    HW127128   1.462   1.116   1.790
 8743SOL    HW227129   1.544   1.106   1.650
 8744SOL     OW27130   4.444   3.032   6.905
 8744SOL    HW127131   4.442   3.019   7.004
 8744SOL    HW227132   4.351   3.022   6.868
 8745SOL     OW27133   6.617   2.389   6.699
 8745SOL    HW127134   6.714   2.374   6.716
 8745SOL    HW227135   6.587   2.472   6.745
 8746SOL     OW27136   4.889   4.726   4.061
 8746SOL    HW127137   4.940   4.769   4.136
 8746SOL    HW227138   4.793   4.754   4.065
 8747SOL     OW27139   6.581   1.033   2.166
 8747SOL    HW127140   6.634   1.078   2.238
 8747SOL    HW227141   6.562   0.938   2.192
 8748SOL     OW27142   1.012   1.610   4.066
 8748SOL    HW127143   1.033   1.703   4.035
 8748SOL    HW227144   1.097   1.563   4.090
 8749SOL     OW27145   2.131   0.938   5.414
 8749SOL    HW127146   2.041   0.911   5.451
 8749SOL    HW227147   2.159   1.024   5.456
 8750SOL     OW27148   4.169   2.809   5.879
 8750SOL    HW127149   4.231   2.755   5.935
 8750SOL    HW227150   4.076   2.800   5.913
 8751SOL     OW27151   6.813   6.943   0.821
 8751SOL    HW127152   6.860   6.965   0.906
 8751SOL    HW227153   6.818   7.022   0.759
 8752SOL     OW27154   4.970   2.791   0.365
 8752SOL    HW127155   4.902   2.791   0.439
 8752SOL    HW227156   4.977   2.699   0.326
 8753SOL     OW27157   1.818   3.257   0.097
 8753SOL    HW127158   1.915   3.268   0.074
 8753SOL    HW227159   1.777   3.188   0.038
 8754SOL     OW27160   2.781   5.218   6.307
 8754SOL    HW127161   2.817   5.306   6.339
 8754SOL    HW227162   2.808   5.146   6.371
 8755SOL     OW27163   0.935   1.422   0.766
 8755SOL    HW127164   0.849   1.458   0.803
 8755SOL    HW227165   0.917   1.366   0.685
 8756SOL     OW27166   2.309   2.867   3.973
 8756SOL    HW127167   2.389   2.839   3.920
 8756SOL    HW227168   2.232   2.807   3.953
 8757SOL     OW27169   5.392   6.321   5.383
 8757SOL    HW127170   5.396   6.223   5.360
 8757SOL    HW227171   5.304   6.359   5.353
 8758SOL     OW27172   4.024   0.174   3.197
 8758SOL    HW127173   4.121   0.189   3.220
 8758SOL    HW227174   4.016   0.096   3.135
 8759SOL     OW27175   6.385   1.503   6.876
 8759SOL    HW127176   6.392   1.543   6.785
 8759SOL    HW227177   6.368   1.576   6.943
 8760SOL     OW27178   2.182   1.885   3.921
 8760SOL    HW127179   2.213   1.860   3.829
 8760SOL    HW227180   2.215   1.817   3.987
 8761SOL     OW27181   5.152   1.460   2.035
 8761SOL    HW127182   5.065   1.505   2.055
 8761SOL    HW227183   5.199   1.508   1.962
 8762SOL     OW27184   1.804   5.972   3.793
 8762SOL    HW127185   1.788   6.068   3.817
 8762SOL    HW227186   1.894   5.944   3.826
 8763SOL     OW27187   0.006   0.774   5.279
 8763SOL    HW127188   0.029   0.856   5.227
 8763SOL    HW227189   6.996   0.801   5.369
 8764SOL     OW27190   4.268   5.950   5.928
 8764SOL    HW127191   4.176   5.952   5.967
 8764SOL    HW227192   4.267   5.996   5.839
 8765SOL     OW27193   5.874   1.087   5.546
 8765SOL    HW127194   5.954   1.076   5.607
 8765SOL    HW227195   5.905   1.122   5.458
 8766SOL     OW27196   4.541   4.216   5.688
 8766SOL    HW127197   4.636   4.244   5.678
 8766SOL    HW227198   4.490   4.289   5.733
 8767SOL     OW27199   3.123   0.398   3.524
 8767SOL    HW127200   3.140   0.481   3.577
 8767SOL    HW227201   3.183   0.325   3.557
 8768SOL     OW27202   0.432   2.161   6.724
 8768SOL    HW127203   0.364   2.100   6.684
 8768SOL    HW227204   0.399   2.194   6.812
 8769SOL     OW27205   6.213   1.153   1.767
 8769SOL    HW127206   6.121   1.113   1.774
 8769SOL    HW227207   6.272   1.112   1.837
 8770SOL     OW27208   5.430   4.106   2.192
 8770SOL    HW127209   5.332   4.086   2.194
 8770SOL    HW227210   5.452   4.158   2.109
 8771SOL     OW27211   0.351   3.537   6.670
 8771SOL    HW127212   0.346   3.604   6.744
 8771SOL    HW227213   0.314   3.577   6.586
 8772SOL     OW27214   5.420   0.908   4.731
 8772SOL    HW127215   5.458   0.836   4.789
 8772SOL    HW227216   5.397   0.870   4.641
 8773SOL     OW27217   5.895   2.590   4.210
 8773SOL    HW127218   5.878   2.553   4.301
 8773SOL    HW227219   5.991   2.620   4.203
 8774SOL     OW27220   0.808   6.681   0.006
 8774SOL    HW127221   0.733   6.733   6.991
 8774SOL    HW227222   0.811   6.698   0.105
 8775SOL     OW27223   5.650   1.728   4.660
 8775SOL    HW127224   5.707   1.731   4.578
 8775SOL    HW227225   5.628   1.632   4.682
 8776SOL     OW27226   4.396   3.093   0.866
 8776SOL    HW127227   4.392   3.047   0.955
 8776SOL    HW227228   4.331   3.050   0.804
 8777SOL     OW27229   0.963   3.241   2.840
 8777SOL    HW127230   0.993   3.302   2.767
 8777SOL    HW227231   0.909   3.293   2.907
 8778SOL     OW27232   4.168   3.870   5.890
 8778SOL    HW127233   4.266   3.888   5.876
 8778SOL    HW227234   4.115   3.952   5.868
 8779SOL     OW27235   3.160   5.182   2.487
 8779SOL    HW127236   3.201   5.109   2.542
 8779SOL    HW227237   3.101   5.238   2.545
 8780SOL     OW27238   0.073   5.526   2.349
 8780SOL    HW127239   0.074   5.590   2.425
 8780SOL    HW227240   0.048   5.435   2.382
 8781SOL     OW27241   4.422   0.284   2.830
 8781SOL    HW127242   4.492   0.355   2.831
 8781SOL    HW227243   4.344   0.315   2.774
 8782SOL     OW27244   5.728   1.121   1.902
 8782SOL    HW127245   5.663   1.173   1.846
 8782SOL    HW227246   5.723   1.152   1.997
 8783SOL     OW27247   5.327   3.221   4.823
 8783SOL    HW127248   5.276   3.239   4.907
 8783SOL    HW227249   5.424   3.211   4.844
 8784SOL     OW27250   6.351   6.126   0.756
 8784SOL    HW127251   6.408   6.207   0.743
 8784SOL    HW227252   6.275   6.128   0.692
 8785SOL     OW27253   0.449   5.365   6.279
 8785SOL    HW127254   0.449   5.405   6.371
 8785SOL    HW227255   0.480   5.432   6.213
 8786SOL     OW27256   4.150   2.066   2.484
 8786SOL    HW127257   4.241   2.026   2.496
 8786SOL    HW227258   4.122   2.057   2.388
 8787SOL     OW27259   3.550   0.829   1.149
 8787SOL    HW127260   3.562   0.843   1.247
 8787SOL    HW227261   3.618   0.763   1.116
 8788SOL     OW27262   0.362   0.549   5.453
 8788SOL    HW127263   0.344   0.458   5.418
 8788SOL    HW227264   0.292   0.574   5.520
 8789SOL     OW27265   0.180   3.770   5.198
 8789SOL    HW127266   0.124   3.838   5.245
 8789SOL    HW227267   0.151   3.765   5.102
 8790SOL     OW27268   6.308   2.224   0.564
 8790SOL    HW127269   6.242   2.204   0.636
 8790SOL    HW227270   6.380   2.155   0.564
 8791SOL     OW27271   4.739   6.116   5.230
 8791SOL    HW127272   4.663   6.095   5.292
 8791SOL    HW227273   4.702   6.151   5.144
 8792SOL     OW27274   4.101   5.564   1.643
 8792SOL    HW127275   4.034   5.625   1.686
 8792SOL    HW227276   4.181   5.555   1.701
 8793SOL     OW27277   1.204   5.002   4.240
 8793SOL    HW127278   1.163   5.083   4.198
 8793SOL    HW227279   1.304   5.008   4.236
 8794SOL     OW27280   6.135   1.178   3.545
 8794SOL    HW127281   6.164   1.192   3.640
 8794SOL    HW227282   6.137   1.265   3.496
 8795SOL     OW27283   1.160   5.045   5.525
 8795SOL    HW127284   1.190   5.132   5.488
 8795SOL    HW227285   1.219   4.972   5.492
 8796SOL     OW27286   6.138   3.928   3.401
 8796SOL    HW127287   6.095   3.881   3.324
 8796SOL    HW227288   6.085   3.910   3.484
 8797SOL     OW27289   0.138   6.628   3.910
 8797SOL    HW127290   0.115   6.724   3.924
 8797SOL    HW227291   0.229   6.610   3.946
 8798SOL     OW27292   4.836   6.555   5.121
 8798SOL    HW127293   4.864   6.630   5.180
 8798SOL    HW227294   4.766   6.587   5.056
 8799SOL     OW27295   2.147   4.759   1.870
 8799SOL    HW127296   2.092   4.770   1.952
 8799SOL    HW227297   2.207   4.839   1.860
 8800SOL     OW27298   6.947   6.597   5.737
 8800SOL    HW127299   6.993   6.641   5.659
 8800SOL    HW227300   7.012   6.585   5.812
 8801SOL     OW27301   5.972   2.146   5.262
 8801SOL    HW127302   5.893   2.187   5.216
 8801SOL    HW227303   5.939   2.090   5.339
 8802SOL     OW27304   1.190   5.699   5.879
 8802SOL    HW127305   1.242   5.726   5.960
 8802SOL    HW227306   1.117   5.765   5.861
 8803SOL     OW27307   6.337   0.866   7.008
 8803SOL    HW127308   6.278   0.946   7.016
 8803SOL    HW227309   6.375   0.862   6.916
 8804SOL     OW27310   1.793   5.872   1.134
 8804SOL    HW127311   1.848   5.902   1.212
 8804SOL    HW227312   1.764   5.952   1.082
 8805SOL     OW27313   4.528   5.725   3.593
 8805SOL    HW127314   4.434   5.694   3.585
 8805SOL    HW227315   4.534   5.821   3.565
 8806SOL     OW27316   2.301   6.613   0.693
 8806SOL    HW127317   2.222   6.552   0.692
 8806SOL    HW227318   2.351   6.604   0.608
 8807SOL     OW27319   4.803   2.022   0.585
 8807SOL    HW127320   4.788   1.925   0.565
 8807SOL    HW227321   4.884   2.055   0.536
 8808SOL     OW27322   1.915   2.628   0.828
 8808SOL    HW127323   1.893   2.531   0.835
 8808SOL    HW227324   1.939   2.650   0.734
 8809SOL     OW27325   2.120   4.003   3.632
 8809SOL    HW127326   2.096   3.960   3.545
 8809SOL    HW227327   2.184   4.078   3.616
 8810SOL     OW27328   6.232   1.823   5.381
 8810SOL    HW127329   6.274   1.913   5.391
 8810SOL    HW227330   6.279   1.773   5.307
 8811SOL     OW27331   4.560   0.073   2.579
 8811SOL    HW127332   4.630   0.016   2.621
 8811SOL    HW227333   4.513   0.126   2.650
 8812SOL     OW27334   3.405   0.604   6.663
 8812SOL    HW127335   3.464   0.685   6.669
 8812SOL    HW227336   3.450   0.526   6.707
 8813SOL     OW27337   2.170   3.956   2.849
 8813SOL    HW127338   2.157   3.886   2.779
 8813SOL    HW227339   2.200   4.041   2.806
 8814SOL     OW27340   5.623   6.762   0.280
 8814SOL    HW127341   5.667   6.846   0.311
 8814SOL    HW227342   5.681   6.684   0.301
 8815SOL     OW27343   5.430   0.669   0.728
 8815SOL    HW127344   5.480   0.596   0.774
 8815SOL    HW227345   5.406   0.639   0.635
 8816SOL     OW27346   0.047   6.334   6.525
 8816SOL    HW127347   0.121   6.398   6.505
 8816SOL    HW227348   0.072   6.242   6.497
 8817SOL     OW27349   0.788   3.405   4.643
 8817SOL    HW127350   0.759   3.311   4.662
 8817SOL    HW227351   0.738   3.440   4.564
 8818SOL     OW27352   1.732   6.741   3.828
 8818SOL    HW127353   1.672   6.663   3.846
 8818SOL    HW227354   1.741   6.754   3.729
 8819SOL     OW27355   5.617   4.371   5.745
 8819SOL    HW127356   5.551   4.412   5.682
 8819SOL    HW227357   5.576   4.292   5.790
 8820SOL     OW27358   3.865   0.988   4.693
 8820SOL    HW127359   3.918   1.014   4.774
 8820SOL    HW227360   3.874   1.060   4.624
 8821SOL     OW27361   0.890   5.372   0.622
 8821SOL    HW127362   0.987   5.396   0.619
 8821SOL    HW227363   0.849   5.388   0.532
 8822SOL     OW27364   6.217   6.707   4.235
 8822SOL    HW127365   6.134   6.669   4.195
 8822SOL    HW227366   6.281   6.633   4.256
 8823SOL     OW27367   3.033   1.138   2.188
 8823SOL    HW127368   3.104   1.150   2.257
 8823SOL    HW227369   2.946   1.173   2.224
 8824SOL     OW27370   1.515   0.380   0.943
 8824SOL    HW127371   1.594   0.344   0.992
 8824SOL    HW227372   1.545   0.425   0.859
 8825SOL     OW27373   0.320   0.380   1.171
 8825SOL    HW127374   0.281   0.389   1.263
 8825SOL    HW227375   0.416   0.355   1.178
 8826SOL     OW27376   1.028   3.266   0.908
 8826SOL    HW127377   1.062   3.271   0.814
 8826SOL    HW227378   0.976   3.349   0.929
 8827SOL     OW27379   3.952   0.262   2.408
 8827SOL    HW127380   4.021   0.253   2.479
 8827SOL    HW227381   3.892   0.181   2.409
 8828SOL     OW27382   4.169   4.206   6.154
 8828SOL    HW127383   4.211   4.232   6.241
 8828SOL    HW227384   4.116   4.283   6.119
 8829SOL     OW27385   0.239   1.437   2.334
 8829SOL    HW127386   0.315   1.479   2.284
 8829SOL    HW227387   0.230   1.342   2.306
 8830SOL     OW27388   2.614   1.386   2.038
 8830SOL    HW127389   2.580   1.369   2.131
 8830SOL    HW227390   2.691   1.326   2.019
 8831SOL     OW27391   0.105   2.769   2.418
 8831SOL    HW127392   0.132   2.792   2.512
 8831SOL    HW227393   0.137   2.841   2.356
 8832SOL     OW27394   6.236   6.813   3.958
 8832SOL    HW127395   6.174   6.885   3.928
 8832SOL    HW227396   6.211   6.783   4.050
 8833SOL     OW27397   4.005   2.956   1.149
 8833SOL    HW127398   4.075   2.890   1.123
 8833SOL    HW227399   3.954   2.922   1.228
 8834SOL     OW27400   6.071   3.675   5.463
 8834SOL    HW127401   5.983   3.715   5.438
 8834SOL    HW227402   6.139   3.748   5.471
 8835SOL     OW27403   5.780   0.684   6.328
 8835SOL    HW127404   5.840   0.745   6.276
 8835SOL    HW227405   5.725   0.738   6.391
 8836SOL     OW27406   5.562   2.628   0.414
 8836SOL    HW127407   5.602   2.667   0.331
 8836SOL    HW227408   5.477   2.676   0.436
 8837SOL     OW27409   0.184   6.579   1.920
 8837SOL    HW127410   0.114   6.645   1.893
 8837SOL    HW227411   0.227   6.610   2.005
 8838SOL     OW27412   0.769   4.296   2.998
 8838SOL    HW127413   0.730   4.274   2.909
 8838SOL    HW227414   0.845   4.234   3.017
 8839SOL     OW27415   5.462   5.480   2.443
 8839SOL    HW127416   5.467   5.549   2.371
 8839SOL    HW227417   5.550   5.432   2.450
 8840SOL     OW27418   6.253   0.273   2.162
 8840SOL    HW127419   6.223   0.356   2.115
 8840SOL    HW227420   6.308   0.217   2.100
 8841SOL     OW27421   4.131   1.036   2.214
 8841SOL    HW127422   4.061   0.998   2.154
 8841SOL    HW227423   4.134   1.136   2.202
 8842SOL     OW27424   3.473   4.142   4.037
 8842SOL    HW127425   3.496   4.100   3.949
 8842SOL    HW227426   3.543   4.120   4.104
 8843SOL     OW27427   1.872   3.112   5.067
 8843SOL    HW127428   1.932   3.075   5.138
 8843SOL    HW227429   1.925   3.174   5.008
 8844SOL     OW27430   6.252   2.095   5.185
 8844SOL    HW127431   6.267   2.080   5.088
 8844SOL    HW227432   6.155   2.112   5.202
 8845SOL     OW27433   2.116   5.494   1.084
 8845SOL    HW127434   2.066   5.524   1.002
 8845SOL    HW227435   2.127   5.395   1.082
 8846SOL     OW27436   5.267   4.602   3.912
 8846SOL    HW127437   5.272   4.664   3.989
 8846SOL    HW227438   5.172   4.578   3.894
 8847SOL     OW27439   1.268   1.951   2.648
 8847SOL    HW127440   1.305   1.915   2.734
 8847SOL    HW227441   1.292   1.890   2.573
 8848SOL     OW27442   3.304   1.966   1.313
 8848SOL    HW127443   3.226   2.030   1.304
 8848SOL    HW227444   3.376   2.010   1.366
 8849SOL     OW27445   2.478   5.425   4.012
 8849SOL    HW127446   2.453   5.452   4.105
 8849SOL    HW227447   2.577   5.408   4.008
 8850SOL     OW27448   2.967   1.744   0.368
 8850SOL    HW127449   2.941   1.840   0.361
 8850SOL    HW227450   3.006   1.727   0.458
 8851SOL     OW27451   0.723   4.585   2.986
 8851SOL    HW127452   0.708   4.626   3.076
 8851SOL    HW227453   0.733   4.486   2.996
 8852SOL     OW27454   5.268   2.709   6.267
 8852SOL    HW127455   5.290   2.739   6.359
 8852SOL    HW227456   5.171   2.726   6.249
 8853SOL     OW27457   3.746   1.176   5.301
 8853SOL    HW127458   3.669   1.113   5.313
 8853SOL    HW227459   3.722   1.246   5.234
 8854SOL     OW27460   1.847   0.128   5.805
 8854SOL    HW127461   1.777   0.077   5.854
 8854SOL    HW227462   1.937   0.111   5.846
 8855SOL     OW27463   6.030   6.125   6.582
 8855SOL    HW127464   5.951   6.175   6.616
 8855SOL    HW227465   6.011   6.088   6.492
 8856SOL     OW27466   6.622   0.410   4.767
 8856SOL    HW127467   6.567   0.327   4.758
 8856SOL    HW227468   6.666   0.412   4.857
 8857SOL     OW27469   6.211   1.906   3.110
 8857SOL    HW127470   6.284   1.923   3.177
 8857SOL    HW227471   6.226   1.819   3.065
 8858SOL     OW27472   1.246   3.865   5.856
 8858SOL    HW127473   1.186   3.944   5.865
 8858SOL    HW227474   1.336   3.887   5.893
 8859SOL     OW27475   0.714   6.878   5.081
 8859SOL    HW127476   0.761   6.865   5.168
 8859SOL    HW227477   0.678   6.972   5.076
 8860SOL     OW27478   1.261   3.011   2.308
 8860SOL    HW127479   1.180   3.057   2.272
 8860SOL    HW227480   1.328   2.998   2.235
 8861SOL     OW27481   3.296   3.366   6.719
 8861SOL    HW127482   3.289   3.414   6.632
 8861SOL    HW227483   3.349   3.422   6.784
 8862SOL     OW27484   5.989   1.519   4.654
 8862SOL    HW127485   5.957   1.425   4.659
 8862SOL    HW227486   5.964   1.559   4.566
 8863SOL     OW27487   2.155   5.600   4.505
 8863SOL    HW127488   2.195   5.637   4.421
 8863SOL    HW227489   2.090   5.528   4.483
 8864SOL     OW27490   1.946   3.215   6.287
 8864SOL    HW127491   2.028   3.187   6.236
 8864SOL    HW227492   1.868   3.161   6.255
 8865SOL     OW27493   3.269   1.365   4.704
 8865SOL    HW127494   3.346   1.326   4.654
 8865SOL    HW227495   3.216   1.292   4.746
 8866SOL     OW27496   4.298   6.486   3.266
 8866SOL    HW127497   4.229   6.414   3.277
 8866SOL    HW227498   4.293   6.549   3.344
 8867SOL     OW27499   5.983   2.311   2.618
 8867SOL    HW127500   6.056   2.244   2.630
 8867SOL    HW227501   5.931   2.290   2.536
 8868SOL     OW27502   5.261   3.505   0.382
 8868SOL    HW127503   5.252   3.527   0.479
 8868SOL    HW227504   5.170   3.492   0.342
 8869SOL     OW27505   4.804   4.097   2.913
 8869SOL    HW127506   4.851   4.164   2.970
 8869SOL    HW227507   4.795   4.133   2.820
 8870SOL     OW27508   3.745   0.696   1.039
 8870SOL    HW127509   3.766   0.609   1.084
 8870SOL    HW227510   3.825   0.727   0.988
 8871SOL     OW27511   2.602   1.584   3.684
 8871SOL    HW127512   2.701   1.598   3.680
 8871SOL    HW227513   2.582   1.495   3.724
 8872SOL     OW27514   2.094   4.427   4.357
 8872SOL    HW127515   2.052   4.437   4.447
 8872SOL    HW227516   2.192   4.409   4.368
 8873SOL     OW27517   6.947   5.787   2.912
 8873SOL    HW127518   6.962   5.728   2.833
 8873SOL    HW227519   6.939   5.882   2.882
 8874SOL     OW27520   1.847   0.118   1.297
 8874SOL    HW127521   1.905   0.180   1.349
 8874SOL    HW227522   1.836   0.032   1.346
 8875SOL     OW27523   1.174   2.801   4.492
 8875SOL    HW127524   1.114   2.737   4.539
 8875SOL    HW227525   1.158   2.894   4.526
 8876SOL     OW27526   6.897   0.525   4.414
 8876SOL    HW127527   6.839   0.562   4.486
 8876SOL    HW227528   6.887   0.425   4.410
 8877SOL     OW27529   2.798   0.485   4.303
 8877SOL    HW127530   2.847   0.532   4.230
 8877SOL    HW227531   2.850   0.492   4.388
 8878SOL     OW27532   0.306   5.164   0.889
 8878SOL    HW127533   0.295   5.081   0.834
 8878SOL    HW227534   0.248   5.157   0.970
 8879SOL     OW27535   5.033   5.414   0.653
 8879SOL    HW127536   5.124   5.430   0.691
 8879SOL    HW227537   4.972   5.488   0.681
 8880SOL     OW27538   0.310   5.718   4.707
 8880SOL    HW127539   0.299   5.630   4.660
 8880SOL    HW227540   0.220   5.754   4.733
 8881SOL     OW27541   6.315   0.926   3.267
 8881SOL    HW127542   6.234   0.867   3.274
 8881SOL    HW227543   6.351   0.943   3.358
 8882SOL     OW27544   5.312   0.805   6.809
 8882SOL    HW127545   5.314   0.875   6.881
 8882SOL    HW227546   5.386   0.739   6.825
 8883SOL     OW27547   0.313   1.107   5.991
 8883SOL    HW127548   0.240   1.045   5.961
 8883SOL    HW227549   0.392   1.096   5.931
 8884SOL     OW27550   6.016   6.538   6.657
 8884SOL    HW127551   5.982   6.617   6.606
 8884SOL    HW227552   6.085   6.490   6.601
 8885SOL     OW27553   6.650   3.721   1.553
 8885SOL    HW127554   6.634   3.622   1.550
 8885SOL    HW227555   6.614   3.763   1.470
 8886SOL     OW27556   2.522   5.878   5.301
 8886SOL    HW127557   2.617   5.882   5.331
 8886SOL    HW227558   2.464   5.924   5.369
 8887SOL     OW27559   2.853   1.154   0.643
 8887SOL    HW127560   2.801   1.217   0.701
 8887SOL    HW227561   2.878   1.073   0.696
 8888SOL     OW27562   1.103   1.974   0.939
 8888SOL    HW127563   1.014   1.945   0.905
 8888SOL    HW227564   1.161   1.894   0.952
 8889SOL     OW27565   5.639   6.756   5.107
 8889SOL    HW127566   5.721   6.784   5.057
 8889SOL    HW227567   5.608   6.832   5.165
 8890SOL     OW27568   6.318   5.970   4.695
 8890SOL    HW127569   6.360   5.959   4.785
 8890SOL    HW227570   6.266   5.888   4.672
 8891SOL     OW27571   5.999   2.986   6.559
 8891SOL    HW127572   6.026   3.006   6.653
 8891SOL    HW227573   5.908   2.946   6.558
 8892SOL     OW27574   3.062   6.869   3.219
 8892SOL    HW127575   3.029   6.786   3.265
 8892SOL    HW227576   3.032   6.867   3.123
 8893SOL     OW27577   0.510   1.106   1.823
 8893SOL    HW127578   0.595   1.060   1.850
 8893SOL    HW227579   0.459   1.048   1.760
 8894SOL     OW27580   3.962   3.254   6.046
 8894SOL    HW127581   3.872   3.211   6.048
 8894SOL    HW227582   3.976   3.304   6.131
 8895SOL     OW27583   0.173   0.314   1.911
 8895SOL    HW127584   0.159   0.317   1.812
 8895SOL    HW227585   0.217   0.399   1.941
 8896SOL     OW27586   0.887   3.498   5.364
 8896SOL    HW127587   0.850   3.476   5.455
 8896SOL    HW227588   0.828   3.458   5.294
 8897SOL     OW27589   1.655   1.685   1.877
 8897SOL    HW127590   1.703   1.762   1.835
 8897SOL    HW227591   1.688   1.599   1.839
 8898SOL     OW27592   6.311   2.986   4.778
 8898SOL    HW127593   6.221   2.957   4.746
 8898SOL    HW227594   6.302   3.071   4.829
 8899SOL     OW27595   2.272   4.060   6.671
 8899SOL    HW127596   2.332   3.982   6.650
 8899SOL    HW227597   2.236   4.050   6.764
 8900SOL     OW27598   5.499   3.369   3.080
 8900SOL    HW127599   5.515   3.369   3.179
 8900SOL    HW227600   5.407   3.334   3.062
 8901SOL     OW27601   2.023   0.780   3.011
 8901SOL    HW127602   2.010   0.769   3.110
 8901SOL    HW227603   2.003   0.874   2.985
 8902SOL     OW27604   2.930   5.978   6.204
 8902SOL    HW127605   3.029   5.972   6.220
 8902SOL    HW227606   2.906   6.071   6.175
 8903SOL     OW27607   2.231   1.510   3.828
 8903SOL    HW127608   2.297   1.585   3.823
 8903SOL    HW227609   2.280   1.423   3.833
 8904SOL     OW27610   0.039   5.160   3.611
 8904SOL    HW127611   7.005   5.081   3.629
 8904SOL    HW227612   7.015   5.244   3.639
 8905SOL     OW27613   2.161   3.355   5.188
 8905SOL    HW127614   2.098   3.372   5.264
 8905SOL    HW227615   2.189   3.443   5.149
 8906SOL     OW27616   6.744   0.343   6.639
 8906SOL    HW127617   6.841   0.328   6.662
 8906SOL    HW227618   6.710   0.423   6.687
 8907SOL     OW27619   3.367   2.446   5.355
 8907SOL    HW127620   3.367   2.347   5.372
 8907SOL    HW227621   3.289   2.470   5.297
 8908SOL     OW27622   1.598   2.780   0.747
 8908SOL    HW127623   1.611   2.834   0.664
 8908SOL    HW227624   1.602   2.840   0.827
 8909SOL     OW27625   2.553   0.454   4.859
 8909SOL    HW127626   2.479   0.407   4.908
 8909SOL    HW227627   2.531   0.551   4.848
 8910SOL     OW27628   2.345   3.011   5.946
 8910SOL    HW127629   2.407   3.062   5.887
 8910SOL    HW227630   2.331   2.919   5.909
 8911SOL     OW27631   3.564   2.079   4.454
 8911SOL    HW127632   3.488   2.103   4.394
 8911SOL    HW227633   3.539   2.100   4.549
 8912SOL     OW27634   3.942   1.392   6.525
 8912SOL    HW127635   4.032   1.432   6.542
 8912SOL    HW227636   3.929   1.378   6.427
 8913SOL     OW27637   5.329   4.179   1.694
 8913SOL    HW127638   5.393   4.169   1.617
 8913SOL    HW227639   5.334   4.098   1.752
 8914SOL     OW27640   4.365   1.459   5.450
 8914SOL    HW127641   4.267   1.477   5.456
 8914SOL    HW227642   4.403   1.447   5.542
 8915SOL     OW27643   1.445   2.429   3.957
 8915SOL    HW127644   1.533   2.436   4.004
 8915SOL    HW227645   1.461   2.416   3.859
 8916SOL     OW27646   0.217   3.602   1.671
 8916SOL    HW127647   0.304   3.637   1.705
 8916SOL    HW227648   0.227   3.572   1.576
 8917SOL     OW27649   5.875   5.150   6.742
 8917SOL    HW127650   5.917   5.179   6.656
 8917SOL    HW227651   5.943   5.154   6.815
 8918SOL     OW27652   6.537   6.434   0.035
 8918SOL    HW127653   6.548   6.496   0.112
 8918SOL    HW227654   6.492   6.350   0.066
 8919SOL     OW27655   4.174   3.509   0.724
 8919SOL    HW127656   4.182   3.476   0.818
 8919SOL    HW227657   4.256   3.485   0.673
 8920SOL     OW27658   6.602   5.911   6.365
 8920SOL    HW127659   6.653   5.843   6.313
 8920SOL    HW227660   6.625   6.003   6.333
 8921SOL     OW27661   1.338   1.555   2.948
 8921SOL    HW127662   1.396   1.482   2.911
 8921SOL    HW227663   1.393   1.637   2.963
 8922SOL     OW27664   2.408   5.261   0.824
 8922SOL    HW127665   2.411   5.218   0.914
 8922SOL    HW227666   2.493   5.311   0.809
 8923SOL     OW27667   2.098   3.799   6.622
 8923SOL    HW127668   2.102   3.738   6.702
 8923SOL    HW227669   2.173   3.777   6.560
 8924SOL     OW27670   2.814   5.535   5.664
 8924SOL    HW127671   2.721   5.563   5.640
 8924SOL    HW227672   2.829   5.550   5.762
 8925SOL     OW27673   0.666   0.773   2.239
 8925SOL    HW127674   0.651   0.711   2.315
 8925SOL    HW227675   0.763   0.777   2.217
 8926SOL     OW27676   5.892   2.293   1.919
 8926SOL    HW127677   5.947   2.218   1.956
 8926SOL    HW227678   5.832   2.258   1.848
 8927SOL     OW27679   2.786   2.306   4.965
 8927SOL    HW127680   2.797   2.355   5.051
 8927SOL    HW227681   2.865   2.246   4.950
 8928SOL     OW27682   0.286   0.991   5.615
 8928SOL    HW127683   0.321   1.085   5.606
 8928SOL    HW227684   0.306   0.940   5.532
 8929SOL     OW27685   0.116   3.309   3.790
 8929SOL    HW127686   0.167   3.247   3.849
 8929SOL    HW227687   0.177   3.380   3.756
 8930SOL     OW27688   1.660   5.201   5.320
 8930SOL    HW127689   1.691   5.283   5.271
 8930SOL    HW227690   1.616   5.139   5.256
 8931SOL     OW27691   4.436   2.494   1.112
 8931SOL    HW127692   4.388   2.407   1.099
 8931SOL    HW227693   4.421   2.552   1.032
 8932SOL     OW27694   5.171   6.966   6.249
 8932SOL    HW127695   5.214   6.883   6.212
 8932SOL    HW227696   5.243   0.004   6.280
 8933SOL     OW27697   1.173   1.126   4.814
 8933SOL    HW127698   1.146   1.071   4.893
 8933SOL    HW227699   1.094   1.177   4.780
 8934SOL     OW27700   3.469   5.231   2.606
 8934SOL    HW127701   3.474   5.184   2.517
 8934SOL    HW227702   3.561   5.246   2.641
 8935SOL     OW27703   4.954   3.291   2.445
 8935SOL    HW127704   4.985   3.221   2.509
 8935SOL    HW227705   4.925   3.249   2.360
 8936SOL     OW27706   0.806   3.520   0.873
 8936SOL    HW127707   0.836   3.611   0.843
 8936SOL    HW227708   0.720   3.528   0.924
 8937SOL     OW27709   0.635   0.518   3.827
 8937SOL    HW127710   0.695   0.471   3.762
 8937SOL    HW227711   0.690   0.548   3.905
 8938SOL     OW27712   5.756   0.469   0.478
 8938SOL    HW127713   5.751   0.450   0.380
 8938SOL    HW227714   5.689   0.413   0.527
 8939SOL     OW27715   6.582   2.899   4.866
 8939SOL    HW127716   6.497   2.936   4.829
 8939SOL    HW227717   6.628   2.844   4.796
 8940SOL     OW27718   6.400   2.693   0.377
 8940SOL    HW127719   6.379   2.627   0.449
 8940SOL    HW227720   6.491   2.731   0.392
 8941SOL     OW27721   4.981   2.164   2.065
 8941SOL    HW127722   4.959   2.202   1.976
 8941SOL    HW227723   4.949   2.069   2.070
 8942SOL     OW27724   6.674   4.674   4.175
 8942SOL    HW127725   6.637   4.697   4.265
 8942SOL    HW227726   6.765   4.716   4.165
 8943SOL     OW27727   4.246   3.887   0.302
 8943SOL    HW127728   4.270   3.795   0.334
 8943SOL    HW227729   4.244   3.950   0.379
 8944SOL     OW27730   4.573   4.866   4.556
 8944SOL    HW127731   4.516   4.945   4.577
 8944SOL    HW227732   4.525   4.782   4.583
 8945SOL     OW27733   6.351   3.460   5.265
 8945SOL    HW127734   6.436   3.453   5.318
 8945SOL    HW227735   6.274   3.439   5.324
 8946SOL     OW27736   4.563   0.368   4.479
 8946SOL    HW127737   4.571   0.337   4.574
 8946SOL    HW227738   4.645   0.342   4.428
 8947SOL     OW27739   1.182   4.616   6.728
 8947SOL    HW127740   1.141   4.615   6.819
 8947SOL    HW227741   1.208   4.709   6.703
 8948SOL     OW27742   6.342   6.113   4.252
 8948SOL    HW127743   6.338   6.119   4.352
 8948SOL    HW227744   6.428   6.152   4.220
 8949SOL     OW27745   3.979   6.315   0.233
 8949SOL    HW127746   4.062   6.264   0.207
 8949SOL    HW227747   3.958   6.298   0.329
 8950SOL     OW27748   4.980   3.939   1.131
 8950SOL    HW127749   5.017   3.900   1.215
 8950SOL    HW227750   4.927   4.021   1.153
 8951SOL     OW27751   2.510   0.976   4.058
 8951SOL    HW127752   2.565   0.974   3.975
 8951SOL    HW227753   2.559   0.930   4.132
 8952SOL     OW27754   2.163   4.658   3.589
 8952SOL    HW127755   2.135   4.574   3.636
 8952SOL    HW227756   2.131   4.655   3.494
 8953SOL     OW27757   2.504   5.119   1.832
 8953SOL    HW127758   2.546   5.050   1.774
 8953SOL    HW227759   2.517   5.210   1.792
 8954SOL     OW27760   1.285   5.425   4.293
 8954SOL    HW127761   1.276   5.388   4.201
 8954SOL    HW227762   1.313   5.521   4.288
 8955SOL     OW27763   6.310   3.151   2.708
 8955SOL    HW127764   6.321   3.218   2.781
 8955SOL    HW227765   6.380   3.080   2.717
 8956SOL     OW27766   0.314   6.690   6.644
 8956SOL    HW127767   0.412   6.676   6.655
 8956SOL    HW227768   0.276   6.730   6.727
 8957SOL     OW27769   1.700   5.563   2.256
 8957SOL    HW127770   1.666   5.613   2.176
 8957SOL    HW227771   1.791   5.528   2.236
 8958SOL     OW27772   1.462   3.392   5.543
 8958SOL    HW127773   1.416   3.468   5.589
 8958SOL    HW227774   1.437   3.306   5.589
 8959SOL     OW27775   0.874   3.376   2.102
 8959SOL    HW127776   0.815   3.394   2.180
 8959SOL    HW227777   0.828   3.403   2.017
 8960SOL     OW27778   6.564   3.785   3.848
 8960SOL    HW127779   6.611   3.857   3.798
 8960SOL    HW227780   6.499   3.739   3.787
 8961SOL     OW27781   2.987   6.894   4.331
 8961SOL    HW127782   3.019   6.929   4.243
 8961SOL    HW227783   2.983   6.969   4.397
 8962SOL     OW27784   1.231   5.989   1.196
 8962SOL    HW127785   1.254   5.904   1.243
 8962SOL    HW227786   1.133   6.006   1.204
 8963SOL     OW27787   3.630   5.622   4.355
 8963SOL    HW127788   3.555   5.619   4.420
 8963SOL    HW227789   3.621   5.547   4.290
 8964SOL     OW27790   5.790   4.023   3.052
 8964SOL    HW127791   5.814   3.968   3.132
 8964SOL    HW227792   5.701   3.993   3.017
 8965SOL     OW27793   4.153   4.882   0.838
 8965SOL    HW127794   4.054   4.865   0.835
 8965SOL    HW227795   4.202   4.797   0.818
 8966SOL     OW27796   6.105   5.148   5.881
 8966SOL    HW127797   6.043   5.226   5.888
 8966SOL    HW227798   6.178   5.169   5.817
 8967SOL     OW27799   3.614   0.862   2.908
 8967SOL    HW127800   3.599   0.881   3.005
 8967SOL    HW227801   3.645   0.767   2.898
 8968SOL     OW27802   2.252   4.624   1.665
 8968SOL    HW127803   2.326   4.685   1.638
 8968SOL    HW227804   2.227   4.642   1.760
 8969SOL     OW27805   0.409   6.649   3.338
 8969SOL    HW127806   0.480   6.664   3.406
 8969SOL    HW227807   0.358   6.734   3.323
 8970SOL     OW27808   1.029   1.705   5.825
 8970SOL    HW127809   1.020   1.653   5.740
 8970SOL    HW227810   1.057   1.799   5.804
 8971SOL     OW27811   4.366   6.376   0.920
 8971SOL    HW127812   4.356   6.464   0.967
 8971SOL    HW227813   4.371   6.392   0.821
 8972SOL     OW27814   5.645   5.336   0.327
 8972SOL    HW127815   5.585   5.300   0.399
 8972SOL    HW227816   5.729   5.281   0.324
 8973SOL     OW27817   0.689   2.585   1.956
 8973SOL    HW127818   0.664   2.522   2.030
 8973SOL    HW227819   0.737   2.664   1.994
 8974SOL     OW27820   2.271   4.102   4.473
 8974SOL    HW127821   2.274   4.006   4.500
 8974SOL    HW227822   2.223   4.154   4.543
 8975SOL     OW27823   0.533   0.436   6.719
 8975SOL    HW127824   0.564   0.522   6.677
 8975SOL    HW227825   0.589   0.361   6.684
 8976SOL     OW27826   6.017   6.293   1.361
 8976SOL    HW127827   6.063   6.205   1.375
 8976SOL    HW227828   6.059   6.362   1.420
 8977SOL     OW27829   6.942   5.388   6.146
 8977SOL    HW127830   0.001   5.353   6.188
 8977SOL    HW227831   6.918   5.332   6.066
 8978SOL     OW27832   6.129   6.211   5.060
 8978SOL    HW127833   6.154   6.115   5.046
 8978SOL    HW227834   6.140   6.260   4.973
 8979SOL     OW27835   0.886   5.300   6.154
 8979SOL    HW127836   0.863   5.360   6.078
 8979SOL    HW227837   0.976   5.260   6.140
 8980SOL     OW27838   4.405   1.745   5.754
 8980SOL    HW127839   4.391   1.839   5.724
 8980SOL    HW227840   4.482   1.705   5.704
 8981SOL     OW27841   4.347   2.033   6.205
 8981SOL    HW127842   4.376   2.054   6.299
 8981SOL    HW227843   4.252   2.062   6.193
 8982SOL     OW27844   6.726   1.147   1.914
 8982SOL    HW127845   6.690   1.240   1.922
 8982SOL    HW227846   6.659   1.082   1.950
 8983SOL     OW27847   1.184   5.056   2.010
 8983SOL    HW127848   1.267   5.101   1.978
 8983SOL    HW227849   1.118   5.051   1.935
 8984SOL     OW27850   6.032   0.404   4.375
 8984SOL    HW127851   6.031   0.315   4.420
 8984SOL    HW227852   6.113   0.412   4.317
 8985SOL     OW27853   4.709   1.760   0.587
 8985SOL    HW127854   4.617   1.777   0.619
 8985SOL    HW227855   4.707   1.693   0.512
 8986SOL     OW27856   6.274   4.431   1.821
 8986SOL    HW127857   6.191   4.474   1.786
 8986SOL    HW227858   6.310   4.368   1.753
 8987SOL     OW27859   2.591   0.257   1.274
 8987SOL    HW127860   2.531   0.319   1.224
 8987SOL    HW227861   2.567   0.258   1.371
 8988SOL     OW27862   2.175   5.787   0.959
 8988SOL    HW127863   2.178   5.693   0.991
 8988SOL    HW227864   2.225   5.795   0.873
 8989SOL     OW27865   5.119   2.503   2.677
 8989SOL    HW127866   5.054   2.559   2.729
 8989SOL    HW227867   5.081   2.412   2.664
 8990SOL     OW27868   3.468   6.124   0.739
 8990SOL    HW127869   3.545   6.186   0.755
 8990SOL    HW227870   3.383   6.177   0.735
 8991SOL     OW27871   2.082   2.365   0.929
 8991SOL    HW127872   2.114   2.443   0.983
 8991SOL    HW227873   2.155   2.297   0.922
 8992SOL     OW27874   0.522   2.959   0.275
 8992SOL    HW127875   0.508   2.994   0.368
 8992SOL    HW227876   0.483   3.023   0.209
 8993SOL     OW27877   5.120   1.958   3.625
 8993SOL    HW127878   5.106   1.867   3.663
 8993SOL    HW227879   5.186   1.953   3.550
 8994SOL     OW27880   1.574   5.457   3.839
 8994SOL    HW127881   1.604   5.375   3.790
 8994SOL    HW227882   1.651   5.494   3.892
 8995SOL     OW27883   1.349   2.798   5.072
 8995SOL    HW127884   1.306   2.751   5.150
 8995SOL    HW227885   1.370   2.892   5.097
 8996SOL     OW27886   0.423   3.976   1.250
 8996SOL    HW127887   0.435   4.046   1.320
 8996SOL    HW227888   0.509   3.926   1.236
 8997SOL     OW27889   4.730   1.446   6.270
 8997SOL    HW127890   4.740   1.399   6.182
 8997SOL    HW227891   4.634   1.474   6.282
 8998SOL     OW27892   1.179   2.703   5.276
 8998SOL    HW127893   1.086   2.737   5.287
 8998SOL    HW227894   1.221   2.691   5.366
 8999SOL     OW27895   4.667   1.711   6.673
 8999SOL    HW127896   4.700   1.681   6.583
 8999SOL    HW227897   4.623   1.635   6.720
 9000SOL     OW27898   2.980   3.565   6.861
 9000SOL    HW127899   3.046   3.538   6.931
 9000SOL    HW227900   3.017   3.544   6.770
 9001SOL     OW27901   1.801   4.550   3.197
 9001SOL    HW127902   1.854   4.577   3.116
 9001SOL    HW227903   1.859   4.555   3.278
 9002SOL     OW27904   6.439   4.861   5.774
 9002SOL    HW127905   6.388   4.891   5.693
 9002SOL    HW227906   6.383   4.796   5.826
 9003SOL     OW27907   6.369   2.521   0.586
 9003SOL    HW127908   6.355   2.533   0.684
 9003SOL    HW227909   6.354   2.425   0.561
 9004SOL     OW27910   5.121   6.623   1.350
 9004SOL    HW127911   5.141   6.526   1.335
 9004SOL    HW227912   5.194   6.664   1.404
 9005SOL     OW27913   4.693   2.058   3.788
 9005SOL    HW127914   4.703   2.118   3.868
 9005SOL    HW227915   4.729   1.967   3.810
 9006SOL     OW27916   1.713   5.200   1.210
 9006SOL    HW127917   1.690   5.261   1.134
 9006SOL    HW227918   1.628   5.163   1.250
 9007SOL     OW27919   2.882   5.115   3.936
 9007SOL    HW127920   2.811   5.053   3.902
 9007SOL    HW227921   2.954   5.124   3.868
 9008SOL     OW27922   0.089   4.275   2.032
 9008SOL    HW127923   0.111   4.319   2.119
 9008SOL    HW227924   7.022   4.235   2.036
 9009SOL     OW27925   2.458   0.025   1.233
 9009SOL    HW127926   2.508   0.111   1.230
 9009SOL    HW227927   2.459   7.007   1.142
 9010SOL     OW27928   0.790   6.726   4.529
 9010SOL    HW127929   0.777   6.682   4.440
 9010SOL    HW227930   0.745   6.672   4.600
 9011SOL     OW27931   3.716   2.216   1.106
 9011SOL    HW127932   3.780   2.145   1.136
 9011SOL    HW227933   3.642   2.175   1.052
 9012SOL     OW27934   0.985   4.963   1.169
 9012SOL    HW127935   0.918   5.005   1.107
 9012SOL    HW227936   0.959   4.868   1.186
 9013SOL     OW27937   6.479   5.879   4.332
 9013SOL    HW127938   6.563   5.923   4.363
 9013SOL    HW227939   6.410   5.949   4.312
 9014SOL     OW27940   1.100   1.319   0.147
 9014SOL    HW127941   1.098   1.249   0.075
 9014SOL    HW227942   1.152   1.398   0.114
 9015SOL     OW27943   0.453   0.999   6.200
 9015SOL    HW127944   0.549   1.026   6.190
 9015SOL    HW227945   0.396   1.058   6.142
 9016SOL     OW27946   6.849   6.257   6.026
 9016SOL    HW127947   6.796   6.211   5.955
 9016SOL    HW227948   6.945   6.229   6.021
 9017SOL     OW27949   5.749   1.620   4.047
 9017SOL    HW127950   5.725   1.587   3.955
 9017SOL    HW227951   5.715   1.713   4.059
 9018SOL     OW27952   3.723   0.780   4.795
 9018SOL    HW127953   3.761   0.847   4.731
 9018SOL    HW227954   3.798   0.738   4.846
 9019SOL     OW27955   2.967   6.251   6.945
 9019SOL    HW127956   2.975   6.349   6.927
 9019SOL    HW227957   2.976   6.234   0.019
 9020SOL     OW27958   1.816   4.281   2.650
 9020SOL    HW127959   1.785   4.326   2.734
 9020SOL    HW227960   1.892   4.333   2.610
 9021SOL     OW27961   6.857   6.074   4.285
 9021SOL    HW127962   6.818   6.010   4.351
 9021SOL    HW227963   6.943   6.037   4.250
 9022SOL     OW27964   2.680   0.442   0.271
 9022SOL    HW127965   2.658   0.458   0.175
 9022SOL    HW227966   2.671   0.345   0.291
 9023SOL     OW27967   3.214   3.260   3.704
 9023SOL    HW127968   3.273   3.185   3.733
 9023SOL    HW227969   3.264   3.320   3.643
 9024SOL     OW27970   1.691   6.127   6.042
 9024SOL    HW127971   1.706   6.088   6.132
 9024SOL    HW227972   1.611   6.085   6.000
 9025SOL     OW27973   6.473   5.050   1.704
 9025SOL    HW127974   6.467   4.961   1.660
 9025SOL    HW227975   6.515   5.116   1.641
 9026SOL     OW27976   3.895   3.090   4.512
 9026SOL    HW127977   3.807   3.063   4.474
 9026SOL    HW227978   3.889   3.090   4.612
 9027SOL     OW27979   2.665   2.310   2.989
 9027SOL    HW127980   2.623   2.398   3.011
 9027SOL    HW227981   2.697   2.266   3.073
 9028SOL     OW27982   2.226   4.290   5.852
 9028SOL    HW127983   2.211   4.192   5.864
 9028SOL    HW227984   2.319   4.306   5.818
 9029SOL     OW27985   4.156   5.392   4.230
 9029SOL    HW127986   4.194   5.307   4.268
 9029SOL    HW227987   4.209   5.419   4.150
 9030SOL     OW27988   2.246   1.128   2.729
 9030SOL    HW127989   2.294   1.043   2.748
 9030SOL    HW227990   2.285   1.171   2.647
 9031SOL     OW27991   2.704   6.185   5.785
 9031SOL    HW127992   2.616   6.137   5.777
 9031SOL    HW227993   2.688   6.281   5.805
 9032SOL     OW27994   2.618   2.596   1.659
 9032SOL    HW127995   2.716   2.597   1.677
 9032SOL    HW227996   2.573   2.669   1.710
 9033SOL     OW27997   2.117   3.604   4.308
 9033SOL    HW127998   2.129   3.510   4.278
 9033SOL    HW227999   2.118   3.608   4.408
 9034SOL     OW28000   2.922   6.501   5.182
 9034SOL    HW128001   2.912   6.599   5.165
 9034SOL    HW228002   2.848   6.451   5.136
 9035SOL     OW28003   7.006   6.875   4.811
 9035SOL    HW128004   6.938   6.943   4.838
 9035SOL    HW228005   0.073   6.909   4.834
 9036SOL     OW28006   1.669   2.461   5.289
 9036SOL    HW128007   1.706   2.553   5.308
 9036SOL    HW228008   1.584   2.470   5.239
 9037SOL     OW28009   2.231   3.838   5.967
 9037SOL    HW128010   2.283   3.764   5.923
 9037SOL    HW228011   2.162   3.799   6.027
 9038SOL     OW28012   5.122   0.574   5.693
 9038SOL    HW128013   5.185   0.498   5.710
 9038SOL    HW228014   5.104   0.623   5.778
 9039SOL     OW28015   1.947   4.876   5.261
 9039SOL    HW128016   2.019   4.816   5.297
 9039SOL    HW228017   1.863   4.860   5.312
 9040SOL     OW28018   3.204   1.133   2.432
 9040SOL    HW128019   3.210   1.179   2.520
 9040SOL    HW228020   3.226   1.036   2.444
 9041SOL     OW28021   0.349   2.340   1.972
 9041SOL    HW128022   0.363   2.346   2.071
 9041SOL    HW228023   0.256   2.307   1.954
 9042SOL     OW28024   2.448   5.808   2.965
 9042SOL    HW128025   2.493   5.738   3.019
 9042SOL    HW228026   2.476   5.800   2.869
 9043SOL     OW28027   1.335   2.170   6.164
 9043SOL    HW128028   1.276   2.115   6.105
 9043SOL    HW228029   1.405   2.215   6.109
 9044SOL     OW28030   5.944   0.292   0.809
 9044SOL    HW128031   5.942   0.390   0.827
 9044SOL    HW228032   5.878   0.269   0.739
 9045SOL     OW28033   3.415   0.317   3.428
 9045SOL    HW128034   3.433   0.336   3.524
 9045SOL    HW228035   3.426   0.401   3.375
 9046SOL     OW28036   3.533   4.546   5.373
 9046SOL    HW128037   3.438   4.535   5.404
 9046SOL    HW228038   3.576   4.456   5.366
 9047SOL     OW28039   1.772   4.225   4.894
 9047SOL    HW128040   1.719   4.245   4.977
 9047SOL    HW228041   1.710   4.196   4.822
 9048SOL     OW28042   1.538   3.963   5.600
 9048SOL    HW128043   1.598   4.016   5.659
 9048SOL    HW228044   1.471   4.023   5.558
 9049SOL     OW28045   5.198   6.150   6.449
 9049SOL    HW128046   5.234   6.215   6.515
 9049SOL    HW228047   5.104   6.125   6.475
 9050SOL     OW28048   0.694   5.207   7.024
 9050SOL    HW128049   0.758   5.258   0.057
 9050SOL    HW228050   0.622   5.168   0.057
 9051SOL     OW28051   4.816   6.443   0.807
 9051SOL    HW128052   4.746   6.483   0.865
 9051SOL    HW228053   4.891   6.509   0.795
 9052SOL     OW28054   2.694   4.809   4.508
 9052SOL    HW128055   2.677   4.739   4.439
 9052SOL    HW228056   2.713   4.765   4.596
 9053SOL     OW28057   2.103   2.702   3.914
 9053SOL    HW128058   2.148   2.668   3.831
 9053SOL    HW228059   2.007   2.673   3.913
 9054SOL     OW28060   1.708   0.710   1.438
 9054SOL    HW128061   1.721   0.700   1.537
 9054SOL    HW228062   1.789   0.675   1.391
 9055SOL     OW28063   0.722   2.924   3.823
 9055SOL    HW128064   0.637   2.871   3.824
 9055SOL    HW228065   0.789   2.880   3.763
 9056SOL     OW28066   5.659   0.060   1.650
 9056SOL    HW128067   5.614   7.022   1.714
 9056SOL    HW228068   5.621   0.152   1.663
 9057SOL     OW28069   5.836   5.435   6.998
 9057SOL    HW128070   5.897   5.365   0.011
 9057SOL    HW228071   5.866   5.459   6.905
 9058SOL     OW28072   1.882   2.470   4.543
 9058SOL    HW128073   1.827   2.402   4.592
 9058SOL    HW228074   1.822   2.545   4.513
 9059SOL     OW28075   6.234   1.163   3.819
 9059SOL    HW128076   6.142   1.161   3.858
 9059SOL    HW228077   6.299   1.195   3.887
 9060SOL     OW28078   6.355   3.592   1.982
 9060SOL    HW128079   6.339   3.645   2.065
 9060SOL    HW228080   6.303   3.631   1.906
 9061SOL     OW28081   4.422   5.739   3.122
 9061SOL    HW128082   4.446   5.661   3.064
 9061SOL    HW228083   4.480   5.739   3.204
 9062SOL     OW28084   1.513   4.753   2.077
 9062SOL    HW128085   1.516   4.853   2.081
 9062SOL    HW228086   1.535   4.716   2.168
 9063SOL     OW28087   3.070   1.861   2.603
 9063SOL    HW128088   3.152   1.837   2.551
 9063SOL    HW228089   3.045   1.785   2.663
 9064SOL     OW28090   6.578   4.456   4.024
 9064SOL    HW128091   6.503   4.474   3.961
 9064SOL    HW228092   6.615   4.542   4.058
 9065SOL     OW28093   2.823   6.161   5.370
 9065SOL    HW128094   2.813   6.126   5.277
 9065SOL    HW228095   2.756   6.234   5.385
 9066SOL     OW28096   6.722   6.644   6.319
 9066SOL    HW128097   6.798   6.657   6.383
 9066SOL    HW228098   6.759   6.623   6.228
 9067SOL     OW28099   6.799   6.280   4.712
 9067SOL    HW128100   6.898   6.285   4.708
 9067SOL    HW228101   6.766   6.327   4.793
 9068SOL     OW28102   4.654   0.312   5.178
 9068SOL    HW128103   4.636   0.236   5.241
 9068SOL    HW228104   4.637   0.399   5.226
 9069SOL     OW28105   4.650   2.502   2.095
 9069SOL    HW128106   4.719   2.439   2.130
 9069SOL    HW228107   4.671   2.595   2.126
 9070SOL     OW28108   1.685   1.998   6.203
 9070SOL    HW128109   1.703   2.096   6.215
 9070SOL    HW228110   1.608   1.986   6.140
 9071SOL     OW28111   4.384   1.090   5.998
 9071SOL    HW128112   4.480   1.087   6.024
 9071SOL    HW228113   4.366   1.175   5.948
 9072SOL     OW28114   5.070   6.944   2.016
 9072SOL    HW128115   4.999   6.993   1.966
 9072SOL    HW228116   5.087   6.989   2.104
 9073SOL     OW28117   4.311   6.984   0.443
 9073SOL    HW128118   4.390   6.954   0.497
 9073SOL    HW228119   4.268   6.904   0.401
 9074SOL     OW28120   1.651   0.412   1.325
 9074SOL    HW128121   1.719   0.444   1.259
 9074SOL    HW228122   1.581   0.482   1.338
 9075SOL     OW28123   7.014   0.797   2.324
 9075SOL    HW128124   0.074   0.849   2.326
 9075SOL    HW228125   0.004   0.708   2.367
 9076SOL     OW28126   4.802   1.425   3.916
 9076SOL    HW128127   4.731   1.469   3.971
 9076SOL    HW228128   4.889   1.429   3.963
 9077SOL     OW28129   4.782   1.667   6.427
 9077SOL    HW128130   4.840   1.744   6.398
 9077SOL    HW228131   4.775   1.601   6.353
 9078SOL     OW28132   5.380   5.063   6.356
 9078SOL    HW128133   5.463   5.008   6.354
 9078SOL    HW228134   5.382   5.129   6.281
 9079SOL     OW28135   1.554   0.628   4.936
 9079SOL    HW128136   1.459   0.655   4.949
 9079SOL    HW228137   1.614   0.707   4.952
 9080SOL     OW28138   5.947   3.110   0.196
 9080SOL    HW128139   5.851   3.139   0.192
 9080SOL    HW228140   6.002   3.182   0.239
 9081SOL     OW28141   4.003   1.662   1.162
 9081SOL    HW128142   4.025   1.746   1.111
 9081SOL    HW228143   3.958   1.597   1.101
 9082SOL     OW28144   2.284   6.769   5.332
 9082SOL    HW128145   2.249   6.700   5.396
 9082SOL    HW228146   2.362   6.816   5.373
 9083SOL     OW28147   4.701   4.414   6.349
 9083SOL    HW128148   4.800   4.418   6.331
 9083SOL    HW228149   4.651   4.425   6.263
 9084SOL     OW28150   0.653   2.406   5.577
 9084SOL    HW128151   0.658   2.309   5.602
 9084SOL    HW228152   0.639   2.461   5.659
 9085SOL     OW28153   3.031   5.506   1.003
 9085SOL    HW128154   2.989   5.596   1.013
 9085SOL    HW228155   3.020   5.474   0.909
 9086SOL     OW28156   6.160   4.081   1.110
 9086SOL    HW128157   6.062   4.099   1.119
 9086SOL    HW228158   6.178   4.042   1.020
 9087SOL     OW28159   6.006   3.256   3.052
 9087SOL    HW128160   6.025   3.311   2.971
 9087SOL    HW228161   5.981   3.163   3.025
 9088SOL     OW28162   5.804   6.563   2.097
 9088SOL    HW128163   5.805   6.559   2.197
 9088SOL    HW228164   5.835   6.653   2.067
 9089SOL     OW28165   4.295   5.585   4.428
 9089SOL    HW128166   4.267   5.491   4.408
 9089SOL    HW228167   4.222   5.632   4.478
 9090SOL     OW28168   5.061   6.049   5.134
 9090SOL    HW128169   4.989   6.118   5.127
 9090SOL    HW228170   5.037   5.970   5.077
 9091SOL     OW28171   3.230   2.516   0.438
 9091SOL    HW128172   3.169   2.475   0.370
 9091SOL    HW228173   3.181   2.590   0.485
 9092SOL     OW28174   1.775   0.546   6.167
 9092SOL    HW128175   1.736   0.470   6.115
 9092SOL    HW228176   1.791   0.517   6.261
 9093SOL     OW28177   1.508   6.126   6.712
 9093SOL    HW128178   1.448   6.074   6.651
 9093SOL    HW228179   1.498   6.091   6.805
 9094SOL     OW28180   0.404   5.889   2.341
 9094SOL    HW128181   0.404   5.892   2.441
 9094SOL    HW228182   0.460   5.812   2.310
 9095SOL     OW28183   5.440   3.815   6.328
 9095SOL    HW128184   5.464   3.784   6.236
 9095SOL    HW228185   5.521   3.853   6.372
 9096SOL     OW28186   5.367   3.608   2.487
 9096SOL    HW128187   5.269   3.593   2.502
 9096SOL    HW228188   5.380   3.675   2.414
 9097SOL     OW28189   0.649   3.626   0.382
 9097SOL    HW128190   0.721   3.601   0.317
 9097SOL    HW228191   0.566   3.575   0.360
 9098SOL     OW28192   3.643   3.065   0.852
 9098SOL    HW128193   3.646   3.157   0.892
 9098SOL    HW228194   3.659   2.997   0.924
 9099SOL     OW28195   3.203   3.565   0.841
 9099SOL    HW128196   3.260   3.492   0.803
 9099SOL    HW228197   3.110   3.558   0.805
 9100SOL     OW28198   0.729   2.322   2.075
 9100SOL    HW128199   0.635   2.322   2.111
 9100SOL    HW228200   0.748   2.234   2.032
 9101SOL     OW28201   1.903   3.062   2.518
 9101SOL    HW128202   1.969   3.075   2.592
 9101SOL    HW228203   1.893   2.964   2.500
 9102SOL     OW28204   3.586   6.275   1.903
 9102SOL    HW128205   3.578   6.179   1.876
 9102SOL    HW228206   3.668   6.287   1.959
 9103SOL     OW28207   6.870   3.521   0.387
 9103SOL    HW128208   6.885   3.423   0.384
 9103SOL    HW228209   6.953   3.569   0.361
 9104SOL     OW28210   4.013   6.210   2.168
 9104SOL    HW128211   4.070   6.214   2.250
 9104SOL    HW228212   4.063   6.166   2.094
 9105SOL     OW28213   1.678   0.668   6.894
 9105SOL    HW128214   1.708   0.735   6.963
 9105SOL    HW228215   1.685   0.708   6.803
 9106SOL     OW28216   5.597   3.658   0.214
 9106SOL    HW128217   5.575   3.669   0.311
 9106SOL    HW228218   5.691   3.685   0.197
 9107SOL     OW28219   4.077   0.049   6.432
 9107SOL    HW128220   3.978   0.037   6.442
 9107SOL    HW228221   4.105   0.018   6.341
 9108SOL     OW28222   4.718   4.452   5.810
 9108SOL    HW128223   4.683   4.544   5.830
 9108SOL    HW228224   4.800   4.460   5.754
 9109SOL     OW28225   1.432   2.528   2.985
 9109SOL    HW128226   1.499   2.538   3.059
 9109SOL    HW228227   1.472   2.565   2.901
 9110SOL     OW28228   2.100   4.389   4.000
 9110SOL    HW128229   2.053   4.374   4.086
 9110SOL    HW228230   2.160   4.469   4.007
 9111SOL     OW28231   4.259   3.241   0.431
 9111SOL    HW128232   4.276   3.210   0.338
 9111SOL    HW228233   4.179   3.301   0.432
 9112SOL     OW28234   0.129   4.256   4.643
 9112SOL    HW128235   0.175   4.301   4.719
 9112SOL    HW228236   0.031   4.250   4.662
 9113SOL     OW28237   4.420   6.560   0.695
 9113SOL    HW128238   4.448   6.514   0.610
 9113SOL    HW228239   4.322   6.577   0.692
 9114SOL     OW28240   1.550   5.017   2.086
 9114SOL    HW128241   1.650   5.018   2.081
 9114SOL    HW228242   1.513   5.101   2.046
 9115SOL     OW28243   0.964   5.841   5.476
 9115SOL    HW128244   0.871   5.807   5.468
 9115SOL    HW228245   0.964   5.941   5.465
 9116SOL     OW28246   6.489   2.038   0.517
 9116SOL    HW128247   6.471   2.015   0.421
 9116SOL    HW228248   6.574   2.090   0.523
 9117SOL     OW28249   5.643   2.731   0.169
 9117SOL    HW128250   5.698   2.660   0.125
 9117SOL    HW228251   5.621   2.803   0.103
 9118SOL     OW28252   5.963   5.765   0.570
 9118SOL    HW128253   5.928   5.689   0.624
 9118SOL    HW228254   6.062   5.755   0.558
 9119SOL     OW28255   5.501   1.325   2.739
 9119SOL    HW128256   5.463   1.416   2.756
 9119SOL    HW228257   5.557   1.297   2.816
 9120SOL     OW28258   5.393   3.056   5.701
 9120SOL    HW128259   5.311   3.004   5.724
 9120SOL    HW228260   5.374   3.113   5.620
 9121SOL     OW28261   1.340   2.862   6.580
 9121SOL    HW128262   1.244   2.836   6.584
 9121SOL    HW228263   1.392   2.809   6.648
 9122SOL     OW28264   1.913   3.076   1.684
 9122SOL    HW128265   1.971   3.059   1.764
 9122SOL    HW228266   1.929   3.168   1.649
 9123SOL     OW28267   3.861   0.428   4.281
 9123SOL    HW128268   3.800   0.408   4.358
 9123SOL    HW228269   3.818   0.397   4.196
 9124SOL     OW28270   5.974   6.842   5.425
 9124SOL    HW128271   6.066   6.818   5.453
 9124SOL    HW228272   5.929   6.763   5.383
 9125SOL     OW28273   4.972   3.583   2.791
 9125SOL    HW128274   4.911   3.660   2.809
 9125SOL    HW228275   5.065   3.616   2.778
 9126SOL     OW28276   5.623   2.471   2.148
 9126SOL    HW128277   5.603   2.379   2.112
 9126SOL    HW228278   5.704   2.507   2.102
 9127SOL     OW28279   5.988   0.870   6.123
 9127SOL    HW128280   6.057   0.937   6.152
 9127SOL    HW228281   6.032   0.798   6.070
 9128SOL     OW28282   3.834   2.154   4.889
 9128SOL    HW128283   3.919   2.173   4.938
 9128SOL    HW228284   3.772   2.103   4.948
 9129SOL     OW28285   1.192   2.772   1.274
 9129SOL    HW128286   1.282   2.760   1.231
 9129SOL    HW228287   1.188   2.720   1.359
 9130SOL     OW28288   6.927   3.217   0.436
 9130SOL    HW128289   6.830   3.223   0.458
 9130SOL    HW228290   6.940   3.159   0.355
 9131SOL     OW28291   0.319   3.788   6.013
 9131SOL    HW128292   0.355   3.862   6.070
 9131SOL    HW228293   0.379   3.774   5.935
 9132SOL     OW28294   0.473   4.843   4.569
 9132SOL    HW128295   0.571   4.855   4.552
 9132SOL    HW228296   0.452   4.745   4.573
 9133SOL     OW28297   2.878   5.675   1.386
 9133SOL    HW128298   2.832   5.590   1.360
 9133SOL    HW228299   2.976   5.668   1.364
 9134SOL     OW28300   3.456   6.265   0.366
 9134SOL    HW128301   3.489   6.173   0.390
 9134SOL    HW228302   3.535   6.323   0.346
 9135SOL     OW28303   6.674   6.143   2.177
 9135SOL    HW128304   6.677   6.171   2.081
 9135SOL    HW228305   6.758   6.170   2.223
 9136SOL     OW28306   5.205   4.990   5.682
 9136SOL    HW128307   5.276   4.976   5.751
 9136SOL    HW228308   5.129   5.041   5.723
 9137SOL     OW28309   4.960   1.839   1.230
 9137SOL    HW128310   4.926   1.911   1.169
 9137SOL    HW228311   4.911   1.754   1.212
 9138SOL     OW28312   6.320   5.230   5.708
 9138SOL    HW128313   6.376   5.193   5.634
 9138SOL    HW228314   6.376   5.290   5.765
 9139SOL     OW28315   2.329   1.757   4.754
 9139SOL    HW128316   2.315   1.664   4.788
 9139SOL    HW228317   2.345   1.755   4.655
 9140SOL     OW28318   6.113   3.296   2.510
 9140SOL    HW128319   6.187   3.275   2.574
 9140SOL    HW228320   6.064   3.212   2.488
 9141SOL     OW28321   5.526   0.365   6.583
 9141SOL    HW128322   5.543   0.276   6.625
 9141SOL    HW228323   5.608   0.396   6.535
 9142SOL     OW28324   0.619   2.459   0.235
 9142SOL    HW128325   0.662   2.550   0.228
 9142SOL    HW228326   0.522   2.470   0.259
 9143SOL     OW28327   5.114   3.257   1.353
 9143SOL    HW128328   5.027   3.268   1.304
 9143SOL    HW228329   5.120   3.326   1.425
 9144SOL     OW28330   2.375   5.450   5.439
 9144SOL    HW128331   2.323   5.523   5.393
 9144SOL    HW228332   2.400   5.480   5.531
 9145SOL     OW28333   6.658   5.446   7.018
 9145SOL    HW128334   6.715   5.439   6.937
 9145SOL    HW228335   6.603   5.363   0.004
 9146SOL     OW28336   5.566   2.320   2.790
 9146SOL    HW128337   5.628   2.252   2.751
 9146SOL    HW228338   5.590   2.411   2.757
 9147SOL     OW28339   5.930   0.302   3.979
 9147SOL    HW128340   6.025   0.294   4.009
 9147SOL    HW228341   5.929   0.321   3.880
 9148SOL     OW28342   4.804   6.770   0.645
 9148SOL    HW128343   4.739   6.788   0.572
 9148SOL    HW228344   4.761   6.713   0.715
 9149SOL     OW28345   5.186   3.158   3.605
 9149SOL    HW128346   5.176   3.062   3.631
 9149SOL    HW228347   5.276   3.192   3.633
 9150SOL     OW28348   3.303   5.476   2.736
 9150SOL    HW128349   3.219   5.424   2.722
 9150SOL    HW228350   3.378   5.433   2.685
 9151SOL     OW28351   1.478   4.308   4.049
 9151SOL    HW128352   1.422   4.388   4.070
 9151SOL    HW228353   1.426   4.244   3.992
 9152SOL     OW28354   2.401   4.851   4.761
 9152SOL    HW128355   2.453   4.773   4.797
 9152SOL    HW228356   2.323   4.869   4.821
 9153SOL     OW28357   0.963   2.810   1.136
 9153SOL    HW128358   1.034   2.790   1.203
 9153SOL    HW228359   0.964   2.908   1.116
 9154SOL     OW28360   4.413   5.247   6.351
 9154SOL    HW128361   4.316   5.270   6.362
 9154SOL    HW228362   4.447   5.205   6.435
 9155SOL     OW28363   0.983   3.078   1.360
 9155SOL    HW128364   0.957   3.098   1.266
 9155SOL    HW228365   1.083   3.082   1.368
 9156SOL     OW28366   1.671   2.734   0.295
 9156SOL    HW128367   1.614   2.782   0.362
 9156SOL    HW228368   1.766   2.761   0.308
 9157SOL     OW28369   6.114   4.463   6.586
 9157SOL    HW128370   6.099   4.392   6.656
 9157SOL    HW228371   6.204   4.504   6.599
 9158SOL     OW28372   5.651   3.673   4.409
 9158SOL    HW128373   5.569   3.730   4.419
 9158SOL    HW228374   5.626   3.584   4.370
 9159SOL     OW28375   1.637   0.259   2.876
 9159SOL    HW128376   1.621   0.294   2.969
 9159SOL    HW228377   1.621   0.331   2.809
 9160SOL     OW28378   6.360   0.305   4.959
 9160SOL    HW128379   6.391   0.274   4.869
 9160SOL    HW228380   6.419   0.266   5.029
 9161SOL     OW28381   4.713   4.164   5.020
 9161SOL    HW128382   4.667   4.248   4.990
 9161SOL    HW228383   4.730   4.105   4.941
 9162SOL     OW28384   4.695   0.780   4.413
 9162SOL    HW128385   4.607   0.789   4.460
 9162SOL    HW228386   4.697   0.843   4.335
 9163SOL     OW28387   2.093   3.341   4.478
 9163SOL    HW128388   2.118   3.336   4.381
 9163SOL    HW228389   2.150   3.277   4.530
 9164SOL     OW28390   2.465   0.803   6.762
 9164SOL    HW128391   2.443   0.880   6.701
 9164SOL    HW228392   2.547   0.825   6.815
 9165SOL     OW28393   5.772   2.040   4.892
 9165SOL    HW128394   5.865   2.075   4.895
 9165SOL    HW228395   5.751   1.993   4.977
 9166SOL     OW28396   4.123   6.251   0.793
 9166SOL    HW128397   4.112   6.317   0.868
 9166SOL    HW228398   4.054   6.180   0.800
 9167SOL     OW28399   2.107   2.962   6.749
 9167SOL    HW128400   2.185   3.016   6.718
 9167SOL    HW228401   2.074   2.998   6.836
 9168SOL     OW28402   0.645   0.318   6.393
 9168SOL    HW128403   0.674   0.273   6.477
 9168SOL    HW228404   0.560   0.277   6.360
 9169SOL     OW28405   6.206   1.525   5.046
 9169SOL    HW128406   6.279   1.523   5.115
 9169SOL    HW228407   6.122   1.560   5.089
 9170SOL     OW28408   1.181   5.169   6.990
 9170SOL    HW128409   1.178   5.269   6.979
 9170SOL    HW228410   1.236   5.129   6.916
 9171SOL     OW28411   3.938   5.147   0.498
 9171SOL    HW128412   3.841   5.147   0.524
 9171SOL    HW228413   3.952   5.213   0.424
 9172SOL     OW28414   3.361   0.542   4.308
 9172SOL    HW128415   3.422   0.480   4.258
 9172SOL    HW228416   3.337   0.501   4.396
 9173SOL     OW28417   6.437   3.663   4.808
 9173SOL    HW128418   6.373   3.592   4.836
 9173SOL    HW228419   6.525   3.622   4.783
 9174SOL     OW28420   6.011   3.959   1.881
 9174SOL    HW128421   6.027   4.029   1.951
 9174SOL    HW228422   6.043   3.991   1.793
 9175SOL     OW28423   0.374   7.020   4.469
 9175SOL    HW128424   0.287   0.009   4.421
 9175SOL    HW228425   0.432   6.958   4.416
 9176SOL     OW28426   3.149   1.244   5.318
 9176SOL    HW128427   3.192   1.223   5.405
 9176SOL    HW228428   3.068   1.186   5.306
 9177SOL     OW28429   0.508   5.161   4.869
 9177SOL    HW128430   0.466   5.237   4.919
 9177SOL    HW228431   0.454   5.143   4.786
 9178SOL     OW28432   2.038   5.608   0.345
 9178SOL    HW128433   2.074   5.629   0.254
 9178SOL    HW228434   1.951   5.655   0.359
 9179SOL     OW28435   2.894   5.384   4.639
 9179SOL    HW128436   2.941   5.298   4.660
 9179SOL    HW228437   2.841   5.413   4.719
 9180SOL     OW28438   6.150   2.348   2.956
 9180SOL    HW128439   6.143   2.271   3.019
 9180SOL    HW228440   6.203   2.321   2.875
 9181SOL     OW28441   4.203   2.112   4.675
 9181SOL    HW128442   4.276   2.059   4.717
 9181SOL    HW228443   4.242   2.180   4.613
 9182SOL     OW28444   2.246   6.949   2.229
 9182SOL    HW128445   2.191   6.873   2.262
 9182SOL    HW228446   2.343   6.932   2.251
 9183SOL     OW28447   5.049   5.966   0.657
 9183SOL    HW128448   5.077   5.966   0.561
 9183SOL    HW228449   4.980   6.036   0.672
 9184SOL     OW28450   4.808   1.470   0.836
 9184SOL    HW128451   4.822   1.567   0.856
 9184SOL    HW228452   4.852   1.447   0.749
 9185SOL     OW28453   4.139   6.649   4.451
 9185SOL    HW128454   4.098   6.697   4.373
 9185SOL    HW228455   4.169   6.558   4.422
 9186SOL     OW28456   6.040   6.466   4.333
 9186SOL    HW128457   5.992   6.504   4.255
 9186SOL    HW228458   6.109   6.401   4.301
 9187SOL     OW28459   2.793   1.765   1.023
 9187SOL    HW128460   2.759   1.785   0.931
 9187SOL    HW228461   2.881   1.810   1.036
 9188SOL     OW28462   1.387   6.566   1.654
 9188SOL    HW128463   1.410   6.582   1.558
 9188SOL    HW228464   1.443   6.625   1.712
 9189SOL     OW28465   4.707   6.172   1.665
 9189SOL    HW128466   4.806   6.167   1.682
 9189SOL    HW228467   4.691   6.196   1.569
 9190SOL     OW28468   2.805   4.498   6.424
 9190SOL    HW128469   2.725   4.467   6.476
 9190SOL    HW228470   2.796   4.595   6.402
 9191SOL     OW28471   6.653   2.391   5.334
 9191SOL    HW128472   6.725   2.332   5.369
 9191SOL    HW228473   6.564   2.350   5.353
 9192SOL     OW28474   0.864   3.501   6.621
 9192SOL    HW128475   0.782   3.524   6.569
 9192SOL    HW228476   0.922   3.441   6.567
 9193SOL     OW28477   4.819   4.208   6.999
 9193SOL    HW128478   4.892   4.273   7.022
 9193SOL    HW228479   4.794   4.156   0.057
 9194SOL     OW28480   2.776   0.378   3.691
 9194SOL    HW128481   2.835   0.338   3.621
 9194SOL    HW228482   2.706   0.436   3.648
 9195SOL     OW28483   1.716   1.498   3.621
 9195SOL    HW128484   1.654   1.564   3.578
 9195SOL    HW228485   1.793   1.479   3.560
 9196SOL     OW28486   4.809   6.775   2.919
 9196SOL    HW128487   4.862   6.817   2.847
 9196SOL    HW228488   4.740   6.714   2.879
 9197SOL     OW28489   1.628   4.923   1.659
 9197SOL    HW128490   1.618   4.958   1.566
 9197SOL    HW228491   1.543   4.878   1.687
 9198SOL     OW28492   6.464   4.928   6.620
 9198SOL    HW128493   6.367   4.910   6.599
 9198SOL    HW228494   6.486   5.022   6.594
 9199SOL     OW28495   0.965   4.352   6.105
 9199SOL    HW128496   0.909   4.433   6.089
 9199SOL    HW228497   1.055   4.379   6.138
 9200SOL     OW28498   2.549   6.883   0.108
 9200SOL    HW128499   2.600   6.831   0.039
 9200SOL    HW228500   2.603   6.887   0.192
 9201SOL     OW28501   0.436   2.612   0.968
 9201SOL    HW128502   0.436   2.645   1.062
 9201SOL    HW228503   0.507   2.660   0.916
 9202SOL     OW28504   1.124   0.134   2.448
 9202SOL    HW128505   1.071   0.085   2.518
 9202SOL    HW228506   1.096   0.103   2.357
 9203SOL     OW28507   0.811   4.097   6.678
 9203SOL    HW128508   0.792   4.000   6.658
 9203SOL    HW228509   0.909   4.113   6.672
 9204SOL     OW28510   4.960   2.813   6.158
 9204SOL    HW128511   4.905   2.732   6.137
 9204SOL    HW228512   4.906   2.896   6.139
 9205SOL     OW28513   6.125   4.867   3.068
 9205SOL    HW128514   6.050   4.803   3.077
 9205SOL    HW228515   6.134   4.920   3.152
 9206SOL     OW28516   3.724   5.535   2.736
 9206SOL    HW128517   3.784   5.615   2.732
 9206SOL    HW228518   3.629   5.566   2.742
 9207SOL     OW28519   5.092   4.154   6.402
 9207SOL    HW128520   5.153   4.110   6.335
 9207SOL    HW228521   5.083   4.251   6.380
 9208SOL     OW28522   5.875   4.120   4.014
 9208SOL    HW128523   5.920   4.045   4.062
 9208SOL    HW228524   5.873   4.200   4.073
 9209SOL     OW28525   3.481   0.350   6.716
 9209SOL    HW128526   3.574   0.335   6.684
 9209SOL    HW228527   3.416   0.332   6.642
 9210SOL     OW28528   0.130   1.084   2.736
 9210SOL    HW128529   0.069   1.062   2.660
 9210SOL    HW228530   0.221   1.104   2.701
 9211SOL     OW28531   0.577   2.521   5.832
 9211SOL    HW128532   0.565   2.440   5.890
 9211SOL    HW228533   0.639   2.585   5.878
 9212SOL     OW28534   5.245   5.161   4.444
 9212SOL    HW128535   5.264   5.064   4.462
 9212SOL    HW228536   5.325   5.203   4.401
 9213SOL     OW28537   5.128   3.571   5.734
 9213SOL    HW128538   5.211   3.517   5.745
 9213SOL    HW228539   5.048   3.515   5.757
 9214SOL     OW28540   6.497   3.622   6.783
 9214SOL    HW128541   6.563   3.601   6.855
 9214SOL    HW228542   6.500   3.720   6.762
 9215SOL     OW28543   0.794   2.111   1.369
 9215SOL    HW128544   0.711   2.138   1.419
 9215SOL    HW228545   0.769   2.082   1.277
 9216SOL     OW28546   2.868   0.344   2.208
 9216SOL    HW128547   2.868   0.443   2.220
 9216SOL    HW228548   2.930   0.320   2.133
 9217SOL     OW28549   0.837   2.171   0.024
 9217SOL    HW128550   0.878   2.193   0.113
 9217SOL    HW228551   0.744   2.207   0.021
 9218SOL     OW28552   1.989   6.778   0.576
 9218SOL    HW128553   2.029   6.723   0.503
 9218SOL    HW228554   1.916   6.727   0.621
 9219SOL     OW28555   6.526   2.644   1.544
 9219SOL    HW128556   6.546   2.614   1.450
 9219SOL    HW228557   6.478   2.731   1.541
 9220SOL     OW28558   1.561   6.616   1.425
 9220SOL    HW128559   1.559   6.533   1.369
 9220SOL    HW228560   1.616   6.686   1.380
 9221SOL     OW28561   3.040   0.667   3.047
 9221SOL    HW128562   3.112   0.722   3.004
 9221SOL    HW228563   3.053   0.667   3.147
 9222SOL     OW28564   1.993   0.008   6.181
 9222SOL    HW128565   1.909   0.063   6.183
 9222SOL    HW228566   2.033   0.005   6.272
 9223SOL     OW28567   0.952   1.339   3.996
 9223SOL    HW128568   0.956   1.425   4.047
 9223SOL    HW228569   0.856   1.317   3.976
 9224SOL     OW28570   1.450   4.681   4.861
 9224SOL    HW128571   1.475   4.608   4.925
 9224SOL    HW228572   1.392   4.748   4.908
 9225SOL     OW28573   3.142   6.864   5.760
 9225SOL    HW128574   3.176   6.794   5.822
 9225SOL    HW228575   3.176   6.847   5.667
 9226SOL     OW28576   6.206   6.766   1.099
 9226SOL    HW128577   6.174   6.676   1.068
 9226SOL    HW228578   6.153   6.838   1.053
 9227SOL     OW28579   0.762   5.427   0.369
 9227SOL    HW128580   0.794   5.521   0.381
 9227SOL    HW228581   0.793   5.392   0.281
 9228SOL     OW28582   1.302   1.261   5.444
 9228SOL    HW128583   1.371   1.203   5.402
 9228SOL    HW228584   1.235   1.290   5.376
 9229SOL     OW28585   0.574   5.712   4.589
 9229SOL    HW128586   0.494   5.729   4.646
 9229SOL    HW228587   0.655   5.750   4.633
 9230SOL     OW28588   4.845   1.745   3.616
 9230SOL    HW128589   4.807   1.815   3.556
 9230SOL    HW228590   4.829   1.654   3.576
 9231SOL     OW28591   0.509   4.197   4.767
 9231SOL    HW128592   0.490   4.119   4.707
 9231SOL    HW228593   0.541   4.274   4.712
 9232SOL     OW28594   3.493   5.238   0.335
 9232SOL    HW128595   3.484   5.301   0.258
 9232SOL    HW228596   3.484   5.144   0.302
 9233SOL     OW28597   5.591   5.302   1.866
 9233SOL    HW128598   5.656   5.316   1.791
 9233SOL    HW228599   5.500   5.285   1.828
 9234SOL     OW28600   3.820   5.556   5.874
 9234SOL    HW128601   3.887   5.498   5.921
 9234SOL    HW228602   3.842   5.652   5.890
 9235SOL     OW28603   1.840   3.088   3.210
 9235SOL    HW128604   1.852   3.104   3.308
 9235SOL    HW228605   1.929   3.091   3.165
 9236SOL     OW28606   2.753   4.071   5.449
 9236SOL    HW128607   2.684   4.122   5.398
 9236SOL    HW228608   2.819   4.031   5.385
 9237SOL     OW28609   1.882   5.531   4.573
 9237SOL    HW128610   1.903   5.449   4.521
 9237SOL    HW228611   1.882   5.510   4.671
 9238SOL     OW28612   3.847   1.731   6.978
 9238SOL    HW128613   3.914   1.695   0.018
 9238SOL    HW228614   3.888   1.736   6.887
 9239SOL     OW28615   6.833   4.585   0.647
 9239SOL    HW128616   6.921   4.630   0.630
 9239SOL    HW228617   6.762   4.628   0.591
 9240SOL     OW28618   4.602   1.515   1.226
 9240SOL    HW128619   4.560   1.438   1.274
 9240SOL    HW228620   4.587   1.599   1.278
 9241SOL     OW28621   0.341   4.619   5.640
 9241SOL    HW128622   0.332   4.631   5.542
 9241SOL    HW228623   0.413   4.680   5.675
 9242SOL     OW28624   0.086   5.399   0.334
 9242SOL    HW128625   0.064   5.306   0.363
 9242SOL    HW228626   0.185   5.413   0.342
 9243SOL     OW28627   6.130   6.505   2.038
 9243SOL    HW128628   6.157   6.596   2.006
 9243SOL    HW228629   6.067   6.465   1.973
 9244SOL     OW28630   4.177   5.439   6.673
 9244SOL    HW128631   4.165   5.527   6.719
 9244SOL    HW228632   4.273   5.424   6.653
 9245SOL     OW28633   1.524   4.565   3.057
 9245SOL    HW128634   1.467   4.484   3.069
 9245SOL    HW228635   1.619   4.543   3.076
 9246SOL     OW28636   0.348   4.655   2.525
 9246SOL    HW128637   0.376   4.734   2.471
 9246SOL    HW228638   0.430   4.609   2.562
 9247SOL     OW28639   1.242   0.128   2.870
 9247SOL    HW128640   1.206   0.036   2.851
 9247SOL    HW228641   1.213   0.157   2.962
 9248SOL     OW28642   1.449   2.473   5.113
 9248SOL    HW128643   1.393   2.510   5.039
 9248SOL    HW228644   1.399   2.398   5.157
 9249SOL     OW28645   4.939   3.833   0.017
 9249SOL    HW128646   5.001   3.896   0.063
 9249SOL    HW228647   4.880   3.789   0.085
 9250SOL     OW28648   5.583   3.202   4.860
 9250SOL    HW128649   5.656   3.269   4.861
 9250SOL    HW228650   5.576   3.162   4.769
 9251SOL     OW28651   4.233   2.157   3.314
 9251SOL    HW128652   4.281   2.243   3.328
 9251SOL    HW228653   4.231   2.136   3.216
 9252SOL     OW28654   5.529   0.291   4.246
 9252SOL    HW128655   5.458   0.234   4.287
 9252SOL    HW228656   5.619   0.256   4.272
 9253SOL     OW28657   6.061   6.539   5.812
 9253SOL    HW128658   5.975   6.581   5.783
 9253SOL    HW228659   6.099   6.486   5.737
 9254SOL     OW28660   6.267   4.661   2.729
 9254SOL    HW128661   6.307   4.570   2.724
 9254SOL    HW228662   6.286   4.701   2.819
 9255SOL     OW28663   4.912   4.030   0.703
 9255SOL    HW128664   4.831   3.997   0.752
 9255SOL    HW228665   4.993   4.019   0.761
 9256SOL     OW28666   4.373   6.721   2.595
 9256SOL    HW128667   4.395   6.664   2.674
 9256SOL    HW228668   4.279   6.704   2.566
 9257SOL     OW28669   0.805   3.984   3.010
 9257SOL    HW128670   0.748   3.912   3.050
 9257SOL    HW228671   0.901   3.955   3.012
 9258SOL     OW28672   2.898   3.441   3.732
 9258SOL    HW128673   2.929   3.362   3.786
 9258SOL    HW228674   2.816   3.480   3.773
 9259SOL     OW28675   1.412   2.335   0.470
 9259SOL    HW128676   1.428   2.417   0.415
 9259SOL    HW228677   1.369   2.361   0.556
 9260SOL     OW28678   5.020   1.671   5.843
 9260SOL    HW128679   4.985   1.659   5.750
 9260SOL    HW228680   5.117   1.647   5.845
 9261SOL     OW28681   4.368   0.504   6.434
 9261SOL    HW128682   4.381   0.432   6.367
 9261SOL    HW228683   4.275   0.502   6.468
 9262SOL     OW28684   6.600   3.264   5.471
 9262SOL    HW128685   6.651   3.348   5.451
 9262SOL    HW228686   6.551   3.235   5.388
 9263SOL     OW28687   5.755   5.294   1.646
 9263SOL    HW128688   5.821   5.365   1.670
 9263SOL    HW228689   5.797   5.204   1.658
 9264SOL     OW28690   5.611   4.239   0.387
 9264SOL    HW128691   5.691   4.198   0.432
 9264SOL    HW228692   5.562   4.168   0.336
 9265SOL     OW28693   3.343   1.649   6.595
 9265SOL    HW128694   3.343   1.551   6.574
 9265SOL    HW228695   3.300   1.699   6.520
 9266SOL     OW28696   1.878   6.517   2.054
 9266SOL    HW128697   1.862   6.564   2.141
 9266SOL    HW228698   1.807   6.543   1.989
 9267SOL     OW28699   0.423   3.787   5.738
 9267SOL    HW128700   0.470   3.755   5.656
 9267SOL    HW228701   0.452   3.881   5.760
 9268SOL     OW28702   1.472   4.700   1.299
 9268SOL    HW128703   1.541   4.718   1.370
 9268SOL    HW228704   1.385   4.677   1.342
 9269SOL     OW28705   3.367   2.024   6.191
 9269SOL    HW128706   3.302   2.048   6.120
 9269SOL    HW228707   3.459   2.017   6.152
 9270SOL     OW28708   4.918   6.816   6.034
 9270SOL    HW128709   4.872   6.881   6.094
 9270SOL    HW228710   4.959   6.743   6.089
 9271SOL     OW28711   1.538   5.972   6.946
 9271SOL    HW128712   1.619   5.928   6.907
 9271SOL    HW228713   1.488   5.906   7.002
 9272SOL     OW28714   1.614   5.461   5.631
 9272SOL    HW128715   1.655   5.523   5.564
 9272SOL    HW228716   1.670   5.378   5.638
 9273SOL     OW28717   5.070   5.719   3.928
 9273SOL    HW128718   4.985   5.730   3.978
 9273SOL    HW228719   5.069   5.778   3.847
 9274SOL     OW28720   6.655   2.494   0.296
 9274SOL    HW128721   6.559   2.468   0.291
 9274SOL    HW228722   6.666   2.574   0.355
 9275SOL     OW28723   7.016   2.067   0.409
 9275SOL    HW128724   6.958   1.987   0.395
 9275SOL    HW228725   0.048   2.053   0.490
 9276SOL     OW28726   2.117   4.549   2.795
 9276SOL    HW128727   2.114   4.474   2.861
 9276SOL    HW228728   2.087   4.516   2.705
 9277SOL     OW28729   5.444   3.057   0.581
 9277SOL    HW128730   5.435   2.960   0.558
 9277SOL    HW228731   5.354   3.101   0.580
 9278SOL     OW28732   1.275   0.363   4.781
 9278SOL    HW128733   1.251   0.450   4.738
 9278SOL    HW228734   1.361   0.329   4.743
 9279SOL     OW28735   4.561   0.588   2.220
 9279SOL    HW128736   4.538   0.501   2.265
 9279SOL    HW228737   4.636   0.573   2.155
 9280SOL     OW28738   1.548   1.221   2.661
 9280SOL    HW128739   1.622   1.158   2.638
 9280SOL    HW228740   1.460   1.175   2.646
 9281SOL     OW28741   3.181   4.580   1.137
 9281SOL    HW128742   3.141   4.668   1.163
 9281SOL    HW228743   3.205   4.529   1.220
 9282SOL     OW28744   4.913   1.572   5.006
 9282SOL    HW128745   4.904   1.533   5.098
 9282SOL    HW228746   4.854   1.652   4.998
 9283SOL     OW28747   5.866   0.306   3.702
 9283SOL    HW128748   5.961   0.319   3.673
 9283SOL    HW228749   5.816   0.256   3.631
 9284SOL     OW28750   3.268   4.857   5.845
 9284SOL    HW128751   3.191   4.918   5.828
 9284SOL    HW228752   3.320   4.844   5.760
 9285SOL     OW28753   5.495   2.678   1.162
 9285SOL    HW128754   5.578   2.727   1.188
 9285SOL    HW228755   5.481   2.686   1.064
 9286SOL     OW28756   5.239   6.510   6.319
 9286SOL    HW128757   5.269   6.580   6.253
 9286SOL    HW228758   5.287   6.424   6.301
 9287SOL     OW28759   3.226   5.319   0.019
 9287SOL    HW128760   3.143   5.321   6.988
 9287SOL    HW228761   3.237   5.229   0.060
 9288SOL     OW28762   3.957   1.364   4.103
 9288SOL    HW128763   3.957   1.288   4.038
 9288SOL    HW228764   4.047   1.372   4.146
 9289SOL     OW28765   3.464   1.932   2.694
 9289SOL    HW128766   3.494   1.957   2.786
 9289SOL    HW228767   3.518   1.856   2.660
 9290SOL     OW28768   4.766   1.804   3.894
 9290SOL    HW128769   4.734   1.745   3.968
 9290SOL    HW228770   4.790   1.749   3.814
 9291SOL     OW28771   2.326   6.950   4.324
 9291SOL    HW128772   2.292   0.005   4.272
 9291SOL    HW228773   2.306   6.963   4.421
 9292SOL     OW28774   0.678   3.249   6.752
 9292SOL    HW128775   0.602   3.309   6.779
 9292SOL    HW228776   0.758   3.272   6.807
 9293SOL     OW28777   5.653   4.062   6.856
 9293SOL    HW128778   5.609   4.141   6.899
 9293SOL    HW228779   5.704   4.011   6.924
 9294SOL     OW28780   3.435   6.884   4.973
 9294SOL    HW128781   3.426   6.859   4.877
 9294SOL    HW228782   3.368   6.954   4.997
 9295SOL     OW28783   5.312   2.566   4.637
 9295SOL    HW128784   5.319   2.499   4.711
 9295SOL    HW228785   5.216   2.576   4.610
 9296SOL     OW28786   0.712   6.703   6.413
 9296SOL    HW128787   0.700   6.658   6.325
 9296SOL    HW228788   0.753   6.793   6.399
 9297SOL     OW28789   6.212   1.222   0.413
 9297SOL    HW128790   6.247   1.256   0.499
 9297SOL    HW228791   6.281   1.164   0.369
 9298SOL     OW28792   1.844   0.567   4.542
 9298SOL    HW128793   1.766   0.512   4.511
 9298SOL    HW228794   1.878   0.622   4.465
 9299SOL     OW28795   0.716   2.571   4.398
 9299SOL    HW128796   0.769   2.518   4.333
 9299SOL    HW228797   0.630   2.600   4.355
 9300SOL     OW28798   0.756   4.374   5.632
 9300SOL    HW128799   0.738   4.289   5.582
 9300SOL    HW228800   0.765   4.450   5.566
 9301SOL     OW28801   4.994   4.292   3.517
 9301SOL    HW128802   4.992   4.254   3.424
 9301SOL    HW228803   5.062   4.242   3.571
 9302SOL     OW28804   2.058   3.006   4.408
 9302SOL    HW128805   2.099   3.076   4.466
 9302SOL    HW228806   2.126   2.936   4.386
 9303SOL     OW28807   3.926   5.885   0.326
 9303SOL    HW128808   4.009   5.831   0.328
 9303SOL    HW228809   3.944   5.976   0.364
 9304SOL     OW28810   4.922   4.303   1.832
 9304SOL    HW128811   4.918   4.317   1.931
 9304SOL    HW228812   4.830   4.292   1.796
 9305SOL     OW28813   3.587   1.347   1.880
 9305SOL    HW128814   3.542   1.322   1.966
 9305SOL    HW228815   3.521   1.391   1.819
 9306SOL     OW28816   0.265   4.314   4.884
 9306SOL    HW128817   0.307   4.404   4.870
 9306SOL    HW228818   0.334   4.243   4.874
 9307SOL     OW28819   1.211   3.613   0.799
 9307SOL    HW128820   1.152   3.619   0.879
 9307SOL    HW228821   1.198   3.695   0.742
 9308SOL     OW28822   1.623   4.111   1.031
 9308SOL    HW128823   1.608   4.152   0.941
 9308SOL    HW228824   1.535   4.093   1.075
 9309SOL     OW28825   3.657   4.862   5.721
 9309SOL    HW128826   3.720   4.914   5.779
 9309SOL    HW228827   3.669   4.764   5.738
 9310SOL     OW28828   4.345   5.744   5.767
 9310SOL    HW128829   4.328   5.652   5.800
 9310SOL    HW228830   4.365   5.804   5.845
 9311SOL     OW28831   4.744   5.250   1.934
 9311SOL    HW128832   4.812   5.290   1.996
 9311SOL    HW228833   4.726   5.156   1.961
 9312SOL     OW28834   1.298   3.071   1.386
 9312SOL    HW128835   1.264   3.044   1.476
 9312SOL    HW228836   1.398   3.077   1.388
 9313SOL     OW28837   6.845   0.604   0.996
 9313SOL    HW128838   6.762   0.651   1.024
 9313SOL    HW228839   6.849   0.599   0.896
 9314SOL     OW28840   4.614   5.878   6.231
 9314SOL    HW128841   4.567   5.907   6.147
 9314SOL    HW228842   4.551   5.884   6.308
 9315SOL     OW28843   6.561   0.823   5.107
 9315SOL    HW128844   6.536   0.849   5.200
 9315SOL    HW228845   6.543   0.726   5.093
 9316SOL     OW28846   4.878   5.963   5.396
 9316SOL    HW128847   4.811   5.913   5.450
 9316SOL    HW228848   4.831   6.017   5.326
 9317SOL     OW28849   6.540   4.723   3.211
 9317SOL    HW128850   6.498   4.814   3.218
 9317SOL    HW228851   6.496   4.661   3.275
 9318SOL     OW28852   6.286   0.848   5.734
 9318SOL    HW128853   6.263   0.929   5.788
 9318SOL    HW228854   6.205   0.816   5.685
 9319SOL     OW28855   1.059   2.962   0.162
 9319SOL    HW128856   0.972   3.011   0.171
 9319SOL    HW228857   1.116   3.008   0.094
 9320SOL     OW28858   3.793   1.024   6.180
 9320SOL    HW128859   3.881   1.065   6.202
 9320SOL    HW228860   3.807   0.928   6.153
 9321SOL     OW28861   5.918   0.170   3.399
 9321SOL    HW128862   5.873   0.129   3.320
 9321SOL    HW228863   6.014   0.141   3.402
 9322SOL     OW28864   1.112   5.036   6.390
 9322SOL    HW128865   1.133   4.939   6.380
 9322SOL    HW228866   1.023   5.047   6.435
 9323SOL     OW28867   1.230   0.554   5.191
 9323SOL    HW128868   1.178   0.508   5.120
 9323SOL    HW228869   1.169   0.610   5.247
 9324SOL     OW28870   1.461   5.055   0.620
 9324SOL    HW128871   1.410   5.140   0.605
 9324SOL    HW228872   1.482   5.046   0.718
 9325SOL     OW28873   4.832   0.909   6.728
 9325SOL    HW128874   4.774   0.833   6.755
 9325SOL    HW228875   4.925   0.877   6.712
 9326SOL     OW28876   2.041   6.666   0.983
 9326SOL    HW128877   1.988   6.636   0.904
 9326SOL    HW228878   2.000   6.749   1.021
 9327SOL     OW28879   5.114   6.822   2.835
 9327SOL    HW128880   5.093   6.907   2.882
 9327SOL    HW228881   5.054   6.812   2.755
 9328SOL     OW28882   3.547   0.579   5.483
 9328SOL    HW128883   3.496   0.588   5.397
 9328SOL    HW228884   3.582   0.486   5.492
 9329SOL     OW28885   6.356   4.094   1.790
 9329SOL    HW128886   6.400   4.004   1.793
 9329SOL    HW228887   6.397   4.150   1.719
 9330SOL     OW28888   6.657   6.545   6.786
 9330SOL    HW128889   6.739   6.495   6.758
 9330SOL    HW228890   6.579   6.483   6.788
 9331SOL     OW28891   1.529   1.117   6.490
 9331SOL    HW128892   1.507   1.092   6.584
 9331SOL    HW228893   1.552   1.214   6.485
 9332SOL     OW28894   4.253   4.006   1.713
 9332SOL    HW128895   4.294   4.088   1.755
 9332SOL    HW228896   4.154   4.013   1.719
 9333SOL     OW28897   4.327   3.800   1.337
 9333SOL    HW128898   4.281   3.712   1.332
 9333SOL    HW228899   4.350   3.821   1.433
 9334SOL     OW28900   5.108   5.365   3.991
 9334SOL    HW128901   5.031   5.395   3.936
 9334SOL    HW228902   5.096   5.395   4.086
 9335SOL     OW28903   0.939   1.407   5.988
 9335SOL    HW128904   0.893   1.495   5.995
 9335SOL    HW228905   0.872   1.336   5.963
 9336SOL     OW28906   2.503   5.203   5.324
 9336SOL    HW128907   2.450   5.120   5.342
 9336SOL    HW228908   2.451   5.283   5.355
 9337SOL     OW28909   5.373   1.705   4.076
 9337SOL    HW128910   5.396   1.691   3.980
 9337SOL    HW228911   5.394   1.622   4.128
 9338SOL     OW28912   4.353   0.415   1.906
 9338SOL    HW128913   4.336   0.455   1.815
 9338SOL    HW228914   4.319   0.477   1.976
 9339SOL     OW28915   5.761   0.072   1.399
 9339SOL    HW128916   5.712   0.052   1.485
 9339SOL    HW228917   5.848   0.115   1.420
 9340SOL     OW28918   5.361   3.700   4.025
 9340SOL    HW128919   5.312   3.662   4.103
 9340SOL    HW228920   5.411   3.781   4.053
 9341SOL     OW28921   0.102   6.184   0.219
 9341SOL    HW128922   0.035   6.126   0.172
 9341SOL    HW228923   0.162   6.127   0.275
 9342SOL     OW28924   1.532   6.987   3.515
 9342SOL    HW128925   1.555   6.904   3.464
 9342SOL    HW228926   1.499   6.961   3.606
 9343SOL     OW28927   6.068   4.312   2.621
 9343SOL    HW128928   6.089   4.224   2.665
 9343SOL    HW228929   5.972   4.334   2.635
 9344SOL     OW28930   4.653   6.493   2.009
 9344SOL    HW128931   4.654   6.408   1.956
 9344SOL    HW228932   4.635   6.570   1.949
 9345SOL     OW28933   6.501   4.276   2.482
 9345SOL    HW128934   6.471   4.182   2.469
 9345SOL    HW228935   6.450   4.318   2.557
 9346SOL     OW28936   6.262   0.861   1.089
 9346SOL    HW128937   6.167   0.886   1.075
 9346SOL    HW228938   6.270   0.803   1.170
 9347SOL     OW28939   1.038   4.035   0.421
 9347SOL    HW128940   0.977   4.057   0.346
 9347SOL    HW228941   1.080   3.945   0.405
 9348SOL     OW28942   3.851   5.989   2.121
 9348SOL    HW128943   3.892   6.076   2.150
 9348SOL    HW228944   3.923   5.928   2.088
 9349SOL     OW28945   0.825   6.572   2.769
 9349SOL    HW128946   0.908   6.579   2.825
 9349SOL    HW228947   0.817   6.479   2.733
 9350SOL     OW28948   7.000   3.523   5.503
 9350SOL    HW128949   6.924   3.515   5.438
 9350SOL    HW228950   0.048   3.578   5.462
 9351SOL     OW28951   2.746   0.537   6.793
 9351SOL    HW128952   2.718   0.479   6.716
 9351SOL    HW228953   2.832   0.503   6.831
 9352SOL     OW28954   3.200   2.031   6.887
 9352SOL    HW128955   3.289   2.057   6.849
 9352SOL    HW228956   3.129   2.048   6.818
 9353SOL     OW28957   0.291   4.991   0.687
 9353SOL    HW128958   0.332   5.074   0.650
 9353SOL    HW228959   0.295   4.919   0.618
 9354SOL     OW28960   6.187   1.916   6.197
 9354SOL    HW128961   6.174   1.821   6.168
 9354SOL    HW228962   6.169   1.977   6.120
 9355SOL     OW28963   0.534   2.336   4.825
 9355SOL    HW128964   0.565   2.309   4.734
 9355SOL    HW228965   0.496   2.428   4.821
 9356SOL     OW28966   4.603   0.286   1.934
 9356SOL    HW128967   4.522   0.343   1.945
 9356SOL    HW228968   4.628   0.281   1.837
 9357SOL     OW28969   1.260   3.740   6.223
 9357SOL    HW128970   1.197   3.738   6.145
 9357SOL    HW228971   1.228   3.676   6.293
 9358SOL     OW28972   0.023   4.035   2.370
 9358SOL    HW128973   0.087   3.975   2.322
 9358SOL    HW228974   0.071   4.087   2.440
 9359SOL     OW28975   1.373   4.975   0.185
 9359SOL    HW128976   1.400   4.935   0.097
 9359SOL    HW228977   1.356   4.903   0.251
 9360SOL     OW28978   1.857   5.040   6.350
 9360SOL    HW128979   1.932   5.027   6.286
 9360SOL    HW228980   1.822   5.134   6.343
 9361SOL     OW28981   1.791   5.008   3.147
 9361SOL    HW128982   1.698   4.973   3.159
 9361SOL    HW228983   1.791   5.077   3.075
 9362SOL     OW28984   0.779   1.075   2.758
 9362SOL    HW128985   0.680   1.078   2.765
 9362SOL    HW228986   0.806   1.050   2.665
 9363SOL     OW28987   3.306   5.154   2.053
 9363SOL    HW128988   3.212   5.155   2.020
 9363SOL    HW228989   3.322   5.233   2.112
 9364SOL     OW28990   2.489   2.214   0.201
 9364SOL    HW128991   2.504   2.158   0.119
 9364SOL    HW228992   2.560   2.194   0.268
 9365SOL     OW28993   3.042   1.858   3.746
 9365SOL    HW128994   2.944   1.870   3.760
 9365SOL    HW228995   3.064   1.760   3.753
 9366SOL     OW28996   3.120   5.353   0.287
 9366SOL    HW128997   3.136   5.341   0.189
 9366SOL    HW228998   3.143   5.447   0.313
 9367SOL     OW28999   6.516   0.339   1.414
 9367SOL    HW129000   6.477   0.257   1.372
 9367SOL    HW229001   6.528   0.410   1.344
 9368SOL     OW29002   3.639   6.589   2.010
 9368SOL    HW129003   3.638   6.495   1.977
 9368SOL    HW229004   3.734   6.623   2.012
 9369SOL     OW29005   0.039   6.326   4.703
 9369SOL    HW129006   0.026   6.424   4.714
 9369SOL    HW229007   0.114   6.309   4.639
 9370SOL     OW29008   5.416   6.909   4.002
 9370SOL    HW129009   5.511   6.880   3.988
 9370SOL    HW229010   5.409   7.008   3.990
 9371SOL     OW29011   2.725   5.936   0.856
 9371SOL    HW129012   2.802   5.896   0.905
 9371SOL    HW229013   2.750   5.951   0.761
 9372SOL     OW29014   5.335   0.124   1.537
 9372SOL    HW129015   5.398   0.161   1.606
 9372SOL    HW229016   5.284   0.048   1.577
 9373SOL     OW29017   5.338   1.903   0.824
 9373SOL    HW129018   5.434   1.931   0.819
 9373SOL    HW229019   5.313   1.887   0.920
 9374SOL     OW29020   6.956   3.285   5.636
 9374SOL    HW129021   6.974   3.364   5.577
 9374SOL    HW229022   6.949   3.316   5.731
 9375SOL     OW29023   6.995   1.741   0.760
 9375SOL    HW129024   6.999   1.721   0.858
 9375SOL    HW229025   7.004   1.656   0.708
 9376SOL     OW29026   2.437   3.845   1.765
 9376SOL    HW129027   2.394   3.791   1.692
 9376SOL    HW229028   2.405   3.811   1.854
 9377SOL     OW29029   2.014   4.849   3.214
 9377SOL    HW129030   1.936   4.906   3.189
 9377SOL    HW229031   2.097   4.885   3.173
 9378SOL     OW29032   3.412   0.968   3.792
 9378SOL    HW129033   3.364   0.909   3.726
 9378SOL    HW229034   3.354   0.980   3.873
 9379SOL     OW29035   5.350   0.140   4.761
 9379SOL    HW129036   5.343   0.240   4.770
 9379SOL    HW229037   5.270   0.106   4.712
 9380SOL     OW29038   3.543   5.453   5.699
 9380SOL    HW129039   3.575   5.531   5.753
 9380SOL    HW229040   3.521   5.483   5.606
 9381SOL     OW29041   5.304   3.003   5.135
 9381SOL    HW129042   5.326   2.959   5.222
 9381SOL    HW229043   5.367   3.080   5.120
 9382SOL     OW29044   3.648   1.085   3.762
 9382SOL    HW129045   3.561   1.038   3.774
 9382SOL    HW229046   3.632   1.183   3.749
 9383SOL     OW29047   4.976   4.507   4.443
 9383SOL    HW129048   4.996   4.463   4.356
 9383SOL    HW229049   4.946   4.438   4.509
 9384SOL     OW29050   3.320   6.893   1.886
 9384SOL    HW129051   3.386   6.966   1.863
 9384SOL    HW229052   3.278   6.913   1.974
 9385SOL     OW29053   4.211   1.635   4.341
 9385SOL    HW129054   4.182   1.571   4.413
 9385SOL    HW229055   4.205   1.728   4.376
 9386SOL     OW29056   3.025   5.713   5.254
 9386SOL    HW129057   3.072   5.654   5.188
 9386SOL    HW229058   3.034   5.676   5.346
 9387SOL     OW29059   3.486   2.363   0.461
 9387SOL    HW129060   3.409   2.415   0.423
 9387SOL    HW229061   3.558   2.425   0.490
 9388SOL     OW29062   1.683   6.600   3.117
 9388SOL    HW129063   1.677   6.502   3.097
 9388SOL    HW229064   1.769   6.620   3.164
 9389SOL     OW29065   3.336   6.163   2.795
 9389SOL    HW129066   3.251   6.172   2.848
 9389SOL    HW229067   3.376   6.253   2.780
 9390SOL     OW29068   5.977   4.919   5.875
 9390SOL    HW129069   5.918   4.922   5.794
 9390SOL    HW229070   6.034   5.001   5.877
 9391SOL     OW29071   0.457   0.601   4.793
 9391SOL    HW129072   0.497   0.559   4.712
 9391SOL    HW229073   0.360   0.618   4.778
 9392SOL     OW29074   4.641   4.316   3.953
 9392SOL    HW129075   4.661   4.336   4.048
 9392SOL    HW229076   4.651   4.217   3.937
 9393SOL     OW29077   3.036   0.233   5.912
 9393SOL    HW129078   3.063   0.187   5.828
 9393SOL    HW229079   2.967   0.303   5.891
 9394SOL     OW29080   5.881   0.576   1.515
 9394SOL    HW129081   5.964   0.521   1.525
 9394SOL    HW229082   5.892   0.638   1.437
 9395SOL     OW29083   2.399   1.494   0.871
 9395SOL    HW129084   2.409   1.488   0.772
 9395SOL    HW229085   2.489   1.497   0.913
 9396SOL     OW29086   2.243   4.970   4.968
 9396SOL    HW129087   2.300   5.048   4.944
 9396SOL    HW229088   2.148   5.001   4.981
 9397SOL     OW29089   2.785   6.605   5.599
 9397SOL    HW129090   2.787   6.558   5.687
 9397SOL    HW229091   2.855   6.567   5.539
 9398SOL     OW29092   6.100   1.472   5.480
 9398SOL    HW129093   6.087   1.402   5.409
 9398SOL    HW229094   6.048   1.554   5.455
 9399SOL     OW29095   1.124   2.472   4.305
 9399SOL    HW129096   1.180   2.474   4.222
 9399SOL    HW229097   1.121   2.563   4.346
 9400SOL     OW29098   4.839   0.373   0.187
 9400SOL    HW129099   4.904   0.389   0.113
 9400SOL    HW229100   4.759   0.432   0.175
 9401SOL     OW29101   0.049   2.621   1.654
 9401SOL    HW129102   0.125   2.686   1.653
 9401SOL    HW229103   7.019   2.636   1.736
 9402SOL     OW29104   1.576   4.838   3.347
 9402SOL    HW129105   1.547   4.823   3.253
 9402SOL    HW229106   1.496   4.853   3.405
 9403SOL     OW29107   0.042   1.713   2.441
 9403SOL    HW129108   0.069   1.619   2.462
 9403SOL    HW229109   0.096   1.746   2.363
 9404SOL     OW29110   0.209   2.003   1.226
 9404SOL    HW129111   0.138   2.070   1.247
 9404SOL    HW229112   0.183   1.953   1.143
 9405SOL     OW29113   0.846   4.255   4.777
 9405SOL    HW129114   0.875   4.313   4.701
 9405SOL    HW229115   0.769   4.297   4.823
 9406SOL     OW29116   1.448   3.001   6.882
 9406SOL    HW129117   1.440   2.904   6.857
 9406SOL    HW229118   1.460   3.056   6.800
 9407SOL     OW29119   2.756   4.956   4.810
 9407SOL    HW129120   2.692   4.893   4.854
 9407SOL    HW229121   2.705   5.033   4.771
 9408SOL     OW29122   0.007   2.475   5.911
 9408SOL    HW129123   7.016   2.568   5.944
 9408SOL    HW229124   6.996   2.466   5.818
 9409SOL     OW29125   6.418   5.585   2.711
 9409SOL    HW129126   6.441   5.538   2.625
 9409SOL    HW229127   6.397   5.517   2.781
 9410SOL     OW29128   4.725   1.126   1.584
 9410SOL    HW129129   4.678   1.086   1.663
 9410SOL    HW229130   4.797   1.187   1.616
 9411SOL     OW29131   3.231   3.695   2.769
 9411SOL    HW129132   3.235   3.687   2.669
 9411SOL    HW229133   3.162   3.762   2.794
 9412SOL     OW29134   0.970   0.612   1.583
 9412SOL    HW129135   0.912   0.683   1.543
 9412SOL    HW229136   0.997   0.640   1.675
 9413SOL     OW29137   4.741   4.815   4.787
 9413SOL    HW129138   4.737   4.857   4.696
 9413SOL    HW229139   4.827   4.767   4.798
 9414SOL     OW29140   2.793   2.197   4.514
 9414SOL    HW129141   2.715   2.223   4.571
 9414SOL    HW229142   2.796   2.256   4.433
 9415SOL     OW29143   2.943   6.917   1.828
 9415SOL    HW129144   2.855   6.898   1.785
 9415SOL    HW229145   3.016   6.907   1.760
 9416SOL     OW29146   0.407   0.832   5.121
 9416SOL    HW129147   0.327   0.772   5.123
 9416SOL    HW229148   0.380   0.921   5.086
 9417SOL     OW29149   3.161   6.230   1.533
 9417SOL    HW129150   3.186   6.221   1.437
 9417SOL    HW229151   3.162   6.326   1.559
 9418SOL     OW29152   2.955   1.643   2.726
 9418SOL    HW129153   2.902   1.661   2.808
 9418SOL    HW229154   2.893   1.625   2.649
 9419SOL     OW29155   2.700   3.043   6.466
 9419SOL    HW129156   2.702   3.136   6.430
 9419SOL    HW229157   2.735   3.043   6.560
 9420SOL     OW29158   6.005   4.781   0.285
 9420SOL    HW129159   6.079   4.714   0.281
 9420SOL    HW229160   5.975   4.791   0.380
 9421SOL     OW29161   3.026   5.578   4.208
 9421SOL    HW129162   2.995   5.672   4.201
 9421SOL    HW229163   2.951   5.516   4.185
 9422SOL     OW29164   2.511   6.250   4.083
 9422SOL    HW129165   2.559   6.241   3.996
 9422SOL    HW229166   2.570   6.218   4.157
 9423SOL     OW29167   4.162   6.356   2.759
 9423SOL    HW129168   4.135   6.449   2.783
 9423SOL    HW229169   4.234   6.358   2.690
 9424SOL     OW29170   5.154   1.638   4.651
 9424SOL    HW129171   5.246   1.671   4.673
 9424SOL    HW229172   5.146   1.624   4.552
 9425SOL     OW29173   6.133   4.961   1.471
 9425SOL    HW129174   6.149   5.051   1.512
 9425SOL    HW229175   6.075   4.907   1.532
 9426SOL     OW29176   1.695   1.464   6.052
 9426SOL    HW129177   1.606   1.465   6.097
 9426SOL    HW229178   1.684   1.478   5.954
 9427SOL     OW29179   2.208   5.944   2.928
 9427SOL    HW129180   2.285   5.879   2.928
 9427SOL    HW229181   2.170   5.951   2.836
 9428SOL     OW29182   6.553   6.635   0.246
 9428SOL    HW129183   6.490   6.666   0.317
 9428SOL    HW229184   6.618   6.708   0.225
 9429SOL     OW29185   1.628   2.026   3.847
 9429SOL    HW129186   1.648   1.975   3.764
 9429SOL    HW229187   1.701   2.093   3.863
 9430SOL     OW29188   0.247   2.385   4.407
 9430SOL    HW129189   0.235   2.293   4.369
 9430SOL    HW229190   0.193   2.450   4.355
 9431SOL     OW29191   6.713   4.516   0.919
 9431SOL    HW129192   6.716   4.561   0.830
 9431SOL    HW229193   6.797   4.463   0.933
 9432SOL     OW29194   6.485   1.785   4.126
 9432SOL    HW129195   6.453   1.777   4.031
 9432SOL    HW229196   6.580   1.814   4.127
 9433SOL     OW29197   4.173   5.634   3.164
 9433SOL    HW129198   4.114   5.674   3.095
 9433SOL    HW229199   4.267   5.666   3.150
 9434SOL     OW29200   5.781   5.401   3.658
 9434SOL    HW129201   5.741   5.311   3.674
 9434SOL    HW229202   5.718   5.456   3.603
 9435SOL     OW29203   0.403   2.287   2.236
 9435SOL    HW129204   0.434   2.200   2.196
 9435SOL    HW229205   0.321   2.271   2.290
 9436SOL     OW29206   1.295   1.133   2.362
 9436SOL    HW129207   1.252   1.047   2.336
 9436SOL    HW229208   1.372   1.152   2.301
 9437SOL     OW29209   0.871   5.298   3.414
 9437SOL    HW129210   0.834   5.261   3.500
 9437SOL    HW229211   0.796   5.313   3.350
 9438SOL     OW29212   1.368   6.996   1.928
 9438SOL    HW129213   1.419   6.914   1.901
 9438SOL    HW229214   1.380   0.042   1.858
 9439SOL     OW29215   0.202   3.181   0.894
 9439SOL    HW129216   0.257   3.264   0.890
 9439SOL    HW229217   0.259   3.101   0.875
 9440SOL     OW29218   2.407   4.755   3.305
 9440SOL    HW129219   2.423   4.820   3.231
 9440SOL    HW229220   2.456   4.784   3.387
 9441SOL     OW29221   6.573   5.596   5.543
 9441SOL    HW129222   6.552   5.679   5.595
 9441SOL    HW229223   6.489   5.543   5.529
 9442SOL     OW29224   4.779   3.536   1.361
 9442SOL    HW129225   4.714   3.598   1.317
 9442SOL    HW229226   4.736   3.493   1.440
 9443SOL     OW29227   2.501   5.962   1.435
 9443SOL    HW129228   2.435   6.010   1.494
 9443SOL    HW229229   2.580   5.934   1.490
 9444SOL     OW29230   1.749   3.672   0.961
 9444SOL    HW129231   1.684   3.667   0.885
 9444SOL    HW229232   1.760   3.767   0.990
 9445SOL     OW29233   6.630   2.074   3.708
 9445SOL    HW129234   6.702   2.132   3.745
 9445SOL    HW229235   6.655   2.042   3.617
 9446SOL     OW29236   6.586   4.753   4.420
 9446SOL    HW129237   6.620   4.828   4.477
 9446SOL    HW229238   6.487   4.763   4.406
 9447SOL     OW29239   4.685   5.218   2.716
 9447SOL    HW129240   4.775   5.258   2.697
 9447SOL    HW229241   4.657   5.159   2.641
 9448SOL     OW29242   6.213   6.987   5.901
 9448SOL    HW129243   6.165   0.010   5.828
 9448SOL    HW229244   6.222   0.022   5.980
 9449SOL     OW29245   5.121   6.579   0.114
 9449SOL    HW129246   5.171   6.575   0.027
 9449SOL    HW229247   5.086   6.488   0.136
 9450SOL     OW29248   1.749   5.261   3.988
 9450SOL    HW129249   1.789   5.242   3.898
 9450SOL    HW229250   1.684   5.188   4.011
 9451SOL     OW29251   3.876   5.817   5.911
 9451SOL    HW129252   3.943   5.823   5.838
 9451SOL    HW229253   3.897   5.884   5.982
 9452SOL     OW29254   0.505   4.258   0.638
 9452SOL    HW129255   0.605   4.258   0.634
 9452SOL    HW229256   0.470   4.176   0.594
 9453SOL     OW29257   3.046   4.817   3.345
 9453SOL    HW129258   3.006   4.853   3.430
 9453SOL    HW229259   3.138   4.783   3.363
 9454SOL     OW29260   4.655   3.684   0.825
 9454SOL    HW129261   4.637   3.604   0.767
 9454SOL    HW229262   4.746   3.675   0.866
 9455SOL     OW29263   2.606   1.963   2.420
 9455SOL    HW129264   2.636   2.050   2.459
 9455SOL    HW229265   2.676   1.893   2.436
 9456SOL     OW29266   6.146   3.994   2.324
 9456SOL    HW129267   6.062   3.948   2.296
 9456SOL    HW229268   6.126   4.090   2.343
 9457SOL     OW29269   0.985   5.051   4.434
 9457SOL    HW129270   1.019   5.009   4.349
 9457SOL    HW229271   1.039   5.132   4.455
 9458SOL     OW29272   0.110   4.319   0.445
 9458SOL    HW129273   0.013   4.335   0.465
 9458SOL    HW229274   0.144   4.247   0.506
 9459SOL     OW29275   5.071   3.984   4.104
 9459SOL    HW129276   4.972   3.995   4.106
 9459SOL    HW229277   5.095   3.915   4.035
 9460SOL     OW29278   1.756   3.362   4.534
 9460SOL    HW129279   1.746   3.377   4.632
 9460SOL    HW229280   1.726   3.443   4.484
 9461SOL     OW29281   1.119   1.367   0.963
 9461SOL    HW129282   1.048   1.391   0.897
 9461SOL    HW229283   1.101   1.414   1.050
 9462SOL     OW29284   1.722   2.842   3.348
 9462SOL    HW129285   1.810   2.885   3.366
 9462SOL    HW229286   1.648   2.907   3.367
 9463SOL     OW29287   5.294   6.757   1.498
 9463SOL    HW129288   5.311   6.764   1.597
 9463SOL    HW229289   5.364   6.808   1.448
 9464SOL     OW29290   6.376   0.121   1.985
 9464SOL    HW129291   6.426   0.043   2.021
 9464SOL    HW229292   6.439   0.183   1.938
 9465SOL     OW29293   0.375   4.132   1.620
 9465SOL    HW129294   0.370   4.118   1.719
 9465SOL    HW229295   0.301   4.082   1.575
 9466SOL     OW29296   4.525   5.683   6.568
 9466SOL    HW129297   4.506   5.627   6.488
 9466SOL    HW229298   4.464   5.656   6.643
 9467SOL     OW29299   1.594   2.408   0.766
 9467SOL    HW129300   1.571   2.483   0.704
 9467SOL    HW229301   1.680   2.366   0.737
 9468SOL     OW29302   6.338   3.100   6.736
 9468SOL    HW129303   6.263   3.075   6.797
 9468SOL    HW229304   6.325   3.195   6.706
 9469SOL     OW29305   0.089   6.360   0.582
 9469SOL    HW129306   0.008   6.357   0.523
 9469SOL    HW229307   0.152   6.286   0.556
 9470SOL     OW29308   4.732   3.767   0.167
 9470SOL    HW129309   4.644   3.749   0.123
 9470SOL    HW229310   4.752   3.695   0.232
 9471SOL     OW29311   5.661   2.523   5.297
 9471SOL    HW129312   5.629   2.515   5.392
 9471SOL    HW229313   5.589   2.562   5.241
 9472SOL     OW29314   1.161   4.412   6.275
 9472SOL    HW129315   1.084   4.423   6.339
 9472SOL    HW229316   1.230   4.482   6.294
 9473SOL     OW29317   3.096   3.542   6.610
 9473SOL    HW129318   3.038   3.474   6.565
 9473SOL    HW229319   3.175   3.562   6.551
 9474SOL     OW29320   6.059   3.030   1.659
 9474SOL    HW129321   6.055   3.095   1.583
 9474SOL    HW229322   5.968   2.992   1.676
 9475SOL     OW29323   4.146   3.566   6.751
 9475SOL    HW129324   4.244   3.582   6.736
 9475SOL    HW229325   4.095   3.650   6.732
 9476SOL     OW29326   3.617   3.884   5.720
 9476SOL    HW129327   3.577   3.870   5.629
 9476SOL    HW229328   3.694   3.821   5.733
 9477SOL     OW29329   1.405   3.387   0.853
 9477SOL    HW129330   1.374   3.479   0.833
 9477SOL    HW229331   1.364   3.322   0.788
 9478SOL     OW29332   4.438   2.854   1.159
 9478SOL    HW129333   4.358   2.821   1.209
 9478SOL    HW229334   4.452   2.951   1.178
 9479SOL     OW29335   3.935   0.624   1.614
 9479SOL    HW129336   3.987   0.650   1.696
 9479SOL    HW229337   3.952   0.691   1.542
 9480SOL     OW29338   5.791   5.870   0.003
 9480SOL    HW129339   5.890   5.866   7.022
 9480SOL    HW229340   5.752   5.795   6.974
 9481SOL     OW29341   5.088   2.360   3.138
 9481SOL    HW129342   5.101   2.282   3.199
 9481SOL    HW229343   5.161   2.362   3.070
 9482SOL     OW29344   6.015   6.739   1.484
 9482SOL    HW129345   6.060   6.822   1.517
 9482SOL    HW229346   5.977   6.756   1.393
 9483SOL     OW29347   1.577   0.503   6.583
 9483SOL    HW129348   1.538   0.440   6.651
 9483SOL    HW229349   1.605   0.587   6.629
 9484SOL     OW29350   2.395   0.347   4.219
 9484SOL    HW129351   2.425   0.414   4.151
 9484SOL    HW229352   2.324   0.289   4.179
 9485SOL     OW29353   5.857   1.862   1.261
 9485SOL    HW129354   5.863   1.808   1.345
 9485SOL    HW229355   5.937   1.922   1.255
 9486SOL     OW29356   5.075   5.823   0.969
 9486SOL    HW129357   5.083   5.767   1.051
 9486SOL    HW229358   5.164   5.864   0.948
 9487SOL     OW29359   3.314   3.279   4.726
 9487SOL    HW129360   3.267   3.355   4.771
 9487SOL    HW229361   3.281   3.192   4.763
 9488SOL     OW29362   2.116   1.398   1.269
 9488SOL    HW129363   2.018   1.391   1.249
 9488SOL    HW229364   2.129   1.433   1.361
 9489SOL     OW29365   5.484   4.183   1.481
 9489SOL    HW129366   5.514   4.278   1.485
 9489SOL    HW229367   5.419   4.171   1.406
 9490SOL     OW29368   6.863   5.836   3.818
 9490SOL    HW129369   6.942   5.798   3.865
 9490SOL    HW229370   6.892   5.871   3.728
 9491SOL     OW29371   5.649   5.821   4.251
 9491SOL    HW129372   5.687   5.829   4.343
 9491SOL    HW229373   5.720   5.838   4.184
 9492SOL     OW29374   4.461   3.428   5.572
 9492SOL    HW129375   4.523   3.350   5.571
 9492SOL    HW229376   4.369   3.398   5.600
 9493SOL     OW29377   2.942   5.822   3.430
 9493SOL    HW129378   2.854   5.826   3.478
 9493SOL    HW229379   2.947   5.896   3.363
 9494SOL     OW29380   5.844   3.119   2.272
 9494SOL    HW129381   5.853   3.088   2.367
 9494SOL    HW229382   5.796   3.206   2.269
 9495SOL     OW29383   6.991   1.319   2.340
 9495SOL    HW129384   6.956   1.328   2.247
 9495SOL    HW229385   0.050   1.373   2.349
 9496SOL     OW29386   4.497   2.161   2.160
 9496SOL    HW129387   4.452   2.244   2.128
 9496SOL    HW229388   4.438   2.082   2.143
 9497SOL     OW29389   5.823   5.963   5.443
 9497SOL    HW129390   5.768   5.929   5.519
 9497SOL    HW229391   5.795   5.918   5.359
 9498SOL     OW29392   7.006   4.762   5.160
 9498SOL    HW129393   0.041   4.829   5.205
 9498SOL    HW229394   0.037   4.697   5.109
 9499SOL     OW29395   0.040   5.902   5.034
 9499SOL    HW129396   6.995   5.943   5.093
 9499SOL    HW229397   0.075   5.971   4.970
 9500SOL     OW29398   3.832   6.312   1.229
 9500SOL    HW129399   3.840   6.262   1.143
 9500SOL    HW229400   3.911   6.291   1.287
 9501SOL     OW29401   1.610   1.540   4.200
 9501SOL    HW129402   1.519   1.519   4.166
 9501SOL    HW229403   1.606   1.620   4.260
 9502SOL     OW29404   6.459   3.956   4.358
 9502SOL    HW129405   6.496   4.017   4.288
 9502SOL    HW229406   6.418   3.876   4.313
 9503SOL     OW29407   0.438   2.340   0.942
 9503SOL    HW129408   0.420   2.438   0.948
 9503SOL    HW229409   0.466   2.306   1.032
 9504SOL     OW29410   6.768   4.069   1.713
 9504SOL    HW129411   6.756   4.125   1.631
 9504SOL    HW229412   6.719   4.111   1.789
 9505SOL     OW29413   5.118   4.746   5.698
 9505SOL    HW129414   5.018   4.751   5.692
 9505SOL    HW229415   5.157   4.836   5.678
 9506SOL     OW29416   2.557   2.652   0.251
 9506SOL    HW129417   2.564   2.582   0.180
 9506SOL    HW229418   2.465   2.692   0.251
 9507SOL     OW29419   6.302   0.700   0.866
 9507SOL    HW129420   6.314   0.799   0.878
 9507SOL    HW229421   6.371   0.652   0.921
 9508SOL     OW29422   5.914   1.944   2.598
 9508SOL    HW129423   5.981   1.960   2.525
 9508SOL    HW229424   5.938   2.000   2.677
 9509SOL     OW29425   6.772   0.124   3.180
 9509SOL    HW129426   6.730   0.111   3.090
 9509SOL    HW229427   6.755   0.044   3.237
 9510SOL     OW29428   0.826   3.796   3.368
 9510SOL    HW129429   0.907   3.741   3.387
 9510SOL    HW229430   0.810   3.859   3.444
 9511SOL     OW29431   0.978   1.004   1.744
 9511SOL    HW129432   1.043   0.991   1.819
 9511SOL    HW229433   0.998   1.089   1.696
 9512SOL     OW29434   6.843   2.544   1.536
 9512SOL    HW129435   6.934   2.575   1.562
 9512SOL    HW229436   6.819   2.462   1.588
 9513SOL     OW29437   3.055   5.004   5.734
 9513SOL    HW129438   3.093   5.072   5.672
 9513SOL    HW229439   3.015   5.050   5.814
 9514SOL     OW29440   2.788   3.712   6.702
 9514SOL    HW129441   2.854   3.671   6.764
 9514SOL    HW229442   2.718   3.645   6.677
 9515SOL     OW29443   2.135   5.143   3.452
 9515SOL    HW129444   2.167   5.234   3.479
 9515SOL    HW229445   2.039   5.148   3.426
 9516SOL     OW29446   5.559   4.777   0.739
 9516SOL    HW129447   5.504   4.705   0.781
 9516SOL    HW229448   5.650   4.778   0.780
 9517SOL     OW29449   1.332   4.362   0.826
 9517SOL    HW129450   1.352   4.458   0.841
 9517SOL    HW229451   1.415   4.315   0.794
 9518SOL     OW29452   2.729   1.638   0.261
 9518SOL    HW129453   2.700   1.721   0.213
 9518SOL    HW229454   2.822   1.650   0.296
 9519SOL     OW29455   1.849   2.343   5.993
 9519SOL    HW129456   1.889   2.435   5.995
 9519SOL    HW229457   1.884   2.293   5.914
 9520SOL     OW29458   3.004   0.270   2.456
 9520SOL    HW129459   2.992   0.183   2.503
 9520SOL    HW229460   2.943   0.274   2.376
 9521SOL     OW29461   5.390   6.077   3.160
 9521SOL    HW129462   5.419   6.000   3.103
 9521SOL    HW229463   5.437   6.072   3.248
 9522SOL     OW29464   3.499   5.857   1.265
 9522SOL    HW129465   3.542   5.935   1.311
 9522SOL    HW229466   3.567   5.786   1.248
 9523SOL     OW29467   3.244   5.447   4.094
 9523SOL    HW129468   3.273   5.431   3.999
 9523SOL    HW229469   3.173   5.518   4.095
 9524SOL     OW29470   4.174   3.004   1.441
 9524SOL    HW129471   4.122   3.077   1.396
 9524SOL    HW229472   4.176   2.924   1.382
 9525SOL     OW29473   1.924   1.418   6.175
 9525SOL    HW129474   1.988   1.494   6.186
 9525SOL    HW229475   1.834   1.455   6.150
 9526SOL     OW29476   5.480   5.828   3.098
 9526SOL    HW129477   5.579   5.818   3.103
 9526SOL    HW229478   5.440   5.812   3.188
 9527SOL     OW29479   1.151   0.956   2.021
 9527SOL    HW129480   1.219   0.882   2.023
 9527SOL    HW229481   1.120   0.975   2.114
 9528SOL     OW29482   6.534   0.543   0.471
 9528SOL    HW129483   6.508   0.569   0.378
 9528SOL    HW229484   6.480   0.594   0.537
 9529SOL     OW29485   1.170   2.629   5.973
 9529SOL    HW129486   1.232   2.558   6.008
 9529SOL    HW229487   1.076   2.600   5.984
 9530SOL     OW29488   1.630   3.250   3.103
 9530SOL    HW129489   1.652   3.327   3.163
 9530SOL    HW229490   1.684   3.170   3.131
 9531SOL     OW29491   3.962   5.889   3.034
 9531SOL    HW129492   4.046   5.931   3.001
 9531SOL    HW229493   3.934   5.817   2.971
 9532SOL     OW29494   1.502   5.752   1.503
 9532SOL    HW129495   1.575   5.812   1.472
 9532SOL    HW229496   1.516   5.661   1.465
 9533SOL     OW29497   0.144   1.467   5.234
 9533SOL    HW129498   0.155   1.521   5.151
 9533SOL    HW229499   0.224   1.409   5.248
 9534SOL     OW29500   5.204   3.300   5.082
 9534SOL    HW129501   5.175   3.252   5.165
 9534SOL    HW229502   5.127   3.304   5.018
 9535SOL     OW29503   2.721   1.254   5.347
 9535SOL    HW129504   2.756   1.226   5.436
 9535SOL    HW229505   2.678   1.176   5.302
 9536SOL     OW29506   2.054   5.953   5.568
 9536SOL    HW129507   2.020   5.890   5.637
 9536SOL    HW229508   2.153   5.940   5.556
 9537SOL     OW29509   3.246   0.404   2.396
 9537SOL    HW129510   3.173   0.342   2.426
 9537SOL    HW229511   3.208   0.495   2.380
 9538SOL     OW29512   6.789   1.239   4.339
 9538SOL    HW129513   6.870   1.234   4.397
 9538SOL    HW229514   6.780   1.331   4.302
 9539SOL     OW29515   2.366   4.523   6.074
 9539SOL    HW129516   2.377   4.498   5.978
 9539SOL    HW229517   2.381   4.443   6.132
 9540SOL     OW29518   4.569   4.475   5.460
 9540SOL    HW129519   4.627   4.396   5.439
 9540SOL    HW229520   4.627   4.552   5.489
 9541SOL     OW29521   1.546   2.019   5.080
 9541SOL    HW129522   1.607   1.940   5.073
 9541SOL    HW229523   1.567   2.070   5.163
 9542SOL     OW29524   4.975   3.394   4.949
 9542SOL    HW129525   4.907   3.460   4.981
 9542SOL    HW229526   4.935   3.303   4.944
 9543SOL     OW29527   4.441   0.691   4.485
 9543SOL    HW129528   4.443   0.591   4.478
 9543SOL    HW229529   4.377   0.718   4.557
 9544SOL     OW29530   5.715   0.095   1.967
 9544SOL    HW129531   5.708   0.072   2.065
 9544SOL    HW229532   5.657   0.032   1.915
 9545SOL     OW29533   6.630   6.371   3.305
 9545SOL    HW129534   6.588   6.302   3.364
 9545SOL    HW229535   6.560   6.426   3.260
 9546SOL     OW29536   3.134   3.933   6.453
 9546SOL    HW129537   3.110   3.911   6.359
 9546SOL    HW229538   3.233   3.935   6.463
 9547SOL     OW29539   2.052   6.310   4.263
 9547SOL    HW129540   2.108   6.353   4.192
 9547SOL    HW229541   2.110   6.287   4.341
 9548SOL     OW29542   6.306   5.298   4.965
 9548SOL    HW129543   6.210   5.268   4.959
 9548SOL    HW229544   6.366   5.218   4.957
 9549SOL     OW29545   3.591   5.586   0.996
 9549SOL    HW129546   3.491   5.578   0.989
 9549SOL    HW229547   3.629   5.498   1.022
 9550SOL     OW29548   0.141   1.235   6.985
 9550SOL    HW129549   0.101   1.154   0.002
 9550SOL    HW229550   0.113   1.240   6.889
 9551SOL     OW29551   0.271   0.140   5.073
 9551SOL    HW129552   0.326   0.221   5.089
 9551SOL    HW229553   0.183   0.149   5.119
 9552SOL     OW29554   1.248   6.591   3.176
 9552SOL    HW129555   1.207   6.679   3.153
 9552SOL    HW229556   1.175   6.522   3.183
 9553SOL     OW29557   6.159   4.742   6.965
 9553SOL    HW129558   6.184   4.776   0.031
 9553SOL    HW229559   6.063   4.763   6.946
 9554SOL     OW29560   2.804   0.480   1.919
 9554SOL    HW129561   2.731   0.438   1.864
 9554SOL    HW229562   2.871   0.410   1.944
 9555SOL     OW29563   6.369   2.236   1.566
 9555SOL    HW129564   6.422   2.309   1.610
 9555SOL    HW229565   6.274   2.242   1.594
 9556SOL     OW29566   2.688   1.562   1.553
 9556SOL    HW129567   2.626   1.601   1.486
 9556SOL    HW229568   2.690   1.463   1.544
 9557SOL     OW29569   6.528   0.420   2.931
 9557SOL    HW129570   6.564   0.477   3.005
 9557SOL    HW229571   6.552   0.461   2.843
 9558SOL     OW29572   0.167   4.947   3.187
 9558SOL    HW129573   0.168   4.992   3.276
 9558SOL    HW229574   0.261   4.930   3.157
 9559SOL     OW29575   0.604   3.671   1.936
 9559SOL    HW129576   0.666   3.749   1.929
 9559SOL    HW229577   0.569   3.664   2.029
 9560SOL     OW29578   2.573   1.445   2.697
 9560SOL    HW129579   2.660   1.493   2.708
 9560SOL    HW229580   2.583   1.351   2.730
 9561SOL     OW29581   3.337   6.361   0.944
 9561SOL    HW129582   3.338   6.271   0.988
 9561SOL    HW229583   3.378   6.429   1.005
 9562SOL     OW29584   4.176   5.648   3.895
 9562SOL    HW129585   4.142   5.731   3.940
 9562SOL    HW229586   4.242   5.672   3.824
 9563SOL     OW29587   6.902   6.820   6.649
 9563SOL    HW129588   6.961   6.843   6.572
 9563SOL    HW229589   6.912   6.723   6.671
 9564SOL     OW29590   2.711   6.854   6.290
 9564SOL    HW129591   2.804   6.856   6.254
 9564SOL    HW229592   2.700   6.776   6.352
 9565SOL     OW29593   3.676   5.887   4.678
 9565SOL    HW129594   3.714   5.820   4.613
 9565SOL    HW229595   3.725   5.881   4.764
 9566SOL     OW29596   3.270   4.697   6.507
 9566SOL    HW129597   3.298   4.676   6.413
 9566SOL    HW229598   3.323   4.641   6.571
 9567SOL     OW29599   5.789   5.951   6.495
 9567SOL    HW129600   5.695   5.956   6.528
 9567SOL    HW229601   5.810   6.032   6.441
 9568SOL     OW29602   5.259   3.707   6.534
 9568SOL    HW129603   5.318   3.757   6.471
 9568SOL    HW229604   5.194   3.770   6.576
 9569SOL     OW29605   6.523   1.353   0.281
 9569SOL    HW129606   6.614   1.353   0.240
 9569SOL    HW229607   6.455   1.326   0.212
 9570SOL     OW29608   0.159   1.490   0.733
 9570SOL    HW129609   0.201   1.491   0.824
 9570SOL    HW229610   0.092   1.416   0.728
 9571SOL     OW29611   2.490   3.985   0.319
 9571SOL    HW129612   2.589   4.000   0.317
 9571SOL    HW229613   2.443   4.072   0.309
 9572SOL     OW29614   1.065   4.420   0.875
 9572SOL    HW129615   1.026   4.459   0.792
 9572SOL    HW229616   1.143   4.362   0.852
 9573SOL     OW29617   0.730   1.085   6.624
 9573SOL    HW129618   0.717   0.987   6.608
 9573SOL    HW229619   0.643   1.133   6.613
 9574SOL     OW29620   3.756   3.656   5.509
 9574SOL    HW129621   3.661   3.668   5.479
 9574SOL    HW229622   3.801   3.746   5.515
 9575SOL     OW29623   5.720   0.827   1.955
 9575SOL    HW129624   5.758   0.917   1.931
 9575SOL    HW229625   5.794   0.760   1.957
 9576SOL     OW29626   3.144   1.268   4.229
 9576SOL    HW129627   3.081   1.344   4.243
 9576SOL    HW229628   3.099   1.198   4.174
 9577SOL     OW29629   0.233   6.657   2.545
 9577SOL    HW129630   0.250   6.728   2.614
 9577SOL    HW229631   0.230   6.699   2.454
 9578SOL     OW29632   6.079   2.768   2.407
 9578SOL    HW129633   6.123   2.748   2.320
 9578SOL    HW229634   6.147   2.797   2.474
 9579SOL     OW29635   1.484   6.910   1.576
 9579SOL    HW129636   1.427   6.990   1.597
 9579SOL    HW229637   1.497   6.904   1.477
 9580SOL     OW29638   4.899   3.683   0.364
 9580SOL    HW129639   4.988   3.710   0.327
 9580SOL    HW229640   4.858   3.760   0.413
 9581SOL     OW29641   1.293   5.104   5.870
 9581SOL    HW129642   1.316   5.021   5.820
 9581SOL    HW229643   1.197   5.128   5.852
 9582SOL     OW29644   4.177   4.713   4.464
 9582SOL    HW129645   4.080   4.693   4.471
 9582SOL    HW229646   4.194   4.770   4.383
 9583SOL     OW29647   2.225   3.788   1.991
 9583SOL    HW129648   2.156   3.818   1.925
 9583SOL    HW229649   2.226   3.688   1.994
 9584SOL     OW29650   6.171   4.997   6.763
 9584SOL    HW129651   6.200   5.070   6.700
 9584SOL    HW229652   6.169   4.910   6.713
 9585SOL     OW29653   5.761   6.793   2.709
 9585SOL    HW129654   5.814   6.877   2.696
 9585SOL    HW229655   5.728   6.789   2.803
 9586SOL     OW29656   5.611   2.934   3.491
 9586SOL    HW129657   5.596   3.006   3.559
 9586SOL    HW229658   5.580   2.965   3.402
 9587SOL     OW29659   5.925   0.150   1.791
 9587SOL    HW129660   5.957   0.108   1.876
 9587SOL    HW229661   5.833   0.189   1.806
 9588SOL     OW29662   0.164   0.750   1.359
 9588SOL    HW129663   0.173   0.819   1.431
 9588SOL    HW229664   0.075   0.760   1.315
 9589SOL     OW29665   2.184   6.581   5.494
 9589SOL    HW129666   2.088   6.584   5.469
 9589SOL    HW229667   2.203   6.497   5.546
 9590SOL     OW29668   0.448   3.968   2.952
 9590SOL    HW129669   0.488   4.032   2.887
 9590SOL    HW229670   0.509   3.890   2.965
 9591SOL     OW29671   2.410   6.496   1.249
 9591SOL    HW129672   2.366   6.416   1.290
 9591SOL    HW229673   2.441   6.558   1.320
 9592SOL     OW29674   4.370   5.385   2.590
 9592SOL    HW129675   4.438   5.316   2.561
 9592SOL    HW229676   4.337   5.363   2.682
 9593SOL     OW29677   6.338   2.872   4.516
 9593SOL    HW129678   6.384   2.907   4.434
 9593SOL    HW229679   6.357   2.933   4.593
 9594SOL     OW29680   6.732   6.671   2.560
 9594SOL    HW129681   6.823   6.677   2.600
 9594SOL    HW229682   6.670   6.732   2.610
 9595SOL     OW29683   1.752   5.564   4.000
 9595SOL    HW129684   1.758   5.479   4.052
 9595SOL    HW229685   1.809   5.634   4.043
 9596SOL     OW29686   6.425   5.965   5.298
 9596SOL    HW129687   6.492   6.039   5.297
 9596SOL    HW229688   6.473   5.877   5.304
 9597SOL     OW29689   0.765   4.456   1.541
 9597SOL    HW129690   0.747   4.514   1.462
 9597SOL    HW229691   0.740   4.504   1.625
 9598SOL     OW29692   0.052   4.359   6.310
 9598SOL    HW129693   7.009   4.422   6.348
 9598SOL    HW229694   0.107   4.407   6.241
 9599SOL     OW29695   4.024   0.331   5.331
 9599SOL    HW129696   4.107   0.358   5.281
 9599SOL    HW229697   3.973   0.265   5.276
 9600SOL     OW29698   0.975   0.167   5.503
 9600SOL    HW129699   0.993   0.069   5.496
 9600SOL    HW229700   1.060   0.214   5.527
 9601SOL     OW29701   0.588   4.758   5.965
 9601SOL    HW129702   0.591   4.766   6.065
 9601SOL    HW229703   0.586   4.661   5.940
 9602SOL     OW29704   0.249   4.851   6.436
 9602SOL    HW129705   0.340   4.892   6.440
 9602SOL    HW229706   0.200   4.868   6.522
 9603SOL     OW29707   2.005   5.716   4.190
 9603SOL    HW129708   2.095   5.752   4.215
 9603SOL    HW229709   1.935   5.759   4.248
 9604SOL     OW29710   4.565   1.291   6.759
 9604SOL    HW129711   4.535   1.258   6.848
 9604SOL    HW229712   4.652   1.248   6.734
 9605SOL     OW29713   2.074   5.730   6.123
 9605SOL    HW129714   2.143   5.724   6.050
 9605SOL    HW229715   1.989   5.687   6.092
 9606SOL     OW29716   0.433   5.976   3.422
 9606SOL    HW129717   0.357   5.989   3.486
 9606SOL    HW229718   0.396   5.967   3.329
 9607SOL     OW29719   1.003   1.461   2.620
 9607SOL    HW129720   0.989   1.446   2.522
 9607SOL    HW229721   1.075   1.529   2.634
 9608SOL     OW29722   0.203   0.190   2.855
 9608SOL    HW129723   0.116   0.234   2.878
 9608SOL    HW229724   0.197   0.151   2.763
 9609SOL     OW29725   2.307   4.317   4.982
 9609SOL    HW129726   2.223   4.353   4.942
 9609SOL    HW229727   2.306   4.217   4.976
 9610SOL     OW29728   2.132   1.936   6.103
 9610SOL    HW129729   2.102   1.919   6.197
 9610SOL    HW229730   2.116   1.855   6.048
 9611SOL     OW29731   6.665   0.837   0.821
 9611SOL    HW129732   6.708   0.881   0.900
 9611SOL    HW229733   6.581   0.885   0.798
 9612SOL     OW29734   5.873   3.232   1.057
 9612SOL    HW129735   5.789   3.180   1.041
 9612SOL    HW229736   5.850   3.322   1.094
 9613SOL     OW29737   6.262   6.773   5.199
 9613SOL    HW129738   6.294   6.850   5.144
 9613SOL    HW229739   6.246   6.804   5.293
 9614SOL     OW29740   3.646   3.796   2.116
 9614SOL    HW129741   3.603   3.747   2.192
 9614SOL    HW229742   3.709   3.735   2.068
 9615SOL     OW29743   0.884   6.318   2.648
 9615SOL    HW129744   0.878   6.231   2.599
 9615SOL    HW229745   0.944   6.309   2.727
 9616SOL     OW29746   3.363   2.304   0.717
 9616SOL    HW129747   3.411   2.328   0.632
 9616SOL    HW229748   3.270   2.340   0.714
 9617SOL     OW29749   1.390   2.953   3.636
 9617SOL    HW129750   1.390   2.865   3.681
 9617SOL    HW229751   1.305   3.002   3.657
 9618SOL     OW29752   3.841   6.416   6.153
 9618SOL    HW129753   3.766   6.356   6.181
 9618SOL    HW229754   3.805   6.488   6.094
 9619SOL     OW29755   2.215   5.838   0.213
 9619SOL    HW129756   2.154   5.845   0.134
 9619SOL    HW229757   2.181   5.898   0.286
 9620SOL     OW29758   3.330   0.760   6.953
 9620SOL    HW129759   3.380   0.686   6.909
 9620SOL    HW229760   3.312   0.736   0.024
 9621SOL     OW29761   0.346   1.186   2.544
 9621SOL    HW129762   0.385   1.133   2.468
 9621SOL    HW229763   0.374   1.281   2.535
 9622SOL     OW29764   5.484   0.521   6.797
 9622SOL    HW129765   5.566   0.564   6.834
 9622SOL    HW229766   5.508   0.466   6.717
 9623SOL     OW29767   5.097   5.746   6.359
 9623SOL    HW129768   5.003   5.780   6.369
 9623SOL    HW229769   5.144   5.752   6.447
 9624SOL     OW29770   4.664   5.855   4.929
 9624SOL    HW129771   4.662   5.873   4.831
 9624SOL    HW229772   4.601   5.917   4.976
 9625SOL     OW29773   5.406   4.319   6.710
 9625SOL    HW129774   5.350   4.351   6.787
 9625SOL    HW229775   5.360   4.242   6.666
 9626SOL     OW29776   1.875   4.459   5.774
 9626SOL    HW129777   1.953   4.436   5.714
 9626SOL    HW229778   1.902   4.448   5.869
 9627SOL     OW29779   1.487   5.313   6.273
 9627SOL    HW129780   1.502   5.249   6.197
 9627SOL    HW229781   1.441   5.266   6.348
 9628SOL     OW29782   5.786   4.077   6.618
 9628SOL    HW129783   5.741   4.056   6.705
 9628SOL    HW229784   5.755   4.166   6.585
 9629SOL     OW29785   0.396   5.910   2.609
 9629SOL    HW129786   0.317   5.953   2.652
 9629SOL    HW229787   0.442   5.850   2.676
 9630SOL     OW29788   6.397   6.540   5.818
 9630SOL    HW129789   6.345   6.457   5.795
 9630SOL    HW229790   6.483   6.541   5.768
 9631SOL     OW29791   4.202   1.024   0.845
 9631SOL    HW129792   4.281   0.974   0.880
 9631SOL    HW229793   4.160   1.077   0.919
 9632SOL     OW29794   3.147   5.570   1.282
 9632SOL    HW129795   3.081   5.551   1.208
 9632SOL    HW229796   3.192   5.484   1.308
 9633SOL     OW29797   3.971   3.080   2.215
 9633SOL    HW129798   4.027   3.021   2.273
 9633SOL    HW229799   3.992   3.062   2.119
 9634SOL     OW29800   5.317   4.843   2.940
 9634SOL    HW129801   5.311   4.835   2.841
 9634SOL    HW229802   5.412   4.840   2.969
 9635SOL     OW29803   1.317   3.881   4.262
 9635SOL    HW129804   1.382   3.957   4.254
 9635SOL    HW229805   1.321   3.845   4.356
 9636SOL     OW29806   4.574   2.078   5.499
 9636SOL    HW129807   4.491   2.035   5.533
 9636SOL    HW229808   4.623   2.121   5.574
 9637SOL     OW29809   2.142   3.021   0.813
 9637SOL    HW129810   2.155   3.016   0.912
 9637SOL    HW229811   2.050   3.055   0.793
 9638SOL     OW29812   0.473   3.968   6.482
 9638SOL    HW129813   0.542   4.007   6.420
 9638SOL    HW229814   0.392   3.942   6.429
 9639SOL     OW29815   4.392   2.156   1.700
 9639SOL    HW129816   4.484   2.150   1.739
 9639SOL    HW229817   4.393   2.122   1.606
 9640SOL     OW29818   4.056   1.002   2.464
 9640SOL    HW129819   4.086   1.088   2.505
 9640SOL    HW229820   4.078   1.003   2.366
 9641SOL     OW29821   5.671   4.844   2.332
 9641SOL    HW129822   5.571   4.845   2.326
 9641SOL    HW229823   5.699   4.880   2.421
 9642SOL     OW29824   1.491   0.206   3.686
 9642SOL    HW129825   1.431   0.249   3.753
 9642SOL    HW229826   1.449   0.122   3.652
 9643SOL     OW29827   4.947   3.551   4.056
 9643SOL    HW129828   4.897   3.568   3.971
 9643SOL    HW229829   5.044   3.535   4.035
 9644SOL     OW29830   1.256   6.176   5.357
 9644SOL    HW129831   1.350   6.142   5.367
 9644SOL    HW229832   1.223   6.157   5.265
 9645SOL     OW29833   1.601   5.529   6.483
 9645SOL    HW129834   1.558   5.447   6.447
 9645SOL    HW229835   1.664   5.505   6.557
 9646SOL     OW29836   2.872   6.670   4.829
 9646SOL    HW129837   2.834   6.580   4.853
 9646SOL    HW229838   2.808   6.719   4.770
 9647SOL     OW29839   6.254   6.337   3.499
 9647SOL    HW129840   6.310   6.310   3.578
 9647SOL    HW229841   6.182   6.269   3.486
 9648SOL     OW29842   5.322   1.963   1.552
 9648SOL    HW129843   5.269   1.900   1.494
 9648SOL    HW229844   5.376   2.024   1.493
 9649SOL     OW29845   2.546   3.464   0.418
 9649SOL    HW129846   2.616   3.466   0.347
 9649SOL    HW229847   2.518   3.558   0.439
 9650SOL     OW29848   6.282   4.555   4.286
 9650SOL    HW129849   6.198   4.568   4.338
 9650SOL    HW229850   6.286   4.460   4.253
 9651SOL     OW29851   2.852   1.286   0.086
 9651SOL    HW129852   2.767   1.316   0.131
 9651SOL    HW229853   2.829   1.233   0.005
 9652SOL     OW29854   0.433   4.208   0.890
 9652SOL    HW129855   0.441   4.210   0.790
 9652SOL    HW229856   0.487   4.131   0.925
 9653SOL     OW29857   4.586   4.067   6.154
 9653SOL    HW129858   4.571   3.971   6.133
 9653SOL    HW229859   4.546   4.124   6.082
 9654SOL     OW29860   4.144   3.427   3.653
 9654SOL    HW129861   4.231   3.428   3.702
 9654SOL    HW229862   4.162   3.425   3.554
 9655SOL     OW29863   5.938   0.765   1.695
 9655SOL    HW129864   5.941   0.710   1.779
 9655SOL    HW229865   5.917   0.705   1.618
 9656SOL     OW29866   5.630   3.554   0.788
 9656SOL    HW129867   5.664   3.461   0.792
 9656SOL    HW229868   5.628   3.584   0.692
 9657SOL     OW29869   5.597   3.662   3.229
 9657SOL    HW129870   5.517   3.720   3.214
 9657SOL    HW229871   5.618   3.659   3.327
 9658SOL     OW29872   4.508   1.565   2.702
 9658SOL    HW129873   4.437   1.633   2.683
 9658SOL    HW229874   4.594   1.612   2.723
 9659SOL     OW29875   3.801   2.357   0.828
 9659SOL    HW129876   3.735   2.348   0.903
 9659SOL    HW229877   3.805   2.271   0.777
 9660SOL     OW29878   0.585   5.936   0.678
 9660SOL    HW129879   0.683   5.928   0.696
 9660SOL    HW229880   0.548   6.012   0.731
 9661SOL     OW29881   5.116   5.117   1.463
 9661SOL    HW129882   5.073   5.112   1.373
 9661SOL    HW229883   5.099   5.207   1.503
 9662SOL     OW29884   5.637   4.989   0.262
 9662SOL    HW129885   5.640   5.000   0.362
 9662SOL    HW229886   5.541   4.993   0.232
 9663SOL     OW29887   0.970   4.400   3.612
 9663SOL    HW129888   0.914   4.372   3.533
 9663SOL    HW229889   0.998   4.496   3.600
 9664SOL     OW29890   5.202   3.560   3.512
 9664SOL    HW129891   5.283   3.612   3.540
 9664SOL    HW229892   5.184   3.577   3.415
 9665SOL     OW29893   6.604   6.887   6.167
 9665SOL    HW129894   6.677   6.925   6.110
 9665SOL    HW229895   6.643   6.837   6.244
 9666SOL     OW29896   6.394   4.605   1.238
 9666SOL    HW129897   6.350   4.515   1.235
 9666SOL    HW229898   6.493   4.594   1.230
 9667SOL     OW29899   4.166   5.472   0.826
 9667SOL    HW129900   4.068   5.483   0.810
 9667SOL    HW229901   4.201   5.398   0.768
 9668SOL     OW29902   0.991   6.408   5.549
 9668SOL    HW129903   1.022   6.331   5.493
 9668SOL    HW229904   1.029   6.493   5.512
 9669SOL     OW29905   2.829   6.987   0.979
 9669SOL    HW129906   2.838   6.973   1.078
 9669SOL    HW229907   2.864   6.907   0.931
 9670SOL     OW29908   0.786   0.633   5.954
 9670SOL    HW129909   0.755   0.548   5.997
 9670SOL    HW229910   0.865   0.614   5.895
 9671SOL     OW29911   0.989   4.991   6.864
 9671SOL    HW129912   1.016   5.040   6.947
 9671SOL    HW229913   1.042   4.906   6.857
 9672SOL     OW29914   0.324   4.144   3.467
 9672SOL    HW129915   0.353   4.051   3.488
 9672SOL    HW229916   0.255   4.142   3.394
 9673SOL     OW29917   3.347   4.159   1.686
 9673SOL    HW129918   3.324   4.062   1.692
 9673SOL    HW229919   3.273   4.208   1.640
 9674SOL     OW29920   3.505   6.693   2.741
 9674SOL    HW129921   3.572   6.763   2.765
 9674SOL    HW229922   3.442   6.728   2.673
 9675SOL     OW29923   5.132   3.961   0.870
 9675SOL    HW129924   5.091   3.918   0.950
 9675SOL    HW229925   5.186   4.040   0.899
 9676SOL     OW29926   1.109   2.273   6.270
 9676SOL    HW129927   1.198   2.237   6.239
 9676SOL    HW229928   1.122   2.360   6.317
 9677SOL     OW29929   6.036   5.296   0.122
 9677SOL    HW129930   5.994   5.225   0.067
 9677SOL    HW229931   6.079   5.255   0.203
 9678SOL     OW29932   3.366   3.674   4.311
 9678SOL    HW129933   3.266   3.673   4.302
 9678SOL    HW229934   3.391   3.699   4.405
 9679SOL     OW29935   2.933   1.954   4.320
 9679SOL    HW129936   2.911   1.940   4.224
 9679SOL    HW229937   2.849   1.954   4.374
 9680SOL     OW29938   5.008   6.592   4.454
 9680SOL    HW129939   4.909   6.578   4.449
 9680SOL    HW229940   5.034   6.666   4.392
 9681SOL     OW29941   2.501   1.136   1.293
 9681SOL    HW129942   2.545   1.089   1.216
 9681SOL    HW229943   2.410   1.166   1.266
 9682SOL     OW29944   5.434   5.315   4.307
 9682SOL    HW129945   5.406   5.384   4.240
 9682SOL    HW229946   5.530   5.291   4.291
 9683SOL     OW29947   1.627   6.363   1.049
 9683SOL    HW129948   1.542   6.358   0.997
 9683SOL    HW229949   1.606   6.381   1.145
 9684SOL     OW29950   1.155   3.891   5.378
 9684SOL    HW129951   1.081   3.846   5.328
 9684SOL    HW229952   1.212   3.822   5.424
 9685SOL     OW29953   4.577   3.516   0.608
 9685SOL    HW129954   4.642   3.471   0.547
 9685SOL    HW229955   4.508   3.451   0.638
 9686SOL     OW29956   6.883   2.306   6.732
 9686SOL    HW129957   6.933   2.347   6.808
 9686SOL    HW229958   6.928   2.222   6.704
 9687SOL     OW29959   6.377   6.704   1.316
 9687SOL    HW129960   6.300   6.730   1.257
 9687SOL    HW229961   6.463   6.733   1.273
 9688SOL     OW29962   1.339   4.750   0.944
 9688SOL    HW129963   1.422   4.696   0.934
 9688SOL    HW229964   1.304   4.775   0.853
 9689SOL     OW29965   0.775   5.479   6.361
 9689SOL    HW129966   0.720   5.555   6.326
 9689SOL    HW229967   0.807   5.425   6.284
 9690SOL     OW29968   4.676   5.356   5.211
 9690SOL    HW129969   4.676   5.455   5.197
 9690SOL    HW229970   4.677   5.310   5.122
 9691SOL     OW29971   3.588   4.127   2.157
 9691SOL    HW129972   3.553   4.135   2.251
 9691SOL    HW229973   3.682   4.159   2.154
 9692SOL     OW29974   4.776   5.195   0.138
 9692SOL    HW129975   4.714   5.165   0.210
 9692SOL    HW229976   4.836   5.119   0.112
 9693SOL     OW29977   5.667   3.996   4.251
 9693SOL    HW129978   5.627   3.931   4.315
 9693SOL    HW229979   5.759   3.966   4.226
 9694SOL     OW29980   2.724   0.155   1.793
 9694SOL    HW129981   2.805   0.168   1.850
 9694SOL    HW229982   2.703   0.239   1.744
 9695SOL     OW29983   0.164   3.867   3.141
 9695SOL    HW129984   0.241   3.913   3.185
 9695SOL    HW229985   0.164   3.770   3.167
 9696SOL     OW29986   6.098   1.373   3.352
 9696SOL    HW129987   6.028   1.391   3.283
 9696SOL    HW229988   6.175   1.324   3.310
 9697SOL     OW29989   6.952   6.038   0.075
 9697SOL    HW129990   6.944   5.948   0.031
 9697SOL    HW229991   6.912   6.108   0.015
 9698SOL     OW29992   5.815   3.338   6.419
 9698SOL    HW129993   5.749   3.384   6.359
 9698SOL    HW229994   5.866   3.270   6.366
 9699SOL     OW29995   1.091   5.446   0.014
 9699SOL    HW129996   1.154   5.524   0.016
 9699SOL    HW229997   1.042   5.446   6.952
 9700SOL     OW29998   6.410   6.502   4.051
 9700SOL    HW129999   6.465   6.420   4.030
 9700SOL    HW230000   6.317   6.489   4.016
 9701SOL     OW30001   4.917   3.109   6.620
 9701SOL    HW130002   4.976   3.058   6.556
 9701SOL    HW230003   4.838   3.146   6.570
 9702SOL     OW30004   3.572   2.869   0.491
 9702SOL    HW130005   3.609   2.924   0.416
 9702SOL    HW230006   3.646   2.842   0.553
 9703SOL     OW30007   6.213   3.988   4.585
 9703SOL    HW130008   6.274   3.961   4.659
 9703SOL    HW230009   6.266   4.030   4.512
 9704SOL     OW30010   3.175   4.982   2.862
 9704SOL    HW130011   3.076   4.967   2.857
 9704SOL    HW230012   3.201   4.997   2.958
 9705SOL     OW30013   6.218   4.170   5.338
 9705SOL    HW130014   6.197   4.258   5.382
 9705SOL    HW230015   6.175   4.168   5.247
 9706SOL     OW30016   1.541   1.922   1.978
 9706SOL    HW130017   1.600   1.841   1.975
 9706SOL    HW230018   1.598   2.004   1.983
 9707SOL     OW30019   5.627   4.873   1.797
 9707SOL    HW130020   5.530   4.899   1.794
 9707SOL    HW230021   5.655   4.861   1.893
 9708SOL     OW30022   1.710   1.402   2.106
 9708SOL    HW130023   1.809   1.402   2.112
 9708SOL    HW230024   1.674   1.485   2.149
 9709SOL     OW30025   5.481   3.348   2.227
 9709SOL    HW130026   5.440   3.261   2.199
 9709SOL    HW230027   5.460   3.419   2.160
 9710SOL     OW30028   6.347   0.236   6.606
 9710SOL    HW130029   6.369   0.150   6.559
 9710SOL    HW230030   6.354   0.222   6.705
 9711SOL     OW30031   4.191   6.322   5.829
 9711SOL    HW130032   4.153   6.374   5.752
 9711SOL    HW230033   4.262   6.376   5.874
 9712SOL     OW30034   6.074   2.890   0.955
 9712SOL    HW130035   6.090   2.866   0.860
 9712SOL    HW230036   6.142   2.956   0.985
 9713SOL     OW30037   2.290   6.469   3.108
 9713SOL    HW130038   2.229   6.508   3.039
 9713SOL    HW230039   2.269   6.372   3.120
 9714SOL     OW30040   4.002   5.403   4.649
 9714SOL    HW130041   3.982   5.317   4.601
 9714SOL    HW230042   4.051   5.383   4.734
 9715SOL     OW30043   6.414   4.914   1.239
 9715SOL    HW130044   6.415   4.822   1.199
 9715SOL    HW230045   6.470   4.915   1.321
 9716SOL     OW30046   3.915   4.247   6.601
 9716SOL    HW130047   4.012   4.256   6.625
 9716SOL    HW230048   3.859   4.263   6.682
 9717SOL     OW30049   4.775   6.665   6.402
 9717SOL    HW130050   4.747   6.760   6.390
 9717SOL    HW230051   4.805   6.651   6.497
 9718SOL     OW30052   4.041   1.835   0.456
 9718SOL    HW130053   3.994   1.921   0.478
 9718SOL    HW230054   4.137   1.855   0.437
 9719SOL     OW30055   5.126   6.635   5.516
 9719SOL    HW130056   5.152   6.645   5.612
 9719SOL    HW230057   5.119   6.725   5.473
 9720SOL     OW30058   1.480   3.768   2.727
 9720SOL    HW130059   1.576   3.777   2.752
 9720SOL    HW230060   1.464   3.678   2.688
 9721SOL     OW30061   0.639   1.561   0.579
 9721SOL    HW130062   0.639   1.660   0.598
 9721SOL    HW230063   0.613   1.546   0.484
 9722SOL     OW30064   3.692   2.307   5.387
 9722SOL    HW130065   3.614   2.258   5.427
 9722SOL    HW230066   3.662   2.399   5.358
 9723SOL     OW30067   5.869   4.668   4.823
 9723SOL    HW130068   5.853   4.682   4.921
 9723SOL    HW230069   5.818   4.588   4.792
 9724SOL     OW30070   2.211   5.324   6.610
 9724SOL    HW130071   2.149   5.246   6.608
 9724SOL    HW230072   2.177   5.393   6.673
 9725SOL     OW30073   3.839   5.709   4.879
 9725SOL    HW130074   3.844   5.651   4.797
 9725SOL    HW230075   3.926   5.703   4.929
 9726SOL     OW30076   4.955   0.875   4.112
 9726SOL    HW130077   4.966   0.963   4.066
 9726SOL    HW230078   4.899   0.814   4.055
 9727SOL     OW30079   0.857   2.775   0.038
 9727SOL    HW130080   0.944   2.820   0.061
 9727SOL    HW230081   0.871   2.715   6.984
 9728SOL     OW30082   6.149   1.679   6.089
 9728SOL    HW130083   6.219   1.639   6.148
 9728SOL    HW230084   6.075   1.613   6.076
 9729SOL     OW30085   1.582   3.742   4.115
 9729SOL    HW130086   1.573   3.776   4.021
 9729SOL    HW230087   1.656   3.675   4.119
 9730SOL     OW30088   0.827   4.109   4.159
 9730SOL    HW130089   0.884   4.033   4.129
 9730SOL    HW230090   0.824   4.111   4.259
 9731SOL     OW30091   5.117   4.678   1.854
 9731SOL    HW130092   5.158   4.608   1.912
 9731SOL    HW230093   5.176   4.696   1.775
 9732SOL     OW30094   0.571   3.244   1.786
 9732SOL    HW130095   0.592   3.155   1.825
 9732SOL    HW230096   0.517   3.297   1.851
 9733SOL     OW30097   6.154   5.648   2.008
 9733SOL    HW130098   6.083   5.669   1.941
 9733SOL    HW230099   6.148   5.711   2.085
 9734SOL     OW30100   6.408   6.781   7.012
 9734SOL    HW130101   6.499   6.781   6.971
 9734SOL    HW230102   6.375   6.687   7.019
 9735SOL     OW30103   1.646   2.433   3.452
 9735SOL    HW130104   1.626   2.516   3.506
 9735SOL    HW230105   1.739   2.402   3.472
 9736SOL     OW30106   4.802   1.926   6.299
 9736SOL    HW130107   4.754   1.954   6.382
 9736SOL    HW230108   4.874   1.992   6.278
 9737SOL     OW30109   5.832   2.167   2.823
 9737SOL    HW130110   5.869   2.223   2.748
 9737SOL    HW230111   5.837   2.220   2.908
 9738SOL     OW30112   2.176   6.880   0.722
 9738SOL    HW130113   2.107   6.851   0.655
 9738SOL    HW230114   2.218   6.799   0.762
 9739SOL     OW30115   4.489   5.993   6.816
 9739SOL    HW130116   4.507   5.906   6.771
 9739SOL    HW230117   4.483   6.066   6.748
 9740SOL     OW30118   5.534   0.395   2.273
 9740SOL    HW130119   5.464   0.439   2.216
 9740SOL    HW230120   5.494   0.367   2.360
 9741SOL     OW30121   2.854   0.881   3.988
 9741SOL    HW130122   2.826   0.878   4.084
 9741SOL    HW230123   2.773   0.873   3.930
 9742SOL     OW30124   4.400   1.008   6.934
 9742SOL    HW130125   4.330   1.079   6.923
 9742SOL    HW230126   4.476   1.045   6.987
 9743SOL     OW30127   0.405   3.244   3.330
 9743SOL    HW130128   0.409   3.256   3.430
 9743SOL    HW230129   0.497   3.229   3.295
 9744SOL     OW30130   2.393   6.882   2.546
 9744SOL    HW130131   2.364   6.825   2.623
 9744SOL    HW230132   2.318   6.941   2.517
 9745SOL     OW30133   5.298   2.429   6.270
 9745SOL    HW130134   5.381   2.374   6.262
 9745SOL    HW230135   5.322   2.526   6.269
 9746SOL     OW30136   5.162   6.707   6.901
 9746SOL    HW130137   5.155   6.751   6.990
 9746SOL    HW230138   5.072   6.707   6.856
 9747SOL     OW30139   2.575   1.960   1.467
 9747SOL    HW130140   2.524   2.039   1.500
 9747SOL    HW230141   2.668   1.988   1.444
 9748SOL     OW30142   0.202   0.617   2.948
 9748SOL    HW130143   0.205   0.691   3.014
 9748SOL    HW230144   0.293   0.577   2.938
 9749SOL     OW30145   0.552   2.037   2.212
 9749SOL    HW130146   0.611   2.108   2.249
 9749SOL    HW230147   0.495   1.998   2.285
 9750SOL     OW30148   6.012   4.563   4.149
 9750SOL    HW130149   6.033   4.617   4.230
 9750SOL    HW230150   5.934   4.604   4.101
 9751SOL     OW30151   2.463   0.421   1.058
 9751SOL    HW130152   2.451   0.365   0.976
 9751SOL    HW230153   2.547   0.474   1.050
 9752SOL     OW30154   3.949   2.517   6.896
 9752SOL    HW130155   4.047   2.536   6.886
 9752SOL    HW230156   3.896   2.587   6.849
 9753SOL     OW30157   0.847   5.484   5.953
 9753SOL    HW130158   0.778   5.554   5.971
 9753SOL    HW230159   0.873   5.486   5.856
 9754SOL     OW30160   4.021   6.968   0.527
 9754SOL    HW130161   4.113   6.994   0.495
 9754SOL    HW230162   4.017   6.979   0.626
 9755SOL     OW30163   2.936   4.100   5.205
 9755SOL    HW130164   3.000   4.119   5.130
 9755SOL    HW230165   2.954   4.162   5.280
 9756SOL     OW30166   5.523   1.915   6.258
 9756SOL    HW130167   5.603   1.963   6.293
 9756SOL    HW230168   5.470   1.878   6.334
 9757SOL     OW30169   5.249   4.750   4.137
 9757SOL    HW130170   5.320   4.797   4.190
 9757SOL    HW230171   5.165   4.744   4.191
 9758SOL     OW30172   0.945   1.451   6.765
 9758SOL    HW130173   0.910   1.545   6.767
 9758SOL    HW230174   1.044   1.453   6.760
 9759SOL     OW30175   0.847   1.352   0.284
 9759SOL    HW130176   0.837   1.258   0.250
 9759SOL    HW230177   0.924   1.396   0.237
 9760SOL     OW30178   5.140   2.513   0.089
 9760SOL    HW130179   5.049   2.550   0.107
 9760SOL    HW230180   5.201   2.588   0.062
 9761SOL     OW30181   1.267   1.428   2.074
 9761SOL    HW130182   1.304   1.335   2.079
 9761SOL    HW230183   1.297   1.471   1.988
 9762SOL     OW30184   3.257   1.804   4.699
 9762SOL    HW130185   3.356   1.804   4.688
 9762SOL    HW230186   3.213   1.802   4.610
 9763SOL     OW30187   6.456   1.175   2.848
 9763SOL    HW130188   6.391   1.156   2.775
 9763SOL    HW230189   6.447   1.106   2.920
 9764SOL     OW30190   6.347   2.086   2.909
 9764SOL    HW130191   6.354   2.175   2.863
 9764SOL    HW230192   6.433   2.067   2.958
 9765SOL     OW30193   6.531   1.328   2.597
 9765SOL    HW130194   6.454   1.290   2.546
 9765SOL    HW230195   6.504   1.345   2.692
 9766SOL     OW30196   1.880   6.967   3.367
 9766SOL    HW130197   1.811   7.003   3.305
 9766SOL    HW230198   1.939   6.903   3.318
 9767SOL     OW30199   1.905   2.826   5.010
 9767SOL    HW130200   1.870   2.919   5.010
 9767SOL    HW230201   1.991   2.822   4.960
 9768SOL     OW30202   5.560   2.106   1.052
 9768SOL    HW130203   5.512   2.155   0.979
 9768SOL    HW230204   5.591   2.171   1.121
 9769SOL     OW30205   3.566   0.582   5.054
 9769SOL    HW130206   3.620   0.632   5.121
 9769SOL    HW230207   3.536   0.645   4.982
 9770SOL     OW30208   3.562   1.883   5.345
 9770SOL    HW130209   3.541   1.835   5.260
 9770SOL    HW230210   3.655   1.919   5.342
 9771SOL     OW30211   2.287   0.066   1.676
 9771SOL    HW130212   2.278   0.017   1.763
 9771SOL    HW230213   2.271   0.002   1.600
 9772SOL     OW30214   1.724   6.624   1.874
 9772SOL    HW130215   1.733   6.572   1.789
 9772SOL    HW230216   1.800   6.688   1.882
 9773SOL     OW30217   5.757   4.928   3.651
 9773SOL    HW130218   5.782   4.870   3.574
 9773SOL    HW230219   5.676   4.890   3.696
 9774SOL     OW30220   0.739   4.502   3.728
 9774SOL    HW130221   0.683   4.436   3.678
 9774SOL    HW230222   0.835   4.476   3.721
 9775SOL     OW30223   2.860   0.434   3.048
 9775SOL    HW130224   2.881   0.527   3.080
 9775SOL    HW230225   2.781   0.437   2.986
 9776SOL     OW30226   1.374   4.597   6.088
 9776SOL    HW130227   1.458   4.630   6.046
 9776SOL    HW230228   1.393   4.565   6.181
 9777SOL     OW30229   5.068   6.295   0.154
 9777SOL    HW130230   5.129   6.281   0.232
 9777SOL    HW230231   4.973   6.291   0.184
 9778SOL     OW30232   0.381   2.068   4.725
 9778SOL    HW130233   0.417   2.152   4.767
 9778SOL    HW230234   0.434   1.989   4.757
 9779SOL     OW30235   0.734   2.595   4.005
 9779SOL    HW130236   0.691   2.568   3.919
 9779SOL    HW230237   0.781   2.517   4.045
 9780SOL     OW30238   1.849   1.447   1.200
 9780SOL    HW130239   1.749   1.445   1.188
 9780SOL    HW230240   1.889   1.508   1.131
 9781SOL     OW30241   2.043   3.546   4.647
 9781SOL    HW130242   2.037   3.526   4.745
 9781SOL    HW230243   2.007   3.469   4.595
 9782SOL     OW30244   0.552   1.946   0.851
 9782SOL    HW130245   0.540   1.917   0.946
 9782SOL    HW230246   0.649   1.946   0.827
 9783SOL     OW30247   4.470   1.842   3.505
 9783SOL    HW130248   4.510   1.773   3.446
 9783SOL    HW230249   4.453   1.803   3.596
 9784SOL     OW30250   3.360   1.100   6.341
 9784SOL    HW130251   3.289   1.083   6.272
 9784SOL    HW230252   3.435   1.035   6.328
 9785SOL     OW30253   6.091   2.427   5.304
 9785SOL    HW130254   6.069   2.336   5.267
 9785SOL    HW230255   6.119   2.418   5.399
 9786SOL     OW30256   2.632   4.407   0.541
 9786SOL    HW130257   2.707   4.473   0.531
 9786SOL    HW230258   2.618   4.386   0.638
 9787SOL     OW30259   3.981   3.655   4.364
 9787SOL    HW130260   3.985   3.744   4.320
 9787SOL    HW230261   3.998   3.584   4.295
 9788SOL     OW30262   1.419   6.206   1.992
 9788SOL    HW130263   1.452   6.115   1.969
 9788SOL    HW230264   1.401   6.257   1.908
 9789SOL     OW30265   2.685   0.158   0.217
 9789SOL    HW130266   2.703   0.201   0.129
 9789SOL    HW230267   2.603   0.101   0.211
 9790SOL     OW30268   6.505   4.276   6.083
 9790SOL    HW130269   6.505   4.227   6.170
 9790SOL    HW230270   6.411   4.284   6.049
 9791SOL     OW30271   0.765   0.342   0.200
 9791SOL    HW130272   0.767   0.284   0.281
 9791SOL    HW230273   0.670   0.349   0.166
 9792SOL     OW30274   4.030   5.206   1.012
 9792SOL    HW130275   4.019   5.162   0.923
 9792SOL    HW230276   3.988   5.296   1.010
 9793SOL     OW30277   4.090   0.109   1.823
 9793SOL    HW130278   4.163   0.127   1.889
 9793SOL    HW230279   4.126   0.054   1.748
 9794SOL     OW30280   5.256   4.103   4.967
 9794SOL    HW130281   5.349   4.102   4.932
 9794SOL    HW230282   5.193   4.068   4.897
 9795SOL     OW30283   1.293   3.229   4.069
 9795SOL    HW130284   1.392   3.235   4.058
 9795SOL    HW230285   1.272   3.201   4.162
 9796SOL     OW30286   3.545   4.001   3.788
 9796SOL    HW130287   3.626   4.014   3.731
 9796SOL    HW230288   3.539   3.905   3.816
 9797SOL     OW30289   2.047   6.266   0.373
 9797SOL    HW130290   2.088   6.185   0.417
 9797SOL    HW230291   2.105   6.295   0.297
 9798SOL     OW30292   1.970   1.633   1.018
 9798SOL    HW130293   1.940   1.723   0.987
 9798SOL    HW230294   2.070   1.630   1.019
 9799SOL     OW30295   3.369   4.103   6.122
 9799SOL    HW130296   3.306   4.062   6.056
 9799SOL    HW230297   3.435   4.034   6.153
 9800SOL     OW30298   5.480   3.943   4.055
 9800SOL    HW130299   5.422   4.018   4.024
 9800SOL    HW230300   5.543   3.976   4.124
 9801SOL     OW30301   5.180   4.726   0.427
 9801SOL    HW130302   5.199   4.690   0.336
 9801SOL    HW230303   5.243   4.801   0.447
 9802SOL     OW30304   4.274   4.885   0.525
 9802SOL    HW130305   4.176   4.904   0.533
 9802SOL    HW230306   4.290   4.787   0.528
 9803SOL     OW30307   1.843   3.674   6.293
 9803SOL    HW130308   1.889   3.586   6.276
 9803SOL    HW230309   1.749   3.669   6.258
 9804SOL     OW30310   0.249   5.944   3.194
 9804SOL    HW130311   0.210   5.852   3.196
 9804SOL    HW230312   0.182   6.010   3.229
 9805SOL     OW30313   1.254   0.204   3.366
 9805SOL    HW130314   1.232   0.192   3.463
 9805SOL    HW230315   1.322   0.276   3.355
 9806SOL     OW30316   2.555   2.355   6.275
 9806SOL    HW130317   2.480   2.340   6.211
 9806SOL    HW230318   2.524   2.416   6.348
 9807SOL     OW30319   3.167   3.069   2.175
 9807SOL    HW130320   3.203   3.009   2.105
 9807SOL    HW230321   3.174   3.025   2.265
 9808SOL     OW30322   3.724   5.599   3.918
 9808SOL    HW130323   3.801   5.547   3.956
 9808SOL    HW230324   3.664   5.538   3.866
 9809SOL     OW30325   1.214   3.434   0.403
 9809SOL    HW130326   1.289   3.498   0.423
 9809SOL    HW230327   1.244   3.368   0.334
 9810SOL     OW30328   2.976   2.119   4.963
 9810SOL    HW130329   2.993   2.033   4.915
 9810SOL    HW230330   3.063   2.156   4.996
 9811SOL     OW30331   5.921   3.823   3.541
 9811SOL    HW130332   5.922   3.741   3.598
 9811SOL    HW230333   5.917   3.904   3.599
 9812SOL     OW30334   3.392   0.726   4.509
 9812SOL    HW130335   3.381   0.826   4.501
 9812SOL    HW230336   3.387   0.685   4.418
 9813SOL     OW30337   5.827   2.123   0.863
 9813SOL    HW130338   5.830   2.132   0.963
 9813SOL    HW230339   5.821   2.214   0.822
 9814SOL     OW30340   5.096   1.301   6.623
 9814SOL    HW130341   5.113   1.211   6.584
 9814SOL    HW230342   5.168   1.323   6.689
 9815SOL     OW30343   4.758   2.417   4.236
 9815SOL    HW130344   4.779   2.504   4.191
 9815SOL    HW230345   4.840   2.380   4.279
 9816SOL     OW30346   1.068   0.423   6.324
 9816SOL    HW130347   1.158   0.438   6.365
 9816SOL    HW230348   1.046   0.499   6.262
 9817SOL     OW30349   0.576   6.920   3.340
 9817SOL    HW130350   0.591   6.822   3.355
 9817SOL    HW230351   0.613   6.972   3.417
 9818SOL     OW30352   6.354   2.075   4.915
 9818SOL    HW130353   6.437   2.072   4.972
 9818SOL    HW230354   6.376   2.040   4.824
 9819SOL     OW30355   4.534   2.537   3.172
 9819SOL    HW130356   4.498   2.569   3.084
 9819SOL    HW230357   4.610   2.595   3.200
 9820SOL     OW30358   3.558   3.089   6.488
 9820SOL    HW130359   3.628   3.114   6.555
 9820SOL    HW230360   3.467   3.111   6.525
 9821SOL     OW30361   5.519   0.557   6.344
 9821SOL    HW130362   5.522   0.637   6.285
 9821SOL    HW230363   5.518   0.586   6.440
 9822SOL     OW30364   0.889   6.894   3.075
 9822SOL    HW130365   0.826   6.816   3.086
 9822SOL    HW230366   0.981   6.865   3.103
 9823SOL     OW30367   3.814   0.079   1.517
 9823SOL    HW130368   3.851   0.152   1.575
 9823SOL    HW230369   3.728   0.110   1.476
 9824SOL     OW30370   2.274   4.022   5.768
 9824SOL    HW130371   2.240   3.949   5.828
 9824SOL    HW230372   2.243   4.005   5.674
 9825SOL     OW30373   3.183   5.520   5.108
 9825SOL    HW130374   3.250   5.567   5.165
 9825SOL    HW230375   3.145   5.442   5.158
 9826SOL     OW30376   4.753   5.727   6.034
 9826SOL    HW130377   4.803   5.804   5.993
 9826SOL    HW230378   4.698   5.760   6.110
 9827SOL     OW30379   2.342   4.376   4.431
 9827SOL    HW130380   2.371   4.394   4.337
 9827SOL    HW230381   2.349   4.278   4.450
 9828SOL     OW30382   2.947   2.737   6.666
 9828SOL    HW130383   2.928   2.647   6.626
 9828SOL    HW230384   2.960   2.804   6.594
 9829SOL     OW30385   2.935   6.742   0.862
 9829SOL    HW130386   2.943   6.740   0.763
 9829SOL    HW230387   2.844   6.710   0.890
 9830SOL     OW30388   5.627   2.380   1.647
 9830SOL    HW130389   5.563   2.407   1.720
 9830SOL    HW230390   5.632   2.280   1.644
 9831SOL     OW30391   1.701   6.111   0.985
 9831SOL    HW130392   1.703   6.206   1.014
 9831SOL    HW230393   1.608   6.075   0.996
 9832SOL     OW30394   5.214   5.130   2.383
 9832SOL    HW130395   5.249   5.123   2.290
 9832SOL    HW230396   5.203   5.226   2.408
 9833SOL     OW30397   3.234   3.043   4.831
 9833SOL    HW130398   3.243   2.974   4.904
 9833SOL    HW230399   3.138   3.070   4.823
 9834SOL     OW30400   3.003   3.699   5.911
 9834SOL    HW130401   2.936   3.750   5.965
 9834SOL    HW230402   2.957   3.624   5.863
 9835SOL     OW30403   3.861   2.415   5.764
 9835SOL    HW130404   3.796   2.436   5.836
 9835SOL    HW230405   3.849   2.480   5.688
 9836SOL     OW30406   6.034   4.334   3.739
 9836SOL    HW130407   6.104   4.298   3.677
 9836SOL    HW230408   6.077   4.362   3.824
 9837SOL     OW30409   2.269   0.320   2.614
 9837SOL    HW130410   2.347   0.289   2.561
 9837SOL    HW230411   2.214   0.383   2.558
 9838SOL     OW30412   0.722   6.975   6.176
 9838SOL    HW130413   0.730   6.991   6.274
 9838SOL    HW230414   0.698   6.879   6.160
 9839SOL     OW30415   5.780   1.281   2.923
 9839SOL    HW130416   5.801   1.307   3.017
 9839SOL    HW230417   5.864   1.253   2.876
 9840SOL     OW30418   0.552   0.952   1.248
 9840SOL    HW130419   0.517   0.863   1.275
 9840SOL    HW230420   0.503   0.984   1.166
 9841SOL     OW30421   1.078   4.652   4.873
 9841SOL    HW130422   1.122   4.565   4.894
 9841SOL    HW230423   1.142   4.727   4.888
 9842SOL     OW30424   3.364   4.111   3.573
 9842SOL    HW130425   3.348   4.017   3.542
 9842SOL    HW230426   3.444   4.113   3.633
 9843SOL     OW30427   6.425   1.749   2.056
 9843SOL    HW130428   6.418   1.650   2.068
 9843SOL    HW230429   6.350   1.781   1.998
 9844SOL     OW30430   5.392   0.447   2.501
 9844SOL    HW130431   5.343   0.361   2.514
 9844SOL    HW230432   5.333   0.524   2.529
 9845SOL     OW30433   2.593   1.477   4.637
 9845SOL    HW130434   2.528   1.444   4.705
 9845SOL    HW230435   2.684   1.438   4.655
 9846SOL     OW30436   3.924   3.234   2.530
 9846SOL    HW130437   3.840   3.283   2.551
 9846SOL    HW230438   3.912   3.182   2.446
 9847SOL     OW30439   3.604   2.831   5.559
 9847SOL    HW130440   3.651   2.870   5.639
 9847SOL    HW230441   3.581   2.736   5.577
 9848SOL     OW30442   3.261   2.295   6.371
 9848SOL    HW130443   3.225   2.386   6.391
 9848SOL    HW230444   3.360   2.301   6.354
 9849SOL     OW30445   6.087   0.487   0.335
 9849SOL    HW130446   6.049   0.562   0.389
 9849SOL    HW230447   6.101   0.518   0.241
 9850SOL     OW30448   5.623   6.180   2.829
 9850SOL    HW130449   5.658   6.087   2.820
 9850SOL    HW230450   5.692   6.238   2.871
 9851SOL     OW30451   4.644   2.182   5.751
 9851SOL    HW130452   4.744   2.177   5.746
 9851SOL    HW230453   4.614   2.139   5.836
 9852SOL     OW30454   4.304   1.802   3.051
 9852SOL    HW130455   4.285   1.712   3.090
 9852SOL    HW230456   4.403   1.817   3.049
 9853SOL     OW30457   4.881   3.942   3.341
 9853SOL    HW130458   4.955   4.008   3.328
 9853SOL    HW230459   4.917   3.849   3.338
 9854SOL     OW30460   6.729   5.469   4.936
 9854SOL    HW130461   6.680   5.521   4.866
 9854SOL    HW230462   6.824   5.501   4.942
 9855SOL     OW30463   2.292   4.296   2.206
 9855SOL    HW130464   2.318   4.216   2.153
 9855SOL    HW230465   2.199   4.324   2.182
 9856SOL     OW30466   5.020   4.053   0.156
 9856SOL    HW130467   5.088   4.120   0.186
 9856SOL    HW230468   4.931   4.077   0.194
 9857SOL     OW30469   4.219   1.889   4.448
 9857SOL    HW130470   4.277   1.914   4.371
 9857SOL    HW230471   4.159   1.966   4.471
 9858SOL     OW30472   0.024   1.210   1.376
 9858SOL    HW130473   6.985   1.266   1.430
 9858SOL    HW230474   0.111   1.258   1.368
 9859SOL     OW30475   6.128   0.150   1.279
 9859SOL    HW130476   6.075   0.171   1.197
 9859SOL    HW230477   6.066   0.132   1.355
 9860SOL     OW30478   6.878   0.985   2.753
 9860SOL    HW130479   6.959   0.963   2.808
 9860SOL    HW230480   6.796   0.950   2.798
 9861SOL     OW30481   2.971   6.865   2.964
 9861SOL    HW130482   2.987   6.784   2.907
 9861SOL    HW230483   2.914   6.931   2.914
 9862SOL     OW30484   2.435   4.688   0.417
 9862SOL    HW130485   2.460   4.748   0.342
 9862SOL    HW230486   2.355   4.725   0.464
 9863SOL     OW30487   2.877   0.267   3.305
 9863SOL    HW130488   2.902   0.330   3.379
 9863SOL    HW230489   2.869   0.317   3.219
 9864SOL     OW30490   3.866   6.026   3.964
 9864SOL    HW130491   3.839   5.954   4.028
 9864SOL    HW230492   3.958   6.058   3.987
 9865SOL     OW30493   1.576   1.134   3.987
 9865SOL    HW130494   1.494   1.095   4.027
 9865SOL    HW230495   1.625   1.188   4.056
 9866SOL     OW30496   5.497   4.220   5.275
 9866SOL    HW130497   5.533   4.254   5.188
 9866SOL    HW230498   5.571   4.218   5.343
 9867SOL     OW30499   6.140   0.451   1.249
 9867SOL    HW130500   6.184   0.361   1.242
 9867SOL    HW230501   6.042   0.442   1.230
 9868SOL     OW30502   1.165   4.187   5.414
 9868SOL    HW130503   1.109   4.241   5.350
 9868SOL    HW230504   1.158   4.090   5.390
 9869SOL     OW30505   1.827   3.361   2.242
 9869SOL    HW130506   1.741   3.386   2.198
 9869SOL    HW230507   1.889   3.439   2.242
 9870SOL     OW30508   4.554   5.880   2.653
 9870SOL    HW130509   4.574   5.944   2.727
 9870SOL    HW230510   4.636   5.828   2.631
 9871SOL     OW30511   1.021   6.914   5.500
 9871SOL    HW130512   0.990   6.827   5.460
 9871SOL    HW230513   1.121   6.913   5.507
 9872SOL     OW30514   3.269   5.175   4.135
 9872SOL    HW130515   3.226   5.162   4.225
 9872SOL    HW230516   3.271   5.272   4.113
 9873SOL     OW30517   2.770   2.198   1.424
 9873SOL    HW130518   2.746   2.294   1.411
 9873SOL    HW230519   2.785   2.179   1.521
 9874SOL     OW30520   0.912   3.647   4.029
 9874SOL    HW130521   0.842   3.641   4.100
 9874SOL    HW230522   0.970   3.727   4.045
 9875SOL     OW30523   6.999   6.750   2.151
 9875SOL    HW130524   6.989   6.761   2.052
 9875SOL    HW230525   6.958   6.663   2.179
 9876SOL     OW30526   6.330   0.546   2.490
 9876SOL    HW130527   6.243   0.509   2.457
 9876SOL    HW230528   6.314   0.601   2.573
 9877SOL     OW30529   0.380   5.631   3.239
 9877SOL    HW130530   0.430   5.551   3.272
 9877SOL    HW230531   0.361   5.620   3.141
 9878SOL     OW30532   2.858   5.414   4.912
 9878SOL    HW130533   2.938   5.475   4.918
 9878SOL    HW230534   2.872   5.335   4.971
 9879SOL     OW30535   5.870   5.514   3.921
 9879SOL    HW130536   5.860   5.535   3.824
 9879SOL    HW230537   5.837   5.422   3.939
 9880SOL     OW30538   2.801   1.460   5.741
 9880SOL    HW130539   2.791   1.550   5.698
 9880SOL    HW230540   2.815   1.472   5.840
 9881SOL     OW30541   2.040   1.118   4.912
 9881SOL    HW130542   1.977   1.040   4.908
 9881SOL    HW230543   2.106   1.104   4.986
 9882SOL     OW30544   1.129   2.059   4.221
 9882SOL    HW130545   1.090   2.116   4.294
 9882SOL    HW230546   1.193   2.113   4.167
 9883SOL     OW30547   1.866   5.304   0.130
 9883SOL    HW130548   1.804   5.349   0.194
 9883SOL    HW230549   1.828   5.309   0.038
 9884SOL     OW30550   4.051   1.706   3.253
 9884SOL    HW130551   3.984   1.672   3.318
 9884SOL    HW230552   4.121   1.759   3.301
 9885SOL     OW30553   6.841   3.045   5.690
 9885SOL    HW130554   6.914   3.017   5.751
 9885SOL    HW230555   6.855   3.140   5.662
 9886SOL     OW30556   0.654   4.134   1.313
 9886SOL    HW130557   0.711   4.161   1.391
 9886SOL    HW230558   0.713   4.100   1.240
 9887SOL     OW30559   3.707   0.543   6.118
 9887SOL    HW130560   3.711   0.480   6.041
 9887SOL    HW230561   3.612   0.565   6.138
 9888SOL     OW30562   6.103   4.208   2.002
 9888SOL    HW130563   6.138   4.285   2.054
 9888SOL    HW230564   6.151   4.203   1.914
 9889SOL     OW30565   0.304   5.404   1.697
 9889SOL    HW130566   0.268   5.444   1.781
 9889SOL    HW230567   0.383   5.347   1.718
 9890SOL     OW30568   1.718   1.773   0.788
 9890SOL    HW130569   1.750   1.862   0.755
 9890SOL    HW230570   1.796   1.716   0.814
 9891SOL     OW30571   5.598   2.674   1.941
 9891SOL    HW130572   5.573   2.771   1.938
 9891SOL    HW230573   5.592   2.642   2.036
 9892SOL     OW30574   6.913   5.113   0.647
 9892SOL    HW130575   6.945   5.170   0.571
 9892SOL    HW230576   6.935   5.158   0.733
 9893SOL     OW30577   1.039   0.014   1.267
 9893SOL    HW130578   1.025   6.982   1.348
 9893SOL    HW230579   1.008   6.989   1.186
 9894SOL     OW30580   2.527   2.903   1.740
 9894SOL    HW130581   2.443   2.866   1.700
 9894SOL    HW230582   2.524   3.003   1.736
 9895SOL     OW30583   6.802   3.721   5.082
 9895SOL    HW130584   6.900   3.728   5.065
 9895SOL    HW230585   6.786   3.692   5.176
 9896SOL     OW30586   6.088   0.603   0.087
 9896SOL    HW130587   6.048   0.694   0.081
 9896SOL    HW230588   6.104   0.567   7.020
 9897SOL     OW30589   5.792   5.741   3.147
 9897SOL    HW130590   5.841   5.714   3.230
 9897SOL    HW230591   5.854   5.739   3.069
 9898SOL     OW30592   1.472   5.618   4.313
 9898SOL    HW130593   1.513   5.562   4.242
 9898SOL    HW230594   1.543   5.652   4.375
 9899SOL     OW30595   0.896   5.789   6.893
 9899SOL    HW130596   0.898   5.756   6.987
 9899SOL    HW230597   0.969   5.856   6.879
 9900SOL     OW30598   1.866   3.614   3.595
 9900SOL    HW130599   1.840   3.678   3.667
 9900SOL    HW230600   1.904   3.664   3.517
 9901SOL     OW30601   2.909   0.404   6.225
 9901SOL    HW130602   2.878   0.346   6.150
 9901SOL    HW230603   3.008   0.398   6.234
 9902SOL     OW30604   3.178   4.992   0.730
 9902SOL    HW130605   3.205   4.959   0.820
 9902SOL    HW230606   3.260   5.010   0.675
 9903SOL     OW30607   5.087   1.340   2.320
 9903SOL    HW130608   5.075   1.394   2.237
 9903SOL    HW230609   5.091   1.402   2.399
 9904SOL     OW30610   1.080   4.196   6.672
 9904SOL    HW130611   1.148   4.225   6.606
 9904SOL    HW230612   1.020   4.273   6.694
 9905SOL     OW30613   2.370   0.026   6.117
 9905SOL    HW130614   2.338   0.021   6.212
 9905SOL    HW230615   2.378   0.122   6.090
 9906SOL     OW30616   2.502   3.496   1.646
 9906SOL    HW130617   2.436   3.506   1.721
 9906SOL    HW230618   2.459   3.444   1.571
 9907SOL     OW30619   6.518   0.577   1.203
 9907SOL    HW130620   6.432   0.615   1.236
 9907SOL    HW230621   6.529   0.599   1.106
 9908SOL     OW30622   5.728   1.932   5.149
 9908SOL    HW130623   5.682   1.843   5.144
 9908SOL    HW230624   5.827   1.918   5.144
 9909SOL     OW30625   4.192   0.785   3.494
 9909SOL    HW130626   4.170   0.704   3.441
 9909SOL    HW230627   4.187   0.866   3.435
 9910SOL     OW30628   1.389   4.525   2.818
 9910SOL    HW130629   1.373   4.604   2.758
 9910SOL    HW230630   1.447   4.552   2.894
 9911SOL     OW30631   2.852   5.940   2.374
 9911SOL    HW130632   2.903   5.954   2.289
 9911SOL    HW230633   2.775   5.879   2.358
 9912SOL     OW30634   4.207   0.517   1.314
 9912SOL    HW130635   4.205   0.606   1.269
 9912SOL    HW230636   4.298   0.477   1.304
 9913SOL     OW30637   5.946   3.953   1.311
 9913SOL    HW130638   5.975   3.863   1.342
 9913SOL    HW230639   6.005   4.023   1.353
 9914SOL     OW30640   5.448   1.470   4.620
 9914SOL    HW130641   5.459   1.392   4.681
 9914SOL    HW230642   5.375   1.530   4.654
 9915SOL     OW30643   4.838   0.362   3.483
 9915SOL    HW130644   4.749   0.359   3.437
 9915SOL    HW230645   4.865   0.457   3.497
 9916SOL     OW30646   2.312   2.826   3.074
 9916SOL    HW130647   2.262   2.862   3.154
 9916SOL    HW230648   2.270   2.861   2.990
 9917SOL     OW30649   5.504   4.203   0.044
 9917SOL    HW130650   5.546   4.293   0.045
 9917SOL    HW230651   5.421   4.204   0.100
 9918SOL     OW30652   3.555   1.551   3.315
 9918SOL    HW130653   3.459   1.576   3.316
 9918SOL    HW230654   3.607   1.618   3.262
 9919SOL     OW30655   6.879   5.239   1.619
 9919SOL    HW130656   6.868   5.139   1.611
 9919SOL    HW230657   6.973   5.264   1.596
 9920SOL     OW30658   4.691   1.523   2.262
 9920SOL    HW130659   4.746   1.494   2.340
 9920SOL    HW230660   4.748   1.525   2.180
 9921SOL     OW30661   4.239   6.921   5.453
 9921SOL    HW130662   4.292   7.005   5.442
 9921SOL    HW230663   4.160   6.938   5.511
 9922SOL     OW30664   2.854   4.258   0.460
 9922SOL    HW130665   2.916   4.274   0.537
 9922SOL    HW230666   2.776   4.320   0.468
 9923SOL     OW30667   5.299   4.779   6.573
 9923SOL    HW130668   5.236   4.845   6.533
 9923SOL    HW230669   5.271   4.757   6.666
 9924SOL     OW30670   6.370   1.964   4.628
 9924SOL    HW130671   6.398   2.014   4.546
 9924SOL    HW230672   6.273   1.979   4.645
 9925SOL     OW30673   6.702   3.264   4.381
 9925SOL    HW130674   6.730   3.281   4.287
 9925SOL    HW230675   6.779   3.278   4.443
 9926SOL     OW30676   4.185   2.217   0.733
 9926SOL    HW130677   4.113   2.153   0.757
 9926SOL    HW230678   4.146   2.296   0.685
 9927SOL     OW30679   0.021   6.784   0.257
 9927SOL    HW130680   0.072   6.754   0.338
 9927SOL    HW230681   6.949   6.766   0.270
 9928SOL     OW30682   4.765   4.236   2.652
 9928SOL    HW130683   4.708   4.197   2.580
 9928SOL    HW230684   4.856   4.255   2.617
 9929SOL     OW30685   3.082   4.496   5.662
 9929SOL    HW130686   3.038   4.585   5.659
 9929SOL    HW230687   3.013   4.424   5.649
 9930SOL     OW30688   6.674   6.408   4.982
 9930SOL    HW130689   6.636   6.480   5.040
 9930SOL    HW230690   6.617   6.326   4.989
 9931SOL     OW30691   0.380   5.467   3.986
 9931SOL    HW130692   0.421   5.507   3.904
 9931SOL    HW230693   0.449   5.461   4.058
 9932SOL     OW30694   3.091   3.867   6.846
 9932SOL    HW130695   3.081   3.773   6.876
 9932SOL    HW230696   3.169   3.909   6.892
 9933SOL     OW30697   7.019   5.698   3.386
 9933SOL    HW130698   0.030   5.620   3.437
 9933SOL    HW230699   0.030   5.697   3.293
 9934SOL     OW30700   6.174   2.352   5.905
 9934SOL    HW130701   6.157   2.260   5.942
 9934SOL    HW230702   6.248   2.348   5.838
 9935SOL     OW30703   2.562   6.560   6.739
 9935SOL    HW130704   2.507   6.606   6.808
 9935SOL    HW230705   2.613   6.485   6.781
 9936SOL     OW30706   6.809   5.376   6.808
 9936SOL    HW130707   6.884   5.435   6.837
 9936SOL    HW230708   6.784   5.397   6.713
 9937SOL     OW30709   6.506   1.530   1.220
 9937SOL    HW130710   6.476   1.620   1.253
 9937SOL    HW230711   6.426   1.471   1.210
 9938SOL     OW30712   6.680   4.773   2.758
 9938SOL    HW130713   6.738   4.710   2.809
 9938SOL    HW230714   6.588   4.772   2.797
 9939SOL     OW30715   4.329   2.258   1.026
 9939SOL    HW130716   4.310   2.242   0.929
 9939SOL    HW230717   4.242   2.269   1.075
 9940SOL     OW30718   1.198   0.642   1.380
 9940SOL    HW130719   1.130   0.629   1.452
 9940SOL    HW230720   1.190   0.569   1.312
 9941SOL     OW30721   3.048   3.624   5.328
 9941SOL    HW130722   3.077   3.641   5.423
 9941SOL    HW230723   3.089   3.693   5.268
 9942SOL     OW30724   2.633   5.360   2.682
 9942SOL    HW130725   2.606   5.268   2.652
 9942SOL    HW230726   2.602   5.375   2.776
 9943SOL     OW30727   0.387   4.356   5.656
 9943SOL    HW130728   0.433   4.313   5.578
 9943SOL    HW230729   0.390   4.455   5.646
 9944SOL     OW30730   1.698   4.590   6.555
 9944SOL    HW130731   1.605   4.603   6.588
 9944SOL    HW230732   1.714   4.651   6.477
 9945SOL     OW30733   5.936   5.669   6.511
 9945SOL    HW130734   5.898   5.762   6.505
 9945SOL    HW230735   6.033   5.671   6.485
 9946SOL     OW30736   5.204   0.859   3.724
 9946SOL    HW130737   5.252   0.780   3.763
 9946SOL    HW230738   5.262   0.903   3.656
 9947SOL     OW30739   1.738   2.319   4.712
 9947SOL    HW130740   1.770   2.224   4.713
 9947SOL    HW230741   1.739   2.355   4.805
 9948SOL     OW30742   5.896   3.998   4.519
 9948SOL    HW130743   5.816   4.057   4.521
 9948SOL    HW230744   5.875   3.912   4.565
 9949SOL     OW30745   6.510   4.630   4.674
 9949SOL    HW130746   6.565   4.608   4.594
 9949SOL    HW230747   6.449   4.706   4.653
 9950SOL     OW30748   5.606   5.727   5.328
 9950SOL    HW130749   5.617   5.720   5.228
 9950SOL    HW230750   5.536   5.797   5.348
 9951SOL     OW30751   7.002   0.970   4.221
 9951SOL    HW130752   6.917   1.004   4.259
 9951SOL    HW230753   6.989   0.877   4.187
 9952SOL     OW30754   0.980   4.020   0.685
 9952SOL    HW130755   0.887   4.041   0.716
 9952SOL    HW230756   0.990   4.048   0.590
 9953SOL     OW30757   5.798   2.901   4.812
 9953SOL    HW130758   5.837   2.988   4.783
 9953SOL    HW230759   5.705   2.893   4.777
 9954SOL     OW30760   6.217   1.048   6.463
 9954SOL    HW130761   6.234   1.135   6.509
 9954SOL    HW230762   6.305   1.006   6.439
 9955SOL     OW30763   6.425   3.646   5.500
 9955SOL    HW130764   6.386   3.571   5.552
 9955SOL    HW230765   6.392   3.733   5.538
 9956SOL     OW30766   1.636   0.075   2.527
 9956SOL    HW130767   1.634   7.004   2.498
 9956SOL    HW230768   1.583   0.085   2.612
 9957SOL     OW30769   5.091   5.909   2.528
 9957SOL    HW130770   5.111   6.004   2.552
 9957SOL    HW230771   5.136   5.848   2.593
 9958SOL     OW30772   3.516   5.670   0.153
 9958SOL    HW130773   3.442   5.676   0.220
 9958SOL    HW230774   3.604   5.668   0.199
 9959SOL     OW30775   4.048   3.664   5.173
 9959SOL    HW130776   4.030   3.680   5.076
 9959SOL    HW230777   4.068   3.751   5.218
 9960SOL     OW30778   6.948   0.491   1.799
 9960SOL    HW130779   6.986   0.530   1.883
 9960SOL    HW230780   7.013   0.505   1.724
 9961SOL     OW30781   1.375   4.956   4.492
 9961SOL    HW130782   1.413   5.026   4.553
 9961SOL    HW230783   1.276   4.967   4.485
 9962SOL     OW30784   6.503   6.270   2.817
 9962SOL    HW130785   6.510   6.179   2.858
 9962SOL    HW230786   6.407   6.292   2.801
 9963SOL     OW30787   2.915   3.287   6.556
 9963SOL    HW130788   2.964   3.237   6.628
 9963SOL    HW230789   2.941   3.251   6.467
 9964SOL     OW30790   5.255   4.523   5.439
 9964SOL    HW130791   5.277   4.457   5.368
 9964SOL    HW230792   5.250   4.615   5.399
 9965SOL     OW30793   3.743   6.531   5.816
 9965SOL    HW130794   3.754   6.597   5.891
 9965SOL    HW230795   3.716   6.443   5.854
 9966SOL     OW30796   2.060   6.068   2.138
 9966SOL    HW130797   2.058   5.972   2.112
 9966SOL    HW230798   2.153   6.103   2.126
 9967SOL     OW30799   0.210   0.138   2.337
 9967SOL    HW130800   0.151   0.207   2.295
 9967SOL    HW230801   0.303   0.147   2.300
 9968SOL     OW30802   3.325   3.894   1.056
 9968SOL    HW130803   3.302   3.970   1.117
 9968SOL    HW230804   3.244   3.837   1.041
 9969SOL     OW30805   1.782   3.241   2.774
 9969SOL    HW130806   1.786   3.244   2.674
 9969SOL    HW230807   1.687   3.248   2.804
 9970SOL     OW30808   5.052   4.175   2.570
 9970SOL    HW130809   5.083   4.083   2.593
 9970SOL    HW230810   5.128   4.239   2.574
 9971SOL     OW30811   2.252   5.550   1.600
 9971SOL    HW130812   2.188   5.477   1.575
 9971SOL    HW230813   2.307   5.574   1.520
 9972SOL     OW30814   4.699   5.111   1.637
 9972SOL    HW130815   4.686   5.073   1.729
 9972SOL    HW230816   4.708   5.210   1.642
 9973SOL     OW30817   4.957   1.879   4.070
 9973SOL    HW130818   4.949   1.978   4.068
 9973SOL    HW230819   4.897   1.840   4.000
 9974SOL     OW30820   0.619   3.148   2.823
 9974SOL    HW130821   0.691   3.126   2.757
 9974SOL    HW230822   0.644   3.232   2.872
 9975SOL     OW30823   6.237   4.474   6.943
 9975SOL    HW130824   6.213   4.426   0.003
 9975SOL    HW230825   6.227   4.573   6.956
 9976SOL     OW30826   0.410   6.419   5.813
 9976SOL    HW130827   0.360   6.378   5.737
 9976SOL    HW230828   0.423   6.351   5.885
 9977SOL     OW30829   6.957   5.271   5.644
 9977SOL    HW130830   6.936   5.190   5.588
 9977SOL    HW230831   6.987   5.242   5.735
 9978SOL     OW30832   0.228   2.117   4.374
 9978SOL    HW130833   0.173   2.060   4.434
 9978SOL    HW230834   0.325   2.100   4.392
 9979SOL     OW30835   6.552   5.300   5.413
 9979SOL    HW130836   6.615   5.351   5.354
 9979SOL    HW230837   6.467   5.282   5.363
 9980SOL     OW30838   1.725   0.796   5.783
 9980SOL    HW130839   1.792   0.798   5.708
 9980SOL    HW230840   1.770   0.822   5.868
 9981SOL     OW30841   2.381   1.788   2.269
 9981SOL    HW130842   2.458   1.851   2.276
 9981SOL    HW230843   2.391   1.733   2.186
 9982SOL     OW30844   6.552   6.527   4.289
 9982SOL    HW130845   6.647   6.533   4.258
 9982SOL    HW230846   6.491   6.526   4.210
 9983SOL     OW30847   6.574   2.543   2.776
 9983SOL    HW130848   6.598   2.461   2.828
 9983SOL    HW230849   6.570   2.520   2.679
 9984SOL     OW30850   2.022   0.736   6.927
 9984SOL    HW130851   1.980   0.714   6.839
 9984SOL    HW230852   1.952   0.775   6.988
 9985SOL     OW30853   1.428   1.030   0.707
 9985SOL    HW130854   1.357   1.069   0.765
 9985SOL    HW230855   1.517   1.068   0.733
 9986SOL     OW30856   5.551   4.148   5.912
 9986SOL    HW130857   5.632   4.125   5.966
 9986SOL    HW230858   5.470   4.146   5.970
 9987SOL     OW30859   7.010   3.405   4.019
 9987SOL    HW130860   0.020   3.350   3.942
 9987SOL    HW230861   0.017   3.499   4.009
 9988SOL     OW30862   6.590   5.771   4.101
 9988SOL    HW130863   6.544   5.788   4.189
 9988SOL    HW230864   6.659   5.841   4.086
 9989SOL     OW30865   6.344   3.759   3.361
 9989SOL    HW130866   6.260   3.813   3.372
 9989SOL    HW230867   6.375   3.765   3.267
 9990SOL     OW30868   2.548   5.377   1.744
 9990SOL    HW130869   2.493   5.389   1.662
 9990SOL    HW230870   2.519   5.442   1.814
 9991SOL     OW30871   2.002   2.156   3.324
 9991SOL    HW130872   2.094   2.183   3.295
 9991SOL    HW230873   1.946   2.135   3.244
 9992SOL     OW30874   5.585   5.305   0.067
 9992SOL    HW130875   5.604   5.316   0.164
 9992SOL    HW230876   5.665   5.335   0.014
 9993SOL     OW30877   2.753   0.761   0.540
 9993SOL    HW130878   2.709   0.694   0.480
 9993SOL    HW230879   2.841   0.788   0.500
 9994SOL     OW30880   5.836   4.197   3.326
 9994SOL    HW130881   5.781   4.201   3.409
 9994SOL    HW230882   5.930   4.173   3.349
 9995SOL     OW30883   4.870   0.898   3.023
 9995SOL    HW130884   4.904   0.992   3.030
 9995SOL    HW230885   4.848   0.864   3.115
 9996SOL     OW30886   3.146   3.265   1.148
 9996SOL    HW130887   3.243   3.290   1.139
 9996SOL    HW230888   3.123   3.199   1.077
 9997SOL     OW30889   3.590   1.816   0.022
 9997SOL    HW130890   3.671   1.812   6.988
 9997SOL    HW230891   3.509   1.792   6.994
 9998SOL     OW30892   5.866   4.517   6.056
 9998SOL    HW130893   5.916   4.584   6.001
 9998SOL    HW230894   5.884   4.534   6.153
 9999SOL     OW30895   6.342   3.440   5.650
 9999SOL    HW130896   6.248   3.419   5.624
 9999SOL    HW230897   6.387   3.357   5.683
10000SOL     OW30898   6.936   4.268   6.725
10000SOL    HW130899   6.862   4.211   6.760
10000SOL    HW230900   6.977   4.320   6.800
10001SOL     OW30901   4.807   6.783   1.897
10001SOL    HW130902   4.857   6.774   1.983
10001SOL    HW230903   4.763   6.873   1.894
10002SOL     OW30904   1.313   0.560   3.083
10002SOL    HW130905   1.275   0.645   3.047
10002SOL    HW230906   1.332   0.571   3.181
10003SOL     OW30907   3.846   1.566   3.383
10003SOL    HW130908   3.819   1.623   3.460
10003SOL    HW230909   3.769   1.509   3.355
10004SOL     OW30910   6.459   2.328   4.747
10004SOL    HW130911   6.557   2.329   4.763
10004SOL    HW230912   6.437   2.259   4.678
10005SOL     OW30913   5.314   0.404   4.751
10005SOL    HW130914   5.302   0.474   4.680
10005SOL    HW230915   5.264   0.432   4.833
10006SOL     OW30916   4.792   5.397   4.098
10006SOL    HW130917   4.813   5.332   4.171
10006SOL    HW230918   4.799   5.490   4.133
10007SOL     OW30919   6.936   4.595   5.776
10007SOL    HW130920   6.845   4.619   5.742
10007SOL    HW230921   6.936   4.501   5.810
10008SOL     OW30922   3.689   1.456   4.204
10008SOL    HW130923   3.623   1.440   4.131
10008SOL    HW230924   3.772   1.403   4.186
10009SOL     OW30925   1.997   3.882   1.824
10009SOL    HW130926   1.973   3.876   1.728
10009SOL    HW230927   1.940   3.821   1.878
10010SOL     OW30928   2.171   0.623   5.436
10010SOL    HW130929   2.147   0.651   5.343
10010SOL    HW230930   2.089   0.618   5.493
10011SOL     OW30931   5.981   1.056   5.862
10011SOL    HW130932   5.974   0.956   5.853
10011SOL    HW230933   6.003   1.079   5.957
10012SOL     OW30934   5.464   1.465   3.391
10012SOL    HW130935   5.394   1.440   3.324
10012SOL    HW230936   5.479   1.564   3.387
10013SOL     OW30937   0.177   1.311   3.201
10013SOL    HW130938   0.103   1.274   3.258
10013SOL    HW230939   0.251   1.244   3.195
10014SOL     OW30940   6.750   4.144   0.925
10014SOL    HW130941   6.777   4.052   0.953
10014SOL    HW230942   6.821   4.209   0.954
10015SOL     OW30943   2.151   5.015   0.493
10015SOL    HW130944   2.112   5.042   0.405
10015SOL    HW230945   2.131   5.085   0.561
10016SOL     OW30946   1.279   1.064   6.247
10016SOL    HW130947   1.289   1.135   6.178
10016SOL    HW230948   1.234   1.102   6.328
10017SOL     OW30949   2.995   1.692   3.131
10017SOL    HW130950   2.998   1.783   3.091
10017SOL    HW230951   2.960   1.626   3.064
10018SOL     OW30952   4.817   0.215   6.342
10018SOL    HW130953   4.881   0.173   6.406
10018SOL    HW230954   4.849   0.308   6.320
10019SOL     OW30955   0.187   1.637   2.974
10019SOL    HW130956   0.142   1.551   2.997
10019SOL    HW230957   0.209   1.638   2.876
10020SOL     OW30958   1.851   2.203   1.034
10020SOL    HW130959   1.870   2.144   1.112
10020SOL    HW230960   1.937   2.236   0.995
10021SOL     OW30961   0.512   2.137   1.537
10021SOL    HW130962   0.526   2.235   1.528
10021SOL    HW230963   0.491   2.114   1.632
10022SOL     OW30964   2.355   1.182   5.826
10022SOL    HW130965   2.403   1.095   5.820
10022SOL    HW230966   2.267   1.169   5.871
10023SOL     OW30967   0.095   5.057   1.079
10023SOL    HW130968   0.112   4.961   1.055
10023SOL    HW230969   0.053   5.062   1.169
10024SOL     OW30970   1.826   6.511   2.358
10024SOL    HW130971   1.895   6.514   2.431
10024SOL    HW230972   1.735   6.509   2.398
10025SOL     OW30973   1.123   1.002   0.236
10025SOL    HW130974   1.153   1.074   0.299
10025SOL    HW230975   1.201   0.945   0.211
10026SOL     OW30976   4.835   6.360   3.813
10026SOL    HW130977   4.934   6.342   3.809
10026SOL    HW230978   4.820   6.452   3.849
10027SOL     OW30979   6.745   3.902   4.027
10027SOL    HW130980   6.665   3.875   3.973
10027SOL    HW230981   6.803   3.963   3.973
10028SOL     OW30982   1.078   0.347   2.282
10028SOL    HW130983   1.144   0.401   2.230
10028SOL    HW230984   1.118   0.319   2.369
10029SOL     OW30985   4.782   1.744   4.772
10029SOL    HW130986   4.724   1.813   4.728
10029SOL    HW230987   4.737   1.655   4.770
10030SOL     OW30988   1.983   0.730   3.283
10030SOL    HW130989   1.949   0.673   3.357
10030SOL    HW230990   1.923   0.809   3.271
10031SOL     OW30991   5.343   4.532   4.975
10031SOL    HW130992   5.269   4.471   5.003
10031SOL    HW230993   5.431   4.486   4.991
10032SOL     OW30994   3.313   0.847   5.250
10032SOL    HW130995   3.341   0.752   5.234
10032SOL    HW230996   3.244   0.849   5.323
10033SOL     OW30997   6.767   2.833   4.644
10033SOL    HW130998   6.748   2.904   4.577
10033SOL    HW230999   6.866   2.821   4.653
10034SOL     OW31000   3.493   0.238   4.273
10034SOL    HW131001   3.487   0.147   4.315
10034SOL    HW231002   3.530   0.302   4.340
10035SOL     OW31003   6.814   5.528   1.770
10035SOL    HW131004   6.810   5.432   1.799
10035SOL    HW231005   6.723   5.569   1.780
10036SOL     OW31006   6.307   2.226   0.972
10036SOL    HW131007   6.379   2.159   0.954
10036SOL    HW231008   6.225   2.201   0.921
10037SOL     OW31009   6.837   1.893   6.882
10037SOL    HW131010   6.775   1.851   6.816
10037SOL    HW231011   6.923   1.842   6.883
10038SOL     OW31012   5.991   6.911   0.326
10038SOL    HW131013   6.030   6.822   0.346
10038SOL    HW231014   6.034   6.981   0.383
10039SOL     OW31015   3.449   0.702   3.435
10039SOL    HW131016   3.465   0.750   3.349
10039SOL    HW231017   3.363   0.734   3.475
10040SOL     OW31018   5.583   5.174   6.732
10040SOL    HW131019   5.662   5.121   6.703
10040SOL    HW231020   5.562   5.153   6.828
10041SOL     OW31021   3.364   6.141   6.784
10041SOL    HW131022   3.390   6.235   6.808
10041SOL    HW231023   3.380   6.081   6.862
10042SOL     OW31024   6.887   1.796   3.987
10042SOL    HW131025   6.972   1.767   4.031
10042SOL    HW231026   6.907   1.838   3.899
10043SOL     OW31027   6.395   1.758   5.163
10043SOL    HW131028   6.424   1.663   5.172
10043SOL    HW231029   6.380   1.780   5.067
10044SOL     OW31030   2.465   2.890   5.567
10044SOL    HW131031   2.502   2.865   5.478
10044SOL    HW231032   2.469   2.989   5.579
10045SOL     OW31033   4.191   0.790   1.234
10045SOL    HW131034   4.123   0.816   1.303
10045SOL    HW231035   4.206   0.867   1.172
10046SOL     OW31036   2.157   3.937   1.390
10046SOL    HW131037   2.142   3.913   1.293
10046SOL    HW231038   2.212   4.020   1.396
10047SOL     OW31039   0.726   3.104   6.238
10047SOL    HW131040   0.815   3.075   6.272
10047SOL    HW231041   0.735   3.192   6.191
10048SOL     OW31042   0.076   6.519   3.161
10048SOL    HW131043   0.167   6.537   3.124
10048SOL    HW231044   0.077   6.535   3.259
10049SOL     OW31045   0.865   1.678   6.026
10049SOL    HW131046   0.928   1.678   5.948
10049SOL    HW231047   0.916   1.696   6.110
10050SOL     OW31048   5.162   3.524   5.237
10050SOL    HW131049   5.212   3.455   5.186
10050SOL    HW231050   5.214   3.549   5.319
10051SOL     OW31051   0.641   4.169   5.048
10051SOL    HW131052   0.667   4.072   5.053
10051SOL    HW231053   0.584   4.184   4.967
10052SOL     OW31054   1.512   1.407   3.269
10052SOL    HW131055   1.519   1.463   3.186
10052SOL    HW231056   1.417   1.402   3.298
10053SOL     OW31057   5.042   4.943   3.891
10053SOL    HW131058   4.966   4.943   3.956
10053SOL    HW231059   5.025   4.874   3.821
10054SOL     OW31060   5.601   4.410   5.044
10054SOL    HW131061   5.663   4.479   5.081
10054SOL    HW231062   5.654   4.343   4.991
10055SOL     OW31063   6.794   2.865   6.888
10055SOL    HW131064   6.713   2.925   6.887
10055SOL    HW231065   6.779   2.791   6.952
10056SOL     OW31066   5.215   3.327   3.046
10056SOL    HW131067   5.181   3.362   2.959
10056SOL    HW231068   5.148   3.265   3.086
10057SOL     OW31069   5.888   3.836   5.862
10057SOL    HW131070   5.876   3.895   5.782
10057SOL    HW231071   5.965   3.774   5.846
10058SOL     OW31072   6.854   3.003   4.103
10058SOL    HW131073   6.946   2.989   4.140
10058SOL    HW231074   6.833   3.100   4.099
10059SOL     OW31075   5.935   1.419   0.838
10059SOL    HW131076   5.854   1.380   0.883
10059SOL    HW231077   5.995   1.345   0.807
10060SOL     OW31078   2.759   1.604   2.543
10060SOL    HW131079   2.678   1.563   2.502
10060SOL    HW231080   2.786   1.685   2.490
10061SOL     OW31081   4.247   1.215   3.669
10061SOL    HW131082   4.254   1.195   3.767
10061SOL    HW231083   4.187   1.294   3.655
10062SOL     OW31084   0.394   6.908   4.013
10062SOL    HW131085   0.305   6.931   3.974
10062SOL    HW231086   0.460   6.979   3.988
10063SOL     OW31087   2.167   2.196   4.273
10063SOL    HW131088   2.111   2.248   4.338
10063SOL    HW231089   2.246   2.252   4.246
10064SOL     OW31090   3.695   6.046   0.163
10064SOL    HW131091   3.762   6.089   0.104
10064SOL    HW231092   3.717   6.065   0.259
10065SOL     OW31093   1.483   0.628   1.299
10065SOL    HW131094   1.400   0.665   1.341
10065SOL    HW231095   1.563   0.667   1.343
10066SOL     OW31096   0.051   3.346   5.042
10066SOL    HW131097   0.101   3.369   5.126
10066SOL    HW231098   0.088   3.398   4.966
10067SOL     OW31099   0.767   2.987   6.731
10067SOL    HW131100   0.721   3.076   6.724
10067SOL    HW231101   0.736   2.928   6.656
10068SOL     OW31102   1.846   3.500   2.788
10068SOL    HW131103   1.829   3.403   2.800
10068SOL    HW231104   1.815   3.529   2.697
10069SOL     OW31105   3.573   5.105   2.000
10069SOL    HW131106   3.601   5.058   2.083
10069SOL    HW231107   3.480   5.138   2.010
10070SOL     OW31108   2.676   5.950   4.328
10070SOL    HW131109   2.695   5.889   4.405
10070SOL    HW231110   2.599   5.915   4.275
10071SOL     OW31111   0.267   6.259   4.052
10071SOL    HW131112   0.255   6.346   4.100
10071SOL    HW231113   0.194   6.248   3.985
10072SOL     OW31114   0.067   1.341   2.690
10072SOL    HW131115   0.119   1.270   2.643
10072SOL    HW231116   6.995   1.317   2.691
10073SOL     OW31117   6.270   2.787   3.671
10073SOL    HW131118   6.192   2.734   3.705
10073SOL    HW231119   6.338   2.797   3.744
10074SOL     OW31120   1.801   5.133   0.497
10074SOL    HW131121   1.872   5.125   0.426
10074SOL    HW231122   1.716   5.092   0.463
10075SOL     OW31123   1.896   1.587   2.394
10075SOL    HW131124   1.869   1.674   2.352
10075SOL    HW231125   1.857   1.582   2.486
10076SOL     OW31126   4.751   5.389   3.114
10076SOL    HW131127   4.783   5.323   3.046
10076SOL    HW231128   4.816   5.393   3.190
10077SOL     OW31129   6.408   3.403   0.234
10077SOL    HW131130   6.486   3.463   0.249
10077SOL    HW231131   6.377   3.410   0.139
10078SOL     OW31132   6.952   6.422   4.977
10078SOL    HW131133   6.988   6.486   4.908
10078SOL    HW231134   6.856   6.402   4.956
10079SOL     OW31135   5.785   2.794   3.151
10079SOL    HW131136   5.741   2.884   3.142
10079SOL    HW231137   5.796   2.772   3.247
10080SOL     OW31138   5.506   0.951   6.283
10080SOL    HW131139   5.558   1.024   6.239
10080SOL    HW231140   5.477   0.884   6.214
10081SOL     OW31141   1.517   1.394   6.501
10081SOL    HW131142   1.596   1.454   6.512
10081SOL    HW231143   1.454   1.408   6.578
10082SOL     OW31144   1.338   4.915   2.776
10082SOL    HW131145   1.248   4.957   2.789
10082SOL    HW231146   1.329   4.837   2.714
10083SOL     OW31147   3.630   4.929   3.985
10083SOL    HW131148   3.543   4.892   4.019
10083SOL    HW231149   3.705   4.869   4.012
10084SOL     OW31150   0.899   0.418   5.368
10084SOL    HW131151   0.974   0.390   5.428
10084SOL    HW231152   0.934   0.434   5.276
10085SOL     OW31153   3.927   6.801   0.061
10085SOL    HW131154   3.845   6.843   0.100
10085SOL    HW231155   3.984   6.871   0.019
10086SOL     OW31156   6.829   6.415   2.110
10086SOL    HW131157   6.741   6.432   2.066
10086SOL    HW231158   6.819   6.424   2.209
10087SOL     OW31159   0.716   6.696   4.065
10087SOL    HW131160   0.730   6.787   4.106
10087SOL    HW231161   0.725   6.626   4.136
10088SOL     OW31162   0.384   2.524   7.017
10088SOL    HW131163   0.292   2.563   7.010
10088SOL    HW231164   0.403   2.502   0.088
10089SOL     OW31165   4.312   1.973   2.117
10089SOL    HW131166   4.252   2.051   2.135
10089SOL    HW231167   4.274   1.892   2.160
10090SOL     OW31168   1.023   5.187   1.358
10090SOL    HW131169   1.117   5.222   1.370
10090SOL    HW231170   1.026   5.102   1.306
10091SOL     OW31171   6.528   5.279   6.224
10091SOL    HW131172   6.620   5.255   6.193
10091SOL    HW231173   6.528   5.372   6.260
10092SOL     OW31174   0.617   3.110   5.522
10092SOL    HW131175   0.674   3.091   5.442
10092SOL    HW231176   0.523   3.079   5.504
10093SOL     OW31177   5.446   3.791   5.547
10093SOL    HW131178   5.452   3.885   5.581
10093SOL    HW231179   5.534   3.746   5.558
10094SOL     OW31180   3.301   0.052   1.137
10094SOL    HW131181   3.214   0.003   1.141
10094SOL    HW231182   3.314   0.088   1.044
10095SOL     OW31183   5.109   2.500   5.302
10095SOL    HW131184   5.048   2.547   5.365
10095SOL    HW231185   5.189   2.556   5.283
10096SOL     OW31186   4.961   1.045   2.607
10096SOL    HW131187   4.864   1.022   2.615
10096SOL    HW231188   5.013   0.994   2.675
10097SOL     OW31189   1.967   1.345   5.914
10097SOL    HW131190   1.952   1.361   6.011
10097SOL    HW231191   1.897   1.393   5.860
10098SOL     OW31192   3.024   5.597   4.490
10098SOL    HW131193   2.962   5.525   4.519
10098SOL    HW231194   3.016   5.611   4.391
10099SOL     OW31195   6.731   4.246   1.959
10099SOL    HW131196   6.658   4.304   1.996
10099SOL    HW231197   6.793   4.220   2.032
10100SOL     OW31198   5.413   5.332   5.196
10100SOL    HW131199   5.376   5.241   5.209
10100SOL    HW231200   5.339   5.399   5.199
10101SOL     OW31201   1.058   2.420   1.564
10101SOL    HW131202   1.110   2.368   1.631
10101SOL    HW231203   1.042   2.364   1.483
10102SOL     OW31204   5.960   6.598   0.836
10102SOL    HW131205   6.045   6.545   0.830
10102SOL    HW231206   5.939   6.639   0.747
10103SOL     OW31207   0.390   0.318   5.795
10103SOL    HW131208   0.460   0.364   5.741
10103SOL    HW231209   0.401   0.342   5.891
10104SOL     OW31210   2.399   0.367   5.737
10104SOL    HW131211   2.319   0.328   5.781
10104SOL    HW231212   2.482   0.337   5.785
10105SOL     OW31213   3.173   1.308   5.838
10105SOL    HW131214   3.204   1.370   5.766
10105SOL    HW231215   3.242   1.238   5.853
10106SOL     OW31216   4.883   6.204   1.197
10106SOL    HW131217   4.869   6.151   1.113
10106SOL    HW231218   4.981   6.215   1.213
10107SOL     OW31219   5.430   4.451   6.464
10107SOL    HW131220   5.425   4.434   6.562
10107SOL    HW231221   5.491   4.529   6.447
10108SOL     OW31222   1.435   3.132   0.679
10108SOL    HW131223   1.390   3.133   0.590
10108SOL    HW231224   1.376   3.083   0.745
10109SOL     OW31225   0.593   1.186   0.054
10109SOL    HW131226   0.632   1.094   0.062
10109SOL    HW231227   0.531   1.203   0.130
10110SOL     OW31228   4.753   5.602   2.791
10110SOL    HW131229   4.847   5.605   2.825
10110SOL    HW231230   4.692   5.571   2.863
10111SOL     OW31231   1.340   1.860   2.171
10111SOL    HW131232   1.412   1.875   2.103
10111SOL    HW231233   1.335   1.762   2.193
10112SOL     OW31234   6.286   2.375   3.569
10112SOL    HW131235   6.383   2.399   3.580
10112SOL    HW231236   6.244   2.438   3.503
10113SOL     OW31237   4.814   1.187   6.736
10113SOL    HW131238   4.802   1.090   6.716
10113SOL    HW231239   4.898   1.220   6.694
10114SOL     OW31240   4.203   1.449   3.131
10114SOL    HW131241   4.133   1.437   3.201
10114SOL    HW231242   4.160   1.446   3.040
10115SOL     OW31243   3.483   1.326   5.240
10115SOL    HW131244   3.428   1.398   5.280
10115SOL    HW231245   3.456   1.238   5.279
10116SOL     OW31246   6.564   0.555   5.044
10116SOL    HW131247   6.494   0.549   4.973
10116SOL    HW231248   6.626   0.477   5.037
10117SOL     OW31249   6.151   5.412   4.587
10117SOL    HW131250   6.180   5.446   4.676
10117SOL    HW231251   6.082   5.473   4.549
10118SOL     OW31252   3.254   4.885   5.022
10118SOL    HW131253   3.291   4.792   5.031
10118SOL    HW231254   3.160   4.880   4.988
10119SOL     OW31255   0.109   5.011   4.489
10119SOL    HW131256   0.016   4.977   4.500
10119SOL    HW231257   0.161   4.949   4.431
10120SOL     OW31258   1.607   3.061   2.211
10120SOL    HW131259   1.535   3.046   2.143
10120SOL    HW231260   1.631   3.158   2.215
10121SOL     OW31261   6.245   4.342   0.902
10121SOL    HW131262   6.169   4.280   0.885
10121SOL    HW231263   6.258   4.352   1.001
10122SOL     OW31264   0.227   1.722   3.681
10122SOL    HW131265   0.311   1.669   3.686
10122SOL    HW231266   0.244   1.815   3.714
10123SOL     OW31267   5.758   6.127   1.211
10123SOL    HW131268   5.854   6.141   1.235
10123SOL    HW231269   5.748   6.124   1.112
10124SOL     OW31270   0.867   4.585   2.735
10124SOL    HW131271   0.897   4.659   2.673
10124SOL    HW231272   0.871   4.617   2.829
10125SOL     OW31273   1.274   2.215   0.022
10125SOL    HW131274   1.370   2.191   0.005
10125SOL    HW231275   1.254   2.304   7.006
10126SOL     OW31276   6.122   0.423   6.893
10126SOL    HW131277   6.032   0.395   6.860
10126SOL    HW231278   6.188   0.349   6.880
10127SOL     OW31279   2.296   5.104   6.329
10127SOL    HW131280   2.364   5.032   6.336
10127SOL    HW231281   2.333   5.189   6.369
10128SOL     OW31282   3.322   0.456   0.483
10128SOL    HW131283   3.312   0.403   0.399
10128SOL    HW231284   3.400   0.422   0.535
10129SOL     OW31285   6.428   1.313   3.965
10129SOL    HW131286   6.403   1.388   4.027
10129SOL    HW231287   6.496   1.254   4.010
10130SOL     OW31288   1.711   2.395   2.494
10130SOL    HW131289   1.621   2.353   2.493
10130SOL    HW231290   1.769   2.347   2.560
10131SOL     OW31291   1.955   0.706   4.279
10131SOL    HW131292   1.913   0.794   4.260
10131SOL    HW231293   2.046   0.702   4.238
10132SOL     OW31294   6.934   0.983   3.126
10132SOL    HW131295   0.002   0.976   3.089
10132SOL    HW231296   6.883   0.899   3.104
10133SOL     OW31297   4.678   5.732   0.732
10133SOL    HW131298   4.595   5.677   0.724
10133SOL    HW231299   4.663   5.807   0.796
10134SOL     OW31300   5.926   0.835   2.262
10134SOL    HW131301   5.929   0.900   2.339
10134SOL    HW231302   5.879   0.877   2.185
10135SOL     OW31303   5.520   0.313   3.254
10135SOL    HW131304   5.422   0.324   3.242
10135SOL    HW231305   5.562   0.402   3.268
10136SOL     OW31306   4.670   2.018   2.763
10136SOL    HW131307   4.680   1.919   2.762
10136SOL    HW231308   4.675   2.053   2.669
10137SOL     OW31309   6.971   5.895   5.801
10137SOL    HW131310   0.001   5.931   5.877
10137SOL    HW231311   6.890   5.952   5.788
10138SOL     OW31312   5.467   1.275   0.133
10138SOL    HW131313   5.554   1.314   0.100
10138SOL    HW231314   5.406   1.349   0.161
10139SOL     OW31315   3.465   3.528   5.386
10139SOL    HW131316   3.381   3.485   5.353
10139SOL    HW231317   3.534   3.458   5.404
10140SOL     OW31318   0.051   5.612   6.013
10140SOL    HW131319   0.016   5.592   6.104
10140SOL    HW231320   7.006   5.592   5.944
10141SOL     OW31321   2.713   1.463   3.978
10141SOL    HW131322   2.617   1.491   3.976
10141SOL    HW231323   2.766   1.532   4.027
10142SOL     OW31324   6.132   6.280   4.172
10142SOL    HW131325   6.050   6.227   4.150
10142SOL    HW231326   6.205   6.218   4.199
10143SOL     OW31327   5.738   3.102   0.457
10143SOL    HW131328   5.692   3.156   0.528
10143SOL    HW231329   5.710   3.135   0.367
10144SOL     OW31330   3.552   6.368   5.146
10144SOL    HW131331   3.538   6.290   5.085
10144SOL    HW231332   3.497   6.445   5.116
10145SOL     OW31333   5.365   5.995   0.352
10145SOL    HW131334   5.388   5.918   0.292
10145SOL    HW231335   5.384   6.081   0.304
10146SOL     OW31336   0.372   3.053   4.183
10146SOL    HW131337   0.356   3.134   4.239
10146SOL    HW231338   0.470   3.043   4.166
10147SOL     OW31339   4.827   5.834   6.545
10147SOL    HW131340   4.729   5.839   6.565
10147SOL    HW231341   4.861   5.742   6.566
10148SOL     OW31342   0.712   4.791   6.627
10148SOL    HW131343   0.640   4.849   6.590
10148SOL    HW231344   0.776   4.767   6.554
10149SOL     OW31345   4.658   3.953   0.781
10149SOL    HW131346   4.662   3.856   0.804
10149SOL    HW231347   4.616   4.004   0.856
10150SOL     OW31348   4.749   4.062   0.215
10150SOL    HW131349   4.753   3.963   0.201
10150SOL    HW231350   4.792   4.085   0.302
10151SOL     OW31351   6.561   0.033   5.704
10151SOL    HW131352   6.499   6.981   5.689
10151SOL    HW231353   6.518   0.099   5.766
10152SOL     OW31354   5.543   6.601   2.720
10152SOL    HW131355   5.557   6.560   2.810
10152SOL    HW231356   5.631   6.632   2.683
10153SOL     OW31357   5.519   4.539   3.953
10153SOL    HW131358   5.560   4.467   3.898
10153SOL    HW231359   5.420   4.542   3.936
10154SOL     OW31360   4.583   5.216   5.434
10154SOL    HW131361   4.500   5.240   5.484
10154SOL    HW231362   4.604   5.288   5.367
10155SOL     OW31363   4.381   2.041   5.705
10155SOL    HW131364   4.440   2.090   5.769
10155SOL    HW231365   4.293   2.087   5.699
10156SOL     OW31366   4.887   0.869   0.928
10156SOL    HW131367   4.855   0.855   1.022
10156SOL    HW231368   4.829   0.936   0.882
10157SOL     OW31369   0.134   3.154   1.367
10157SOL    HW131370   0.233   3.144   1.360
10157SOL    HW231371   0.105   3.134   1.460
10158SOL     OW31372   5.764   6.241   1.873
10158SOL    HW131373   5.719   6.196   1.796
10158SOL    HW231374   5.860   6.215   1.875
10159SOL     OW31375   3.506   3.366   2.899
10159SOL    HW131376   3.414   3.394   2.923
10159SOL    HW231377   3.562   3.361   2.981
10160SOL     OW31378   2.223   4.367   3.346
10160SOL    HW131379   2.175   4.453   3.361
10160SOL    HW231380   2.289   4.379   3.271
10161SOL     OW31381   4.547   4.302   5.977
10161SOL    HW131382   4.616   4.364   5.941
10161SOL    HW231383   4.476   4.354   6.023
10162SOL     OW31384   1.327   3.949   2.580
10162SOL    HW131385   1.274   4.009   2.640
10162SOL    HW231386   1.384   3.889   2.635
10163SOL     OW31387   0.826   6.214   5.104
10163SOL    HW131388   0.785   6.271   5.033
10163SOL    HW231389   0.797   6.119   5.092
10164SOL     OW31390   0.116   3.292   3.012
10164SOL    HW131391   0.116   3.273   3.110
10164SOL    HW231392   0.156   3.215   2.963
10165SOL     OW31393   6.525   3.506   4.116
10165SOL    HW131394   6.494   3.451   4.038
10165SOL    HW231395   6.621   3.530   4.104
10166SOL     OW31396   1.311   1.677   0.830
10166SOL    HW131397   1.358   1.665   0.917
10166SOL    HW231398   1.368   1.730   0.768
10167SOL     OW31399   1.179   6.557   6.510
10167SOL    HW131400   1.084   6.585   6.499
10167SOL    HW231401   1.239   6.636   6.498
10168SOL     OW31402   5.476   1.195   0.528
10168SOL    HW131403   5.410   1.130   0.493
10168SOL    HW231404   5.525   1.155   0.605
10169SOL     OW31405   6.635   3.197   3.109
10169SOL    HW131406   6.664   3.101   3.110
10169SOL    HW231407   6.590   3.219   3.196
10170SOL     OW31408   6.212   5.993   6.411
10170SOL    HW131409   6.206   5.975   6.313
10170SOL    HW231410   6.165   6.079   6.432
10171SOL     OW31411   1.912   3.176   5.473
10171SOL    HW131412   1.942   3.112   5.402
10171SOL    HW231413   1.937   3.269   5.448
10172SOL     OW31414   6.348   0.162   3.300
10172SOL    HW131415   6.434   0.151   3.350
10172SOL    HW231416   6.307   0.072   3.283
10173SOL     OW31417   3.390   4.975   6.452
10173SOL    HW131418   3.359   4.879   6.453
10173SOL    HW231419   3.467   4.984   6.390
10174SOL     OW31420   4.652   6.371   2.243
10174SOL    HW131421   4.557   6.358   2.272
10174SOL    HW231422   4.654   6.428   2.160
10175SOL     OW31423   0.186   2.053   4.096
10175SOL    HW131424   0.234   2.068   4.182
10175SOL    HW231425   0.090   2.078   4.106
10176SOL     OW31426   6.407   2.973   5.722
10176SOL    HW131427   6.369   2.970   5.815
10176SOL    HW231428   6.458   3.058   5.710
10177SOL     OW31429   2.047   0.852   1.995
10177SOL    HW131430   2.051   0.771   2.052
10177SOL    HW231431   2.133   0.902   2.001
10178SOL     OW31432   1.582   1.338   0.139
10178SOL    HW131433   1.575   1.438   0.139
10178SOL    HW231434   1.650   1.309   0.207
10179SOL     OW31435   0.122   4.394   1.202
10179SOL    HW131436   0.202   4.451   1.223
10179SOL    HW231437   0.151   4.318   1.143
10180SOL     OW31438   3.225   6.824   5.506
10180SOL    HW131439   3.302   6.870   5.462
10180SOL    HW231440   3.194   6.749   5.448
10181SOL     OW31441   0.029   3.893   1.257
10181SOL    HW131442   0.097   3.841   1.205
10181SOL    HW231443   7.010   3.833   1.325
10182SOL     OW31444   4.972   1.011   7.015
10182SOL    HW131445   4.957   1.024   6.917
10182SOL    HW231446   5.041   1.076   0.023
10183SOL     OW31447   6.381   2.236   6.235
10183SOL    HW131448   6.441   2.220   6.157
10183SOL    HW231449   6.434   2.235   6.320
10184SOL     OW31450   5.826   3.549   6.111
10184SOL    HW131451   5.761   3.505   6.173
10184SOL    HW231452   5.862   3.631   6.155
10185SOL     OW31453   3.673   5.833   2.609
10185SOL    HW131454   3.677   5.907   2.542
10185SOL    HW231455   3.591   5.843   2.666
10186SOL     OW31456   4.860   3.697   6.175
10186SOL    HW131457   4.827   3.730   6.263
10186SOL    HW231458   4.903   3.608   6.187
10187SOL     OW31459   2.791   4.760   6.342
10187SOL    HW131460   2.819   4.840   6.395
10187SOL    HW231461   2.786   4.783   6.245
10188SOL     OW31462   2.874   0.008   0.394
10188SOL    HW131463   2.836   0.057   0.315
10188SOL    HW231464   2.808   0.011   0.469
10189SOL     OW31465   0.963   1.533   6.413
10189SOL    HW131466   1.041   1.570   6.464
10189SOL    HW231467   0.989   1.447   6.369
10190SOL     OW31468   3.291   4.766   1.577
10190SOL    HW131469   3.361   4.698   1.597
10190SOL    HW231470   3.200   4.724   1.584
10191SOL     OW31471   5.472   5.990   6.553
10191SOL    HW131472   5.391   6.046   6.566
10191SOL    HW231473   5.501   5.952   6.641
10192SOL     OW31474   2.367   1.954   4.935
10192SOL    HW131475   2.386   1.873   4.880
10192SOL    HW231476   2.453   2.001   4.956
10193SOL     OW31477   4.018   3.735   3.038
10193SOL    HW131478   4.016   3.829   3.003
10193SOL    HW231479   3.989   3.672   2.966
10194SOL     OW31480   3.707   0.259   4.121
10194SOL    HW131481   3.738   0.190   4.056
10194SOL    HW231482   3.627   0.226   4.170
10195SOL     OW31483   5.221   0.385   2.207
10195SOL    HW131484   5.130   0.361   2.174
10195SOL    HW231485   5.214   0.460   2.273
10196SOL     OW31486   5.668   1.524   3.162
10196SOL    HW131487   5.650   1.621   3.147
10196SOL    HW231488   5.601   1.488   3.227
10197SOL     OW31489   6.524   0.526   2.284
10197SOL    HW131490   6.524   0.435   2.242
10197SOL    HW231491   6.450   0.533   2.350
10198SOL     OW31492   3.165   6.514   1.595
10198SOL    HW131493   3.087   6.499   1.656
10198SOL    HW231494   3.227   6.581   1.635
10199SOL     OW31495   0.819   1.783   6.547
10199SOL    HW131496   0.729   1.823   6.562
10199SOL    HW231497   0.809   1.689   6.516
10200SOL     OW31498   4.802   4.336   5.483
10200SOL    HW131499   4.855   4.399   5.540
10200SOL    HW231500   4.846   4.246   5.483
10201SOL     OW31501   0.710   5.629   2.378
10201SOL    HW131502   0.643   5.626   2.303
10201SOL    HW231503   0.702   5.547   2.434
10202SOL     OW31504   0.902   3.651   1.626
10202SOL    HW131505   0.879   3.587   1.699
10202SOL    HW231506   0.850   3.629   1.544
10203SOL     OW31507   2.097   3.062   2.263
10203SOL    HW131508   2.012   3.019   2.294
10203SOL    HW231509   2.159   2.992   2.229
10204SOL     OW31510   3.153   4.655   5.247
10204SOL    HW131511   3.150   4.737   5.305
10204SOL    HW231512   3.063   4.643   5.203
10205SOL     OW31513   5.680   1.827   3.794
10205SOL    HW131514   5.772   1.812   3.755
10205SOL    HW231515   5.689   1.860   3.888
10206SOL     OW31516   5.958   6.777   5.974
10206SOL    HW131517   5.884   6.728   5.929
10206SOL    HW231518   6.046   6.749   5.935
10207SOL     OW31519   2.907   1.151   2.965
10207SOL    HW131520   2.829   1.102   3.003
10207SOL    HW231521   2.984   1.088   2.955
10208SOL     OW31522   5.619   4.860   5.690
10208SOL    HW131523   5.684   4.810   5.747
10208SOL    HW231524   5.622   4.824   5.596
10209SOL     OW31525   0.078   0.228   6.435
10209SOL    HW131526   0.094   0.325   6.453
10209SOL    HW231527   0.004   0.218   6.368
10210SOL     OW31528   6.084   6.724   2.512
10210SOL    HW131529   6.061   6.628   2.527
10210SOL    HW231530   6.114   6.736   2.417
10211SOL     OW31531   3.881   6.288   5.491
10211SOL    HW131532   3.801   6.247   5.532
10211SOL    HW231533   3.861   6.314   5.396
10212SOL     OW31534   0.678   1.307   3.954
10212SOL    HW131535   0.626   1.229   3.987
10212SOL    HW231536   0.698   1.296   3.857
10213SOL     OW31537   5.814   1.755   3.428
10213SOL    HW131538   5.891   1.809   3.395
10213SOL    HW231539   5.848   1.673   3.474
10214SOL     OW31540   6.342   1.046   1.991
10214SOL    HW131541   6.435   1.044   2.029
10214SOL    HW231542   6.281   1.095   2.053
10215SOL     OW31543   3.803   3.527   6.029
10215SOL    HW131544   3.707   3.510   6.046
10215SOL    HW231545   3.849   3.551   6.114
10216SOL     OW31546   5.987   0.186   1.059
10216SOL    HW131547   5.989   0.239   0.974
10216SOL    HW231548   5.896   0.148   1.073
10217SOL     OW31549   2.728   2.237   3.957
10217SOL    HW131550   2.770   2.256   3.868
10217SOL    HW231551   2.629   2.255   3.952
10218SOL     OW31552   2.062   0.779   0.849
10218SOL    HW131553   2.088   0.824   0.934
10218SOL    HW231554   2.010   0.696   0.869
10219SOL     OW31555   0.464   2.520   1.795
10219SOL    HW131556   0.400   2.476   1.857
10219SOL    HW231557   0.546   2.546   1.846
10220SOL     OW31558   4.399   2.161   1.379
10220SOL    HW131559   4.478   2.184   1.321
10220SOL    HW231560   4.346   2.243   1.397
10221SOL     OW31561   3.023   0.809   5.400
10221SOL    HW131562   3.083   0.755   5.460
10221SOL    HW231563   2.986   0.750   5.328
10222SOL     OW31564   1.463   4.512   5.132
10222SOL    HW131565   1.425   4.466   5.213
10222SOL    HW231566   1.434   4.462   5.049
10223SOL     OW31567   1.718   4.845   6.740
10223SOL    HW131568   1.805   4.881   6.709
10223SOL    HW231569   1.732   4.759   6.788
10224SOL     OW31570   0.679   0.170   4.145
10224SOL    HW131571   0.723   0.239   4.088
10224SOL    HW231572   0.580   0.185   4.145
10225SOL     OW31573   6.703   6.020   4.728
10225SOL    HW131574   6.710   6.020   4.828
10225SOL    HW231575   6.708   6.114   4.694
10226SOL     OW31576   2.755   1.154   6.884
10226SOL    HW131577   2.751   1.100   6.800
10226SOL    HW231578   2.662   1.178   6.912
10227SOL     OW31579   4.533   4.163   0.433
10227SOL    HW131580   4.630   4.154   0.409
10227SOL    HW231581   4.489   4.228   0.371
10228SOL     OW31582   0.479   5.294   2.717
10228SOL    HW131583   0.493   5.355   2.795
10228SOL    HW231584   0.397   5.239   2.733
10229SOL     OW31585   0.824   0.355   3.417
10229SOL    HW131586   0.910   0.404   3.429
10229SOL    HW231587   0.826   0.305   3.330
10230SOL     OW31588   6.240   6.812   3.458
10230SOL    HW131589   6.220   6.892   3.402
10230SOL    HW231590   6.255   6.733   3.399
10231SOL     OW31591   6.086   6.969   4.803
10231SOL    HW131592   6.131   6.884   4.775
10231SOL    HW231593   6.014   6.992   4.738
10232SOL     OW31594   3.415   0.849   4.220
10232SOL    HW131595   3.398   0.940   4.182
10232SOL    HW231596   3.331   0.795   4.216
10233SOL     OW31597   4.173   3.062   5.996
10233SOL    HW131598   4.094   3.121   6.014
10233SOL    HW231599   4.143   2.968   5.983
10234SOL     OW31600   5.119   0.198   0.771
10234SOL    HW131601   5.025   0.203   0.736
10234SOL    HW231602   5.151   0.289   0.797
10235SOL     OW31603   4.909   1.351   6.972
10235SOL    HW131604   4.831   1.318   7.024
10235SOL    HW231605   4.939   1.280   6.908
10236SOL     OW31606   2.267   6.707   1.706
10236SOL    HW131607   2.291   6.795   1.747
10236SOL    HW231608   2.171   6.686   1.726
10237SOL     OW31609   6.549   4.460   2.049
10237SOL    HW131610   6.563   4.519   1.969
10237SOL    HW231611   6.450   4.451   2.067
10238SOL     OW31612   3.794   4.640   5.333
10238SOL    HW131613   3.704   4.610   5.364
10238SOL    HW231614   3.858   4.563   5.335
10239SOL     OW31615   0.364   4.170   5.241
10239SOL    HW131616   0.387   4.139   5.149
10239SOL    HW231617   0.366   4.270   5.244
10240SOL     OW31618   1.146   4.501   2.931
10240SOL    HW131619   1.124   4.411   2.968
10240SOL    HW231620   1.231   4.496   2.879
10241SOL     OW31621   0.695   1.225   2.422
10241SOL    HW131622   0.681   1.205   2.325
10241SOL    HW231623   0.770   1.169   2.457
10242SOL     OW31624   0.023   1.407   5.667
10242SOL    HW131625   7.013   1.327   5.618
10242SOL    HW231626   0.031   1.484   5.602
10243SOL     OW31627   0.542   5.336   1.420
10243SOL    HW131628   0.540   5.429   1.382
10243SOL    HW231629   0.615   5.330   1.489
10244SOL     OW31630   2.667   5.090   6.978
10244SOL    HW131631   2.706   5.049   6.895
10244SOL    HW231632   2.722   5.064   0.032
10245SOL     OW31633   1.472   3.235   6.737
10245SOL    HW131634   1.553   3.287   6.711
10245SOL    HW231635   1.435   3.271   6.823
10246SOL     OW31636   3.076   3.859   4.597
10246SOL    HW131637   2.991   3.844   4.648
10246SOL    HW231638   3.131   3.928   4.643
10247SOL     OW31639   0.056   5.199   5.909
10247SOL    HW131640   0.095   5.125   5.854
10247SOL    HW231641   0.129   5.246   5.958
10248SOL     OW31642   3.020   0.308   1.961
10248SOL    HW131643   3.042   0.211   1.962
10248SOL    HW231644   3.098   0.360   1.995
10249SOL     OW31645   4.655   0.230   5.625
10249SOL    HW131646   4.633   0.166   5.551
10249SOL    HW231647   4.683   0.178   5.706
10250SOL     OW31648   6.203   1.079   1.384
10250SOL    HW131649   6.210   0.980   1.396
10250SOL    HW231650   6.268   1.125   1.445
10251SOL     OW31651   2.978   2.845   6.387
10251SOL    HW131652   2.903   2.816   6.328
10251SOL    HW231653   3.065   2.816   6.346
10252SOL     OW31654   6.213   6.496   0.833
10252SOL    HW131655   6.244   6.477   0.925
10252SOL    HW231656   6.235   6.419   0.773
10253SOL     OW31657   4.706   4.759   0.399
10253SOL    HW131658   4.744   4.685   0.343
10253SOL    HW231659   4.781   4.810   0.442
10254SOL     OW31660   2.937   1.691   4.968
10254SOL    HW131661   2.988   1.662   5.048
10254SOL    HW231662   2.917   1.612   4.910
10255SOL     OW31663   1.988   6.271   1.958
10255SOL    HW131664   2.023   6.217   2.035
10255SOL    HW231665   1.997   6.368   1.979
10256SOL     OW31666   4.910   0.183   0.388
10256SOL    HW131667   5.009   0.188   0.391
10256SOL    HW231668   4.874   0.256   0.330
10257SOL     OW31669   1.281   5.323   5.579
10257SOL    HW131670   1.250   5.368   5.663
10257SOL    HW231671   1.303   5.391   5.510
10258SOL     OW31672   4.548   6.218   3.500
10258SOL    HW131673   4.576   6.287   3.433
10258SOL    HW231674   4.617   6.214   3.573
10259SOL     OW31675   6.895   4.825   4.177
10259SOL    HW131676   6.980   4.814   4.124
10259SOL    HW231677   6.910   4.892   4.250
10260SOL     OW31678   0.732   6.679   3.089
10260SOL    HW131679   0.694   6.594   3.127
10260SOL    HW231680   0.734   6.672   2.989
10261SOL     OW31681   6.977   5.513   2.708
10261SOL    HW131682   0.051   5.505   2.694
10261SOL    HW231683   6.945   5.436   2.764
10262SOL     OW31684   3.304   5.214   4.506
10262SOL    HW131685   3.237   5.144   4.481
10262SOL    HW231686   3.267   5.305   4.486
10263SOL     OW31687   4.865   2.130   6.997
10263SOL    HW131688   4.869   2.128   0.072
10263SOL    HW231689   4.900   2.044   6.960
10264SOL     OW31690   5.805   1.321   6.209
10264SOL    HW131691   5.873   1.252   6.235
10264SOL    HW231692   5.795   1.387   6.283
10265SOL     OW31693   3.533   1.665   2.946
10265SOL    HW131694   3.588   1.702   3.021
10265SOL    HW231695   3.591   1.609   2.887
10266SOL     OW31696   3.805   3.970   6.271
10266SOL    HW131697   3.721   3.959   6.217
10266SOL    HW231698   3.790   4.040   6.341
10267SOL     OW31699   6.809   1.830   0.355
10267SOL    HW131700   6.835   1.743   0.313
10267SOL    HW231701   6.815   1.903   0.286
10268SOL     OW31702   5.537   6.046   1.364
10268SOL    HW131703   5.605   6.063   1.293
10268SOL    HW231704   5.449   6.024   1.321
10269SOL     OW31705   2.571   2.208   5.729
10269SOL    HW131706   2.527   2.136   5.782
10269SOL    HW231707   2.516   2.227   5.647
10270SOL     OW31708   2.178   6.152   0.750
10270SOL    HW131709   2.099   6.111   0.795
10270SOL    HW231710   2.224   6.083   0.694
10271SOL     OW31711   3.450   3.572   0.658
10271SOL    HW131712   3.393   3.646   0.622
10271SOL    HW231713   3.396   3.488   0.664
10272SOL     OW31714   1.270   0.857   4.315
10272SOL    HW131715   1.232   0.828   4.403
10272SOL    HW231716   1.254   0.955   4.302
10273SOL     OW31717   3.428   5.823   4.161
10273SOL    HW131718   3.355   5.853   4.222
10273SOL    HW231719   3.505   5.788   4.214
10274SOL     OW31720   1.472   5.120   5.521
10274SOL    HW131721   1.521   5.149   5.439
10274SOL    HW231722   1.404   5.189   5.545
10275SOL     OW31723   0.843   6.392   3.075
10275SOL    HW131724   0.809   6.334   3.001
10275SOL    HW231725   0.775   6.395   3.149
10276SOL     OW31726   0.131   5.887   6.056
10276SOL    HW131727   0.226   5.895   6.028
10276SOL    HW231728   0.104   5.790   6.058
10277SOL     OW31729   2.719   6.676   3.842
10277SOL    HW131730   2.811   6.688   3.880
10277SOL    HW231731   2.653   6.730   3.896
10278SOL     OW31732   6.687   0.888   6.644
10278SOL    HW131733   6.589   0.900   6.658
10278SOL    HW231734   6.702   0.829   6.565
10279SOL     OW31735   3.307   7.004   4.392
10279SOL    HW131736   3.243   7.007   4.469
10279SOL    HW231737   3.263   0.016   4.310
10280SOL     OW31738   2.095   4.483   1.022
10280SOL    HW131739   2.024   4.527   0.967
10280SOL    HW231740   2.091   4.518   1.116
10281SOL     OW31741   4.876   1.531   2.792
10281SOL    HW131742   4.972   1.553   2.776
10281SOL    HW231743   4.864   1.496   2.885
10282SOL     OW31744   0.403   2.524   3.907
10282SOL    HW131745   0.332   2.575   3.955
10282SOL    HW231746   0.401   2.428   3.935
10283SOL     OW31747   0.910   3.080   1.081
10283SOL    HW131748   0.821   3.055   1.044
10283SOL    HW231749   0.953   3.148   1.022
10284SOL     OW31750   5.446   3.692   4.971
10284SOL    HW131751   5.453   3.704   5.070
10284SOL    HW231752   5.532   3.719   4.927
10285SOL     OW31753   4.922   0.138   1.391
10285SOL    HW131754   4.990   0.066   1.410
10285SOL    HW231755   4.908   0.145   1.293
10286SOL     OW31756   3.748   1.300   3.143
10286SOL    HW131757   3.656   1.321   3.111
10286SOL    HW231758   3.754   1.202   3.165
10287SOL     OW31759   1.277   6.590   2.115
10287SOL    HW131760   1.206   6.604   2.183
10287SOL    HW231761   1.243   6.617   2.025
10288SOL     OW31762   5.109   5.581   3.164
10288SOL    HW131763   5.042   5.556   3.234
10288SOL    HW231764   5.107   5.680   3.150
10289SOL     OW31765   3.116   1.381   1.673
10289SOL    HW131766   3.071   1.350   1.590
10289SOL    HW231767   3.047   1.412   1.739
10290SOL     OW31768   4.077   3.461   2.551
10290SOL    HW131769   4.111   3.462   2.645
10290SOL    HW231770   4.014   3.384   2.539
10291SOL     OW31771   3.711   0.928   3.521
10291SOL    HW131772   3.622   0.954   3.484
10291SOL    HW231773   3.763   1.010   3.543
10292SOL     OW31774   0.338   2.166   5.042
10292SOL    HW131775   0.255   2.199   4.998
10292SOL    HW231776   0.385   2.242   5.087
10293SOL     OW31777   1.888   5.836   2.867
10293SOL    HW131778   1.930   5.811   2.780
10293SOL    HW231779   1.809   5.777   2.884
10294SOL     OW31780   5.033   2.254   2.787
10294SOL    HW131781   5.126   2.264   2.823
10294SOL    HW231782   4.967   2.273   2.860
10295SOL     OW31783   6.829   4.789   5.487
10295SOL    HW131784   6.808   4.764   5.393
10295SOL    HW231785   6.913   4.743   5.516
10296SOL     OW31786   5.922   4.257   5.963
10296SOL    HW131787   5.881   4.348   5.969
10296SOL    HW231788   5.981   4.242   6.043
10297SOL     OW31789   2.263   6.391   4.086
10297SOL    HW131790   2.291   6.471   4.140
10297SOL    HW231791   2.336   6.323   4.088
10298SOL     OW31792   4.850   3.800   3.593
10298SOL    HW131793   4.798   3.877   3.557
10298SOL    HW231794   4.843   3.723   3.529
10299SOL     OW31795   4.741   4.099   3.539
10299SOL    HW131796   4.698   4.182   3.504
10299SOL    HW231797   4.788   4.051   3.464
10300SOL     OW31798   1.428   3.530   1.545
10300SOL    HW131799   1.485   3.464   1.495
10300SOL    HW231800   1.483   3.574   1.616
10301SOL     OW31801   5.712   1.400   3.597
10301SOL    HW131802   5.785   1.466   3.577
10301SOL    HW231803   5.646   1.400   3.523
10302SOL     OW31804   1.351   6.565   2.830
10302SOL    HW131805   1.347   6.489   2.895
10302SOL    HW231806   1.331   6.650   2.878
10303SOL     OW31807   3.668   3.471   1.670
10303SOL    HW131808   3.761   3.447   1.698
10303SOL    HW231809   3.672   3.542   1.600
10304SOL     OW31810   6.815   6.652   3.816
10304SOL    HW131811   6.793   6.618   3.907
10304SOL    HW231812   6.836   6.574   3.756
10305SOL     OW31813   1.884   5.680   0.006
10305SOL    HW131814   1.943   5.760   0.022
10305SOL    HW231815   1.921   5.601   0.053
10306SOL     OW31816   4.731   5.713   0.102
10306SOL    HW131817   4.709   5.629   0.152
10306SOL    HW231818   4.791   5.690   0.025
10307SOL     OW31819   1.390   0.793   5.335
10307SOL    HW131820   1.468   0.730   5.336
10307SOL    HW231821   1.326   0.767   5.407
10308SOL     OW31822   3.503   4.943   3.234
10308SOL    HW131823   3.600   4.936   3.213
10308SOL    HW231824   3.487   4.915   3.329
10309SOL     OW31825   5.679   6.676   3.181
10309SOL    HW131826   5.772   6.713   3.179
10309SOL    HW231827   5.662   6.634   3.271
10310SOL     OW31828   3.063   3.894   2.503
10310SOL    HW131829   3.162   3.908   2.506
10310SOL    HW231830   3.039   3.845   2.419
10311SOL     OW31831   0.395   6.100   0.833
10311SOL    HW131832   0.394   6.014   0.884
10311SOL    HW231833   0.377   6.176   0.895
10312SOL     OW31834   3.736   4.864   0.640
10312SOL    HW131835   3.717   4.950   0.595
10312SOL    HW231836   3.818   4.822   0.600
10313SOL     OW31837   4.920   0.286   2.450
10313SOL    HW131838   4.826   0.261   2.427
10313SOL    HW231839   4.935   0.383   2.433
10314SOL     OW31840   6.608   0.348   0.797
10314SOL    HW131841   6.543   0.309   0.731
10314SOL    HW231842   6.581   0.321   0.889
10315SOL     OW31843   6.733   5.985   5.492
10315SOL    HW131844   6.698   6.021   5.406
10315SOL    HW231845   6.677   5.908   5.522
10316SOL     OW31846   0.177   3.532   4.836
10316SOL    HW131847   0.275   3.513   4.836
10316SOL    HW231848   0.142   3.521   4.743
10317SOL     OW31849   4.074   5.009   6.336
10317SOL    HW131850   4.009   4.957   6.281
10317SOL    HW231851   4.167   4.980   6.314
10318SOL     OW31852   6.545   5.192   1.308
10318SOL    HW131853   6.491   5.170   1.226
10318SOL    HW231854   6.640   5.167   1.293
10319SOL     OW31855   0.350   4.568   3.919
10319SOL    HW131856   0.252   4.572   3.943
10319SOL    HW231857   0.371   4.478   3.881
10320SOL     OW31858   0.804   6.272   0.691
10320SOL    HW131859   0.879   6.240   0.634
10320SOL    HW231860   0.742   6.328   0.636
10321SOL     OW31861   4.605   5.826   4.632
10321SOL    HW131862   4.533   5.893   4.614
10321SOL    HW231863   4.693   5.874   4.640
10322SOL     OW31864   6.543   5.487   0.977
10322SOL    HW131865   6.537   5.498   1.076
10322SOL    HW231866   6.596   5.562   0.938
10323SOL     OW31867   5.983   3.157   6.322
10323SOL    HW131868   6.067   3.156   6.267
10323SOL    HW231869   5.997   3.102   6.404
10324SOL     OW31870   3.011   3.267   3.910
10324SOL    HW131871   3.085   3.278   3.844
10324SOL    HW231872   3.025   3.182   3.962
10325SOL     OW31873   6.705   3.509   3.399
10325SOL    HW131874   6.773   3.459   3.345
10325SOL    HW231875   6.725   3.607   3.396
10326SOL     OW31876   4.886   3.144   6.895
10326SOL    HW131877   4.958   3.210   6.916
10326SOL    HW231878   4.883   3.130   6.796
10327SOL     OW31879   1.130   1.215   2.948
10327SOL    HW131880   1.077   1.198   3.031
10327SOL    HW231881   1.224   1.238   2.973
10328SOL     OW31882   6.181   3.730   2.414
10328SOL    HW131883   6.110   3.797   2.391
10328SOL    HW231884   6.141   3.658   2.470
10329SOL     OW31885   3.254   0.800   2.836
10329SOL    HW131886   3.197   0.813   2.754
10329SOL    HW231887   3.345   0.837   2.820
10330SOL     OW31888   3.746   5.258   2.668
10330SOL    HW131889   3.836   5.228   2.699
10330SOL    HW231890   3.733   5.355   2.690
10331SOL     OW31891   5.313   0.622   3.830
10331SOL    HW131892   5.408   0.651   3.821
10331SOL    HW231893   5.295   0.597   3.926
10332SOL     OW31894   0.111   1.951   0.633
10332SOL    HW131895   0.191   1.955   0.692
10332SOL    HW231896   0.050   1.879   0.666
10333SOL     OW31897   5.808   5.090   4.795
10333SOL    HW131898   5.774   5.183   4.782
10333SOL    HW231899   5.812   5.068   4.892
10334SOL     OW31900   2.096   5.003   4.293
10334SOL    HW131901   2.054   4.940   4.228
10334SOL    HW231902   2.152   4.952   4.358
10335SOL     OW31903   2.577   5.447   0.444
10335SOL    HW131904   2.635   5.493   0.377
10335SOL    HW231905   2.552   5.356   0.410
10336SOL     OW31906   4.785   6.996   2.191
10336SOL    HW131907   4.717   0.013   2.251
10336SOL    HW231908   4.875   0.010   2.212
10337SOL     OW31909   0.172   5.318   4.792
10337SOL    HW131910   0.087   5.327   4.740
10337SOL    HW231911   0.248   5.354   4.737
10338SOL     OW31912   2.908   6.640   1.985
10338SOL    HW131913   2.876   6.594   1.903
10338SOL    HW231914   2.974   6.711   1.961
10339SOL     OW31915   2.992   5.945   1.246
10339SOL    HW131916   3.087   5.920   1.231
10339SOL    HW231917   2.966   5.925   1.341
10340SOL     OW31918   2.458   6.018   0.177
10340SOL    HW131919   2.402   5.979   0.249
10340SOL    HW231920   2.538   5.960   0.161
10341SOL     OW31921   2.115   1.834   2.076
10341SOL    HW131922   2.096   1.912   2.016
10341SOL    HW231923   2.172   1.864   2.152
10342SOL     OW31924   2.324   0.096   5.547
10342SOL    HW131925   2.363   0.027   5.487
10342SOL    HW231926   2.349   0.187   5.513
10343SOL     OW31927   2.733   3.808   6.029
10343SOL    HW131928   2.682   3.765   6.104
10343SOL    HW231929   2.703   3.902   6.018
10344SOL     OW31930   4.100   3.692   4.846
10344SOL    HW131931   4.197   3.673   4.829
10344SOL    HW231932   4.047   3.672   4.764
10345SOL     OW31933   2.268   1.254   7.016
10345SOL    HW131934   2.361   1.218   7.018
10345SOL    HW231935   2.259   1.316   6.938
10346SOL     OW31936   5.087   6.940   7.023
10346SOL    HW131937   5.006   6.979   0.042
10346SOL    HW231938   5.074   6.940   6.924
10347SOL     OW31939   5.507   1.910   1.233
10347SOL    HW131940   5.510   1.956   1.145
10347SOL    HW231941   5.530   1.975   1.306
10348SOL     OW31942   5.778   1.251   6.716
10348SOL    HW131943   5.816   1.342   6.698
10348SOL    HW231944   5.795   1.192   6.637
10349SOL     OW31945   6.312   1.347   1.115
10349SOL    HW131946   6.224   1.303   1.134
10349SOL    HW231947   6.384   1.278   1.113
10350SOL     OW31948   3.208   5.904   4.311
10350SOL    HW131949   3.225   5.902   4.409
10350SOL    HW231950   3.111   5.889   4.293
10351SOL     OW31951   5.980   5.495   5.439
10351SOL    HW131952   6.000   5.446   5.524
10351SOL    HW231953   6.059   5.490   5.378
10352SOL     OW31954   5.352   1.891   6.995
10352SOL    HW131955   5.440   1.905   6.950
10352SOL    HW231956   5.348   1.800   0.010
10353SOL     OW31957   0.448   2.965   2.976
10353SOL    HW131958   0.527   3.024   2.957
10353SOL    HW231959   0.429   2.965   3.074
10354SOL     OW31960   0.070   3.657   0.344
10354SOL    HW131961   0.114   3.635   0.431
10354SOL    HW231962   0.092   3.751   0.318
10355SOL     OW31963   1.401   0.536   0.325
10355SOL    HW131964   1.383   0.456   0.268
10355SOL    HW231965   1.372   0.618   0.277
10356SOL     OW31966   6.665   3.745   0.017
10356SOL    HW131967   6.641   3.666   0.074
10356SOL    HW231968   6.604   3.821   0.041
10357SOL     OW31969   1.318   2.490   6.715
10357SOL    HW131970   1.232   2.483   6.664
10357SOL    HW231971   1.380   2.417   6.685
10358SOL     OW31972   1.075   2.768   3.025
10358SOL    HW131973   1.076   2.669   3.038
10358SOL    HW231974   1.013   2.810   3.092
10359SOL     OW31975   5.264   2.016   2.899
10359SOL    HW131976   5.180   1.962   2.904
10359SOL    HW231977   5.327   1.974   2.834
10360SOL     OW31978   5.362   5.135   2.989
10360SOL    HW131979   5.429   5.061   2.992
10360SOL    HW231980   5.284   5.112   3.046
10361SOL     OW31981   1.305   1.295   1.726
10361SOL    HW131982   1.353   1.322   1.643
10361SOL    HW231983   1.207   1.295   1.709
10362SOL     OW31984   0.894   4.865   2.031
10362SOL    HW131985   0.931   4.953   2.000
10362SOL    HW231986   0.937   4.791   1.980
10363SOL     OW31987   5.070   3.172   0.846
10363SOL    HW131988   5.055   3.105   0.919
10363SOL    HW231989   5.156   3.220   0.861
10364SOL     OW31990   5.111   4.813   1.423
10364SOL    HW131991   5.109   4.908   1.454
10364SOL    HW231992   5.038   4.798   1.357
10365SOL     OW31993   5.951   5.349   0.544
10365SOL    HW131994   6.003   5.402   0.477
10365SOL    HW231995   5.932   5.406   0.624
10366SOL     OW31996   3.745   6.702   3.183
10366SOL    HW131997   3.750   6.700   3.083
10366SOL    HW231998   3.655   6.670   3.212
10367SOL     OW31999   6.166   1.680   1.243
10367SOL    HW132000   6.159   1.680   1.143
10367SOL    HW232001   6.246   1.733   1.271
10368SOL     OW32002   2.113   0.564   1.831
10368SOL    HW132003   2.016   0.544   1.839
10368SOL    HW232004   2.127   0.663   1.828
10369SOL     OW32005   2.723   6.425   4.793
10369SOL    HW132006   2.786   6.433   4.715
10369SOL    HW232007   2.771   6.385   4.871
10370SOL     OW32008   0.293   1.886   4.544
10370SOL    HW132009   0.349   1.806   4.569
10370SOL    HW232010   0.296   1.953   4.619
10371SOL     OW32011   3.451   6.200   3.420
10371SOL    HW132012   3.401   6.145   3.353
10371SOL    HW232013   3.430   6.296   3.405
10372SOL     OW32014   2.607   0.560   1.375
10372SOL    HW132015   2.679   0.539   1.308
10372SOL    HW232016   2.631   0.641   1.426
10373SOL     OW32017   6.934   1.776   5.974
10373SOL    HW132018   6.984   1.769   5.888
10373SOL    HW232019   6.974   1.847   6.031
10374SOL     OW32020   3.462   6.796   4.721
10374SOL    HW132021   3.436   6.843   4.636
10374SOL    HW232022   3.406   6.714   4.731
10375SOL     OW32023   3.582   2.720   6.891
10375SOL    HW132024   3.550   2.628   6.913
10375SOL    HW232025   3.571   2.736   6.793
10376SOL     OW32026   1.561   6.071   2.845
10376SOL    HW132027   1.548   6.094   2.749
10376SOL    HW232028   1.658   6.059   2.864
10377SOL     OW32029   0.454   1.606   1.824
10377SOL    HW132030   0.429   1.574   1.733
10377SOL    HW232031   0.546   1.576   1.847
10378SOL     OW32032   0.102   5.482   5.305
10378SOL    HW132033   0.050   5.535   5.372
10378SOL    HW232034   0.058   5.394   5.291
10379SOL     OW32035   2.475   6.882   3.798
10379SOL    HW132036   2.444   6.792   3.828
10379SOL    HW232037   2.496   6.938   3.878
10380SOL     OW32038   1.602   2.815   4.691
10380SOL    HW132039   1.584   2.802   4.593
10380SOL    HW232040   1.538   2.882   4.728
10381SOL     OW32041   4.273   4.467   1.707
10381SOL    HW132042   4.303   4.390   1.763
10381SOL    HW232043   4.329   4.472   1.624
10382SOL     OW32044   3.137   4.828   1.900
10382SOL    HW132045   3.214   4.875   1.944
10382SOL    HW232046   3.073   4.796   1.970
10383SOL     OW32047   1.904   4.952   0.049
10383SOL    HW132048   1.813   4.964   0.009
10383SOL    HW232049   1.962   5.030   0.023
10384SOL     OW32050   6.268   6.152   1.009
10384SOL    HW132051   6.174   6.120   1.020
10384SOL    HW232052   6.307   6.114   0.925
10385SOL     OW32053   3.398   5.300   6.090
10385SOL    HW132054   3.424   5.211   6.054
10385SOL    HW232055   3.330   5.342   6.030
10386SOL     OW32056   0.150   1.026   6.712
10386SOL    HW132057   0.204   0.997   6.791
10386SOL    HW232058   0.053   1.012   6.731
10387SOL     OW32059   4.888   2.776   3.395
10387SOL    HW132060   4.870   2.874   3.381
10387SOL    HW232061   4.926   2.761   3.486
10388SOL     OW32062   2.864   0.764   5.705
10388SOL    HW132063   2.805   0.726   5.777
10388SOL    HW232064   2.829   0.853   5.677
10389SOL     OW32065   6.505   3.932   0.120
10389SOL    HW132066   6.500   3.932   0.220
10389SOL    HW232067   6.418   3.962   0.082
10390SOL     OW32068   2.333   2.249   0.875
10390SOL    HW132069   2.386   2.324   0.835
10390SOL    HW232070   2.394   2.188   0.926
10391SOL     OW32071   0.642   5.769   3.402
10391SOL    HW132072   0.574   5.832   3.365
10391SOL    HW232073   0.663   5.699   3.334
10392SOL     OW32074   6.822   5.206   4.990
10392SOL    HW132075   6.777   5.295   4.993
10392SOL    HW232076   6.849   5.184   4.896
10393SOL     OW32077   2.066   3.856   4.333
10393SOL    HW132078   2.057   3.768   4.285
10393SOL    HW232079   2.119   3.920   4.278
10394SOL     OW32080   2.904   6.421   4.031
10394SOL    HW132081   2.916   6.359   4.108
10394SOL    HW232082   2.956   6.389   3.952
10395SOL     OW32083   0.153   6.587   1.535
10395SOL    HW132084   0.060   6.549   1.541
10395SOL    HW232085   0.162   6.662   1.600
10396SOL     OW32086   3.528   1.838   4.019
10396SOL    HW132087   3.588   1.801   3.948
10396SOL    HW232088   3.460   1.898   3.978
10397SOL     OW32089   3.276   2.136   2.981
10397SOL    HW132090   3.370   2.170   2.977
10397SOL    HW232091   3.276   2.042   3.013
10398SOL     OW32092   6.847   2.960   0.860
10398SOL    HW132093   6.905   2.917   0.929
10398SOL    HW232094   6.896   3.035   0.816
10399SOL     OW32095   5.450   2.402   3.223
10399SOL    HW132096   5.485   2.312   3.196
10399SOL    HW232097   5.495   2.473   3.168
10400SOL     OW32098   4.017   0.018   0.220
10400SOL    HW132099   3.999   0.017   0.319
10400SOL    HW232100   3.930   0.012   0.170
10401SOL     OW32101   5.959   0.718   3.761
10401SOL    HW132102   6.028   0.786   3.736
10401SOL    HW232103   5.982   0.630   3.719
10402SOL     OW32104   6.527   3.212   5.203
10402SOL    HW132105   6.585   3.132   5.185
10402SOL    HW232106   6.581   3.295   5.191
10403SOL     OW32107   3.872   1.286   3.582
10403SOL    HW132108   3.925   1.370   3.571
10403SOL    HW232109   3.933   1.207   3.582
10404SOL     OW32110   6.427   6.988   5.001
10404SOL    HW132111   6.340   0.009   5.023
10404SOL    HW232112   6.502   0.012   5.045
10405SOL     OW32113   0.333   1.989   5.645
10405SOL    HW132114   0.263   1.959   5.579
10405SOL    HW232115   0.303   1.965   5.738
10406SOL     OW32116   3.066   5.367   2.687
10406SOL    HW132117   2.993   5.415   2.639
10406SOL    HW232118   3.032   5.330   2.773
10407SOL     OW32119   3.255   6.685   5.956
10407SOL    HW132120   3.189   6.625   6.002
10407SOL    HW232121   3.296   6.746   6.024
10408SOL     OW32122   4.608   0.080   0.900
10408SOL    HW132123   4.632   0.132   0.982
10408SOL    HW232124   4.598   0.142   0.823
10409SOL     OW32125   6.971   4.779   1.240
10409SOL    HW132126   0.030   4.749   1.195
10409SOL    HW232127   6.892   4.753   1.184
10410SOL     OW32128   5.181   1.182   0.085
10410SOL    HW132129   5.247   1.181   0.160
10410SOL    HW232130   5.169   1.276   0.052
10411SOL     OW32131   4.007   6.692   3.522
10411SOL    HW132132   3.989   6.641   3.438
10411SOL    HW232133   4.050   6.631   3.589
10412SOL     OW32134   6.872   0.939   0.575
10412SOL    HW132135   6.857   1.012   0.642
10412SOL    HW232136   6.784   0.899   0.549
10413SOL     OW32137   6.130   2.863   0.699
10413SOL    HW132138   6.056   2.866   0.632
10413SOL    HW232139   6.208   2.815   0.661
10414SOL     OW32140   4.029   4.204   5.529
10414SOL    HW132141   3.932   4.189   5.548
10414SOL    HW232142   4.045   4.197   5.430
10415SOL     OW32143   0.428   3.986   4.601
10415SOL    HW132144   0.342   3.974   4.551
10415SOL    HW232145   0.505   3.958   4.543
10416SOL     OW32146   6.522   0.588   3.710
10416SOL    HW132147   6.434   0.601   3.665
10416SOL    HW232148   6.596   0.603   3.645
10417SOL     OW32149   3.601   5.232   4.391
10417SOL    HW132150   3.590   5.294   4.313
10417SOL    HW232151   3.517   5.233   4.446
10418SOL     OW32152   0.019   4.580   6.470
10418SOL    HW132153   0.077   4.561   6.550
10418SOL    HW232154   7.016   4.676   6.472
10419SOL     OW32155   1.086   0.058   6.398
10419SOL    HW132156   1.021   0.134   6.392
10419SOL    HW232157   1.081   0.018   6.489
10420SOL     OW32158   0.067   3.864   2.897
10420SOL    HW132159   0.102   3.885   2.988
10420SOL    HW232160   0.101   3.775   2.867
10421SOL     OW32161   6.962   1.895   3.740
10421SOL    HW132162   0.011   1.961   3.720
10421SOL    HW232163   6.940   1.844   3.656
10422SOL     OW32164   6.105   3.034   5.711
10422SOL    HW132165   6.193   3.001   5.678
10422SOL    HW232166   6.114   3.129   5.741
10423SOL     OW32167   5.404   4.898   4.797
10423SOL    HW132168   5.334   4.884   4.868
10423SOL    HW232169   5.359   4.916   4.710
10424SOL     OW32170   5.989   3.013   0.492
10424SOL    HW132171   5.901   3.060   0.482
10424SOL    HW232172   6.024   2.988   0.402
10425SOL     OW32173   1.386   6.956   2.222
10425SOL    HW132174   1.339   6.947   2.135
10425SOL    HW232175   1.408   0.027   2.239
10426SOL     OW32176   0.057   4.904   0.792
10426SOL    HW132177   0.145   4.939   0.761
10426SOL    HW232178   7.018   4.981   0.803
10427SOL     OW32179   3.664   1.062   6.813
10427SOL    HW132180   3.674   1.144   6.756
10427SOL    HW232181   3.567   1.041   6.825
10428SOL     OW32182   2.935   1.318   3.886
10428SOL    HW132183   3.009   1.385   3.890
10428SOL    HW232184   2.857   1.352   3.938
10429SOL     OW32185   0.038   5.587   0.676
10429SOL    HW132186   0.116   5.525   0.670
10429SOL    HW232187   0.050   5.648   0.755
10430SOL     OW32188   4.398   6.493   3.683
10430SOL    HW132189   4.465   6.462   3.615
10430SOL    HW232190   4.311   6.448   3.666
10431SOL     OW32191   3.226   5.938   4.590
10431SOL    HW132192   3.157   5.874   4.623
10431SOL    HW232193   3.293   5.956   4.663
10432SOL     OW32194   6.005   0.125   4.433
10432SOL    HW132195   5.973   0.081   4.516
10432SOL    HW232196   6.042   0.056   4.370
10433SOL     OW32197   1.526   7.016   1.311
10433SOL    HW132198   1.612   0.043   1.308
10433SOL    HW232199   1.466   0.022   1.237
10434SOL     OW32200   4.054   0.163   3.479
10434SOL    HW132201   4.153   0.155   3.495
10434SOL    HW232202   4.034   0.140   3.384
10435SOL     OW32203   6.636   6.856   4.446
10435SOL    HW132204   6.654   6.895   4.536
10435SOL    HW232205   6.544   6.817   4.444
10436SOL     OW32206   0.852   4.936   5.779
10436SOL    HW132207   0.931   4.996   5.768
10436SOL    HW232208   0.876   4.843   5.754
10437SOL     OW32209   6.061   4.670   5.879
10437SOL    HW132210   6.038   4.766   5.898
10437SOL    HW232211   6.160   4.661   5.870
10438SOL     OW32212   5.705   6.060   0.317
10438SOL    HW132213   5.787   6.005   0.334
10438SOL    HW232214   5.651   6.066   0.402
10439SOL     OW32215   3.852   1.384   5.955
10439SOL    HW132216   3.931   1.357   5.901
10439SOL    HW232217   3.823   1.476   5.929
10440SOL     OW32218   1.835   6.423   0.297
10440SOL    HW132219   1.919   6.373   0.318
10440SOL    HW232220   1.779   6.431   0.379
10441SOL     OW32221   4.536   1.508   0.176
10441SOL    HW132222   4.479   1.426   0.173
10441SOL    HW232223   4.630   1.484   0.155
10442SOL     OW32224   3.437   6.357   6.011
10442SOL    HW132225   3.392   6.302   5.940
10442SOL    HW232226   3.536   6.345   6.004
10443SOL     OW32227   4.855   3.979   4.811
10443SOL    HW132228   4.902   3.891   4.815
10443SOL    HW232229   4.783   3.975   4.742
10444SOL     OW32230   4.032   6.323   4.588
10444SOL    HW132231   3.940   6.315   4.549
10444SOL    HW232232   4.055   6.238   4.636
10445SOL     OW32233   0.899   5.473   3.985
10445SOL    HW132234   0.828   5.452   4.053
10445SOL    HW232235   0.962   5.540   4.023
10446SOL     OW32236   1.067   3.294   5.846
10446SOL    HW132237   0.997   3.251   5.789
10446SOL    HW232238   1.037   3.293   5.942
10447SOL     OW32239   6.485   1.468   2.075
10447SOL    HW132240   6.552   1.455   2.002
10447SOL    HW232241   6.519   1.424   2.159
10448SOL     OW32242   4.067   2.438   1.665
10448SOL    HW132243   4.014   2.358   1.695
10448SOL    HW232244   4.005   2.513   1.642
10449SOL     OW32245   2.217   5.584   4.752
10449SOL    HW132246   2.187   5.604   4.659
10449SOL    HW232247   2.187   5.656   4.814
10450SOL     OW32248   0.661   2.384   0.700
10450SOL    HW132249   0.576   2.383   0.753
10450SOL    HW232250   0.674   2.474   0.659
10451SOL     OW32251   2.038   4.979   2.687
10451SOL    HW132252   2.100   5.057   2.699
10451SOL    HW232253   2.092   4.897   2.666
10452SOL     OW32254   6.044   3.442   3.727
10452SOL    HW132255   5.969   3.416   3.787
10452SOL    HW232256   6.087   3.360   3.689
10453SOL     OW32257   5.370   6.168   1.819
10453SOL    HW132258   5.403   6.191   1.911
10453SOL    HW232259   5.291   6.225   1.796
10454SOL     OW32260   5.028   2.711   1.374
10454SOL    HW132261   5.029   2.721   1.474
10454SOL    HW232262   5.114   2.743   1.336
10455SOL     OW32263   0.168   4.791   2.690
10455SOL    HW132264   0.221   4.719   2.645
10455SOL    HW232265   0.230   4.861   2.724
10456SOL     OW32266   3.309   6.036   1.708
10456SOL    HW132267   3.295   6.085   1.622
10456SOL    HW232268   3.239   6.065   1.774
10457SOL     OW32269   3.586   2.893   2.931
10457SOL    HW132270   3.581   2.827   2.856
10457SOL    HW232271   3.681   2.920   2.947
10458SOL     OW32272   0.288   0.395   7.012
10458SOL    HW132273   0.189   0.413   7.010
10458SOL    HW232274   0.311   0.344   0.070
10459SOL     OW32275   5.320   5.338   2.799
10459SOL    HW132276   5.319   5.345   2.899
10459SOL    HW232277   5.265   5.259   2.771
10460SOL     OW32278   2.284   5.908   1.279
10460SOL    HW132279   2.281   5.959   1.193
10460SOL    HW232280   2.360   5.942   1.334
10461SOL     OW32281   1.378   6.106   5.693
10461SOL    HW132282   1.316   6.069   5.625
10461SOL    HW232283   1.392   6.204   5.676
10462SOL     OW32284   5.162   1.992   2.473
10462SOL    HW132285   5.217   2.065   2.432
10462SOL    HW232286   5.198   1.903   2.444
10463SOL     OW32287   3.672   3.273   5.728
10463SOL    HW132288   3.666   3.372   5.716
10463SOL    HW232289   3.747   3.250   5.789
10464SOL     OW32290   5.395   0.217   0.645
10464SOL    HW132291   5.319   0.220   0.709
10464SOL    HW232292   5.390   0.133   0.590
10465SOL     OW32293   6.417   6.873   0.651
10465SOL    HW132294   6.431   6.926   0.567
10465SOL    HW232295   6.330   6.898   0.692
10466SOL     OW32296   4.281   5.139   5.222
10466SOL    HW132297   4.374   5.108   5.202
10466SOL    HW232298   4.215   5.078   5.179
10467SOL     OW32299   1.330   1.988   5.557
10467SOL    HW132300   1.303   2.076   5.517
10467SOL    HW232301   1.415   1.958   5.515
10468SOL     OW32302   3.200   5.970   3.557
10468SOL    HW132303   3.213   5.946   3.461
10468SOL    HW232304   3.103   5.971   3.579
10469SOL     OW32305   3.706   3.798   0.700
10469SOL    HW132306   3.694   3.772   0.605
10469SOL    HW232307   3.625   3.773   0.753
10470SOL     OW32308   2.158   1.998   2.620
10470SOL    HW132309   2.132   2.094   2.628
10470SOL    HW232310   2.106   1.943   2.685
10471SOL     OW32311   2.343   3.332   1.164
10471SOL    HW132312   2.351   3.348   1.262
10471SOL    HW232313   2.354   3.418   1.115
10472SOL     OW32314   3.546   6.286   1.419
10472SOL    HW132315   3.459   6.273   1.372
10472SOL    HW232316   3.605   6.206   1.405
10473SOL     OW32317   5.293   7.017   0.861
10473SOL    HW132318   5.216   0.043   0.821
10473SOL    HW232319   5.262   6.969   0.943
10474SOL     OW32320   4.867   0.708   4.602
10474SOL    HW132321   4.811   0.728   4.522
10474SOL    HW232322   4.960   0.686   4.573
10475SOL     OW32323   4.841   6.608   1.401
10475SOL    HW132324   4.937   6.609   1.371
10475SOL    HW232325   4.792   6.683   1.357
10476SOL     OW32326   0.142   5.377   6.601
10476SOL    HW132327   0.122   5.344   6.693
10476SOL    HW232328   0.057   5.409   6.558
10477SOL     OW32329   6.122   3.082   5.054
10477SOL    HW132330   6.148   2.985   5.057
10477SOL    HW232331   6.160   3.129   5.134
10478SOL     OW32332   0.572   0.400   6.999
10478SOL    HW132333   0.474   0.394   7.016
10478SOL    HW232334   0.589   0.402   6.901
10479SOL     OW32335   1.016   2.273   1.351
10479SOL    HW132336   1.058   2.227   1.273
10479SOL    HW232337   0.935   2.223   1.381
10480SOL     OW32338   5.361   0.358   1.085
10480SOL    HW132339   5.326   0.408   1.006
10480SOL    HW232340   5.306   0.379   1.166
10481SOL     OW32341   3.208   1.111   4.799
10481SOL    HW132342   3.153   1.064   4.729
10481SOL    HW232343   3.196   1.064   4.886
10482SOL     OW32344   0.903   6.095   4.153
10482SOL    HW132345   0.989   6.076   4.105
10482SOL    HW232346   0.917   6.086   4.251
10483SOL     OW32347   6.742   5.151   0.183
10483SOL    HW132348   6.706   5.202   0.261
10483SOL    HW232349   6.678   5.158   0.107
10484SOL     OW32350   7.005   0.116   0.720
10484SOL    HW132351   6.956   0.202   0.710
10484SOL    HW232352   7.007   0.090   0.817
10485SOL     OW32353   3.765   3.699   3.117
10485SOL    HW132354   3.860   3.695   3.088
10485SOL    HW232355   3.756   3.766   3.191
10486SOL     OW32356   5.777   0.421   6.157
10486SOL    HW132357   5.763   0.500   6.218
10486SOL    HW232358   5.827   0.350   6.207
10487SOL     OW32359   4.495   1.724   1.362
10487SOL    HW132360   4.563   1.772   1.417
10487SOL    HW232361   4.429   1.679   1.422
10488SOL     OW32362   1.220   1.961   5.988
10488SOL    HW132363   1.219   1.957   5.888
10488SOL    HW232364   1.283   1.892   6.024
10489SOL     OW32365   5.585   5.619   3.589
10489SOL    HW132366   5.660   5.666   3.542
10489SOL    HW232367   5.559   5.671   3.670
10490SOL     OW32368   5.921   0.273   0.283
10490SOL    HW132369   5.925   0.239   0.189
10490SOL    HW232370   5.960   0.365   0.287
10491SOL     OW32371   1.881   2.797   6.363
10491SOL    HW132372   1.875   2.859   6.285
10491SOL    HW232373   1.796   2.803   6.416
10492SOL     OW32374   3.762   6.341   0.599
10492SOL    HW132375   3.751   6.322   0.697
10492SOL    HW232376   3.712   6.425   0.576
10493SOL     OW32377   3.671   5.680   0.755
10493SOL    HW132378   3.655   5.711   0.848
10493SOL    HW232379   3.708   5.587   0.756
10494SOL     OW32380   0.562   5.035   5.909
10494SOL    HW132381   0.629   4.961   5.905
10494SOL    HW232382   0.504   5.023   5.990
10495SOL     OW32383   6.535   6.079   0.055
10495SOL    HW132384   6.604   6.084   7.008
10495SOL    HW232385   6.516   5.983   0.076
10496SOL     OW32386   6.743   3.955   5.316
10496SOL    HW132387   6.658   3.997   5.347
10496SOL    HW232388   6.761   3.981   5.221
10497SOL     OW32389   1.312   0.149   1.728
10497SOL    HW132390   1.214   0.136   1.741
10497SOL    HW232391   1.329   0.244   1.699
10498SOL     OW32392   5.174   6.233   1.243
10498SOL    HW132393   5.230   6.151   1.253
10498SOL    HW232394   5.205   6.303   1.307
10499SOL     OW32395   5.956   5.858   1.244
10499SOL    HW132396   6.028   5.831   1.308
10499SOL    HW232397   5.880   5.899   1.295
10500SOL     OW32398   5.161   3.548   4.830
10500SOL    HW132399   5.109   3.485   4.888
10500SOL    HW232400   5.250   3.566   4.872
10501SOL     OW32401   2.263   5.815   2.318
10501SOL    HW132402   2.317   5.828   2.401
10501SOL    HW232403   2.233   5.719   2.313
10502SOL     OW32404   2.926   3.254   1.320
10502SOL    HW132405   2.910   3.352   1.313
10502SOL    HW232406   3.013   3.231   1.275
10503SOL     OW32407   6.806   3.949   6.630
10503SOL    HW132408   6.772   4.042   6.625
10503SOL    HW232409   6.793   3.903   6.542
10504SOL     OW32410   1.248   2.740   6.215
10504SOL    HW132411   1.216   2.660   6.266
10504SOL    HW232412   1.230   2.727   6.118
10505SOL     OW32413   6.156   5.772   2.238
10505SOL    HW132414   6.123   5.806   2.327
10505SOL    HW232415   6.243   5.724   2.251
10506SOL     OW32416   1.033   3.624   0.542
10506SOL    HW132417   1.070   3.694   0.481
10506SOL    HW232418   1.068   3.535   0.514
10507SOL     OW32419   2.680   4.673   6.985
10507SOL    HW132420   2.739   4.700   6.908
10507SOL    HW232421   2.736   4.665   0.043
10508SOL     OW32422   1.324   5.424   3.967
10508SOL    HW132423   1.406   5.433   3.910
10508SOL    HW232424   1.271   5.509   3.963
10509SOL     OW32425   5.199   3.491   4.556
10509SOL    HW132426   5.157   3.530   4.474
10509SOL    HW232427   5.160   3.534   4.637
10510SOL     OW32428   5.173   6.317   5.662
10510SOL    HW132429   5.143   6.412   5.652
10510SOL    HW232430   5.145   6.264   5.582
10511SOL     OW32431   3.111   1.114   1.910
10511SOL    HW132432   3.063   1.084   1.993
10511SOL    HW232433   3.050   1.172   1.856
10512SOL     OW32434   4.569   6.737   6.079
10512SOL    HW132435   4.536   6.785   5.998
10512SOL    HW232436   4.618   6.801   6.138
10513SOL     OW32437   6.440   2.863   2.415
10513SOL    HW132438   6.399   2.886   2.504
10513SOL    HW232439   6.506   2.790   2.427
10514SOL     OW32440   2.162   2.035   1.045
10514SOL    HW132441   2.229   2.086   0.993
10514SOL    HW232442   2.195   2.022   1.139
10515SOL     OW32443   2.459   2.261   4.017
10515SOL    HW132444   2.423   2.173   4.049
10515SOL    HW232445   2.449   2.329   4.088
10516SOL     OW32446   2.764   1.951   0.474
10516SOL    HW132447   2.722   2.042   0.472
10516SOL    HW232448   2.809   1.938   0.562
10517SOL     OW32449   1.551   4.009   2.425
10517SOL    HW132450   1.499   4.074   2.480
10517SOL    HW232451   1.535   3.916   2.459
10518SOL     OW32452   0.360   5.227   2.380
10518SOL    HW132453   0.378   5.221   2.282
10518SOL    HW232454   0.388   5.143   2.425
10519SOL     OW32455   3.002   5.172   1.496
10519SOL    HW132456   3.051   5.136   1.575
10519SOL    HW232457   2.970   5.096   1.439
10520SOL     OW32458   6.637   1.822   6.338
10520SOL    HW132459   6.653   1.867   6.250
10520SOL    HW232460   6.667   1.727   6.333
10521SOL     OW32461   6.473   4.082   1.417
10521SOL    HW132462   6.467   3.983   1.400
10521SOL    HW232463   6.565   4.104   1.449
10522SOL     OW32464   0.072   2.227   3.110
10522SOL    HW132465   0.062   2.144   3.056
10522SOL    HW232466   0.166   2.233   3.144
10523SOL     OW32467   0.285   3.953   3.749
10523SOL    HW132468   0.281   4.052   3.751
10523SOL    HW232469   0.193   3.915   3.753
10524SOL     OW32470   0.236   4.878   3.765
10524SOL    HW132471   0.309   4.942   3.742
10524SOL    HW232472   0.162   4.926   3.811
10525SOL     OW32473   4.578   0.363   4.910
10525SOL    HW132474   4.590   0.323   5.001
10525SOL    HW232475   4.585   0.462   4.916
10526SOL     OW32476   0.221   5.907   1.152
10526SOL    HW132477   0.242   6.003   1.169
10526SOL    HW232478   0.177   5.868   1.233
10527SOL     OW32479   0.292   0.746   6.145
10527SOL    HW132480   0.315   0.703   6.233
10527SOL    HW232481   0.374   0.787   6.105
10528SOL     OW32482   0.320   4.568   0.168
10528SOL    HW132483   0.331   4.517   0.082
10528SOL    HW232484   0.268   4.651   0.151
10529SOL     OW32485   1.612   6.101   5.023
10529SOL    HW132486   1.651   6.027   4.970
10529SOL    HW232487   1.684   6.166   5.048
10530SOL     OW32488   1.452   6.367   6.318
10530SOL    HW132489   1.496   6.288   6.277
10530SOL    HW232490   1.355   6.347   6.335
10531SOL     OW32491   2.844   2.410   5.216
10531SOL    HW132492   2.826   2.387   5.311
10531SOL    HW232493   2.943   2.409   5.200
10532SOL     OW32494   6.093   6.927   6.598
10532SOL    HW132495   6.044   6.847   6.564
10532SOL    HW232496   6.108   6.917   6.696
10533SOL     OW32497   2.950   5.962   3.966
10533SOL    HW132498   2.987   6.041   3.916
10533SOL    HW232499   2.853   5.978   3.985
10534SOL     OW32500   0.387   5.517   2.511
10534SOL    HW132501   0.457   5.447   2.500
10534SOL    HW232502   0.343   5.534   2.422
10535SOL     OW32503   2.649   1.251   1.482
10535SOL    HW132504   2.696   1.191   1.547
10535SOL    HW232505   2.596   1.196   1.418
10536SOL     OW32506   4.273   0.292   3.252
10536SOL    HW132507   4.273   0.344   3.337
10536SOL    HW232508   4.362   0.301   3.207
10537SOL     OW32509   4.602   6.471   3.363
10537SOL    HW132510   4.639   6.462   3.270
10537SOL    HW232511   4.535   6.545   3.364
10538SOL     OW32512   5.764   3.744   2.443
10538SOL    HW132513   5.675   3.736   2.399
10538SOL    HW232514   5.799   3.653   2.465
10539SOL     OW32515   6.391   5.655   2.301
10539SOL    HW132516   6.422   5.621   2.213
10539SOL    HW232517   6.470   5.677   2.358
10540SOL     OW32518   2.421   3.642   5.922
10540SOL    HW132519   2.500   3.661   5.863
10540SOL    HW232520   2.450   3.642   6.017
10541SOL     OW32521   3.006   3.168   4.732
10541SOL    HW132522   2.921   3.115   4.735
10541SOL    HW232523   3.013   3.214   4.643
10542SOL     OW32524   6.173   0.281   4.713
10542SOL    HW132525   6.201   0.191   4.681
10542SOL    HW232526   6.221   0.352   4.662
10543SOL     OW32527   6.370   2.395   5.732
10543SOL    HW132528   6.465   2.379   5.759
10543SOL    HW232529   6.359   2.489   5.701
10544SOL     OW32530   1.203   0.741   3.596
10544SOL    HW132531   1.166   0.767   3.507
10544SOL    HW232532   1.291   0.787   3.611
10545SOL     OW32533   1.049   3.209   2.214
10545SOL    HW132534   1.086   3.281   2.274
10545SOL    HW232535   0.964   3.240   2.173
10546SOL     OW32536   2.791   6.604   1.235
10546SOL    HW132537   2.714   6.608   1.299
10546SOL    HW232538   2.870   6.561   1.279
10547SOL     OW32539   4.799   0.262   4.291
10547SOL    HW132540   4.770   0.264   4.195
10547SOL    HW232541   4.898   0.273   4.296
10548SOL     OW32542   0.431   4.886   4.938
10548SOL    HW132543   0.448   4.984   4.932
10548SOL    HW232544   0.420   4.848   4.846
10549SOL     OW32545   0.269   1.632   0.283
10549SOL    HW132546   0.362   1.668   0.271
10549SOL    HW232547   0.245   1.634   0.380
10550SOL     OW32548   3.956   6.542   3.286
10550SOL    HW132549   3.873   6.563   3.234
10550SOL    HW232550   3.985   6.449   3.265
10551SOL     OW32551   2.474   1.983   5.856
10551SOL    HW132552   2.468   1.886   5.879
10551SOL    HW232553   2.434   2.037   5.930
10552SOL     OW32554   3.074   1.036   4.557
10552SOL    HW132555   2.976   1.057   4.567
10552SOL    HW232556   3.090   1.000   4.465
10553SOL     OW32557   6.984   5.231   0.896
10553SOL    HW132558   7.017   5.198   0.984
10553SOL    HW232559   6.986   5.331   0.895
10554SOL     OW32560   6.068   4.665   2.352
10554SOL    HW132561   6.032   4.646   2.444
10554SOL    HW232562   6.164   4.636   2.348
10555SOL     OW32563   2.850   2.528   0.539
10555SOL    HW132564   2.891   2.444   0.576
10555SOL    HW232565   2.773   2.556   0.596
10556SOL     OW32566   2.684   1.367   2.993
10556SOL    HW132567   2.585   1.353   2.989
10556SOL    HW232568   2.730   1.281   2.973
10557SOL     OW32569   1.619   3.635   4.950
10557SOL    HW132570   1.585   3.556   5.001
10557SOL    HW232571   1.629   3.611   4.853
10558SOL     OW32572   3.603   4.595   5.675
10558SOL    HW132573   3.554   4.552   5.751
10558SOL    HW232574   3.585   4.544   5.591
10559SOL     OW32575   3.071   1.128   0.493
10559SOL    HW132576   3.135   1.093   0.561
10559SOL    HW232577   2.985   1.152   0.537
10560SOL     OW32578   4.153   6.085   1.932
10560SOL    HW132579   4.090   6.093   1.854
10560SOL    HW232580   4.216   6.162   1.931
10561SOL     OW32581   4.388   4.844   2.188
10561SOL    HW132582   4.317   4.875   2.125
10561SOL    HW232583   4.353   4.847   2.282
10562SOL     OW32584   2.962   6.215   1.159
10562SOL    HW132585   2.984   6.123   1.192
10562SOL    HW232586   2.896   6.209   1.084
10563SOL     OW32587   1.046   0.007   0.775
10563SOL    HW132588   1.049   6.995   0.682
10563SOL    HW232589   1.101   0.090   0.780
10564SOL     OW32590   6.650   5.136   3.321
10564SOL    HW132591   6.733   5.189   3.338
10564SOL    HW232592   6.594   5.183   3.253
10565SOL     OW32593   6.814   7.017   6.011
10565SOL    HW132594   6.877   6.971   6.074
10565SOL    HW232595   6.825   6.978   5.919
10566SOL     OW32596   2.524   2.333   6.828
10566SOL    HW132597   2.562   2.401   6.765
10566SOL    HW232598   2.595   2.268   6.854
10567SOL     OW32599   1.998   2.084   5.862
10567SOL    HW132600   2.021   2.061   5.957
10567SOL    HW232601   2.032   2.013   5.801
10568SOL     OW32602   5.751   3.217   6.942
10568SOL    HW132603   5.841   3.246   6.908
10568SOL    HW232604   5.731   3.125   6.907
10569SOL     OW32605   5.393   0.528   2.003
10569SOL    HW132606   5.433   0.602   1.948
10569SOL    HW232607   5.339   0.567   2.078
10570SOL     OW32608   1.351   4.582   4.076
10570SOL    HW132609   1.328   4.545   3.986
10570SOL    HW232610   1.347   4.682   4.073
10571SOL     OW32611   0.234   4.228   6.571
10571SOL    HW132612   0.312   4.225   6.509
10571SOL    HW232613   0.159   4.279   6.528
10572SOL     OW32614   6.882   4.496   1.541
10572SOL    HW132615   6.888   4.474   1.638
10572SOL    HW232616   6.923   4.586   1.525
10573SOL     OW32617   5.492   0.817   4.477
10573SOL    HW132618   5.422   0.750   4.451
10573SOL    HW232619   5.568   0.812   4.412
10574SOL     OW32620   6.536   0.482   3.976
10574SOL    HW132621   6.513   0.508   3.883
10574SOL    HW232622   6.548   0.564   4.032
10575SOL     OW32623   5.352   0.296   3.647
10575SOL    HW132624   5.438   0.336   3.678
10575SOL    HW232625   5.280   0.365   3.649
10576SOL     OW32626   1.759   4.761   2.701
10576SOL    HW132627   1.835   4.729   2.758
10576SOL    HW232628   1.757   4.861   2.701
10577SOL     OW32629   3.147   6.040   0.839
10577SOL    HW132630   3.189   6.087   0.762
10577SOL    HW232631   3.109   6.107   0.903
10578SOL     OW32632   5.930   2.073   3.728
10578SOL    HW132633   5.932   1.982   3.770
10578SOL    HW232634   5.928   2.143   3.800
10579SOL     OW32635   2.679   4.119   1.316
10579SOL    HW132636   2.727   4.120   1.404
10579SOL    HW232637   2.676   4.212   1.279
10580SOL     OW32638   6.256   6.960   6.891
10580SOL    HW132639   6.198   7.000   6.962
10580SOL    HW232640   6.318   6.893   6.931
10581SOL     OW32641   5.103   6.383   2.818
10581SOL    HW132642   5.164   6.327   2.875
10581SOL    HW232643   5.155   6.458   2.778
10582SOL     OW32644   5.739   4.573   6.393
10582SOL    HW132645   5.690   4.564   6.480
10582SOL    HW232646   5.696   4.643   6.337
10583SOL     OW32647   3.238   0.212   4.243
10583SOL    HW132648   3.335   0.236   4.236
10583SOL    HW232649   3.196   0.269   4.314
10584SOL     OW32650   6.423   0.541   6.585
10584SOL    HW132651   6.444   0.445   6.565
10584SOL    HW232652   6.336   0.546   6.634
10585SOL     OW32653   1.029   1.793   6.252
10585SOL    HW132654   0.999   1.715   6.307
10585SOL    HW232655   1.022   1.877   6.306
10586SOL     OW32656   4.277   4.952   5.755
10586SOL    HW132657   4.365   4.995   5.775
10586SOL    HW232658   4.247   4.981   5.664
10587SOL     OW32659   0.682   5.729   6.006
10587SOL    HW132660   0.768   5.768   6.042
10587SOL    HW232661   0.648   5.787   5.933
10588SOL     OW32662   1.774   2.699   4.439
10588SOL    HW132663   1.721   2.775   4.402
10588SOL    HW232664   1.821   2.728   4.523
10589SOL     OW32665   5.326   6.201   4.736
10589SOL    HW132666   5.302   6.243   4.823
10589SOL    HW232667   5.270   6.239   4.663
10590SOL     OW32668   0.482   5.695   1.671
10590SOL    HW132669   0.466   5.775   1.613
10590SOL    HW232670   0.408   5.629   1.658
10591SOL     OW32671   1.817   1.120   1.034
10591SOL    HW132672   1.746   1.101   1.102
10591SOL    HW232673   1.906   1.088   1.068
10592SOL     OW32674   5.848   2.569   4.485
10592SOL    HW132675   5.785   2.502   4.524
10592SOL    HW232676   5.941   2.550   4.517
10593SOL     OW32677   2.052   6.362   0.632
10593SOL    HW132678   2.038   6.341   0.535
10593SOL    HW232679   2.098   6.285   0.676
10594SOL     OW32680   3.791   1.079   2.825
10594SOL    HW132681   3.778   1.078   2.726
10594SOL    HW232682   3.734   1.008   2.866
10595SOL     OW32683   6.166   0.803   0.452
10595SOL    HW132684   6.154   0.896   0.418
10595SOL    HW232685   6.078   0.767   0.484
10596SOL     OW32686   4.777   1.594   7.006
10596SOL    HW132687   4.833   1.514   6.985
10596SOL    HW232688   4.686   1.583   6.964
10597SOL     OW32689   2.668   0.694   6.114
10597SOL    HW132690   2.651   0.621   6.180
10597SOL    HW232691   2.728   0.763   6.154
10598SOL     OW32692   2.392   1.646   5.794
10598SOL    HW132693   2.478   1.667   5.840
10598SOL    HW232694   2.323   1.620   5.862
10599SOL     OW32695   6.247   4.121   6.311
10599SOL    HW132696   6.260   4.141   6.408
10599SOL    HW232697   6.224   4.024   6.299
10600SOL     OW32698   3.536   1.268   1.334
10600SOL    HW132699   3.510   1.355   1.374
10600SOL    HW232700   3.543   1.199   1.406
10601SOL     OW32701   0.269   6.111   5.767
10601SOL    HW132702   0.347   6.103   5.828
10601SOL    HW232703   0.299   6.098   5.672
10602SOL     OW32704   0.671   0.628   0.134
10602SOL    HW132705   0.639   0.567   0.062
10602SOL    HW232706   0.723   0.576   0.202
10603SOL     OW32707   4.539   6.338   1.790
10603SOL    HW132708   4.606   6.289   1.735
10603SOL    HW232709   4.530   6.432   1.757
10604SOL     OW32710   0.582   6.084   4.894
10604SOL    HW132711   0.588   5.986   4.914
10604SOL    HW232712   0.528   6.099   4.812
10605SOL     OW32713   1.979   0.334   0.173
10605SOL    HW132714   1.954   0.316   0.268
10605SOL    HW232715   1.913   0.397   0.133
10606SOL     OW32716   6.175   0.852   1.568
10606SOL    HW132717   6.087   0.826   1.607
10606SOL    HW232718   6.242   0.864   1.641
10607SOL     OW32719   4.282   4.341   0.093
10607SOL    HW132720   4.312   4.246   0.098
10607SOL    HW232721   4.247   4.361   0.001
10608SOL     OW32722   6.799   2.897   2.841
10608SOL    HW132723   6.896   2.885   2.860
10608SOL    HW232724   6.784   2.891   2.742
10609SOL     OW32725   2.910   6.463   0.667
10609SOL    HW132726   2.824   6.459   0.717
10609SOL    HW232727   2.929   6.558   0.641
10610SOL     OW32728   6.668   2.477   4.115
10610SOL    HW132729   6.709   2.536   4.045
10610SOL    HW232730   6.593   2.425   4.075
10611SOL     OW32731   2.564   5.475   4.951
10611SOL    HW132732   2.664   5.470   4.945
10611SOL    HW232733   2.533   5.562   4.913
10612SOL     OW32734   5.385   1.002   4.158
10612SOL    HW132735   5.381   1.100   4.137
10612SOL    HW232736   5.448   0.987   4.234
10613SOL     OW32737   5.426   6.106   4.407
10613SOL    HW132738   5.404   6.051   4.326
10613SOL    HW232739   5.364   6.082   4.481
10614SOL     OW32740   4.846   1.368   5.500
10614SOL    HW132741   4.897   1.432   5.558
10614SOL    HW232742   4.861   1.275   5.533
10615SOL     OW32743   3.717   1.189   5.668
10615SOL    HW132744   3.707   1.258   5.597
10615SOL    HW232745   3.668   1.218   5.750
10616SOL     OW32746   2.813   6.607   6.426
10616SOL    HW132747   2.854   6.559   6.348
10616SOL    HW232748   2.886   6.651   6.479
10617SOL     OW32749   2.401   4.118   1.792
10617SOL    HW132750   2.483   4.169   1.766
10617SOL    HW232751   2.418   4.020   1.781
10618SOL     OW32752   0.725   5.359   5.537
10618SOL    HW132753   0.736   5.304   5.620
10618SOL    HW232754   0.737   5.300   5.457
10619SOL     OW32755   0.616   2.396   2.797
10619SOL    HW132756   0.686   2.346   2.849
10619SOL    HW232757   0.595   2.346   2.713
10620SOL     OW32758   1.323   0.087   4.954
10620SOL    HW132759   1.257   0.137   5.010
10620SOL    HW232760   1.306   0.107   4.858
10621SOL     OW32761   1.013   4.224   2.430
10621SOL    HW132762   1.034   4.249   2.524
10621SOL    HW232763   1.084   4.261   2.369
10622SOL     OW32764   4.191   2.751   1.273
10622SOL    HW132765   4.238   2.695   1.341
10622SOL    HW232766   4.125   2.695   1.223
10623SOL     OW32767   6.218   5.953   5.095
10623SOL    HW132768   6.228   5.949   5.194
10623SOL    HW232769   6.307   5.972   5.052
10624SOL     OW32770   0.478   2.591   4.773
10624SOL    HW132771   0.564   2.601   4.722
10624SOL    HW232772   0.470   2.664   4.840
10625SOL     OW32773   0.773   3.214   0.337
10625SOL    HW132774   0.776   3.167   0.426
10625SOL    HW232775   0.760   3.147   0.264
10626SOL     OW32776   3.280   3.021   1.558
10626SOL    HW132777   3.288   2.921   1.555
10626SOL    HW232778   3.186   3.048   1.542
10627SOL     OW32779   5.635   0.916   6.748
10627SOL    HW132780   5.620   0.833   6.802
10627SOL    HW232781   5.630   0.996   6.807
10628SOL     OW32782   4.092   0.307   0.396
10628SOL    HW132783   4.190   0.290   0.391
10628SOL    HW232784   4.068   0.339   0.487
10629SOL     OW32785   3.244   5.138   5.147
10629SOL    HW132786   3.180   5.206   5.181
10629SOL    HW232787   3.193   5.061   5.107
10630SOL     OW32788   5.298   0.914   2.565
10630SOL    HW132789   5.372   0.883   2.505
10630SOL    HW232790   5.264   1.002   2.532
10631SOL     OW32791   4.157   4.579   6.066
10631SOL    HW132792   4.125   4.489   6.035
10631SOL    HW232793   4.078   4.634   6.094
10632SOL     OW32794   4.832   5.634   3.525
10632SOL    HW132795   4.770   5.603   3.598
10632SOL    HW232796   4.866   5.725   3.547
10633SOL     OW32797   2.219   2.842   1.735
10633SOL    HW132798   2.203   2.914   1.803
10633SOL    HW232799   2.232   2.755   1.782
10634SOL     OW32800   1.316   5.762   0.432
10634SOL    HW132801   1.366   5.834   0.385
10634SOL    HW232802   1.324   5.676   0.381
10635SOL     OW32803   2.268   3.664   0.584
10635SOL    HW132804   2.196   3.732   0.599
10635SOL    HW232805   2.307   3.677   0.493
10636SOL     OW32806   6.357   1.424   0.810
10636SOL    HW132807   6.316   1.399   0.897
10636SOL    HW232808   6.299   1.491   0.763
10637SOL     OW32809   2.268   6.210   6.636
10637SOL    HW132810   2.287   6.256   6.723
10637SOL    HW232811   2.354   6.188   6.590
10638SOL     OW32812   6.815   6.467   2.362
10638SOL    HW132813   6.767   6.545   2.402
10638SOL    HW232814   6.912   6.474   2.383
10639SOL     OW32815   2.115   3.563   1.714
10639SOL    HW132816   2.177   3.610   1.652
10639SOL    HW232817   2.161   3.545   1.801
10640SOL     OW32818   4.465   0.894   3.597
10640SOL    HW132819   4.460   0.889   3.697
10640SOL    HW232820   4.407   0.822   3.557
10641SOL     OW32821   2.098   1.230   3.576
10641SOL    HW132822   2.067   1.324   3.580
10641SOL    HW232823   2.163   1.213   3.650
10642SOL     OW32824   5.618   1.762   0.597
10642SOL    HW132825   5.608   1.849   0.644
10642SOL    HW232826   5.703   1.718   0.626
10643SOL     OW32827   2.115   5.846   4.891
10643SOL    HW132828   2.019   5.827   4.911
10643SOL    HW232829   2.163   5.869   4.976
10644SOL     OW32830   6.024   3.099   1.221
10644SOL    HW132831   5.980   3.010   1.213
10644SOL    HW232832   5.971   3.167   1.171
10645SOL     OW32833   2.097   2.944   3.739
10645SOL    HW132834   2.141   3.034   3.742
10645SOL    HW232835   2.165   2.875   3.712
10646SOL     OW32836   5.731   0.834   6.024
10646SOL    HW132837   5.806   0.851   6.088
10646SOL    HW232838   5.716   0.915   5.967
10647SOL     OW32839   3.702   5.510   5.147
10647SOL    HW132840   3.691   5.463   5.060
10647SOL    HW232841   3.797   5.538   5.159
10648SOL     OW32842   6.205   5.751   6.548
10648SOL    HW132843   6.203   5.843   6.509
10648SOL    HW232844   6.275   5.747   6.619
10649SOL     OW32845   1.123   2.994   3.691
10649SOL    HW132846   1.107   3.060   3.763
10649SOL    HW232847   1.052   3.003   3.621
10650SOL     OW32848   0.375   0.275   4.497
10650SOL    HW132849   0.358   0.305   4.403
10650SOL    HW232850   0.389   0.176   4.497
10651SOL     OW32851   5.907   5.857   6.136
10651SOL    HW132852   5.996   5.825   6.102
10651SOL    HW232853   5.918   5.946   6.180
10652SOL     OW32854   1.901   6.771   6.013
10652SOL    HW132855   1.901   6.771   5.913
10652SOL    HW232856   1.925   6.863   6.047
10653SOL     OW32857   3.599   6.114   4.555
10653SOL    HW132858   3.574   6.108   4.459
10653SOL    HW232859   3.642   6.028   4.583
10654SOL     OW32860   4.557   1.357   5.091
10654SOL    HW132861   4.638   1.307   5.060
10654SOL    HW232862   4.485   1.350   5.023
10655SOL     OW32863   1.931   4.614   0.850
10655SOL    HW132864   1.987   4.567   0.783
10655SOL    HW232865   1.846   4.645   0.807
10656SOL     OW32866   6.754   1.133   2.361
10656SOL    HW132867   6.827   1.195   2.388
10656SOL    HW232868   6.772   1.041   2.397
10657SOL     OW32869   6.009   0.865   4.590
10657SOL    HW132870   5.913   0.852   4.614
10657SOL    HW232871   6.019   0.863   4.490
10658SOL     OW32872   6.110   3.915   4.860
10658SOL    HW132873   6.085   3.993   4.803
10658SOL    HW232874   6.209   3.905   4.861
10659SOL     OW32875   1.019   4.442   0.595
10659SOL    HW132876   0.977   4.492   0.519
10659SOL    HW232877   1.111   4.414   0.569
10660SOL     OW32878   6.345   3.744   5.205
10660SOL    HW132879   6.346   3.646   5.227
10660SOL    HW232880   6.426   3.767   5.150
10661SOL     OW32881   1.563   5.563   0.583
10661SOL    HW132882   1.493   5.541   0.514
10661SOL    HW232883   1.639   5.499   0.574
10662SOL     OW32884   3.874   0.929   2.080
10662SOL    HW132885   3.902   0.834   2.071
10662SOL    HW232886   3.779   0.933   2.112
10663SOL     OW32887   0.589   1.855   3.269
10663SOL    HW132888   0.577   1.935   3.209
10663SOL    HW232889   0.520   1.787   3.246
10664SOL     OW32890   0.038   5.442   5.001
10664SOL    HW132891   0.082   5.385   4.932
10664SOL    HW232892   0.016   5.387   5.082
10665SOL     OW32893   2.098   2.625   0.044
10665SOL    HW132894   2.079   2.659   6.977
10665SOL    HW232895   2.189   2.654   0.073
10666SOL     OW32896   3.198   4.075   2.260
10666SOL    HW132897   3.225   4.046   2.352
10666SOL    HW232898   3.259   4.147   2.228
10667SOL     OW32899   4.963   1.607   4.170
10667SOL    HW132900   4.948   1.706   4.163
10667SOL    HW232901   4.890   1.566   4.224
10668SOL     OW32902   3.493   1.344   5.619
10668SOL    HW132903   3.415   1.404   5.636
10668SOL    HW232904   3.575   1.399   5.603
10669SOL     OW32905   5.747   0.630   0.950
10669SOL    HW132906   5.763   0.670   0.860
10669SOL    HW232907   5.834   0.622   0.999
10670SOL     OW32908   5.318   4.882   4.514
10670SOL    HW132909   5.258   4.803   4.513
10670SOL    HW232910   5.383   4.876   4.439
10671SOL     OW32911   1.636   1.752   4.368
10671SOL    HW132912   1.709   1.778   4.304
10671SOL    HW232913   1.593   1.835   4.404
10672SOL     OW32914   6.768   4.201   1.441
10672SOL    HW132915   6.815   4.281   1.477
10672SOL    HW232916   6.817   4.167   1.360
10673SOL     OW32917   1.600   6.828   0.183
10673SOL    HW132918   1.645   6.765   0.247
10673SOL    HW232919   1.583   6.780   0.097
10674SOL     OW32920   3.995   3.910   4.279
10674SOL    HW132921   3.979   3.974   4.355
10674SOL    HW232922   3.985   3.958   4.192
10675SOL     OW32923   2.890   0.617   6.407
10675SOL    HW132924   2.881   0.570   6.320
10675SOL    HW232925   2.986   0.621   6.433
10676SOL     OW32926   0.526   6.098   4.610
10676SOL    HW132927   0.505   6.196   4.603
10676SOL    HW232928   0.441   6.045   4.600
10677SOL     OW32929   1.616   1.080   1.298
10677SOL    HW132930   1.519   1.064   1.313
10677SOL    HW232931   1.662   1.090   1.386
10678SOL     OW32932   4.314   4.831   3.615
10678SOL    HW132933   4.283   4.909   3.670
10678SOL    HW232934   4.407   4.806   3.643
10679SOL     OW32935   3.792   5.770   6.746
10679SOL    HW132936   3.728   5.755   6.671
10679SOL    HW232937   3.849   5.849   6.726
10680SOL     OW32938   3.763   2.160   3.571
10680SOL    HW132939   3.825   2.151   3.493
10680SOL    HW232940   3.683   2.213   3.544
10681SOL     OW32941   6.549   3.918   0.400
10681SOL    HW132942   6.636   3.869   0.411
10681SOL    HW232943   6.479   3.875   0.456
10682SOL     OW32944   0.231   2.731   5.641
10682SOL    HW132945   0.159   2.663   5.634
10682SOL    HW232946   0.193   2.818   5.671
10683SOL     OW32947   4.687   0.987   3.835
10683SOL    HW132948   4.651   1.070   3.879
10683SOL    HW232949   4.783   1.001   3.812
10684SOL     OW32950   4.597   5.495   1.932
10684SOL    HW132951   4.626   5.399   1.928
10684SOL    HW232952   4.535   5.509   2.009
10685SOL     OW32953   0.529   5.563   1.301
10685SOL    HW132954   0.622   5.596   1.315
10685SOL    HW232955   0.496   5.593   1.211
10686SOL     OW32956   1.512   4.154   6.088
10686SOL    HW132957   1.534   4.067   6.043
10686SOL    HW232958   1.434   4.142   6.149
10687SOL     OW32959   6.515   4.381   4.800
10687SOL    HW132960   6.583   4.337   4.743
10687SOL    HW232961   6.500   4.475   4.768
10688SOL     OW32962   6.197   2.908   3.210
10688SOL    HW132963   6.201   2.997   3.257
10688SOL    HW232964   6.167   2.838   3.274
10689SOL     OW32965   6.749   0.806   1.988
10689SOL    HW132966   6.733   0.822   2.085
10689SOL    HW232967   6.814   0.731   1.976
10690SOL     OW32968   0.483   4.985   3.404
10690SOL    HW132969   0.576   5.009   3.432
10690SOL    HW232970   0.474   4.998   3.305
10691SOL     OW32971   1.834   1.899   1.841
10691SOL    HW132972   1.921   1.858   1.869
10691SOL    HW232973   1.839   1.998   1.851
10692SOL     OW32974   2.333   0.431   3.438
10692SOL    HW132975   2.296   0.427   3.345
10692SOL    HW232976   2.350   0.526   3.463
10693SOL     OW32977   1.449   6.010   1.035
10693SOL    HW132978   1.403   5.957   0.963
10693SOL    HW232979   1.400   5.999   1.121
10694SOL     OW32980   5.383   6.272   6.653
10694SOL    HW132981   5.455   6.239   6.714
10694SOL    HW232982   5.356   6.365   6.681
10695SOL     OW32983   1.683   2.557   2.258
10695SOL    HW132984   1.721   2.488   2.320
10695SOL    HW232985   1.700   2.648   2.295
10696SOL     OW32986   6.562   3.946   4.604
10696SOL    HW132987   6.524   3.949   4.512
10696SOL    HW232988   6.578   3.851   4.631
10697SOL     OW32989   0.166   0.648   5.604
10697SOL    HW132990   0.176   0.663   5.703
10697SOL    HW232991   0.096   0.710   5.568
10698SOL     OW32992   4.844   4.461   6.650
10698SOL    HW132993   4.909   4.519   6.600
10698SOL    HW232994   4.751   4.494   6.634
10699SOL     OW32995   3.814   4.929   1.770
10699SOL    HW132996   3.836   4.974   1.684
10699SOL    HW232997   3.876   4.962   1.842
10700SOL     OW32998   5.759   6.144   0.911
10700SOL    HW132999   5.842   6.128   0.857
10700SOL    HW233000   5.726   6.237   0.894
10701SOL     OW33001   2.640   0.250   5.844
10701SOL    HW133002   2.650   0.159   5.804
10701SOL    HW233003   2.731   0.289   5.862
10702SOL     OW33004   5.081   3.518   2.481
10702SOL    HW133005   5.041   3.427   2.475
10702SOL    HW233006   5.094   3.555   2.389
10703SOL     OW33007   2.268   2.552   5.345
10703SOL    HW133008   2.319   2.621   5.294
10703SOL    HW233009   2.263   2.468   5.293
10704SOL     OW33010   6.689   5.101   2.134
10704SOL    HW133011   6.631   5.051   2.070
10704SOL    HW233012   6.776   5.054   2.144
10705SOL     OW33013   6.545   5.306   1.546
10705SOL    HW133014   6.533   5.269   1.453
10705SOL    HW233015   6.638   5.287   1.577
10706SOL     OW33016   4.017   0.147   2.638
10706SOL    HW133017   3.955   0.155   2.715
10706SOL    HW233018   4.024   0.050   2.611
10707SOL     OW33019   0.384   6.010   4.020
10707SOL    HW133020   0.338   6.096   4.043
10707SOL    HW233021   0.481   6.017   4.040
10708SOL     OW33022   3.919   1.428   1.550
10708SOL    HW133023   3.978   1.395   1.476
10708SOL    HW233024   3.857   1.498   1.514
10709SOL     OW33025   5.642   5.339   4.815
10709SOL    HW133026   5.543   5.344   4.800
10709SOL    HW233027   5.662   5.364   4.910
10710SOL     OW33028   6.192   1.085   4.229
10710SOL    HW133029   6.286   1.071   4.261
10710SOL    HW233030   6.169   1.182   4.237
10711SOL     OW33031   2.148   6.676   4.151
10711SOL    HW133032   2.049   6.674   4.133
10711SOL    HW233033   2.166   6.651   4.246
10712SOL     OW33034   3.097   0.799   1.845
10712SOL    HW133035   3.083   0.822   1.941
10712SOL    HW233036   3.105   0.883   1.792
10713SOL     OW33037   0.485   3.654   0.594
10713SOL    HW133038   0.404   3.621   0.546
10713SOL    HW233039   0.563   3.654   0.531
10714SOL     OW33040   4.996   3.790   5.801
10714SOL    HW133041   4.905   3.750   5.795
10714SOL    HW233042   5.064   3.723   5.771
10715SOL     OW33043   4.640   0.158   2.328
10715SOL    HW133044   4.576   0.223   2.286
10715SOL    HW233045   4.611   0.139   2.422
10716SOL     OW33046   5.751   2.314   4.360
10716SOL    HW133047   5.682   2.317   4.433
10716SOL    HW233048   5.706   2.328   4.272
10717SOL     OW33049   1.138   2.160   1.145
10717SOL    HW133050   1.187   2.226   1.089
10717SOL    HW233051   1.117   2.078   1.092
10718SOL     OW33052   1.050   3.836   7.018
10718SOL    HW133053   0.988   3.779   6.965
10718SOL    HW233054   1.079   3.914   6.963
10719SOL     OW33055   0.313   5.696   2.927
10719SOL    HW133056   0.341   5.681   2.832
10719SOL    HW233057   0.368   5.771   2.966
10720SOL     OW33058   6.867   4.199   5.547
10720SOL    HW133059   6.949   4.198   5.489
10720SOL    HW233060   6.894   4.208   5.643
10721SOL     OW33061   5.153   3.809   5.135
10721SOL    HW133062   5.210   3.884   5.169
10721SOL    HW233063   5.198   3.722   5.157
10722SOL     OW33064   1.484   5.245   0.095
10722SOL    HW133065   1.491   5.344   0.081
10722SOL    HW233066   1.395   5.222   0.133
10723SOL     OW33067   0.264   2.880   6.885
10723SOL    HW133068   0.334   2.949   6.900
10723SOL    HW233069   0.296   2.815   6.816
10724SOL     OW33070   6.187   1.104   7.014
10724SOL    HW133071   6.110   1.113   6.951
10724SOL    HW233072   6.234   1.192   7.023
10725SOL     OW33073   1.367   5.595   4.697
10725SOL    HW133074   1.295   5.562   4.636
10725SOL    HW233075   1.329   5.660   4.762
10726SOL     OW33076   5.761   0.504   4.437
10726SOL    HW133077   5.847   0.460   4.412
10726SOL    HW233078   5.712   0.448   4.503
10727SOL     OW33079   0.232   5.506   5.644
10727SOL    HW133080   0.262   5.454   5.563
10727SOL    HW233081   0.186   5.444   5.708
10728SOL     OW33082   1.082   6.046   6.933
10728SOL    HW133083   1.111   6.043   6.837
10728SOL    HW233084   1.113   6.131   6.975
10729SOL     OW33085   4.719   1.733   2.736
10729SOL    HW133086   4.788   1.665   2.759
10729SOL    HW233087   4.709   1.739   2.637
10730SOL     OW33088   1.893   0.793   1.142
10730SOL    HW133089   1.837   0.856   1.088
10730SOL    HW233090   1.938   0.728   1.080
10731SOL     OW33091   3.200   0.485   0.962
10731SOL    HW133092   3.234   0.392   0.977
10731SOL    HW233093   3.274   0.550   0.981
10732SOL     OW33094   6.234   4.649   4.855
10732SOL    HW133095   6.185   4.717   4.909
10732SOL    HW233096   6.262   4.690   4.768
10733SOL     OW33097   6.378   1.914   0.905
10733SOL    HW133098   6.281   1.895   0.894
10733SOL    HW233099   6.431   1.832   0.882
10734SOL     OW33100   1.079   0.384   0.003
10734SOL    HW133101   0.990   0.368   6.984
10734SOL    HW233102   1.148   0.402   6.958
10735SOL     OW33103   0.467   2.905   2.650
10735SOL    HW133104   0.441   2.808   2.651
10735SOL    HW233105   0.473   2.939   2.744
10736SOL     OW33106   0.926   1.010   3.386
10736SOL    HW133107   0.943   1.076   3.460
10736SOL    HW233108   0.829   0.986   3.385
10737SOL     OW33109   1.206   1.216   0.752
10737SOL    HW133110   1.194   1.259   0.841
10737SOL    HW233111   1.237   1.284   0.685
10738SOL     OW33112   2.465   0.655   2.725
10738SOL    HW133113   2.395   0.663   2.796
10738SOL    HW233114   2.420   0.643   2.636
10739SOL     OW33115   1.407   1.350   0.959
10739SOL    HW133116   1.458   1.368   0.875
10739SOL    HW233117   1.316   1.391   0.952
10740SOL     OW33118   0.375   5.347   5.006
10740SOL    HW133119   0.316   5.356   4.927
10740SOL    HW233120   0.321   5.321   5.086
10741SOL     OW33121   5.135   0.309   1.229
10741SOL    HW133122   5.199   0.234   1.241
10741SOL    HW233123   5.063   0.303   1.299
10742SOL     OW33124   5.739   0.093   1.108
10742SOL    HW133125   5.734   0.095   1.208
10742SOL    HW233126   5.649   0.072   1.070
10743SOL     OW33127   2.297   1.252   5.107
10743SOL    HW133128   2.205   1.291   5.101
10743SOL    HW233129   2.354   1.312   5.163
10744SOL     OW33130   3.578   1.213   0.700
10744SOL    HW133131   3.500   1.255   0.654
10744SOL    HW233132   3.545   1.151   0.772
10745SOL     OW33133   0.224   5.837   6.660
10745SOL    HW133134   0.313   5.873   6.632
10745SOL    HW233135   0.237   5.771   6.734
10746SOL     OW33136   2.375   4.929   1.264
10746SOL    HW133137   2.376   5.000   1.333
10746SOL    HW233138   2.411   4.965   1.178
10747SOL     OW33139   3.531   1.166   4.233
10747SOL    HW133140   3.601   1.118   4.180
10747SOL    HW233141   3.505   1.250   4.187
10748SOL     OW33142   5.497   0.900   1.011
10748SOL    HW133143   5.423   0.885   0.945
10748SOL    HW233144   5.479   0.984   1.063
10749SOL     OW33145   0.438   5.325   3.270
10749SOL    HW133146   0.474   5.358   3.357
10749SOL    HW233147   0.338   5.327   3.272
10750SOL     OW33148   4.305   6.314   4.091
10750SOL    HW133149   4.393   6.302   4.137
10750SOL    HW233150   4.311   6.278   3.997
10751SOL     OW33151   1.644   4.732   4.699
10751SOL    HW133152   1.574   4.701   4.764
10751SOL    HW233153   1.647   4.832   4.699
10752SOL     OW33154   6.196   4.208   5.670
10752SOL    HW133155   6.179   4.152   5.589
10752SOL    HW233156   6.189   4.305   5.646
10753SOL     OW33157   4.807   5.200   4.691
10753SOL    HW133158   4.804   5.103   4.665
10753SOL    HW233159   4.894   5.239   4.661
10754SOL     OW33160   0.645   0.617   3.171
10754SOL    HW133161   0.699   0.624   3.088
10754SOL    HW233162   0.644   0.705   3.218
10755SOL     OW33163   6.963   1.114   0.313
10755SOL    HW133164   6.890   1.135   0.378
10755SOL    HW233165   6.924   1.103   0.221
10756SOL     OW33166   6.382   4.985   6.943
10756SOL    HW133167   6.367   4.901   6.994
10756SOL    HW233168   6.310   4.997   6.876
10757SOL     OW33169   2.082   3.015   0.144
10757SOL    HW133170   2.156   2.982   0.202
10757SOL    HW233171   2.114   3.092   0.089
10758SOL     OW33172   1.057   6.447   4.372
10758SOL    HW133173   1.084   6.472   4.465
10758SOL    HW233174   1.136   6.452   4.312
10759SOL     OW33175   1.623   2.541   1.264
10759SOL    HW133176   1.640   2.498   1.176
10759SOL    HW233177   1.682   2.500   1.333
10760SOL     OW33178   5.663   0.508   2.590
10760SOL    HW133179   5.575   0.510   2.543
10760SOL    HW233180   5.679   0.417   2.627
10761SOL     OW33181   0.975   6.390   6.080
10761SOL    HW133182   0.963   6.408   5.982
10761SOL    HW233183   0.985   6.477   6.129
10762SOL     OW33184   3.720   2.058   4.143
10762SOL    HW133185   3.689   1.971   4.105
10762SOL    HW233186   3.816   2.072   4.117
10763SOL     OW33187   5.346   6.853   2.967
10763SOL    HW133188   5.332   6.918   3.042
10763SOL    HW233189   5.259   6.809   2.945
10764SOL     OW33190   4.504   2.387   6.194
10764SOL    HW133191   4.442   2.408   6.118
10764SOL    HW233192   4.594   2.364   6.158
10765SOL     OW33193   4.876   2.530   0.709
10765SOL    HW133194   4.798   2.524   0.772
10765SOL    HW233195   4.954   2.483   0.749
10766SOL     OW33196   5.491   4.485   0.730
10766SOL    HW133197   5.493   4.402   0.786
10766SOL    HW233198   5.406   4.488   0.678
10767SOL     OW33199   1.855   0.099   0.041
10767SOL    HW133200   1.917   0.042   7.012
10767SOL    HW233201   1.908   0.170   0.088
10768SOL     OW33202   4.866   5.552   1.812
10768SOL    HW133203   4.930   5.477   1.832
10768SOL    HW233204   4.781   5.537   1.863
10769SOL     OW33205   2.505   4.238   5.270
10769SOL    HW133206   2.456   4.167   5.219
10769SOL    HW233207   2.461   4.327   5.254
10770SOL     OW33208   5.638   0.338   4.620
10770SOL    HW133209   5.646   0.288   4.707
10770SOL    HW233210   5.619   0.274   4.546
10771SOL     OW33211   5.793   6.605   3.651
10771SOL    HW133212   5.861   6.547   3.607
10771SOL    HW233213   5.701   6.575   3.624
10772SOL     OW33214   6.115   6.952   4.279
10772SOL    HW133215   6.112   6.987   4.185
10772SOL    HW233216   6.165   6.865   4.280
10773SOL     OW33217   6.162   5.706   6.059
10773SOL    HW133218   6.107   5.626   6.085
10773SOL    HW233219   6.212   5.740   6.139
10774SOL     OW33220   2.123   1.557   6.365
10774SOL    HW133221   2.110   1.531   6.460
10774SOL    HW233222   2.096   1.652   6.351
10775SOL     OW33223   0.389   4.415   1.980
10775SOL    HW133224   0.427   4.498   1.939
10775SOL    HW233225   0.458   4.373   2.039
10776SOL     OW33226   0.293   0.907   6.916
10776SOL    HW133227   0.316   0.892   7.013
10776SOL    HW233228   0.338   0.837   6.861
10777SOL     OW33229   3.977   5.432   2.501
10777SOL    HW133230   3.886   5.416   2.461
10777SOL    HW233231   4.027   5.346   2.505
10778SOL     OW33232   5.088   0.308   4.285
10778SOL    HW133233   5.111   0.289   4.190
10778SOL    HW233234   5.170   0.299   4.342
10779SOL     OW33235   6.315   3.601   3.619
10779SOL    HW133236   6.218   3.607   3.639
10779SOL    HW233237   6.332   3.630   3.525
10780SOL     OW33238   2.037   0.874   3.663
10780SOL    HW133239   1.963   0.923   3.618
10780SOL    HW233240   2.030   0.886   3.762
10781SOL     OW33241   4.438   0.994   4.063
10781SOL    HW133242   4.412   0.956   3.974
10781SOL    HW233243   4.412   0.929   4.135
10782SOL     OW33244   6.960   1.773   1.928
10782SOL    HW133245   0.008   1.841   1.938
10782SOL    HW233246   6.885   1.795   1.991
10783SOL     OW33247   0.561   2.790   2.365
10783SOL    HW133248   0.561   2.847   2.282
10783SOL    HW233249   0.562   2.849   2.445
10784SOL     OW33250   3.707   6.793   4.216
10784SOL    HW133251   3.662   6.857   4.154
10784SOL    HW233252   3.737   6.842   4.298
10785SOL     OW33253   6.650   4.769   0.539
10785SOL    HW133254   6.635   4.834   0.614
10785SOL    HW233255   6.678   4.819   0.457
10786SOL     OW33256   5.899   4.785   3.458
10786SOL    HW133257   5.864   4.735   3.379
10786SOL    HW233258   5.955   4.723   3.513
10787SOL     OW33259   1.987   1.536   5.562
10787SOL    HW133260   2.086   1.538   5.552
10787SOL    HW233261   1.951   1.629   5.558
10788SOL     OW33262   2.092   4.509   6.595
10788SOL    HW133263   2.031   4.480   6.668
10788SOL    HW233264   2.046   4.576   6.537
10789SOL     OW33265   6.526   2.669   6.690
10789SOL    HW133266   6.453   2.690   6.625
10789SOL    HW233267   6.613   2.701   6.654
10790SOL     OW33268   0.604   0.277   1.748
10790SOL    HW133269   0.696   0.258   1.782
10790SOL    HW233270   0.537   0.228   1.803
10791SOL     OW33271   6.650   6.606   1.550
10791SOL    HW133272   6.628   6.547   1.627
10791SOL    HW233273   6.587   6.586   1.474
10792SOL     OW33274   3.620   3.078   4.433
10792SOL    HW133275   3.583   3.004   4.377
10792SOL    HW233276   3.584   3.071   4.526
10793SOL     OW33277   5.873   3.021   5.538
10793SOL    HW133278   5.955   3.013   5.594
10793SOL    HW233279   5.892   3.080   5.459
10794SOL     OW33280   3.993   3.129   4.246
10794SOL    HW133281   3.928   3.076   4.300
10794SOL    HW233282   4.051   3.184   4.307
10795SOL     OW33283   6.953   4.889   2.792
10795SOL    HW133284   6.914   4.828   2.860
10795SOL    HW233285   0.016   4.852   2.761
10796SOL     OW33286   6.258   0.168   6.057
10796SOL    HW133287   6.291   0.177   6.151
10796SOL    HW233288   6.260   0.258   6.013
10797SOL     OW33289   3.008   2.469   1.426
10797SOL    HW133290   3.055   2.430   1.347
10797SOL    HW233291   3.072   2.527   1.477
10798SOL     OW33292   2.642   0.706   0.240
10798SOL    HW133293   2.690   0.618   0.249
10798SOL    HW233294   2.656   0.742   0.148
10799SOL     OW33295   3.611   0.905   2.167
10799SOL    HW133296   3.521   0.912   2.125
10799SOL    HW233297   3.611   0.953   2.255
10800SOL     OW33298   0.393   6.310   6.302
10800SOL    HW133299   0.364   6.357   6.386
10800SOL    HW233300   0.412   6.214   6.322
10801SOL     OW33301   1.207   0.088   6.880
10801SOL    HW133302   1.217   0.061   6.976
10801SOL    HW233303   1.137   0.158   6.872
10802SOL     OW33304   0.706   0.522   2.341
10802SOL    HW133305   0.740   0.428   2.344
10802SOL    HW233306   0.606   0.521   2.340
10803SOL     OW33307   2.201   5.338   5.847
10803SOL    HW133308   2.223   5.415   5.907
10803SOL    HW233309   2.209   5.253   5.898
10804SOL     OW33310   5.902   3.067   2.534
10804SOL    HW133311   5.950   2.995   2.585
10804SOL    HW233312   5.867   3.135   2.598
10805SOL     OW33313   4.918   6.702   5.794
10805SOL    HW133314   4.897   6.753   5.878
10805SOL    HW233315   5.017   6.687   5.789
10806SOL     OW33316   4.171   4.207   5.775
10806SOL    HW133317   4.252   4.151   5.761
10806SOL    HW233318   4.115   4.206   5.692
10807SOL     OW33319   1.711   0.066   3.169
10807SOL    HW133320   1.672   0.002   3.103
10807SOL    HW233321   1.639   0.128   3.201
10808SOL     OW33322   0.273   3.199   6.610
10808SOL    HW133323   0.210   3.131   6.646
10808SOL    HW233324   0.343   3.219   6.679
10809SOL     OW33325   2.303   4.248   3.616
10809SOL    HW133326   2.279   4.280   3.524
10809SOL    HW233327   2.401   4.230   3.620
10810SOL     OW33328   0.898   0.729   3.774
10810SOL    HW133329   0.850   0.817   3.769
10810SOL    HW233330   0.861   0.667   3.705
10811SOL     OW33331   4.056   4.822   5.642
10811SOL    HW133332   4.039   4.910   5.598
10811SOL    HW233333   4.132   4.831   5.706
10812SOL     OW33334   0.155   3.706   0.630
10812SOL    HW133335   0.151   3.788   0.687
10812SOL    HW233336   0.140   3.625   0.687
10813SOL     OW33337   0.877   3.549   5.896
10813SOL    HW133338   0.966   3.506   5.904
10813SOL    HW233339   0.814   3.509   5.963
10814SOL     OW33340   1.345   6.974   6.106
10814SOL    HW133341   1.345   6.877   6.130
10814SOL    HW233342   1.424   7.019   6.148
10815SOL     OW33343   5.513   3.363   3.368
10815SOL    HW133344   5.494   3.307   3.449
10815SOL    HW233345   5.610   3.387   3.367
10816SOL     OW33346   3.137   3.521   2.310
10816SOL    HW133347   3.165   3.602   2.361
10816SOL    HW233348   3.037   3.520   2.301
10817SOL     OW33349   3.876   0.709   3.510
10817SOL    HW133350   3.852   0.804   3.527
10817SOL    HW233351   3.904   0.665   3.595
10818SOL     OW33352   4.952   4.493   5.674
10818SOL    HW133353   5.019   4.554   5.631
10818SOL    HW233354   4.998   4.436   5.742
10819SOL     OW33355   6.130   5.067   6.159
10819SOL    HW133356   6.225   5.073   6.189
10819SOL    HW233357   6.125   5.086   6.061
10820SOL     OW33358   0.373   5.100   4.625
10820SOL    HW133359   0.276   5.102   4.603
10820SOL    HW233360   0.408   5.007   4.610
10821SOL     OW33361   4.512   6.713   3.382
10821SOL    HW133362   4.569   6.794   3.375
10821SOL    HW233363   4.415   6.740   3.380
10822SOL     OW33364   6.213   2.118   2.603
10822SOL    HW133365   6.195   2.042   2.665
10822SOL    HW233366   6.177   2.096   2.512
10823SOL     OW33367   1.186   0.881   2.310
10823SOL    HW133368   1.109   0.835   2.355
10823SOL    HW233369   1.255   0.813   2.283
10824SOL     OW33370   0.504   1.057   2.729
10824SOL    HW133371   0.509   1.119   2.807
10824SOL    HW233372   0.487   1.110   2.645
10825SOL     OW33373   2.303   2.193   6.742
10825SOL    HW133374   2.379   2.251   6.771
10825SOL    HW233375   2.284   2.209   6.646
10826SOL     OW33376   1.000   1.734   3.064
10826SOL    HW133377   1.027   1.646   3.027
10826SOL    HW233378   0.986   1.799   2.989
10827SOL     OW33379   0.274   3.164   5.084
10827SOL    HW133380   0.293   3.182   4.988
10827SOL    HW233381   0.247   3.249   5.130
10828SOL     OW33382   1.384   4.611   0.652
10828SOL    HW133383   1.384   4.576   0.558
10828SOL    HW233384   1.478   4.630   0.681
10829SOL     OW33385   4.881   2.457   0.427
10829SOL    HW133386   4.889   2.454   0.527
10829SOL    HW233387   4.941   2.388   0.386
10830SOL     OW33388   4.532   1.673   3.311
10830SOL    HW133389   4.483   1.604   3.257
10830SOL    HW233390   4.582   1.734   3.250
10831SOL     OW33391   2.896   6.354   2.609
10831SOL    HW133392   2.925   6.439   2.654
10831SOL    HW233393   2.956   6.334   2.532
10832SOL     OW33394   0.014   3.735   6.454
10832SOL    HW133395   0.110   3.707   6.445
10832SOL    HW233396   7.015   3.741   6.551
10833SOL     OW33397   0.605   1.283   1.642
10833SOL    HW133398   0.548   1.264   1.562
10833SOL    HW233399   0.569   1.233   1.721
10834SOL     OW33400   6.308   1.620   0.577
10834SOL    HW133401   6.271   1.711   0.594
10834SOL    HW233402   6.300   1.598   0.480
10835SOL     OW33403   6.058   2.435   0.144
10835SOL    HW133404   6.140   2.490   0.128
10835SOL    HW233405   6.035   2.438   0.241
10836SOL     OW33406   6.784   2.012   4.122
10836SOL    HW133407   6.818   1.933   4.072
10836SOL    HW233408   6.699   2.045   4.081
10837SOL     OW33409   6.790   5.095   1.248
10837SOL    HW133410   6.879   5.118   1.289
10837SOL    HW233411   6.782   5.141   1.160
10838SOL     OW33412   6.592   6.226   4.195
10838SOL    HW133413   6.680   6.185   4.171
10838SOL    HW233414   6.607   6.306   4.253
10839SOL     OW33415   4.402   3.313   0.660
10839SOL    HW133416   4.355   3.291   0.575
10839SOL    HW233417   4.421   3.229   0.711
10840SOL     OW33418   3.001   6.329   2.376
10840SOL    HW133419   2.922   6.350   2.318
10840SOL    HW233420   3.085   6.353   2.327
10841SOL     OW33421   6.757   4.419   5.371
10841SOL    HW133422   6.668   4.439   5.411
10841SOL    HW233423   6.801   4.345   5.422
10842SOL     OW33424   4.823   2.435   1.518
10842SOL    HW133425   4.875   2.515   1.550
10842SOL    HW233426   4.730   2.439   1.553
10843SOL     OW33427   1.307   1.098   1.047
10843SOL    HW133428   1.288   1.114   1.144
10843SOL    HW233429   1.355   1.177   1.009
10844SOL     OW33430   0.576   5.270   3.069
10844SOL    HW133431   0.530   5.301   3.152
10844SOL    HW233432   0.561   5.336   2.996
10845SOL     OW33433   3.830   6.419   5.232
10845SOL    HW133434   3.739   6.460   5.240
10845SOL    HW233435   3.898   6.492   5.231
10846SOL     OW33436   5.072   0.766   6.672
10846SOL    HW133437   5.154   0.749   6.727
10846SOL    HW233438   5.097   0.767   6.575
10847SOL     OW33439   3.389   2.353   0.113
10847SOL    HW133440   3.468   2.401   0.073
10847SOL    HW233441   3.422   2.278   0.170
10848SOL     OW33442   1.584   4.189   0.762
10848SOL    HW133443   1.607   4.137   0.680
10848SOL    HW233444   1.644   4.269   0.768
10849SOL     OW33445   2.796   4.813   4.178
10849SOL    HW133446   2.864   4.797   4.107
10849SOL    HW233447   2.794   4.911   4.200
10850SOL     OW33448   3.633   6.173   5.649
10850SOL    HW133449   3.661   6.084   5.614
10850SOL    HW233450   3.614   6.235   5.573
10851SOL     OW33451   3.321   3.729   0.455
10851SOL    HW133452   3.279   3.819   0.460
10851SOL    HW233453   3.253   3.662   0.422
10852SOL     OW33454   1.796   0.418   6.423
10852SOL    HW133455   1.882   0.462   6.449
10852SOL    HW233456   1.721   0.459   6.476
10853SOL     OW33457   1.663   3.067   5.584
10853SOL    HW133458   1.735   3.114   5.532
10853SOL    HW233459   1.676   2.968   5.577
10854SOL     OW33460   4.316   5.489   5.904
10854SOL    HW133461   4.221   5.502   5.932
10854SOL    HW233462   4.375   5.487   5.985
10855SOL     OW33463   4.157   0.653   0.572
10855SOL    HW133464   4.071   0.703   0.564
10855SOL    HW233465   4.222   0.686   0.503
10856SOL     OW33466   5.356   1.048   1.240
10856SOL    HW133467   5.262   1.013   1.246
10856SOL    HW233468   5.355   1.139   1.200
10857SOL     OW33469   0.823   2.458   2.564
10857SOL    HW133470   0.864   2.453   2.655
10857SOL    HW233471   0.895   2.451   2.495
10858SOL     OW33472   1.157   1.237   0.408
10858SOL    HW133473   1.204   1.313   0.451
10858SOL    HW233474   1.123   1.265   0.318
10859SOL     OW33475   1.059   4.783   4.283
10859SOL    HW133476   1.063   4.767   4.382
10859SOL    HW233477   1.128   4.851   4.257
10860SOL     OW33478   0.472   3.175   5.265
10860SOL    HW133479   0.428   3.190   5.177
10860SOL    HW233480   0.412   3.120   5.324
10861SOL     OW33481   3.422   3.685   3.249
10861SOL    HW133482   3.443   3.702   3.152
10861SOL    HW233483   3.429   3.587   3.268
10862SOL     OW33484   2.050   0.914   6.050
10862SOL    HW133485   1.953   0.904   6.074
10862SOL    HW233486   2.102   0.939   6.132
10863SOL     OW33487   2.571   0.605   4.149
10863SOL    HW133488   2.633   0.562   4.215
10863SOL    HW233489   2.586   0.565   4.058
10864SOL     OW33490   2.398   6.225   7.020
10864SOL    HW133491   2.423   6.152   0.059
10864SOL    HW233492   2.480   6.257   6.973
10865SOL     OW33493   6.617   1.360   0.917
10865SOL    HW133494   6.519   1.379   0.907
10865SOL    HW233495   6.663   1.442   0.951
10866SOL     OW33496   5.280   4.205   0.549
10866SOL    HW133497   5.284   4.107   0.530
10866SOL    HW233498   5.270   4.219   0.648
10867SOL     OW33499   3.267   4.224   0.728
10867SOL    HW133500   3.285   4.238   0.826
10867SOL    HW233501   3.289   4.130   0.704
10868SOL     OW33502   5.074   1.235   3.924
10868SOL    HW133503   5.066   1.334   3.915
10868SOL    HW233504   5.168   1.207   3.903
10869NA      NA33505   6.357   2.835   5.235
10870NA      NA33506   4.387   4.379   5.342
10871NA      NA33507   1.695   2.995   1.663
10872NA      NA33508   4.931   3.803   5.154
10873NA      NA33509   4.315   2.448   5.290
10874NA      NA33510   3.577   4.935   1.820
10875NA      NA33511   6.604   4.896   6.829
10876NA      NA33512   3.565   3.331   4.397
10877NA      NA33513   4.771   5.948   0.095
10878NA      NA33514   4.077   6.467   4.919
10879NA      NA33515   6.125   5.207   2.019
10880NA      NA33516   2.102   6.888   3.760
10881NA      NA33517   4.020   5.656   2.412
10882NA      NA33518   3.586   3.999   1.972
   7.02465   7.02465   7.02465
