Generated by trjconv : CNT in water t= 112.00000
33518
    1C        C    1   2.842   2.768   4.742
    1C        C    2   2.899   2.721   4.862
    1C        C    3   2.839   2.769   4.979
    1C        C    4   2.843   2.770   4.256
    1C        C    5   2.898   2.725   4.378
    1C        C    6   2.839   2.768   4.499
    1C        C    7   3.010   2.639   4.621
    1C        C    8   2.893   2.720   4.620
    1C        C    9   3.074   2.603   4.741
    1C        C   10   3.007   2.630   4.863
    1C        C   11   3.177   2.491   4.972
    1C        C   12   3.058   2.565   4.976
    1C        C   13   2.844   2.765   3.767
    1C        C   14   2.893   2.718   3.891
    1C        C   15   2.839   2.765   4.012
    1C        C   16   3.016   2.646   4.135
    1C        C   17   2.898   2.724   4.134
    1C        C   18   3.079   2.611   4.256
    1C        C   19   3.016   2.647   4.377
    1C        C   20   3.206   2.559   4.500
    1C        C   21   3.073   2.606   4.499
    1C        C   22   3.275   2.534   4.621
    1C        C   23   3.206   2.550   4.743
    1C        C   24   3.409   2.485   4.862
    1C        C   25   3.267   2.499   4.861
    1C        C   26   3.485   2.481   4.980
    1C        C   27   2.848   2.764   3.281
    1C        C   28   2.901   2.719   3.404
    1C        C   29   2.849   2.768   3.526
    1C        C   30   3.019   2.638   3.648
    1C        C   31   2.904   2.720   3.647
    1C        C   32   3.076   2.602   3.772
    1C        C   33   3.010   2.639   3.891
    1C        C   34   3.205   2.553   4.012
    1C        C   35   3.074   2.606   4.013
    1C        C   36   3.275   2.532   4.133
    1C        C   37   3.207   2.550   4.255
    1C        C   38   3.413   2.510   4.377
    1C        C   39   3.273   2.531   4.379
    1C        C   40   3.484   2.503   4.499
    1C        C   41   3.413   2.503   4.622
    1C        C   42   3.627   2.481   4.741
    1C        C   43   3.485   2.483   4.742
    1C        C   44   3.701   2.483   4.861
    1C        C   45   3.624   2.476   4.977
    1C        C   46   2.836   2.752   2.792
    1C        C   47   2.895   2.713   2.914
    1C        C   48   2.845   2.764   3.036
    1C        C   49   3.014   2.636   3.161
    1C        C   50   2.899   2.718   3.158
    1C        C   51   3.077   2.599   3.282
    1C        C   52   3.015   2.636   3.404
    1C        C   53   3.208   2.545   3.524
    1C        C   54   3.079   2.602   3.525
    1C        C   55   3.275   2.525   3.647
    1C        C   56   3.208   2.550   3.768
    1C        C   57   3.414   2.503   3.890
    1C        C   58   3.275   2.529   3.891
    1C        C   59   3.485   2.500   4.012
    1C        C   60   3.414   2.507   4.135
    1C        C   61   3.626   2.493   4.256
    1C        C   62   3.485   2.496   4.257
    1C        C   63   3.696   2.503   4.379
    1C        C   64   3.625   2.496   4.500
    1C        C   65   3.834   2.542   4.620
    1C        C   66   3.698   2.504   4.621
    1C        C   67   3.899   2.564   4.744
    1C        C   68   3.837   2.520   4.863
    1C        C   69   4.049   2.584   4.973
    1C        C   70   3.918   2.535   4.977
    1C        C   71   2.819   2.729   2.307
    1C        C   72   2.879   2.689   2.429
    1C        C   73   2.826   2.742   2.549
    1C        C   74   3.006   2.626   2.672
    1C        C   75   2.885   2.700   2.670
    1C        C   76   3.068   2.592   2.794
    1C        C   77   3.017   2.641   2.916
    1C        C   78   3.204   2.543   3.032
    1C        C   79   3.075   2.601   3.039
    1C        C   80   3.271   2.523   3.155
    1C        C   81   3.207   2.545   3.279
    1C        C   82   3.413   2.495   3.398
    1C        C   83   3.274   2.523   3.401
    1C        C   84   3.481   2.486   3.521
    1C        C   85   3.413   2.494   3.644
    1C        C   86   3.624   2.497   3.767
    1C        C   87   3.482   2.495   3.767
    1C        C   88   3.693   2.506   3.889
    1C        C   89   3.626   2.495   4.013
    1C        C   90   3.832   2.540   4.133
    1C        C   91   3.698   2.497   4.135
    1C        C   92   3.900   2.566   4.255
    1C        C   93   3.832   2.541   4.376
    1C        C   94   4.024   2.633   4.493
    1C        C   95   3.900   2.565   4.497
    1C        C   96   4.083   2.668   4.617
    1C        C   97   4.026   2.626   4.739
    1C        C   98   4.190   2.765   4.858
    1C        C   99   4.094   2.658   4.859
    1C        C  100   4.213   2.839   4.974
    1C        C  101   2.818   2.728   2.068
    1C        C  102   2.985   2.588   2.186
    1C        C  103   2.871   2.675   2.187
    1C        C  104   3.056   2.568   2.308
    1C        C  105   2.995   2.609   2.428
    1C        C  106   3.197   2.538   2.547
    1C        C  107   3.064   2.585   2.550
    1C        C  108   3.269   2.524   2.668
    1C        C  109   3.198   2.537   2.789
    1C        C  110   3.409   2.499   2.911
    1C        C  111   3.269   2.516   2.909
    1C        C  112   3.480   2.487   3.032
    1C        C  113   3.409   2.493   3.155
    1C        C  114   3.624   2.494   3.277
    1C        C  115   3.483   2.489   3.275
    1C        C  116   3.692   2.501   3.400
    1C        C  117   3.622   2.495   3.523
    1C        C  118   3.833   2.531   3.644
    1C        C  119   3.694   2.505   3.645
    1C        C  120   3.896   2.563   3.766
    1C        C  121   3.829   2.545   3.889
    1C        C  122   4.021   2.637   4.008
    1C        C  123   3.894   2.575   4.011
    1C        C  124   4.082   2.673   4.131
    1C        C  125   4.025   2.631   4.253
    1C        C  126   4.195   2.763   4.374
    1C        C  127   4.087   2.672   4.373
    1C        C  128   4.242   2.813   4.498
    1C        C  129   4.189   2.762   4.618
    1C        C  130   4.326   2.932   4.737
    1C        C  131   4.243   2.816   4.737
    1C        C  132   4.354   2.999   4.858
    1C        C  133   4.282   2.960   4.971
    1C        C  134   3.167   2.461   2.080
    1C        C  135   3.036   2.511   2.077
    1C        C  136   3.255   2.473   2.189
    1C        C  137   3.189   2.517   2.305
    1C        C  138   3.400   2.478   2.423
    1C        C  139   3.261   2.503   2.426
    1C        C  140   3.475   2.481   2.543
    1C        C  141   3.408   2.497   2.666
    1C        C  142   3.620   2.491   2.789
    1C        C  143   3.479   2.496   2.788
    1C        C  144   3.692   2.498   2.910
    1C        C  145   3.621   2.490   3.032
    1C        C  146   3.831   2.529   3.152
    1C        C  147   3.693   2.497   3.153
    1C        C  148   3.894   2.558   3.275
    1C        C  149   3.829   2.535   3.399
    1C        C  150   4.023   2.621   3.519
    1C        C  151   3.898   2.555   3.521
    1C        C  152   4.082   2.661   3.640
    1C        C  153   4.017   2.636   3.763
    1C        C  154   4.191   2.760   3.883
    1C        C  155   4.077   2.676   3.885
    1C        C  156   4.243   2.806   4.006
    1C        C  157   4.195   2.758   4.130
    1C        C  158   4.334   2.920   4.251
    1C        C  159   4.245   2.810   4.251
    1C        C  160   4.375   2.980   4.373
    1C        C  161   4.329   2.924   4.494
    1C        C  162   4.437   3.111   4.611
    1C        C  163   4.368   2.988   4.614
    1C        C  164   4.466   3.179   4.732
    1C        C  165   4.434   3.115   4.854
    1C        C  166   4.512   3.316   4.966
    1C        C  167   4.477   3.181   4.969
    1C        C  168   3.470   2.435   2.069
    1C        C  169   3.395   2.454   2.186
    1C        C  170   3.615   2.461   2.304
    1C        C  171   3.473   2.462   2.304
    1C        C  172   3.687   2.480   2.423
    1C        C  173   3.616   2.481   2.546
    1C        C  174   3.825   2.532   2.662
    1C        C  175   3.688   2.496   2.666
    1C        C  176   3.893   2.555   2.784
    1C        C  177   3.829   2.533   2.908
    1C        C  178   4.022   2.621   3.028
    1C        C  179   3.897   2.556   3.030
    1C        C  180   4.082   2.660   3.151
    1C        C  181   4.017   2.626   3.272
    1C        C  182   4.187   2.750   3.395
    1C        C  183   4.078   2.660   3.395
    1C        C  184   4.240   2.801   3.516
    1C        C  185   4.192   2.750   3.639
    1C        C  186   4.331   2.913   3.762
    1C        C  187   4.245   2.801   3.759
    1C        C  188   4.367   2.977   3.883
    1C        C  189   4.328   2.919   4.006
    1C        C  190   4.436   3.102   4.124
    1C        C  191   4.372   2.976   4.127
    1C        C  192   4.463   3.169   4.245
    1C        C  193   4.438   3.106   4.369
    1C        C  194   4.508   3.311   4.486
    1C        C  195   4.465   3.176   4.489
    1C        C  196   4.517   3.382   4.608
    1C        C  197   4.505   3.315   4.733
    1C        C  198   4.554   3.532   4.844
    1C        C  199   4.534   3.390   4.850
    1C        C  200   4.583   3.614   4.958
    1C        C  201   3.609   2.419   2.069
    1C        C  202   3.824   2.504   2.181
    1C        C  203   3.688   2.460   2.182
    1C        C  204   3.894   2.538   2.300
    1C        C  205   3.823   2.518   2.420
    1C        C  206   4.019   2.613   2.540
    1C        C  207   3.891   2.553   2.539
    1C        C  208   4.081   2.649   2.661
    1C        C  209   4.021   2.615   2.784
    1C        C  210   4.192   2.743   2.903
    1C        C  211   4.083   2.654   2.905
    1C        C  212   4.247   2.790   3.025
    1C        C  213   4.196   2.743   3.148
    1C        C  214   4.330   2.904   3.270
    1C        C  215   4.241   2.794   3.272
    1C        C  216   4.366   2.968   3.391
    1C        C  217   4.328   2.911   3.515
    1C        C  218   4.430   3.096   3.636
    1C        C  219   4.366   2.970   3.637
    1C        C  220   4.457   3.166   3.756
    1C        C  221   4.436   3.100   3.879
    1C        C  222   4.497   3.303   3.998
    1C        C  223   4.465   3.165   4.001
    1C        C  224   4.510   3.374   4.120
    1C        C  225   4.502   3.305   4.243
    1C        C  226   4.515   3.519   4.359
    1C        C  227   4.517   3.378   4.363
    1C        C  228   4.513   3.591   4.481
    1C        C  229   4.526   3.522   4.604
    1C        C  230   4.507   3.740   4.719
    1C        C  231   4.535   3.601   4.721
    1C        C  232   4.493   3.810   4.840
    1C        C  233   4.536   3.747   4.958
    1C        C  234   4.011   2.607   2.061
    1C        C  235   3.892   2.535   2.062
    1C        C  236   4.080   2.643   2.177
    1C        C  237   4.021   2.602   2.298
    1C        C  238   4.196   2.732   2.417
    1C        C  239   4.082   2.646   2.418
    1C        C  240   4.251   2.779   2.539
    1C        C  241   4.196   2.731   2.660
    1C        C  242   4.329   2.902   2.781
    1C        C  243   4.241   2.791   2.780
    1C        C  244   4.373   2.958   2.903
    1C        C  245   4.337   2.899   3.026
    1C        C  246   4.434   3.087   3.145
    1C        C  247   4.373   2.960   3.148
    1C        C  248   4.455   3.157   3.266
    1C        C  249   4.421   3.098   3.390
    1C        C  250   4.483   3.300   3.509
    1C        C  251   4.448   3.163   3.513
    1C        C  252   4.498   3.370   3.630
    1C        C  253   4.497   3.302   3.754
    1C        C  254   4.521   3.513   3.872
    1C        C  255   4.512   3.372   3.876
    1C        C  256   4.515   3.584   3.994
    1C        C  257   4.518   3.515   4.117
    1C        C  258   4.491   3.728   4.235
    1C        C  259   4.518   3.590   4.237
    1C        C  260   4.465   3.797   4.356
    1C        C  261   4.484   3.729   4.478
    1C        C  262   4.418   3.935   4.599
    1C        C  263   4.472   3.804   4.598
    1C        C  264   4.391   4.001   4.720
    1C        C  265   4.428   3.935   4.840
    1C        C  266   4.327   4.130   4.950
    1C        C  267   4.388   4.005   4.955
    1C        C  268   4.261   2.768   2.061
    1C        C  269   4.195   2.726   2.176
    1C        C  270   4.344   2.884   2.296
    1C        C  271   4.251   2.777   2.295
    1C        C  272   4.375   2.953   2.416
    1C        C  273   4.342   2.887   2.536
    1C        C  274   4.439   3.078   2.658
    1C        C  275   4.370   2.955   2.656
    1C        C  276   4.468   3.147   2.778
    1C        C  277   4.440   3.082   2.900
    1C        C  278   4.497   3.287   3.021
    1C        C  279   4.466   3.149   3.022
    1C        C  280   4.510   3.360   3.141
    1C        C  281   4.495   3.293   3.264
    1C        C  282   4.511   3.507   3.385
    1C        C  283   4.501   3.366   3.385
    1C        C  284   4.512   3.579   3.506
    1C        C  285   4.510   3.511   3.630
    1C        C  286   4.489   3.723   3.747
    1C        C  287   4.514   3.584   3.750
    1C        C  288   4.474   3.793   3.869
    1C        C  289   4.490   3.723   3.991
    1C        C  290   4.421   3.926   4.112
    1C        C  291   4.473   3.795   4.112
    1C        C  292   4.387   3.992   4.233
    1C        C  293   4.419   3.930   4.356
    1C        C  294   4.319   4.121   4.477
    1C        C  295   4.388   3.998   4.476
    1C        C  296   4.278   4.185   4.596
    1C        C  297   4.319   4.124   4.717
    1C        C  298   4.197   4.309   4.837
    1C        C  299   4.287   4.198   4.834
    1C        C  300   4.165   4.401   4.942
    1C        C  301   4.352   2.873   2.060
    1C        C  302   4.469   3.062   2.174
    1C        C  303   4.395   2.940   2.175
    1C        C  304   4.477   3.141   2.292
    1C        C  305   4.438   3.079   2.413
    1C        C  306   4.504   3.280   2.532
    1C        C  307   4.468   3.143   2.536
    1C        C  308   4.512   3.352   2.653
    1C        C  309   4.500   3.284   2.776
    1C        C  310   4.520   3.497   2.896
    1C        C  311   4.511   3.356   2.898
    1C        C  312   4.514   3.570   3.017
    1C        C  313   4.511   3.501   3.140
    1C        C  314   4.487   3.715   3.257
    1C        C  315   4.507   3.575   3.261
    1C        C  316   4.473   3.785   3.379
    1C        C  317   4.487   3.718   3.502
    1C        C  318   4.426   3.923   3.622
    1C        C  319   4.472   3.789   3.624
    1C        C  320   4.392   3.986   3.744
    1C        C  321   4.417   3.922   3.867
    1C        C  322   4.314   4.107   3.990
    1C        C  323   4.389   3.988   3.989
    1C        C  324   4.270   4.168   4.110
    1C        C  325   4.311   4.111   4.233
    1C        C  326   4.178   4.277   4.352
    1C        C  327   4.276   4.175   4.354
    1C        C  328   4.127   4.332   4.471
    1C        C  329   4.184   4.290   4.594
    1C        C  330   4.022   4.432   4.712
    1C        C  331   4.133   4.342   4.714
    1C        C  332   3.964   4.488   4.828
    1C        C  333   4.045   4.473   4.942
    1C        C  334   4.547   3.262   2.060
    1C        C  335   4.531   3.123   2.061
    1C        C  336   4.532   3.348   2.170
    1C        C  337   4.516   3.278   2.292
    1C        C  338   4.522   3.492   2.407
    1C        C  339   4.523   3.351   2.412
    1C        C  340   4.518   3.564   2.529
    1C        C  341   4.519   3.493   2.651
    1C        C  342   4.488   3.704   2.768
    1C        C  343   4.516   3.565   2.773
    1C        C  344   4.475   3.776   2.889
    1C        C  345   4.494   3.709   3.013
    1C        C  346   4.421   3.912   3.134
    1C        C  347   4.474   3.781   3.133
    1C        C  348   4.390   3.977   3.256
    1C        C  349   4.428   3.919   3.379
    1C        C  350   4.308   4.097   3.498
    1C        C  351   4.391   3.983   3.499
    1C        C  352   4.266   4.157   3.619
    1C        C  353   4.316   4.105   3.741
    1C        C  354   4.165   4.250   3.865
    1C        C  355   4.270   4.155   3.864
    1C        C  356   4.111   4.303   3.984
    1C        C  357   4.168   4.266   4.108
    1C        C  358   4.005   4.402   4.227
    1C        C  359   4.118   4.316   4.230
    1C        C  360   3.948   4.444   4.349
    1C        C  361   4.010   4.412   4.471
    1C        C  362   3.825   4.517   4.590
    1C        C  363   3.950   4.453   4.593
    1C        C  364   3.758   4.547   4.711
    1C        C  365   3.832   4.539   4.831
    1C        C  366   3.622   4.584   4.946
    1C        C  367   3.760   4.567   4.948
    1C        C  368   4.504   3.562   2.047
    1C        C  369   4.519   3.488   2.165
    1C        C  370   4.495   3.703   2.282
    1C        C  371   4.517   3.563   2.285
    1C        C  372   4.479   3.773   2.403
    1C        C  373   4.499   3.704   2.525
    1C        C  374   4.425   3.905   2.645
    1C        C  375   4.476   3.773   2.646
    1C        C  376   4.393   3.970   2.767
    1C        C  377   4.423   3.907   2.890
    1C        C  378   4.313   4.091   3.007
    1C        C  379   4.387   3.971   3.010
    1C        C  380   4.267   4.149   3.128
    1C        C  381   4.306   4.091   3.251
    1C        C  382   4.171   4.253   3.374
    1C        C  383   4.266   4.149   3.373
    1C        C  384   4.118   4.303   3.495
    1C        C  385   4.170   4.260   3.619
    1C        C  386   4.001   4.385   3.739
    1C        C  387   4.115   4.302   3.743
    1C        C  388   3.936   4.419   3.859
    1C        C  389   3.996   4.385   3.983
    1C        C  390   3.813   4.490   4.105
    1C        C  391   3.942   4.432   4.104
    1C        C  392   3.748   4.518   4.228
    1C        C  393   3.819   4.500   4.349
    1C        C  394   3.614   4.559   4.469
    1C        C  395   3.753   4.533   4.470
    1C        C  396   3.544   4.570   4.591
    1C        C  397   3.619   4.570   4.711
    1C        C  398   3.403   4.558   4.836
    1C        C  399   3.543   4.573   4.831
    1C        C  400   3.339   4.516   4.954
    1C        C  401   4.511   3.701   2.047
    1C        C  402   4.450   3.913   2.163
    1C        C  403   4.489   3.777   2.162
    1C        C  404   4.410   3.976   2.283
    1C        C  405   4.434   3.906   2.403
    1C        C  406   4.320   4.089   2.523
    1C        C  407   4.400   3.972   2.524
    1C        C  408   4.268   4.142   2.643
    1C        C  409   4.316   4.089   2.765
    1C        C  410   4.168   4.244   2.886
    1C        C  411   4.271   4.148   2.885
    1C        C  412   4.114   4.295   3.006
    1C        C  413   4.169   4.251   3.128
    1C        C  414   3.999   4.376   3.248
    1C        C  415   4.117   4.298   3.251
    1C        C  416   3.941   4.416   3.370
    1C        C  417   4.001   4.382   3.493
    1C        C  418   3.813   4.479   3.616
    1C        C  419   3.941   4.419   3.616
    1C        C  420   3.742   4.501   3.737
    1C        C  421   3.807   4.477   3.860
    1C        C  422   3.607   4.540   3.983
    1C        C  423   3.746   4.510   3.983
    1C        C  424   3.537   4.546   4.106
    1C        C  425   3.609   4.546   4.227
    1C        C  426   3.398   4.552   4.353
    1C        C  427   3.539   4.560   4.349
    1C        C  428   3.327   4.552   4.475
    1C        C  429   3.404   4.557   4.594
    1C        C  430   3.192   4.519   4.719
    1C        C  431   3.332   4.546   4.715
    1C        C  432   3.121   4.497   4.840
    1C        C  433   3.202   4.494   4.954
    1C        C  434   4.379   4.121   2.048
    1C        C  435   4.441   3.995   2.049
    1C        C  436   4.295   4.155   2.159
    1C        C  437   4.331   4.094   2.283
    1C        C  438   4.177   4.247   2.399
    1C        C  439   4.278   4.148   2.402
    1C        C  440   4.124   4.298   2.519
    1C        C  441   4.171   4.245   2.641
    1C        C  442   3.999   4.369   2.760
    1C        C  443   4.115   4.288   2.763
    1C        C  444   3.936   4.408   2.881
    1C        C  445   3.995   4.372   3.004
    1C        C  446   3.806   4.466   3.129
    1C        C  447   3.935   4.409   3.126
    1C        C  448   3.742   4.494   3.252
    1C        C  449   3.811   4.474   3.373
    1C        C  450   3.606   4.531   3.495
    1C        C  451   3.744   4.499   3.495
    1C        C  452   3.536   4.545   3.617
    1C        C  453   3.606   4.537   3.740
    1C        C  454   3.395   4.548   3.862
    1C        C  455   3.536   4.554   3.862
    1C        C  456   3.327   4.533   3.985
    1C        C  457   3.396   4.539   4.108
    1C        C  458   3.190   4.508   4.235
    1C        C  459   3.328   4.535   4.232
    1C        C  460   3.121   4.489   4.357
    1C        C  461   3.189   4.521   4.476
    1C        C  462   2.998   4.429   4.600
    1C        C  463   3.123   4.495   4.598
    1C        C  464   2.931   4.397   4.720
    1C        C  465   2.991   4.438   4.842
    1C        C  466   2.799   4.338   4.951
    1C        C  467   2.908   4.426   4.959
    1C        C  468   4.119   4.282   2.037
    1C        C  469   4.184   4.244   2.156
    1C        C  470   4.001   4.364   2.275
    1C        C  471   4.123   4.291   2.276
    1C        C  472   3.935   4.395   2.396
    1C        C  473   3.999   4.364   2.518
    1C        C  474   3.807   4.462   2.640
    1C        C  475   3.935   4.401   2.638
    1C        C  476   3.741   4.491   2.762
    1C        C  477   3.807   4.465   2.884
    1C        C  478   3.601   4.517   3.007
    1C        C  479   3.740   4.488   3.006
    1C        C  480   3.532   4.529   3.130
    1C        C  481   3.604   4.522   3.252
    1C        C  482   3.393   4.540   3.374
    1C        C  483   3.534   4.538   3.374
    1C        C  484   3.324   4.535   3.497
    1C        C  485   3.395   4.548   3.619
    1C        C  486   3.187   4.509   3.742
    1C        C  487   3.323   4.546   3.740
    1C        C  488   3.126   4.476   3.865
    1C        C  489   3.189   4.500   3.988
    1C        C  490   3.003   4.408   4.113
    1C        C  491   3.126   4.478   4.112
    1C        C  492   2.940   4.376   4.236
    1C        C  493   2.997   4.420   4.357
    1C        C  494   2.827   4.297   4.483
    1C        C  495   2.937   4.385   4.480
    1C        C  496   2.768   4.250   4.602
    1C        C  497   2.820   4.309   4.719
    1C        C  498   2.664   4.160   4.842
    1C        C  499   2.756   4.267   4.838
    1C        C  500   2.592   4.115   4.953
    1C        C  501   4.004   4.361   2.037
    1C        C  502   3.810   4.460   2.153
    1C        C  503   3.939   4.401   2.154
    1C        C  504   3.742   4.484   2.275
    1C        C  505   3.808   4.456   2.396
    1C        C  506   3.602   4.506   2.516
    1C        C  507   3.741   4.483   2.517
    1C        C  508   3.533   4.518   2.639
    1C        C  509   3.603   4.519   2.761
    1C        C  510   3.392   4.527   2.885
    1C        C  511   3.533   4.527   2.884
    1C        C  512   3.320   4.526   3.006
    1C        C  513   3.391   4.536   3.128
    1C        C  514   3.185   4.505   3.253
    1C        C  515   3.323   4.535   3.252
    1C        C  516   3.120   4.476   3.376
    1C        C  517   3.186   4.504   3.498
    1C        C  518   2.998   4.412   3.624
    1C        C  519   3.119   4.484   3.620
    1C        C  520   2.940   4.370   3.746
    1C        C  521   3.004   4.404   3.867
    1C        C  522   2.838   4.275   3.993
    1C        C  523   2.946   4.366   3.991
    1C        C  524   2.790   4.226   4.117
    1C        C  525   2.832   4.285   4.238
    1C        C  526   2.697   4.126   4.361
    1C        C  527   2.779   4.241   4.362
    1C        C  528   2.654   4.068   4.482
    1C        C  529   2.684   4.136   4.603
    1C        C  530   2.585   3.952   4.727
    1C        C  531   2.638   4.084   4.726
    1C        C  532   2.537   3.899   4.850
    1C        C  533   2.529   3.990   4.960
    1C        C  534   3.613   4.557   2.040
    1C        C  535   3.747   4.514   2.040
    1C        C  536   3.532   4.535   2.155
    1C        C  537   3.603   4.514   2.276
    1C        C  538   3.388   4.520   2.397
    1C        C  539   3.529   4.522   2.396
    1C        C  540   3.320   4.509   2.520
    1C        C  541   3.391   4.512   2.642
    1C        C  542   3.183   4.482   2.765
    1C        C  543   3.320   4.515   2.764
    1C        C  544   3.116   4.463   2.888
    1C        C  545   3.184   4.486   3.009
    1C        C  546   2.996   4.401   3.134
    1C        C  547   3.119   4.471   3.133
    1C        C  548   2.941   4.360   3.257
    1C        C  549   2.998   4.406   3.378
    1C        C  550   2.838   4.272   3.502
    1C        C  551   2.941   4.368   3.502
    1C        C  552   2.789   4.222   3.625
    1C        C  553   2.833   4.278   3.747
    1C        C  554   2.704   4.114   3.869
    1C        C  555   2.785   4.230   3.871
    1C        C  556   2.665   4.058   3.993
    1C        C  557   2.698   4.119   4.117
    1C        C  558   2.595   3.937   4.242
    1C        C  559   2.661   4.062   4.240
    1C        C  560   2.564   3.873   4.364
    1C        C  561   2.586   3.944   4.484
    1C        C  562   2.525   3.746   4.613
    1C        C  563   2.555   3.884   4.607
    1C        C  564   2.511   3.678   4.736
    1C        C  565   2.518   3.757   4.854
    1C        C  566   2.524   3.539   4.973
    1C        C  567   2.528   3.678   4.969
    1C        C  568   3.320   4.476   2.039
    1C        C  569   3.394   4.501   2.155
    1C        C  570   3.178   4.478   2.277
    1C        C  571   3.317   4.506   2.275
    1C        C  572   3.112   4.463   2.401
    1C        C  573   3.181   4.486   2.522
    1C        C  574   2.984   4.403   2.645
    1C        C  575   3.114   4.460   2.644
    1C        C  576   2.930   4.358   2.767
    1C        C  577   2.993   4.393   2.889
    1C        C  578   2.827   4.270   3.012
    1C        C  579   2.935   4.360   3.013
    1C        C  580   2.779   4.220   3.135
    1C        C  581   2.835   4.267   3.256
    1C        C  582   2.706   4.103   3.382
    1C        C  583   2.791   4.216   3.381
    1C        C  584   2.661   4.050   3.505
    1C        C  585   2.702   4.111   3.625
    1C        C  586   2.592   3.931   3.752
    1C        C  587   2.662   4.054   3.748
    1C        C  588   2.569   3.869   3.877
    1C        C  589   2.605   3.930   3.999
    1C        C  590   2.530   3.732   4.125
    1C        C  591   2.572   3.867   4.121
    1C        C  592   2.514   3.666   4.249
    1C        C  593   2.526   3.737   4.371
    1C        C  594   2.505   3.529   4.495
    1C        C  595   2.514   3.670   4.494
    1C        C  596   2.508   3.458   4.617
    1C        C  597   2.510   3.535   4.735
    1C        C  598   2.516   3.321   4.858
    1C        C  599   2.514   3.462   4.856
    1C        C  600   2.522   3.245   4.976
    1C        C  601   3.185   4.446   2.037
    1C        C  602   2.977   4.394   2.158
    1C        C  603   3.111   4.446   2.156
    1C        C  604   2.923   4.354   2.283
    1C        C  605   2.989   4.393   2.402
    1C        C  606   2.819   4.268   2.525
    1C        C  607   2.927   4.358   2.524
    1C        C  608   2.769   4.218   2.647
    1C        C  609   2.822   4.268   2.768
    1C        C  610   2.689   4.106   2.893
    1C        C  611   2.774   4.218   2.891
    1C        C  612   2.653   4.046   3.016
    1C        C  613   2.694   4.107   3.137
    1C        C  614   2.589   3.925   3.263
    1C        C  615   2.658   4.048   3.261
    1C        C  616   2.565   3.862   3.387
    1C        C  617   2.593   3.926   3.510
    1C        C  618   2.523   3.727   3.636
    1C        C  619   2.565   3.862   3.632
    1C        C  620   2.514   3.661   3.761
    1C        C  621   2.529   3.733   3.881
    1C        C  622   2.502   3.522   4.008
    1C        C  623   2.517   3.663   4.003
    1C        C  624   2.510   3.452   4.130
    1C        C  625   2.514   3.525   4.251
    1C        C  626   2.529   3.317   4.377
    1C        C  627   2.509   3.457   4.374
    1C        C  628   2.553   3.248   4.498
    1C        C  629   2.533   3.319   4.618
    1C        C  630   2.588   3.113   4.741
    1C        C  631   2.543   3.248   4.740
    1C        C  632   2.610   3.042   4.863
    1C        C  633   2.551   3.108   4.976
    1C        C  634   2.777   4.302   2.052
    1C        C  635   2.888   4.388   2.047
    1C        C  636   2.749   4.225   2.165
    1C        C  637   2.810   4.268   2.284
    1C        C  638   2.682   4.101   2.408
    1C        C  639   2.760   4.218   2.407
    1C        C  640   2.642   4.042   2.530
    1C        C  641   2.685   4.104   2.650
    1C        C  642   2.588   3.917   2.775
    1C        C  643   2.648   4.045   2.773
    1C        C  644   2.560   3.854   2.899
    1C        C  645   2.590   3.920   3.020
    1C        C  646   2.524   3.719   3.146
    1C        C  647   2.563   3.855   3.143
    1C        C  648   2.512   3.653   3.270
    1C        C  649   2.526   3.727   3.390
    1C        C  650   2.506   3.517   3.513
    1C        C  651   2.518   3.658   3.513
    1C        C  652   2.506   3.449   3.636
    1C        C  653   2.506   3.520   3.759
    1C        C  654   2.530   3.315   3.886
    1C        C  655   2.503   3.454   3.884
    1C        C  656   2.548   3.247   4.008
    1C        C  657   2.530   3.312   4.132
    1C        C  658   2.592   3.112   4.254
    1C        C  659   2.546   3.246   4.256
    1C        C  660   2.624   3.048   4.376
    1C        C  661   2.597   3.114   4.498
    1C        C  662   2.704   2.933   4.620
    1C        C  663   2.624   3.050   4.620
    1C        C  664   2.748   2.875   4.741
    1C        C  665   2.693   2.925   4.862
    1C        C  666   2.743   2.868   4.980
    1C        C  667   2.681   4.015   2.054
    1C        C  668   2.687   4.098   2.167
    1C        C  669   2.583   3.910   2.290
    1C        C  670   2.643   4.039   2.287
    1C        C  671   2.553   3.845   2.412
    1C        C  672   2.578   3.916   2.532
    1C        C  673   2.515   3.716   2.657
    1C        C  674   2.554   3.852   2.655
    1C        C  675   2.502   3.646   2.780
    1C        C  676   2.521   3.718   2.900
    1C        C  677   2.500   3.510   3.027
    1C        C  678   2.512   3.650   3.023
    1C        C  679   2.510   3.439   3.149
    1C        C  680   2.506   3.511   3.270
    1C        C  681   2.526   3.303   3.398
    1C        C  682   2.503   3.442   3.393
    1C        C  683   2.545   3.237   3.522
    1C        C  684   2.527   3.309   3.642
    1C        C  685   2.601   3.113   3.768
    1C        C  686   2.546   3.244   3.765
    1C        C  687   2.634   3.049   3.890
    1C        C  688   2.602   3.116   4.010
    1C        C  689   2.704   2.931   4.134
    1C        C  690   2.629   3.051   4.132
    1C        C  691   2.749   2.875   4.256
    1C        C  692   2.706   2.933   4.377
    1C        C  693   2.742   2.871   4.499
    1C        C  694   2.620   3.889   2.053
    1C        C  695   2.524   3.700   2.172
    1C        C  696   2.571   3.834   2.172
    1C        C  697   2.502   3.636   2.296
    1C        C  698   2.517   3.709   2.416
    1C        C  699   2.487   3.501   2.540
    1C        C  700   2.498   3.642   2.538
    1C        C  701   2.497   3.430   2.662
    1C        C  702   2.494   3.505   2.782
    1C        C  703   2.521   3.298   2.911
    1C        C  704   2.499   3.437   2.905
    1C        C  705   2.542   3.228   3.033
    1C        C  706   2.532   3.300   3.154
    1C        C  707   2.599   3.101   3.278
    1C        C  708   2.544   3.231   3.277
    1C        C  709   2.633   3.043   3.402
    1C        C  710   2.601   3.108   3.523
    1C        C  711   2.705   2.927   3.646
    1C        C  712   2.632   3.047   3.647
    1C        C  713   2.750   2.871   3.767
    1C        C  714   2.713   2.932   3.889
    1C        C  715   2.750   2.875   4.013
    1C        C  716   2.443   3.499   2.060
    1C        C  717   2.483   3.633   2.056
    1C        C  718   2.460   3.421   2.179
    1C        C  719   2.479   3.495   2.298
    1C        C  720   2.506   3.286   2.421
    1C        C  721   2.483   3.426   2.421
    1C        C  722   2.524   3.218   2.543
    1C        C  723   2.515   3.290   2.664
    1C        C  724   2.589   3.097   2.787
    1C        C  725   2.536   3.228   2.789
    1C        C  726   2.618   3.032   2.910
    1C        C  727   2.592   3.096   3.033
    1C        C  728   2.703   2.917   3.157
    1C        C  729   2.624   3.034   3.156
    1C        C  730   2.747   2.863   3.280
    1C        C  731   2.707   2.922   3.402
    1C        C  732   2.751   2.870   3.525
    1C        C  733   2.485   3.193   2.071
    1C        C  734   2.481   3.279   2.182
    1C        C  735   2.581   3.084   2.304
    1C        C  736   2.523   3.214   2.301
    1C        C  737   2.615   3.021   2.426
    1C        C  738   2.585   3.091   2.545
    1C        C  739   2.695   2.910   2.668
    1C        C  740   2.620   3.029   2.667
    1C        C  741   2.739   2.854   2.790
    1C        C  742   2.695   2.914   2.910
    1C        C  743   2.747   2.866   3.032
    1C        C  744   2.541   3.066   2.072
    1C        C  745   2.680   2.893   2.184
    1C        C  746   2.608   3.015   2.184
    1C        C  747   2.729   2.840   2.305
    1C        C  748   2.682   2.897   2.425
    1C        C  749   2.728   2.844   2.547
    1C        C  750   2.733   2.838   2.066
    1C        C  751   3.652   2.297   1.996
    1C        O  752   3.696   2.190   2.044
    1C        O  753   3.706   2.336   1.873
    1C        C  754   4.635   3.045   1.990
    1C        O  755   4.631   3.018   1.867
    1C        O  756   4.754   3.017   2.059
    1C        C  757   4.434   4.219   1.952
    1C        O  758   4.489   4.329   1.980
    1C        O  759   4.421   4.187   1.816
    1C        C  760   3.599   4.680   1.959
    1C        O  761   3.559   4.786   2.015
    1C        O  762   3.648   4.697   1.829
    1C        C  763   2.877   4.490   1.939
    1C        O  764   2.919   4.471   1.822
    1C        O  765   2.775   4.586   1.942
    1C        C  766   2.331   3.474   1.966
    1C        O  767   2.351   3.431   1.849
    1C        O  768   2.195   3.483   1.998
    1C        C  769   4.711   3.584   5.024
    1C        O  770   4.720   3.566   5.149
    1C        O  771   4.829   3.645   4.980
    1C        C  772   4.264   4.475   5.023
    1C        O  773   4.267   4.470   5.149
    1C        O  774   4.373   4.548   4.973
    1C        C  775   4.146   2.513   5.059
    1C        O  776   4.196   2.402   5.026
    1C        O  777   4.145   2.515   5.199
    1C        C  778   2.889   4.548   5.041
    1C        O  779   2.836   4.655   5.004
    1C        O  780   2.915   4.561   5.178
    1C        C  781   2.480   3.028   5.078
    1C        O  782   2.362   2.985   5.071
    1C        O  783   2.539   3.030   5.204
    1C        C  784   2.432   3.987   5.071
    1C        O  785   2.309   4.007   5.050
    1C        O  786   2.471   3.956   5.202
    1C        C  787   2.947   2.436   1.986
    1C        O  788   2.936   2.458   1.862
    1C        O  789   2.830   2.372   2.025
    1C        C  790   3.174   2.381   5.070
    1C        O  791   3.171   2.259   5.037
    1C        O  792   3.165   2.384   5.210
    1C        H  793   4.289   3.020   5.060
    1C        H  794   4.241   2.778   5.058
    1C        H  795   4.499   3.132   5.062
    1C        H  796   4.511   3.371   5.058
    1C        H  797   4.541   3.799   5.051
    1C        H  798   4.396   3.959   5.051
    1C        H  799   4.349   4.190   5.036
    1C        H  800   4.000   4.484   5.038
    1C        H  801   3.815   4.594   5.036
    1C        H  802   3.575   4.631   5.030
    1C        H  803   3.395   4.445   5.011
    1C        H  804   3.156   4.520   5.047
    1C        H  805   3.891   2.484   5.067
    1C        H  806   3.671   2.441   5.067
    1C        H  807   2.985   2.523   5.042
    1C        H  808   3.435   2.465   5.074
    1C        H  809   2.866   2.721   5.071
    1C        H  810   2.739   2.930   5.068
    1C        H  811   2.516   3.294   5.071
    1C        H  812   2.473   3.506   5.061
    1C        H  813   2.522   3.728   5.063
    1C        H  814   2.613   4.159   5.049
    1C        H  815   2.762   4.303   5.045
    1C        H  816   2.701   2.870   1.969
    1C        H  817   2.838   2.672   1.979
    1C        H  818   3.189   2.378   2.017
    1C        H  819   3.420   2.453   1.976
    1C        H  820   3.847   2.503   1.971
    1C        H  821   4.022   2.667   1.973
    1C        H  822   4.253   2.710   1.971
    1C        H  823   4.418   2.883   1.976
    1C        H  824   4.576   3.306   1.967
    1C        H  825   4.523   3.511   1.955
    1C        H  826   4.566   3.751   1.970
    1C        H  827   3.780   4.484   1.943
    1C        H  828   3.944   4.363   1.949
    1C        H  829   4.187   4.307   1.958
    1C        H  830   4.458   3.952   1.953
    1C        H  831   2.682   3.820   2.000
    1C        H  832   2.720   4.046   1.959
    1C        H  833   2.738   4.271   1.957
    1C        H  834   3.363   4.498   1.943
    1C        H  835   3.133   4.455   1.944
    1C        H  836   2.506   2.999   1.996
    1C        H  837   2.414   3.212   1.994
    1C        H  838   2.485   3.682   1.961
    2V3OU   H29  839   2.797   3.545   1.549
    2V3OU   C27  840   2.778   3.498   1.649
    2V3OU   H27  841   2.730   3.568   1.722
    2V3OU   H28  842   2.729   3.399   1.631
    2V3OU   O11  843   2.903   3.473   1.715
    2V3OU   C15  844   2.912   3.394   1.828
    2V3OU   C13  845   3.044   3.372   1.871
    2V3OU   C14  846   3.072   3.264   1.956
    2V3OU   C16  847   2.967   3.183   1.996
    2V3OU    H6  848   2.988   3.097   2.062
    2V3OU   C12  849   3.212   3.223   1.984
    2V3OU    O2  850   3.233   3.119   2.050
    2V3OU   C10  851   3.325   3.303   1.936
    2V3OU    C8  852   3.455   3.268   1.968
    2V3OU   O10  853   3.495   3.152   2.028
    2V3OU   H26  854   3.409   3.111   2.043
    2V3OU    C6  855   3.564   3.345   1.916
    2V3OU    C5  856   3.533   3.459   1.842
    2V3OU    C4  857   3.701   3.290   1.903
    2V3OU    H4  858   3.722   3.217   1.987
    2V3OU    H5  859   3.707   3.222   1.813
    2V3OU    C2  860   3.813   3.395   1.898
    2V3OU    O6  861   3.803   3.474   2.016
    2V3OU   H21  862   3.754   3.552   1.986
    2V3OU    C3  863   3.776   3.494   1.787
    2V3OU    H2  864   3.861   3.566   1.778
    2V3OU    H3  865   3.775   3.437   1.691
    2V3OU   C25  866   3.947   3.325   1.875
    2V3OU    O7  867   3.987   3.291   1.764
    2V3OU   C26  868   4.029   3.287   1.998
    2V3OU   H22  869   4.059   3.385   2.044
    2V3OU   H23  870   4.114   3.221   1.970
    2V3OU    O8  871   3.957   3.207   2.089
    2V3OU   H24  872   3.916   3.261   2.159
    2V3OU    C1  873   3.640   3.559   1.808
    2V3OU    H1  874   3.616   3.615   1.713
    2V3OU    O3  875   3.651   3.650   1.917
    2V3OU   C19  876   3.615   3.788   1.904
    2V3OU    H9  877   3.518   3.791   1.847
    2V3OU    O4  878   3.710   3.848   1.819
    2V3OU   C20  879   3.843   3.872   1.868
    2V3OU   H10  880   3.897   3.774   1.885
    2V3OU   C24  881   3.607   3.853   2.043
    2V3OU   H16  882   3.543   3.792   2.110
    2V3OU   H17  883   3.557   3.951   2.022
    2V3OU   C23  884   3.748   3.876   2.098
    2V3OU   H15  885   3.795   3.774   2.117
    2V3OU    N1  886   3.728   3.955   2.217
    2V3OU   H19  887   3.799   3.924   2.281
    2V3OU   H20  888   3.642   3.931   2.261
    2V3OU   C21  889   3.848   3.947   2.001
    2V3OU   H11  890   3.951   3.922   2.042
    2V3OU    O5  891   3.827   4.087   1.997
    2V3OU   H18  892   3.777   4.100   2.079
    2V3OU   C22  893   3.904   3.946   1.750
    2V3OU   H12  894   3.861   4.049   1.745
    2V3OU   H13  895   3.897   3.887   1.656
    2V3OU   H14  896   4.015   3.953   1.765
    2V3OU   C11  897   3.156   3.465   1.850
    2V3OU    O1  898   3.136   3.576   1.797
    2V3OU    C9  899   3.297   3.419   1.859
    2V3OU    C7  900   3.400   3.500   1.811
    2V3OU    O9  901   3.384   3.613   1.733
    2V3OU   H25  902   3.288   3.624   1.723
    2V3OU   C17  903   2.808   3.313   1.877
    2V3OU    H7  904   2.706   3.343   1.853
    2V3OU   C18  905   2.835   3.201   1.955
    2V3OU    H8  906   2.751   3.134   1.978
    3SOL     OW  907   1.995   4.140   1.456
    3SOL    HW1  908   1.949   4.100   1.536
    3SOL    HW2  909   1.926   4.166   1.388
    4SOL     OW  910   5.726   0.223   1.698
    4SOL    HW1  911   5.763   0.207   1.789
    4SOL    HW2  912   5.773   0.164   1.632
    5SOL     OW  913   3.957   1.366   1.081
    5SOL    HW1  914   4.052   1.335   1.069
    5SOL    HW2  915   3.931   1.357   1.177
    6SOL     OW  916   3.181   2.081   2.119
    6SOL    HW1  917   3.100   2.099   2.176
    6SOL    HW2  918   3.181   2.144   2.041
    7SOL     OW  919   5.879   2.521   2.282
    7SOL    HW1  920   5.795   2.482   2.321
    7SOL    HW2  921   5.886   2.617   2.308
    8SOL     OW  922   2.483   6.680   4.137
    8SOL    HW1  923   2.437   6.669   4.224
    8SOL    HW2  924   2.420   6.660   4.062
    9SOL     OW  925   1.713   5.256   5.862
    9SOL    HW1  926   1.792   5.317   5.866
    9SOL    HW2  927   1.646   5.285   5.930
   10SOL     OW  928   0.641   4.603   5.966
   10SOL    HW1  929   0.620   4.648   6.053
   10SOL    HW2  930   0.736   4.573   5.967
   11SOL     OW  931   3.718   6.561   0.401
   11SOL    HW1  932   3.777   6.480   0.404
   11SOL    HW2  933   3.758   6.634   0.457
   12SOL     OW  934   5.088   5.491   3.188
   12SOL    HW1  935   5.123   5.476   3.095
   12SOL    HW2  936   5.006   5.436   3.202
   13SOL     OW  937   3.042   6.405   4.259
   13SOL    HW1  938   2.961   6.441   4.305
   13SOL    HW2  939   3.064   6.461   4.180
   14SOL     OW  940   3.719   5.800   6.789
   14SOL    HW1  941   3.713   5.715   6.841
   14SOL    HW2  942   3.816   5.825   6.777
   15SOL     OW  943   0.909   6.008   6.801
   15SOL    HW1  944   0.949   6.003   6.893
   15SOL    HW2  945   0.852   6.090   6.795
   16SOL     OW  946   6.728   1.931   6.082
   16SOL    HW1  947   6.763   1.993   6.011
   16SOL    HW2  948   6.792   1.928   6.158
   17SOL     OW  949   5.206   6.478   4.174
   17SOL    HW1  950   5.136   6.438   4.115
   17SOL    HW2  951   5.219   6.574   4.150
   18SOL     OW  952   2.140   1.993   5.800
   18SOL    HW1  953   2.078   2.052   5.852
   18SOL    HW2  954   2.207   2.049   5.751
   19SOL     OW  955   0.134   0.099   2.759
   19SOL    HW1  956   0.188   0.097   2.675
   19SOL    HW2  957   0.048   0.050   2.744
   20SOL     OW  958   3.432   1.534   4.179
   20SOL    HW1  959   3.474   1.449   4.146
   20SOL    HW2  960   3.352   1.511   4.234
   21SOL     OW  961   2.991   1.626   2.010
   21SOL    HW1  962   2.963   1.671   1.925
   21SOL    HW2  963   2.943   1.538   2.019
   22SOL     OW  964   2.340   6.647   6.405
   22SOL    HW1  965   2.348   6.558   6.450
   22SOL    HW2  966   2.245   6.679   6.412
   23SOL     OW  967   4.296   6.287   3.722
   23SOL    HW1  968   4.370   6.263   3.785
   23SOL    HW2  969   4.333   6.295   3.629
   24SOL     OW  970   5.294   0.810   4.450
   24SOL    HW1  971   5.347   0.766   4.377
   24SOL    HW2  972   5.322   0.773   4.538
   25SOL     OW  973   3.131   5.484   0.321
   25SOL    HW1  974   3.230   5.503   0.324
   25SOL    HW2  975   3.090   5.538   0.248
   26SOL     OW  976   6.383   1.492   1.771
   26SOL    HW1  977   6.411   1.398   1.753
   26SOL    HW2  978   6.352   1.535   1.686
   27SOL     OW  979   6.339   6.977   2.302
   27SOL    HW1  980   6.386   0.042   2.337
   27SOL    HW2  981   6.369   6.960   2.208
   28SOL     OW  982   4.353   1.104   6.697
   28SOL    HW1  983   4.360   1.007   6.674
   28SOL    HW2  984   4.304   1.152   6.624
   29SOL     OW  985   5.050   2.485   2.192
   29SOL    HW1  986   5.087   2.499   2.284
   29SOL    HW2  987   5.025   2.388   2.181
   30SOL     OW  988   2.674   7.013   5.548
   30SOL    HW1  989   2.756   0.032   5.502
   30SOL    HW2  990   2.636   6.938   5.494
   31SOL     OW  991   1.068   0.965   5.126
   31SOL    HW1  992   1.054   1.033   5.055
   31SOL    HW2  993   0.983   0.913   5.140
   32SOL     OW  994   0.858   2.017   2.462
   32SOL    HW1  995   0.778   2.033   2.519
   32SOL    HW2  996   0.911   1.941   2.499
   33SOL     OW  997   1.562   2.847   5.717
   33SOL    HW1  998   1.490   2.797   5.669
   33SOL    HW2  999   1.632   2.877   5.652
   34SOL     OW 1000   1.955   0.106   4.732
   34SOL    HW1 1001   1.897   0.062   4.663
   34SOL    HW2 1002   2.008   0.036   4.780
   35SOL     OW 1003   4.259   1.836   0.078
   35SOL    HW1 1004   4.267   1.912   0.142
   35SOL    HW2 1005   4.346   1.826   0.028
   36SOL     OW 1006   1.255   0.676   6.093
   36SOL    HW1 1007   1.261   0.619   6.175
   36SOL    HW2 1008   1.296   0.628   6.016
   37SOL     OW 1009   2.414   6.576   1.442
   37SOL    HW1 1010   2.381   6.643   1.375
   37SOL    HW2 1011   2.487   6.617   1.497
   38SOL     OW 1012   6.848   6.272   2.872
   38SOL    HW1 1013   6.911   6.249   2.947
   38SOL    HW2 1014   6.895   6.330   2.806
   39SOL     OW 1015   6.167   3.641   5.769
   39SOL    HW1 1016   6.099   3.635   5.842
   39SOL    HW2 1017   6.133   3.594   5.688
   40SOL     OW 1018   6.278   1.376   2.679
   40SOL    HW1 1019   6.266   1.435   2.599
   40SOL    HW2 1020   6.334   1.297   2.654
   41SOL     OW 1021   1.487   6.869   4.352
   41SOL    HW1 1022   1.547   6.800   4.312
   41SOL    HW2 1023   1.543   6.944   4.389
   42SOL     OW 1024   3.685   6.876   6.162
   42SOL    HW1 1025   3.596   6.922   6.166
   42SOL    HW2 1026   3.707   6.840   6.253
   43SOL     OW 1027   5.453   6.487   5.910
   43SOL    HW1 1028   5.405   6.574   5.917
   43SOL    HW2 1029   5.391   6.418   5.872
   44SOL     OW 1030   0.280   2.931   6.354
   44SOL    HW1 1031   0.243   2.941   6.447
   44SOL    HW2 1032   0.252   3.009   6.299
   45SOL     OW 1033   3.144   0.733   2.261
   45SOL    HW1 1034   3.115   0.800   2.329
   45SOL    HW2 1035   3.243   0.741   2.247
   46SOL     OW 1036   1.349   3.747   4.140
   46SOL    HW1 1037   1.255   3.781   4.143
   46SOL    HW2 1038   1.353   3.664   4.085
   47SOL     OW 1039   6.082   4.135   3.650
   47SOL    HW1 1040   6.015   4.064   3.629
   47SOL    HW2 1041   6.039   4.225   3.641
   48SOL     OW 1042   0.278   2.841   4.664
   48SOL    HW1 1043   0.192   2.827   4.616
   48SOL    HW2 1044   0.287   2.773   4.736
   49SOL     OW 1045   4.539   4.165   0.791
   49SOL    HW1 1046   4.584   4.102   0.854
   49SOL    HW2 1047   4.458   4.121   0.752
   50SOL     OW 1048   6.834   3.413   4.709
   50SOL    HW1 1049   6.755   3.443   4.656
   50SOL    HW2 1050   6.916   3.458   4.674
   51SOL     OW 1051   3.564   4.994   2.867
   51SOL    HW1 1052   3.491   4.972   2.803
   51SOL    HW2 1053   3.541   4.960   2.958
   52SOL     OW 1054   3.041   1.608   2.509
   52SOL    HW1 1055   3.073   1.516   2.531
   52SOL    HW2 1056   2.955   1.602   2.458
   53SOL     OW 1057   4.825   6.649   3.870
   53SOL    HW1 1058   4.835   6.692   3.959
   53SOL    HW2 1059   4.764   6.570   3.878
   54SOL     OW 1060   2.804   5.143   5.950
   54SOL    HW1 1061   2.828   5.048   5.930
   54SOL    HW2 1062   2.826   5.164   6.045
   55SOL     OW 1063   3.784   1.575   5.703
   55SOL    HW1 1064   3.866   1.566   5.758
   55SOL    HW2 1065   3.760   1.487   5.663
   56SOL     OW 1066   1.773   0.893   2.539
   56SOL    HW1 1067   1.772   0.794   2.558
   56SOL    HW2 1068   1.688   0.918   2.492
   57SOL     OW 1069   4.982   0.982   0.715
   57SOL    HW1 1070   5.060   0.986   0.653
   57SOL    HW2 1071   5.015   0.975   0.810
   58SOL     OW 1072   0.465   6.422   0.014
   58SOL    HW1 1073   0.563   6.427   0.034
   58SOL    HW2 1074   0.420   6.359   0.078
   59SOL     OW 1075   1.868   0.471   5.757
   59SOL    HW1 1076   1.882   0.460   5.856
   59SOL    HW2 1077   1.780   0.517   5.741
   60SOL     OW 1078   4.421   0.119   5.748
   60SOL    HW1 1079   4.403   0.217   5.753
   60SOL    HW2 1080   4.377   0.073   5.825
   61SOL     OW 1081   5.013   0.134   4.169
   61SOL    HW1 1082   5.010   0.059   4.103
   61SOL    HW2 1083   4.978   0.102   4.257
   62SOL     OW 1084   1.155   0.483   3.882
   62SOL    HW1 1085   1.239   0.451   3.837
   62SOL    HW2 1086   1.142   0.580   3.862
   63SOL     OW 1087   6.568   2.440   3.376
   63SOL    HW1 1088   6.587   2.343   3.390
   63SOL    HW2 1089   6.564   2.486   3.465
   64SOL     OW 1090   6.624   3.638   6.159
   64SOL    HW1 1091   6.629   3.640   6.259
   64SOL    HW2 1092   6.716   3.635   6.121
   65SOL     OW 1093   6.594   4.945   4.941
   65SOL    HW1 1094   6.582   4.998   5.025
   65SOL    HW2 1095   6.504   4.926   4.901
   66SOL     OW 1096   3.515   0.483   6.451
   66SOL    HW1 1097   3.556   0.540   6.380
   66SOL    HW2 1098   3.567   0.492   6.536
   67SOL     OW 1099   5.944   6.386   5.253
   67SOL    HW1 1100   5.975   6.476   5.283
   67SOL    HW2 1101   5.996   6.358   5.173
   68SOL     OW 1102   5.950   1.320   6.680
   68SOL    HW1 1103   5.921   1.254   6.750
   68SOL    HW2 1104   5.898   1.405   6.690
   69SOL     OW 1105   2.222   4.223   6.151
   69SOL    HW1 1106   2.315   4.233   6.114
   69SOL    HW2 1107   2.176   4.147   6.103
   70SOL     OW 1108   6.557   5.345   2.797
   70SOL    HW1 1109   6.463   5.311   2.804
   70SOL    HW2 1110   6.556   5.443   2.782
   71SOL     OW 1111   2.537   2.302   3.439
   71SOL    HW1 1112   2.628   2.316   3.479
   71SOL    HW2 1113   2.488   2.389   3.438
   72SOL     OW 1114   3.108   5.831   3.888
   72SOL    HW1 1115   3.086   5.781   3.972
   72SOL    HW2 1116   3.172   5.777   3.833
   73SOL     OW 1117   3.288   1.984   6.756
   73SOL    HW1 1118   3.327   2.075   6.767
   73SOL    HW2 1119   3.353   1.925   6.707
   74SOL     OW 1120   5.301   6.712   6.927
   74SOL    HW1 1121   5.301   6.788   6.862
   74SOL    HW2 1122   5.393   6.671   6.931
   75SOL     OW 1123   3.541   5.590   5.380
   75SOL    HW1 1124   3.465   5.538   5.418
   75SOL    HW2 1125   3.608   5.527   5.340
   76SOL     OW 1126   2.280   2.220   1.123
   76SOL    HW1 1127   2.233   2.149   1.071
   76SOL    HW2 1128   2.225   2.247   1.202
   77SOL     OW 1129   5.466   5.492   5.213
   77SOL    HW1 1130   5.486   5.475   5.309
   77SOL    HW2 1131   5.487   5.410   5.159
   78SOL     OW 1132   6.256   6.478   6.242
   78SOL    HW1 1133   6.169   6.471   6.290
   78SOL    HW2 1134   6.268   6.399   6.181
   79SOL     OW 1135   3.345   0.036   0.863
   79SOL    HW1 1136   3.306   0.128   0.864
   79SOL    HW2 1137   3.292   6.995   0.801
   80SOL     OW 1138   6.336   0.803   5.210
   80SOL    HW1 1139   6.279   0.794   5.129
   80SOL    HW2 1140   6.291   0.759   5.288
   81SOL     OW 1141   2.032   0.816   2.811
   81SOL    HW1 1142   1.948   0.870   2.809
   81SOL    HW2 1143   2.093   0.853   2.882
   82SOL     OW 1144   6.674   4.936   6.824
   82SOL    HW1 1145   6.685   4.895   6.734
   82SOL    HW2 1146   6.593   4.995   6.823
   83SOL     OW 1147   6.890   6.721   0.587
   83SOL    HW1 1148   6.800   6.709   0.628
   83SOL    HW2 1149   6.881   6.775   0.504
   84SOL     OW 1150   5.357   3.778   2.151
   84SOL    HW1 1151   5.352   3.691   2.101
   84SOL    HW2 1152   5.363   3.854   2.086
   85SOL     OW 1153   0.570   1.350   5.019
   85SOL    HW1 1154   0.581   1.293   5.100
   85SOL    HW2 1155   0.574   1.447   5.045
   86SOL     OW 1156   0.345   0.495   5.859
   86SOL    HW1 1157   0.365   0.593   5.850
   86SOL    HW2 1158   0.248   0.483   5.879
   87SOL     OW 1159   4.887   2.803   0.300
   87SOL    HW1 1160   4.892   2.879   0.235
   87SOL    HW2 1161   4.904   2.717   0.253
   88SOL     OW 1162   5.170   1.544   0.366
   88SOL    HW1 1163   5.140   1.449   0.372
   88SOL    HW2 1164   5.122   1.599   0.435
   89SOL     OW 1165   1.596   2.578   6.530
   89SOL    HW1 1166   1.539   2.586   6.612
   89SOL    HW2 1167   1.542   2.539   6.456
   90SOL     OW 1168   5.665   6.473   3.548
   90SOL    HW1 1169   5.590   6.457   3.484
   90SOL    HW2 1170   5.732   6.534   3.507
   91SOL     OW 1171   4.648   4.406   3.946
   91SOL    HW1 1172   4.669   4.328   4.005
   91SOL    HW2 1173   4.711   4.481   3.968
   92SOL     OW 1174   3.272   5.458   0.598
   92SOL    HW1 1175   3.198   5.393   0.614
   92SOL    HW2 1176   3.342   5.416   0.541
   93SOL     OW 1177   3.177   4.617   5.829
   93SOL    HW1 1178   3.121   4.535   5.842
   93SOL    HW2 1179   3.128   4.681   5.770
   94SOL     OW 1180   3.269   5.366   6.838
   94SOL    HW1 1181   3.206   5.350   6.914
   94SOL    HW2 1182   3.306   5.459   6.845
   95SOL     OW 1183   0.479   1.060   3.405
   95SOL    HW1 1184   0.513   1.087   3.315
   95SOL    HW2 1185   0.555   1.028   3.461
   96SOL     OW 1186   2.202   6.888   5.571
   96SOL    HW1 1187   2.283   6.946   5.584
   96SOL    HW2 1188   2.123   6.946   5.549
   97SOL     OW 1189   6.311   4.004   4.451
   97SOL    HW1 1190   6.279   4.079   4.509
   97SOL    HW2 1191   6.280   3.917   4.488
   98SOL     OW 1192   5.607   2.740   6.522
   98SOL    HW1 1193   5.524   2.709   6.569
   98SOL    HW2 1194   5.658   2.802   6.582
   99SOL     OW 1195   4.300   3.109   1.001
   99SOL    HW1 1196   4.283   3.150   0.912
   99SOL    HW2 1197   4.312   3.181   1.069
  100SOL     OW 1198   0.358   6.927   6.616
  100SOL    HW1 1199   0.435   6.977   6.576
  100SOL    HW2 1200   0.390   6.839   6.650
  101SOL     OW 1201   0.632   5.813   3.538
  101SOL    HW1 1202   0.729   5.823   3.515
  101SOL    HW2 1203   0.597   5.899   3.575
  102SOL     OW 1204   4.298   0.316   3.053
  102SOL    HW1 1205   4.292   0.216   3.048
  102SOL    HW2 1206   4.288   0.345   3.148
  103SOL     OW 1207   3.911   1.452   1.783
  103SOL    HW1 1208   3.972   1.531   1.771
  103SOL    HW2 1209   3.860   1.436   1.699
  104SOL     OW 1210   6.271   5.282   2.781
  104SOL    HW1 1211   6.250   5.378   2.798
  104SOL    HW2 1212   6.205   5.224   2.829
  105SOL     OW 1213   6.706   1.185   6.741
  105SOL    HW1 1214   6.803   1.167   6.756
  105SOL    HW2 1215   6.652   1.126   6.800
  106SOL     OW 1216   2.346   6.427   6.569
  106SOL    HW1 1217   2.296   6.340   6.571
  106SOL    HW2 1218   2.334   6.474   6.657
  107SOL     OW 1219   1.771   2.228   1.256
  107SOL    HW1 1220   1.692   2.259   1.203
  107SOL    HW2 1221   1.833   2.177   1.196
  108SOL     OW 1222   4.913   4.684   0.025
  108SOL    HW1 1223   4.840   4.618   0.006
  108SOL    HW2 1224   4.965   4.702   6.958
  109SOL     OW 1225   0.689   0.346   1.264
  109SOL    HW1 1226   0.780   0.351   1.306
  109SOL    HW2 1227   0.661   0.438   1.236
  110SOL     OW 1228   3.591   5.789   5.758
  110SOL    HW1 1229   3.574   5.706   5.704
  110SOL    HW2 1230   3.688   5.794   5.783
  111SOL     OW 1231   3.903   0.671   3.977
  111SOL    HW1 1232   3.954   0.757   3.970
  111SOL    HW2 1233   3.879   0.640   3.885
  112SOL     OW 1234   5.762   6.050   5.838
  112SOL    HW1 1235   5.682   6.011   5.791
  112SOL    HW2 1236   5.740   6.142   5.870
  113SOL     OW 1237   6.483   4.892   3.552
  113SOL    HW1 1238   6.436   4.923   3.634
  113SOL    HW2 1239   6.570   4.849   3.578
  114SOL     OW 1240   0.326   6.734   0.699
  114SOL    HW1 1241   0.226   6.728   0.708
  114SOL    HW2 1242   0.348   6.790   0.619
  115SOL     OW 1243   5.064   0.935   4.051
  115SOL    HW1 1244   4.977   0.981   4.030
  115SOL    HW2 1245   5.077   0.934   4.150
  116SOL     OW 1246   6.176   4.527   1.996
  116SOL    HW1 1247   6.194   4.463   2.071
  116SOL    HW2 1248   6.228   4.611   2.012
  117SOL     OW 1249   0.630   1.208   6.355
  117SOL    HW1 1250   0.701   1.268   6.319
  117SOL    HW2 1251   0.566   1.260   6.411
  118SOL     OW 1252   0.305   1.129   1.593
  118SOL    HW1 1253   0.402   1.123   1.568
  118SOL    HW2 1254   0.253   1.162   1.515
  119SOL     OW 1255   0.083   1.976   6.291
  119SOL    HW1 1256   0.094   1.984   6.390
  119SOL    HW2 1257   0.022   2.048   6.257
  120SOL     OW 1258   6.052   0.437   0.619
  120SOL    HW1 1259   5.973   0.377   0.606
  120SOL    HW2 1260   6.076   0.441   0.716
  121SOL     OW 1261   2.477   3.431   6.783
  121SOL    HW1 1262   2.527   3.403   6.865
  121SOL    HW2 1263   2.535   3.416   6.703
  122SOL     OW 1264   1.401   3.827   4.929
  122SOL    HW1 1265   1.463   3.904   4.911
  122SOL    HW2 1266   1.309   3.850   4.896
  123SOL     OW 1267   0.041   2.131   1.179
  123SOL    HW1 1268   0.094   2.145   1.095
  123SOL    HW2 1269   6.985   2.065   1.162
  124SOL     OW 1270   4.754   3.764   0.533
  124SOL    HW1 1271   4.759   3.862   0.511
  124SOL    HW2 1272   4.759   3.711   0.449
  125SOL     OW 1273   1.978   1.765   2.463
  125SOL    HW1 1274   1.928   1.834   2.516
  125SOL    HW2 1275   2.074   1.792   2.455
  126SOL     OW 1276   3.176   4.302   0.764
  126SOL    HW1 1277   3.180   4.202   0.768
  126SOL    HW2 1278   3.197   4.339   0.855
  127SOL     OW 1279   6.739   4.768   6.332
  127SOL    HW1 1280   6.719   4.840   6.266
  127SOL    HW2 1281   6.711   4.680   6.295
  128SOL     OW 1282   4.508   2.532   1.840
  128SOL    HW1 1283   4.542   2.527   1.934
  128SOL    HW2 1284   4.553   2.461   1.785
  129SOL     OW 1285   3.702   3.284   6.441
  129SOL    HW1 1286   3.619   3.305   6.492
  129SOL    HW2 1287   3.694   3.320   6.348
  130SOL     OW 1288   1.267   0.879   4.291
  130SOL    HW1 1289   1.227   0.825   4.365
  130SOL    HW2 1290   1.313   0.960   4.329
  131SOL     OW 1291   4.611   1.307   3.480
  131SOL    HW1 1292   4.653   1.367   3.412
  131SOL    HW2 1293   4.557   1.361   3.544
  132SOL     OW 1294   1.536   2.840   1.126
  132SOL    HW1 1295   1.481   2.913   1.086
  132SOL    HW2 1296   1.527   2.758   1.070
  133SOL     OW 1297   5.675   6.543   2.862
  133SOL    HW1 1298   5.743   6.573   2.796
  133SOL    HW2 1299   5.617   6.471   2.822
  134SOL     OW 1300   5.925   2.548   3.103
  134SOL    HW1 1301   5.936   2.646   3.087
  134SOL    HW2 1302   5.887   2.505   3.021
  135SOL     OW 1303   5.182   1.838   3.436
  135SOL    HW1 1304   5.260   1.857   3.495
  135SOL    HW2 1305   5.215   1.802   3.349
  136SOL     OW 1306   5.064   4.391   5.678
  136SOL    HW1 1307   5.084   4.478   5.722
  136SOL    HW2 1308   4.965   4.378   5.674
  137SOL     OW 1309   4.729   6.876   5.350
  137SOL    HW1 1310   4.761   6.884   5.444
  137SOL    HW2 1311   4.773   6.945   5.293
  138SOL     OW 1312   0.470   5.049   4.596
  138SOL    HW1 1313   0.458   4.980   4.667
  138SOL    HW2 1314   0.383   5.097   4.581
  139SOL     OW 1315   2.514   5.451   4.968
  139SOL    HW1 1316   2.495   5.549   4.969
  139SOL    HW2 1317   2.547   5.423   5.058
  140SOL     OW 1318   6.113   5.218   4.393
  140SOL    HW1 1319   6.129   5.316   4.401
  140SOL    HW2 1320   6.200   5.169   4.396
  141SOL     OW 1321   1.063   1.679   5.421
  141SOL    HW1 1322   1.103   1.708   5.507
  141SOL    HW2 1323   1.120   1.712   5.345
  142SOL     OW 1324   1.373   6.356   1.719
  142SOL    HW1 1325   1.300   6.424   1.722
  142SOL    HW2 1326   1.442   6.383   1.652
  143SOL     OW 1327   5.515   4.532   2.023
  143SOL    HW1 1328   5.516   4.432   2.020
  143SOL    HW2 1329   5.530   4.569   1.932
  144SOL     OW 1330   1.501   6.469   6.326
  144SOL    HW1 1331   1.532   6.401   6.259
  144SOL    HW2 1332   1.543   6.557   6.306
  145SOL     OW 1333   0.767   5.356   0.665
  145SOL    HW1 1334   0.722   5.311   0.742
  145SOL    HW2 1335   0.862   5.324   0.658
  146SOL     OW 1336   4.828   6.673   0.163
  146SOL    HW1 1337   4.926   6.683   0.141
  146SOL    HW2 1338   4.806   6.731   0.241
  147SOL     OW 1339   6.635   2.699   0.371
  147SOL    HW1 1340   6.582   2.775   0.334
  147SOL    HW2 1341   6.721   2.690   0.321
  148SOL     OW 1342   0.358   5.332   5.057
  148SOL    HW1 1343   0.407   5.388   5.124
  148SOL    HW2 1344   0.349   5.239   5.091
  149SOL     OW 1345   2.793   1.294   3.925
  149SOL    HW1 1346   2.804   1.389   3.896
  149SOL    HW2 1347   2.879   1.261   3.965
  150SOL     OW 1348   7.012   4.832   6.417
  150SOL    HW1 1349   6.928   4.790   6.383
  150SOL    HW2 1350   0.072   4.771   6.401
  151SOL     OW 1351   3.465   1.906   1.084
  151SOL    HW1 1352   3.544   1.911   1.144
  151SOL    HW2 1353   3.471   1.978   1.014
  152SOL     OW 1354   2.387   0.660   4.487
  152SOL    HW1 1355   2.313   0.661   4.555
  152SOL    HW2 1356   2.468   0.704   4.525
  153SOL     OW 1357   2.357   0.110   2.137
  153SOL    HW1 1358   2.410   0.113   2.052
  153SOL    HW2 1359   2.280   0.173   2.130
  154SOL     OW 1360   7.013   2.863   1.869
  154SOL    HW1 1361   0.013   2.779   1.819
  154SOL    HW2 1362   0.052   2.937   1.831
  155SOL     OW 1363   0.263   1.311   3.477
  155SOL    HW1 1364   0.343   1.353   3.434
  155SOL    HW2 1365   0.292   1.251   3.551
  156SOL     OW 1366   6.283   1.734   1.323
  156SOL    HW1 1367   6.247   1.667   1.258
  156SOL    HW2 1368   6.337   1.803   1.275
  157SOL     OW 1369   6.104   3.141   2.207
  157SOL    HW1 1370   6.072   3.166   2.115
  157SOL    HW2 1371   6.163   3.214   2.242
  158SOL     OW 1372   3.293   0.671   2.572
  158SOL    HW1 1373   3.197   0.646   2.557
  158SOL    HW2 1374   3.309   0.683   2.669
  159SOL     OW 1375   4.755   4.619   1.590
  159SOL    HW1 1376   4.821   4.662   1.528
  159SOL    HW2 1377   4.736   4.526   1.559
  160SOL     OW 1378   6.828   4.611   6.704
  160SOL    HW1 1379   6.880   4.657   6.776
  160SOL    HW2 1380   6.745   4.664   6.685
  161SOL     OW 1381   1.919   5.104   4.975
  161SOL    HW1 1382   1.877   5.066   4.893
  161SOL    HW2 1383   1.975   5.184   4.951
  162SOL     OW 1384   4.382   6.095   0.428
  162SOL    HW1 1385   4.288   6.075   0.457
  162SOL    HW2 1386   4.381   6.149   0.345
  163SOL     OW 1387   3.873   6.097   1.608
  163SOL    HW1 1388   3.933   6.035   1.557
  163SOL    HW2 1389   3.905   6.191   1.596
  164SOL     OW 1390   6.609   4.106   1.356
  164SOL    HW1 1391   6.554   4.046   1.413
  164SOL    HW2 1392   6.692   4.133   1.406
  165SOL     OW 1393   4.522   3.318   0.121
  165SOL    HW1 1394   4.555   3.225   0.133
  165SOL    HW2 1395   4.599   3.381   0.110
  166SOL     OW 1396   0.352   5.958   3.413
  166SOL    HW1 1397   0.412   5.970   3.492
  166SOL    HW2 1398   0.276   6.022   3.419
  167SOL     OW 1399   6.287   2.479   0.280
  167SOL    HW1 1400   6.215   2.443   0.339
  167SOL    HW2 1401   6.270   2.453   0.185
  168SOL     OW 1402   3.041   4.097   0.989
  168SOL    HW1 1403   3.109   4.142   1.047
  168SOL    HW2 1404   2.951   4.100   1.034
  169SOL     OW 1405   3.060   0.166   1.941
  169SOL    HW1 1406   3.096   0.245   1.891
  169SOL    HW2 1407   2.969   0.187   1.976
  170SOL     OW 1408   0.216   1.852   3.680
  170SOL    HW1 1409   0.252   1.909   3.753
  170SOL    HW2 1410   0.133   1.805   3.712
  171SOL     OW 1411   3.384   3.683   0.250
  171SOL    HW1 1412   3.294   3.693   0.208
  171SOL    HW2 1413   3.373   3.657   0.346
  172SOL     OW 1414   6.435   1.685   4.800
  172SOL    HW1 1415   6.425   1.620   4.875
  172SOL    HW2 1416   6.395   1.773   4.826
  173SOL     OW 1417   6.972   6.764   4.438
  173SOL    HW1 1418   6.922   6.727   4.515
  173SOL    HW2 1419   6.962   6.704   4.359
  174SOL     OW 1420   2.648   5.270   3.305
  174SOL    HW1 1421   2.633   5.312   3.394
  174SOL    HW2 1422   2.727   5.209   3.310
  175SOL     OW 1423   1.796   6.495   1.932
  175SOL    HW1 1424   1.829   6.402   1.948
  175SOL    HW2 1425   1.855   6.539   1.864
  176SOL     OW 1426   2.322   4.043   1.375
  176SOL    HW1 1427   2.421   4.053   1.388
  176SOL    HW2 1428   2.298   4.070   1.281
  177SOL     OW 1429   5.230   2.521   3.396
  177SOL    HW1 1430   5.313   2.478   3.360
  177SOL    HW2 1431   5.184   2.572   3.323
  178SOL     OW 1432   4.994   4.200   6.540
  178SOL    HW1 1433   4.984   4.237   6.447
  178SOL    HW2 1434   4.982   4.274   6.606
  179SOL     OW 1435   2.632   0.408   0.526
  179SOL    HW1 1436   2.606   0.385   0.432
  179SOL    HW2 1437   2.670   0.500   0.528
  180SOL     OW 1438   0.744   1.503   6.775
  180SOL    HW1 1439   0.724   1.576   6.709
  180SOL    HW2 1440   0.774   1.421   6.726
  181SOL     OW 1441   3.438   1.797   6.629
  181SOL    HW1 1442   3.459   1.863   6.558
  181SOL    HW2 1443   3.515   1.735   6.643
  182SOL     OW 1444   4.379   2.099   4.074
  182SOL    HW1 1445   4.471   2.065   4.095
  182SOL    HW2 1446   4.369   2.191   4.111
  183SOL     OW 1447   4.236   0.784   1.896
  183SOL    HW1 1448   4.164   0.852   1.879
  183SOL    HW2 1449   4.231   0.712   1.826
  184SOL     OW 1450   1.407   5.659   3.610
  184SOL    HW1 1451   1.456   5.746   3.610
  184SOL    HW2 1452   1.434   5.606   3.530
  185SOL     OW 1453   1.289   3.536   6.817
  185SOL    HW1 1454   1.250   3.556   6.727
  185SOL    HW2 1455   1.345   3.613   6.847
  186SOL     OW 1456   6.076   0.266   3.310
  186SOL    HW1 1457   6.093   0.280   3.407
  186SOL    HW2 1458   6.054   0.353   3.266
  187SOL     OW 1459   5.958   1.014   4.156
  187SOL    HW1 1460   5.903   0.934   4.180
  187SOL    HW2 1461   5.944   1.086   4.224
  188SOL     OW 1462   5.685   2.303   3.511
  188SOL    HW1 1463   5.772   2.320   3.464
  188SOL    HW2 1464   5.619   2.373   3.484
  189SOL     OW 1465   2.221   5.778   2.820
  189SOL    HW1 1466   2.288   5.850   2.803
  189SOL    HW2 1467   2.193   5.780   2.916
  190SOL     OW 1468   3.764   1.136   4.896
  190SOL    HW1 1469   3.839   1.198   4.870
  190SOL    HW2 1470   3.803   1.050   4.930
  191SOL     OW 1471   6.072   5.782   6.180
  191SOL    HW1 1472   6.009   5.858   6.197
  191SOL    HW2 1473   6.020   5.696   6.176
  192SOL     OW 1474   6.920   6.730   2.167
  192SOL    HW1 1475   6.941   6.696   2.075
  192SOL    HW2 1476   6.857   6.807   2.159
  193SOL     OW 1477   5.077   2.798   6.398
  193SOL    HW1 1478   5.134   2.750   6.331
  193SOL    HW2 1479   5.125   2.881   6.428
  194SOL     OW 1480   3.683   0.707   2.995
  194SOL    HW1 1481   3.726   0.763   3.065
  194SOL    HW2 1482   3.670   0.762   2.912
  195SOL     OW 1483   2.057   5.440   3.356
  195SOL    HW1 1484   2.115   5.378   3.305
  195SOL    HW2 1485   1.964   5.406   3.357
  196SOL     OW 1486   1.961   2.203   6.563
  196SOL    HW1 1487   1.929   2.297   6.574
  196SOL    HW2 1488   1.903   2.141   6.616
  197SOL     OW 1489   2.072   1.423   1.050
  197SOL    HW1 1490   2.011   1.416   0.971
  197SOL    HW2 1491   2.062   1.513   1.092
  198SOL     OW 1492   4.453   0.976   3.196
  198SOL    HW1 1493   4.432   0.925   3.112
  198SOL    HW2 1494   4.444   1.074   3.180
  199SOL     OW 1495   1.245   2.634   4.248
  199SOL    HW1 1496   1.178   2.564   4.277
  199SOL    HW2 1497   1.213   2.677   4.164
  200SOL     OW 1498   0.490   2.676   0.417
  200SOL    HW1 1499   0.413   2.708   0.472
  200SOL    HW2 1500   0.572   2.670   0.475
  201SOL     OW 1501   0.771   0.835   5.647
  201SOL    HW1 1502   0.682   0.875   5.668
  201SOL    HW2 1503   0.790   0.761   5.712
  202SOL     OW 1504   4.484   0.314   6.026
  202SOL    HW1 1505   4.390   0.301   6.059
  202SOL    HW2 1506   4.547   0.313   6.104
  203SOL     OW 1507   5.562   2.988   5.413
  203SOL    HW1 1508   5.623   2.974   5.336
  203SOL    HW2 1509   5.497   3.061   5.393
  204SOL     OW 1510   0.372   0.282   5.691
  204SOL    HW1 1511   0.355   0.371   5.732
  204SOL    HW2 1512   0.461   0.282   5.646
  205SOL     OW 1513   1.130   2.679   2.325
  205SOL    HW1 1514   1.120   2.622   2.244
  205SOL    HW2 1515   1.050   2.667   2.384
  206SOL     OW 1516   0.682   3.125   1.265
  206SOL    HW1 1517   0.625   3.203   1.292
  206SOL    HW2 1518   0.632   3.040   1.278
  207SOL     OW 1519   5.206   2.151   3.086
  207SOL    HW1 1520   5.223   2.241   3.126
  207SOL    HW2 1521   5.109   2.130   3.092
  208SOL     OW 1522   0.496   4.142   5.043
  208SOL    HW1 1523   0.570   4.126   4.978
  208SOL    HW2 1524   0.533   4.187   5.124
  209SOL     OW 1525   6.473   4.330   2.634
  209SOL    HW1 1526   6.397   4.349   2.572
  209SOL    HW2 1527   6.460   4.379   2.720
  210SOL     OW 1528   4.737   2.507   0.485
  210SOL    HW1 1529   4.832   2.510   0.455
  210SOL    HW2 1530   4.734   2.479   0.581
  211SOL     OW 1531   1.718   0.332   3.207
  211SOL    HW1 1532   1.658   0.321   3.286
  211SOL    HW2 1533   1.809   0.297   3.228
  212SOL     OW 1534   1.320   3.495   3.023
  212SOL    HW1 1535   1.378   3.481   2.943
  212SOL    HW2 1536   1.351   3.577   3.072
  213SOL     OW 1537   1.685   5.505   1.104
  213SOL    HW1 1538   1.704   5.523   1.008
  213SOL    HW2 1539   1.754   5.443   1.141
  214SOL     OW 1540   4.318   5.582   2.177
  214SOL    HW1 1541   4.414   5.584   2.150
  214SOL    HW2 1542   4.303   5.645   2.253
  215SOL     OW 1543   1.867   5.309   1.967
  215SOL    HW1 1544   1.835   5.396   2.005
  215SOL    HW2 1545   1.926   5.263   2.033
  216SOL     OW 1546   1.525   0.357   2.705
  216SOL    HW1 1547   1.585   0.330   2.781
  216SOL    HW2 1548   1.505   0.455   2.712
  217SOL     OW 1549   1.311   3.510   5.687
  217SOL    HW1 1550   1.365   3.505   5.772
  217SOL    HW2 1551   1.215   3.520   5.710
  218SOL     OW 1552   0.798   2.255   5.322
  218SOL    HW1 1553   0.771   2.350   5.308
  218SOL    HW2 1554   0.859   2.226   5.248
  219SOL     OW 1555   3.632   0.607   0.174
  219SOL    HW1 1556   3.645   0.700   0.209
  219SOL    HW2 1557   3.674   0.542   0.238
  220SOL     OW 1558   3.213   0.351   1.186
  220SOL    HW1 1559   3.215   0.416   1.110
  220SOL    HW2 1560   3.148   0.278   1.167
  221SOL     OW 1561   5.813   5.594   1.145
  221SOL    HW1 1562   5.785   5.616   1.051
  221SOL    HW2 1563   5.839   5.678   1.192
  222SOL     OW 1564   1.764   4.521   6.400
  222SOL    HW1 1565   1.754   4.617   6.375
  222SOL    HW2 1566   1.845   4.509   6.457
  223SOL     OW 1567   6.834   2.683   5.172
  223SOL    HW1 1568   6.791   2.613   5.114
  223SOL    HW2 1569   6.839   2.769   5.122
  224SOL     OW 1570   2.582   1.955   5.951
  224SOL    HW1 1571   2.508   2.017   5.978
  224SOL    HW2 1572   2.600   1.965   5.853
  225SOL     OW 1573   4.540   3.572   6.059
  225SOL    HW1 1574   4.499   3.606   5.975
  225SOL    HW2 1575   4.560   3.649   6.120
  226SOL     OW 1576   1.034   1.756   6.458
  226SOL    HW1 1577   1.007   1.801   6.373
  226SOL    HW2 1578   0.969   1.779   6.530
  227SOL     OW 1579   2.058   4.050   2.427
  227SOL    HW1 1580   2.130   4.119   2.426
  227SOL    HW2 1581   2.099   3.960   2.417
  228SOL     OW 1582   1.699   0.720   2.867
  228SOL    HW1 1583   1.714   0.677   2.955
  228SOL    HW2 1584   1.652   0.808   2.880
  229SOL     OW 1585   5.407   4.981   6.839
  229SOL    HW1 1586   5.310   4.997   6.819
  229SOL    HW2 1587   5.444   4.918   6.770
  230SOL     OW 1588   4.416   6.159   4.525
  230SOL    HW1 1589   4.331   6.130   4.481
  230SOL    HW2 1590   4.453   6.082   4.578
  231SOL     OW 1591   5.163   1.337   6.898
  231SOL    HW1 1592   5.073   1.358   6.935
  231SOL    HW2 1593   5.161   1.347   6.799
  232SOL     OW 1594   0.293   2.603   6.185
  232SOL    HW1 1595   0.332   2.532   6.127
  232SOL    HW2 1596   0.365   2.643   6.242
  233SOL     OW 1597   3.457   1.780   3.469
  233SOL    HW1 1598   3.445   1.682   3.456
  233SOL    HW2 1599   3.397   1.830   3.406
  234SOL     OW 1600   5.624   1.153   6.051
  234SOL    HW1 1601   5.603   1.247   6.024
  234SOL    HW2 1602   5.562   1.124   6.123
  235SOL     OW 1603   4.854   3.223   2.534
  235SOL    HW1 1604   4.821   3.213   2.440
  235SOL    HW2 1605   4.951   3.247   2.533
  236SOL     OW 1606   4.441   3.489   6.511
  236SOL    HW1 1607   4.439   3.428   6.589
  236SOL    HW2 1608   4.536   3.517   6.494
  237SOL     OW 1609   6.614   4.096   2.651
  237SOL    HW1 1610   6.663   4.077   2.566
  237SOL    HW2 1611   6.557   4.177   2.638
  238SOL     OW 1612   6.541   1.448   0.396
  238SOL    HW1 1613   6.506   1.356   0.413
  238SOL    HW2 1614   6.482   1.493   0.328
  239SOL     OW 1615   1.232   4.285   0.646
  239SOL    HW1 1616   1.299   4.318   0.713
  239SOL    HW2 1617   1.151   4.344   0.648
  240SOL     OW 1618   6.652   3.585   3.206
  240SOL    HW1 1619   6.578   3.589   3.140
  240SOL    HW2 1620   6.656   3.670   3.258
  241SOL     OW 1621   2.658   2.120   3.807
  241SOL    HW1 1622   2.560   2.133   3.792
  241SOL    HW2 1623   2.673   2.036   3.859
  242SOL     OW 1624   3.369   3.873   3.544
  242SOL    HW1 1625   3.446   3.844   3.600
  242SOL    HW2 1626   3.345   3.800   3.479
  243SOL     OW 1627   4.914   2.386   6.890
  243SOL    HW1 1628   4.973   2.351   6.818
  243SOL    HW2 1629   4.886   2.479   6.868
  244SOL     OW 1630   6.302   3.215   6.628
  244SOL    HW1 1631   6.275   3.310   6.643
  244SOL    HW2 1632   6.223   3.155   6.643
  245SOL     OW 1633   3.486   1.966   3.650
  245SOL    HW1 1634   3.409   1.981   3.712
  245SOL    HW2 1635   3.459   1.901   3.578
  246SOL     OW 1636   5.729   1.689   3.429
  246SOL    HW1 1637   5.788   1.609   3.423
  246SOL    HW2 1638   5.771   1.758   3.488
  247SOL     OW 1639   2.692   2.004   0.412
  247SOL    HW1 1640   2.687   2.030   0.315
  247SOL    HW2 1641   2.657   1.911   0.423
  248SOL     OW 1642   2.303   1.458   2.623
  248SOL    HW1 1643   2.351   1.534   2.665
  248SOL    HW2 1644   2.351   1.430   2.539
  249SOL     OW 1645   5.018   0.166   5.284
  249SOL    HW1 1646   5.108   0.159   5.243
  249SOL    HW2 1647   5.026   0.168   5.384
  250SOL     OW 1648   3.459   2.682   0.750
  250SOL    HW1 1649   3.531   2.615   0.733
  250SOL    HW2 1650   3.496   2.774   0.738
  251SOL     OW 1651   4.738   3.323   5.693
  251SOL    HW1 1652   4.778   3.244   5.646
  251SOL    HW2 1653   4.777   3.407   5.656
  252SOL     OW 1654   6.130   7.011   5.863
  252SOL    HW1 1655   6.187   7.007   5.945
  252SOL    HW2 1656   6.181   0.040   5.789
  253SOL     OW 1657   3.994   4.782   5.617
  253SOL    HW1 1658   3.913   4.787   5.559
  253SOL    HW2 1659   4.028   4.688   5.619
  254SOL     OW 1660   6.785   2.690   4.275
  254SOL    HW1 1661   6.841   2.616   4.238
  254SOL    HW2 1662   6.843   2.770   4.292
  255SOL     OW 1663   1.390   4.473   5.998
  255SOL    HW1 1664   1.440   4.394   5.964
  255SOL    HW2 1665   1.450   4.529   6.055
  256SOL     OW 1666   4.931   2.901   6.058
  256SOL    HW1 1667   4.991   2.965   6.104
  256SOL    HW2 1668   4.986   2.834   6.008
  257SOL     OW 1669   5.019   6.454   2.821
  257SOL    HW1 1670   5.046   6.483   2.729
  257SOL    HW2 1671   5.004   6.355   2.822
  258SOL     OW 1672   2.712   3.956   5.555
  258SOL    HW1 1673   2.696   4.031   5.618
  258SOL    HW2 1674   2.700   3.989   5.461
  259SOL     OW 1675   4.842   0.688   2.497
  259SOL    HW1 1676   4.854   0.685   2.398
  259SOL    HW2 1677   4.745   0.697   2.519
  260SOL     OW 1678   4.063   4.897   3.442
  260SOL    HW1 1679   3.987   4.932   3.497
  260SOL    HW2 1680   4.082   4.960   3.367
  261SOL     OW 1681   5.248   5.346   0.992
  261SOL    HW1 1682   5.187   5.347   0.912
  261SOL    HW2 1683   5.200   5.386   1.070
  262SOL     OW 1684   2.199   3.492   1.281
  262SOL    HW1 1685   2.174   3.562   1.347
  262SOL    HW2 1686   2.238   3.536   1.200
  263SOL     OW 1687   1.083   0.060   3.980
  263SOL    HW1 1688   1.125   6.997   4.024
  263SOL    HW2 1689   1.125   0.073   3.890
  264SOL     OW 1690   6.878   2.652   0.259
  264SOL    HW1 1691   6.965   2.660   0.308
  264SOL    HW2 1692   6.855   2.556   0.246
  265SOL     OW 1693   6.372   6.792   3.340
  265SOL    HW1 1694   6.297   6.858   3.350
  265SOL    HW2 1695   6.459   6.840   3.338
  266SOL     OW 1696   5.087   2.478   6.003
  266SOL    HW1 1697   5.011   2.482   5.939
  266SOL    HW2 1698   5.051   2.463   6.096
  267SOL     OW 1699   1.342   1.043   5.176
  267SOL    HW1 1700   1.394   0.983   5.236
  267SOL    HW2 1701   1.265   0.993   5.138
  268SOL     OW 1702   4.042   1.236   6.397
  268SOL    HW1 1703   4.003   1.147   6.370
  268SOL    HW2 1704   3.968   1.301   6.412
  269SOL     OW 1705   3.279   1.768   6.901
  269SOL    HW1 1706   3.181   1.757   6.920
  269SOL    HW2 1707   3.298   1.863   6.876
  270SOL     OW 1708   0.683   6.169   0.046
  270SOL    HW1 1709   0.711   6.234   0.117
  270SOL    HW2 1710   0.718   6.200   6.974
  271SOL     OW 1711   0.538   1.587   6.315
  271SOL    HW1 1712   0.522   1.509   6.375
  271SOL    HW2 1713   0.525   1.672   6.365
  272SOL     OW 1714   3.256   5.738   4.161
  272SOL    HW1 1715   3.315   5.657   4.154
  272SOL    HW2 1716   3.304   5.817   4.123
  273SOL     OW 1717   1.610   4.934   6.048
  273SOL    HW1 1718   1.576   4.946   5.955
  273SOL    HW2 1719   1.703   4.972   6.056
  274SOL     OW 1720   3.988   0.956   3.985
  274SOL    HW1 1721   4.067   0.986   3.933
  274SOL    HW2 1722   3.917   1.026   3.982
  275SOL     OW 1723   7.015   6.509   2.692
  275SOL    HW1 1724   0.054   6.553   2.762
  275SOL    HW2 1725   0.051   6.500   2.607
  276SOL     OW 1726   0.383   0.022   4.241
  276SOL    HW1 1727   0.439   7.008   4.163
  276SOL    HW2 1728   0.438   0.079   4.301
  277SOL     OW 1729   1.806   3.040   0.673
  277SOL    HW1 1730   1.902   3.013   0.676
  277SOL    HW2 1731   1.748   2.959   0.682
  278SOL     OW 1732   0.163   3.163   3.010
  278SOL    HW1 1733   0.213   3.199   2.931
  278SOL    HW2 1734   0.159   3.233   3.082
  279SOL     OW 1735   5.685   2.518   4.384
  279SOL    HW1 1736   5.631   2.451   4.333
  279SOL    HW2 1737   5.725   2.474   4.464
  280SOL     OW 1738   1.872   5.597   1.677
  280SOL    HW1 1739   1.878   5.689   1.638
  280SOL    HW2 1740   1.964   5.556   1.680
  281SOL     OW 1741   2.299   3.872   1.824
  281SOL    HW1 1742   2.244   3.951   1.796
  281SOL    HW2 1743   2.272   3.843   1.916
  282SOL     OW 1744   3.381   1.340   5.848
  282SOL    HW1 1745   3.346   1.382   5.931
  282SOL    HW2 1746   3.339   1.383   5.768
  283SOL     OW 1747   5.423   2.516   6.585
  283SOL    HW1 1748   5.332   2.537   6.621
  283SOL    HW2 1749   5.416   2.500   6.486
  284SOL     OW 1750   0.542   3.616   3.621
  284SOL    HW1 1751   0.580   3.659   3.539
  284SOL    HW2 1752   0.447   3.589   3.604
  285SOL     OW 1753   5.812   4.396   4.207
  285SOL    HW1 1754   5.765   4.355   4.285
  285SOL    HW2 1755   5.902   4.430   4.236
  286SOL     OW 1756   3.250   3.783   0.005
  286SOL    HW1 1757   3.335   3.731   0.014
  286SOL    HW2 1758   3.173   3.719   0.005
  287SOL     OW 1759   1.697   3.693   0.626
  287SOL    HW1 1760   1.762   3.618   0.614
  287SOL    HW2 1761   1.748   3.779   0.636
  288SOL     OW 1762   4.272   1.320   6.932
  288SOL    HW1 1763   4.258   1.227   6.896
  288SOL    HW2 1764   4.221   1.385   6.875
  289SOL     OW 1765   2.120   4.771   5.899
  289SOL    HW1 1766   2.038   4.818   5.868
  289SOL    HW2 1767   2.187   4.768   5.825
  290SOL     OW 1768   0.251   1.970   5.608
  290SOL    HW1 1769   0.236   1.871   5.605
  290SOL    HW2 1770   0.330   1.990   5.665
  291SOL     OW 1771   0.474   1.486   3.357
  291SOL    HW1 1772   0.493   1.504   3.453
  291SOL    HW2 1773   0.453   1.572   3.310
  292SOL     OW 1774   2.176   0.552   3.514
  292SOL    HW1 1775   2.129   0.465   3.497
  292SOL    HW2 1776   2.116   0.628   3.486
  293SOL     OW 1777   4.705   5.348   3.816
  293SOL    HW1 1778   4.772   5.321   3.747
  293SOL    HW2 1779   4.733   5.313   3.905
  294SOL     OW 1780   5.400   6.437   6.604
  294SOL    HW1 1781   5.338   6.378   6.554
  294SOL    HW2 1782   5.469   6.474   6.542
  295SOL     OW 1783   5.000   0.667   3.689
  295SOL    HW1 1784   4.991   0.601   3.615
  295SOL    HW2 1785   5.092   0.661   3.729
  296SOL     OW 1786   3.016   1.482   2.780
  296SOL    HW1 1787   3.035   1.453   2.687
  296SOL    HW2 1788   3.096   1.529   2.818
  297SOL     OW 1789   1.779   3.608   3.281
  297SOL    HW1 1790   1.736   3.687   3.237
  297SOL    HW2 1791   1.874   3.631   3.303
  298SOL     OW 1792   6.354   5.805   1.120
  298SOL    HW1 1793   6.274   5.798   1.060
  298SOL    HW2 1794   6.381   5.714   1.150
  299SOL     OW 1795   6.044   2.707   4.955
  299SOL    HW1 1796   6.006   2.799   4.946
  299SOL    HW2 1797   6.103   2.687   4.877
  300SOL     OW 1798   6.221   0.756   3.366
  300SOL    HW1 1799   6.292   0.686   3.378
  300SOL    HW2 1800   6.234   0.828   3.435
  301SOL     OW 1801   5.745   3.537   6.817
  301SOL    HW1 1802   5.748   3.497   6.909
  301SOL    HW2 1803   5.739   3.637   6.825
  302SOL     OW 1804   0.637   0.295   3.772
  302SOL    HW1 1805   0.732   0.320   3.790
  302SOL    HW2 1806   0.620   0.201   3.802
  303SOL     OW 1807   4.785   0.675   3.446
  303SOL    HW1 1808   4.874   0.705   3.411
  303SOL    HW2 1809   4.736   0.626   3.375
  304SOL     OW 1810   2.383   6.904   3.407
  304SOL    HW1 1811   2.332   6.821   3.427
  304SOL    HW2 1812   2.381   6.965   3.486
  305SOL     OW 1813   1.338   3.812   0.470
  305SOL    HW1 1814   1.274   3.754   0.419
  305SOL    HW2 1815   1.316   3.809   0.567
  306SOL     OW 1816   2.298   0.728   3.832
  306SOL    HW1 1817   2.343   0.750   3.919
  306SOL    HW2 1818   2.365   0.732   3.758
  307SOL     OW 1819   4.454   0.212   1.113
  307SOL    HW1 1820   4.410   0.199   1.202
  307SOL    HW2 1821   4.547   0.247   1.127
  308SOL     OW 1822   1.094   6.140   2.865
  308SOL    HW1 1823   1.032   6.187   2.801
  308SOL    HW2 1824   1.177   6.195   2.877
  309SOL     OW 1825   3.568   4.719   5.269
  309SOL    HW1 1826   3.611   4.807   5.250
  309SOL    HW2 1827   3.469   4.728   5.263
  310SOL     OW 1828   0.208   6.551   5.648
  310SOL    HW1 1829   0.135   6.521   5.588
  310SOL    HW2 1830   0.247   6.472   5.696
  311SOL     OW 1831   0.535   5.833   1.775
  311SOL    HW1 1832   0.617   5.838   1.717
  311SOL    HW2 1833   0.535   5.909   1.840
  312SOL     OW 1834   5.154   2.101   5.354
  312SOL    HW1 1835   5.106   2.116   5.268
  312SOL    HW2 1836   5.139   2.179   5.415
  313SOL     OW 1837   1.948   3.969   2.078
  313SOL    HW1 1838   2.043   3.975   2.047
  313SOL    HW2 1839   1.946   3.930   2.170
  314SOL     OW 1840   3.776   5.765   0.262
  314SOL    HW1 1841   3.809   5.859   0.275
  314SOL    HW2 1842   3.853   5.706   0.238
  315SOL     OW 1843   0.764   2.627   3.444
  315SOL    HW1 1844   0.673   2.645   3.407
  315SOL    HW2 1845   0.831   2.625   3.370
  316SOL     OW 1846   2.411   2.747   3.902
  316SOL    HW1 1847   2.342   2.785   3.963
  316SOL    HW2 1848   2.481   2.700   3.956
  317SOL     OW 1849   6.849   1.906   6.979
  317SOL    HW1 1850   6.818   1.838   0.029
  317SOL    HW2 1851   6.948   1.914   6.984
  318SOL     OW 1852   2.251   3.831   1.130
  318SOL    HW1 1853   2.271   3.918   1.084
  318SOL    HW2 1854   2.204   3.849   1.217
  319SOL     OW 1855   1.747   6.419   0.838
  319SOL    HW1 1856   1.827   6.478   0.851
  319SOL    HW2 1857   1.736   6.360   0.918
  320SOL     OW 1858   6.427   3.143   0.903
  320SOL    HW1 1859   6.471   3.117   0.989
  320SOL    HW2 1860   6.425   3.063   0.842
  321SOL     OW 1861   2.174   2.778   1.597
  321SOL    HW1 1862   2.203   2.781   1.501
  321SOL    HW2 1863   2.152   2.871   1.628
  322SOL     OW 1864   3.801   3.191   5.428
  322SOL    HW1 1865   3.731   3.238   5.374
  322SOL    HW2 1866   3.803   3.094   5.403
  323SOL     OW 1867   6.778   4.034   1.103
  323SOL    HW1 1868   6.866   4.081   1.109
  323SOL    HW2 1869   6.705   4.097   1.130
  324SOL     OW 1870   1.207   2.864   4.799
  324SOL    HW1 1871   1.201   2.897   4.705
  324SOL    HW2 1872   1.297   2.886   4.836
  325SOL     OW 1873   1.910   2.665   1.985
  325SOL    HW1 1874   1.974   2.617   2.046
  325SOL    HW2 1875   1.929   2.639   1.891
  326SOL     OW 1876   1.760   5.523   6.301
  326SOL    HW1 1877   1.824   5.554   6.371
  326SOL    HW2 1878   1.738   5.427   6.317
  327SOL     OW 1879   6.580   4.641   6.004
  327SOL    HW1 1880   6.584   4.543   5.981
  327SOL    HW2 1881   6.671   4.681   5.998
  328SOL     OW 1882   4.096   5.173   2.322
  328SOL    HW1 1883   4.120   5.128   2.408
  328SOL    HW2 1884   4.037   5.112   2.268
  329SOL     OW 1885   3.744   3.765   3.191
  329SOL    HW1 1886   3.746   3.703   3.270
  329SOL    HW2 1887   3.828   3.819   3.189
  330SOL     OW 1888   3.470   6.757   1.538
  330SOL    HW1 1889   3.410   6.804   1.474
  330SOL    HW2 1890   3.478   6.810   1.622
  331SOL     OW 1891   5.047   5.223   5.804
  331SOL    HW1 1892   5.127   5.280   5.786
  331SOL    HW2 1893   5.074   5.127   5.812
  332SOL     OW 1894   3.056   1.941   3.685
  332SOL    HW1 1895   3.007   1.954   3.599
  332SOL    HW2 1896   3.128   2.010   3.693
  333SOL     OW 1897   3.959   5.715   6.119
  333SOL    HW1 1898   3.860   5.713   6.133
  333SOL    HW2 1899   3.982   5.789   6.055
  334SOL     OW 1900   3.599   0.347   2.402
  334SOL    HW1 1901   3.583   0.379   2.495
  334SOL    HW2 1902   3.663   0.409   2.356
  335SOL     OW 1903   3.070   6.673   3.453
  335SOL    HW1 1904   3.164   6.656   3.424
  335SOL    HW2 1905   3.050   6.619   3.535
  336SOL     OW 1906   3.396   0.993   4.050
  336SOL    HW1 1907   3.363   1.068   4.107
  336SOL    HW2 1908   3.480   0.955   4.090
  337SOL     OW 1909   6.900   4.157   1.448
  337SOL    HW1 1910   6.959   4.116   1.518
  337SOL    HW2 1911   6.910   4.107   1.362
  338SOL     OW 1912   3.016   2.592   1.392
  338SOL    HW1 1913   3.094   2.555   1.443
  338SOL    HW2 1914   3.036   2.590   1.294
  339SOL     OW 1915   4.369   6.445   2.687
  339SOL    HW1 1916   4.366   6.513   2.614
  339SOL    HW2 1917   4.402   6.358   2.650
  340SOL     OW 1918   4.953   3.428   4.693
  340SOL    HW1 1919   4.984   3.469   4.779
  340SOL    HW2 1920   5.019   3.359   4.663
  341SOL     OW 1921   5.410   5.801   4.437
  341SOL    HW1 1922   5.465   5.862   4.494
  341SOL    HW2 1923   5.372   5.852   4.360
  342SOL     OW 1924   6.006   5.122   0.904
  342SOL    HW1 1925   5.973   5.102   0.996
  342SOL    HW2 1926   6.031   5.219   0.898
  343SOL     OW 1927   3.604   0.263   1.726
  343SOL    HW1 1928   3.702   0.276   1.715
  343SOL    HW2 1929   3.586   0.181   1.780
  344SOL     OW 1930   2.247   4.659   0.774
  344SOL    HW1 1931   2.199   4.586   0.725
  344SOL    HW2 1932   2.345   4.640   0.774
  345SOL     OW 1933   0.816   0.426   5.171
  345SOL    HW1 1934   0.750   0.493   5.136
  345SOL    HW2 1935   0.823   0.349   5.108
  346SOL     OW 1936   1.248   0.148   3.038
  346SOL    HW1 1937   1.242   0.055   3.076
  346SOL    HW2 1938   1.222   0.146   2.942
  347SOL     OW 1939   5.031   0.142   6.301
  347SOL    HW1 1940   5.010   0.177   6.393
  347SOL    HW2 1941   5.009   0.212   6.233
  348SOL     OW 1942   3.466   5.141   1.285
  348SOL    HW1 1943   3.472   5.235   1.250
  348SOL    HW2 1944   3.370   5.117   1.301
  349SOL     OW 1945   0.989   4.930   2.484
  349SOL    HW1 1946   0.979   4.836   2.452
  349SOL    HW2 1947   0.945   4.992   2.419
  350SOL     OW 1948   4.119   3.112   1.317
  350SOL    HW1 1949   4.205   3.139   1.274
  350SOL    HW2 1950   4.139   3.066   1.404
  351SOL     OW 1951   2.966   1.626   0.136
  351SOL    HW1 1952   2.884   1.571   0.150
  351SOL    HW2 1953   3.011   1.599   0.051
  352SOL     OW 1954   3.428   0.749   6.112
  352SOL    HW1 1955   3.493   0.825   6.113
  352SOL    HW2 1956   3.477   0.663   6.098
  353SOL     OW 1957   1.582   6.087   0.724
  353SOL    HW1 1958   1.579   5.992   0.756
  353SOL    HW2 1959   1.678   6.114   0.710
  354SOL     OW 1960   4.247   1.738   0.472
  354SOL    HW1 1961   4.242   1.639   0.483
  354SOL    HW2 1962   4.255   1.781   0.562
  355SOL     OW 1963   6.942   3.609   2.876
  355SOL    HW1 1964   6.897   3.520   2.874
  355SOL    HW2 1965   6.909   3.664   2.798
  356SOL     OW 1966   4.048   5.206   3.335
  356SOL    HW1 1967   4.091   5.295   3.322
  356SOL    HW2 1968   4.109   5.134   3.303
  357SOL     OW 1969   0.140   5.794   5.189
  357SOL    HW1 1970   0.172   5.888   5.177
  357SOL    HW2 1971   0.199   5.748   5.256
  358SOL     OW 1972   5.361   0.213   1.695
  358SOL    HW1 1973   5.437   0.253   1.746
  358SOL    HW2 1974   5.395   0.167   1.613
  359SOL     OW 1975   1.349   1.619   2.094
  359SOL    HW1 1976   1.305   1.591   2.009
  359SOL    HW2 1977   1.279   1.650   2.159
  360SOL     OW 1978   3.990   6.880   0.149
  360SOL    HW1 1979   3.893   6.893   0.168
  360SOL    HW2 1980   4.024   6.956   0.094
  361SOL     OW 1981   4.712   6.493   2.352
  361SOL    HW1 1982   4.741   6.551   2.276
  361SOL    HW2 1983   4.614   6.477   2.347
  362SOL     OW 1984   2.994   3.250   1.094
  362SOL    HW1 1985   2.934   3.329   1.084
  362SOL    HW2 1986   2.964   3.177   1.033
  363SOL     OW 1987   4.302   4.730   4.400
  363SOL    HW1 1988   4.230   4.707   4.466
  363SOL    HW2 1989   4.378   4.666   4.410
  364SOL     OW 1990   0.996   5.108   6.066
  364SOL    HW1 1991   1.032   5.104   5.973
  364SOL    HW2 1992   0.971   5.203   6.088
  365SOL     OW 1993   4.824   6.401   1.744
  365SOL    HW1 1994   4.877   6.384   1.827
  365SOL    HW2 1995   4.817   6.500   1.728
  366SOL     OW 1996   5.604   0.942   6.951
  366SOL    HW1 1997   5.605   0.930   6.852
  366SOL    HW2 1998   5.584   1.038   6.973
  367SOL     OW 1999   5.425   2.705   1.660
  367SOL    HW1 2000   5.333   2.717   1.624
  367SOL    HW2 2001   5.487   2.683   1.585
  368SOL     OW 2002   0.993   5.109   5.285
  368SOL    HW1 2003   1.036   5.091   5.197
  368SOL    HW2 2004   0.894   5.120   5.272
  369SOL     OW 2005   0.812   4.122   1.712
  369SOL    HW1 2006   0.878   4.182   1.758
  369SOL    HW2 2007   0.859   4.070   1.641
  370SOL     OW 2008   3.177   1.424   5.686
  370SOL    HW1 2009   3.156   1.520   5.707
  370SOL    HW2 2010   3.093   1.373   5.673
  371SOL     OW 2011   3.393   2.890   0.384
  371SOL    HW1 2012   3.479   2.930   0.350
  371SOL    HW2 2013   3.348   2.842   0.310
  372SOL     OW 2014   0.168   6.352   6.473
  372SOL    HW1 2015   0.136   6.258   6.484
  372SOL    HW2 2016   0.104   6.403   6.416
  373SOL     OW 2017   0.045   0.013   0.331
  373SOL    HW1 2018   0.078   6.936   0.341
  373SOL    HW2 2019   6.969   0.012   0.295
  374SOL     OW 2020   3.357   0.704   1.740
  374SOL    HW1 2021   3.422   0.742   1.806
  374SOL    HW2 2022   3.370   0.605   1.734
  375SOL     OW 2023   6.469   4.928   3.208
  375SOL    HW1 2024   6.528   4.904   3.131
  375SOL    HW2 2025   6.481   4.861   3.281
  376SOL     OW 2026   1.655   2.680   4.123
  376SOL    HW1 2027   1.725   2.750   4.135
  376SOL    HW2 2028   1.697   2.594   4.096
  377SOL     OW 2029   4.915   2.008   3.421
  377SOL    HW1 2030   4.968   1.924   3.429
  377SOL    HW2 2031   4.867   2.026   3.507
  378SOL     OW 2032   5.064   2.691   5.076
  378SOL    HW1 2033   4.987   2.630   5.057
  378SOL    HW2 2034   5.029   2.779   5.108
  379SOL     OW 2035   6.038   3.497   0.968
  379SOL    HW1 2036   6.101   3.569   0.998
  379SOL    HW2 2037   6.073   3.455   0.884
  380SOL     OW 2038   1.291   1.892   1.254
  380SOL    HW1 2039   1.322   1.868   1.162
  380SOL    HW2 2040   1.305   1.989   1.270
  381SOL     OW 2041   3.613   3.558   1.423
  381SOL    HW1 2042   3.678   3.634   1.420
  381SOL    HW2 2043   3.636   3.498   1.499
  382SOL     OW 2044   2.950   5.947   0.265
  382SOL    HW1 2045   2.958   5.862   0.317
  382SOL    HW2 2046   2.888   6.009   0.313
  383SOL     OW 2047   6.529   2.464   0.406
  383SOL    HW1 2048   6.442   2.452   0.358
  383SOL    HW2 2049   6.567   2.554   0.383
  384SOL     OW 2050   1.417   5.572   4.835
  384SOL    HW1 2051   1.384   5.572   4.740
  384SOL    HW2 2052   1.375   5.649   4.884
  385SOL     OW 2053   5.077   5.927   0.672
  385SOL    HW1 2054   5.083   6.024   0.698
  385SOL    HW2 2055   5.091   5.919   0.573
  386SOL     OW 2056   3.304   6.310   5.887
  386SOL    HW1 2057   3.376   6.354   5.942
  386SOL    HW2 2058   3.303   6.349   5.796
  387SOL     OW 2059   0.357   0.816   5.413
  387SOL    HW1 2060   0.373   0.726   5.452
  387SOL    HW2 2061   0.431   0.839   5.349
  388SOL     OW 2062   5.920   2.453   4.889
  388SOL    HW1 2063   5.919   2.537   4.943
  388SOL    HW2 2064   5.923   2.477   4.791
  389SOL     OW 2065   4.425   4.818   1.779
  389SOL    HW1 2066   4.387   4.885   1.843
  389SOL    HW2 2067   4.399   4.726   1.808
  390SOL     OW 2068   3.640   2.051   0.637
  390SOL    HW1 2069   3.614   2.134   0.589
  390SOL    HW2 2070   3.695   1.993   0.577
  391SOL     OW 2071   3.565   4.649   5.544
  391SOL    HW1 2072   3.516   4.584   5.603
  391SOL    HW2 2073   3.560   4.618   5.449
  392SOL     OW 2074   1.140   3.826   1.965
  392SOL    HW1 2075   1.099   3.794   1.880
  392SOL    HW2 2076   1.225   3.777   1.982
  393SOL     OW 2077   1.011   4.317   1.763
  393SOL    HW1 2078   1.084   4.303   1.830
  393SOL    HW2 2079   1.042   4.287   1.673
  394SOL     OW 2080   0.011   1.061   6.465
  394SOL    HW1 2081   6.995   1.130   6.529
  394SOL    HW2 2082   7.014   0.969   6.503
  395SOL     OW 2083   5.342   4.822   1.079
  395SOL    HW1 2084   5.424   4.827   1.023
  395SOL    HW2 2085   5.295   4.911   1.077
  396SOL     OW 2086   2.431   1.181   2.084
  396SOL    HW1 2087   2.441   1.254   2.017
  396SOL    HW2 2088   2.397   1.218   2.170
  397SOL     OW 2089   4.556   1.843   5.034
  397SOL    HW1 2090   4.495   1.916   5.064
  397SOL    HW2 2091   4.640   1.883   4.997
  398SOL     OW 2092   1.936   1.314   4.295
  398SOL    HW1 2093   1.934   1.223   4.253
  398SOL    HW2 2094   1.904   1.382   4.230
  399SOL     OW 2095   5.931   6.083   4.053
  399SOL    HW1 2096   5.946   6.182   4.053
  399SOL    HW2 2097   5.845   6.063   4.007
  400SOL     OW 2098   6.573   0.617   4.606
  400SOL    HW1 2099   6.510   0.562   4.661
  400SOL    HW2 2100   6.532   0.633   4.516
  401SOL     OW 2101   6.853   5.535   5.878
  401SOL    HW1 2102   6.805   5.452   5.908
  401SOL    HW2 2103   6.834   5.609   5.942
  402SOL     OW 2104   6.133   0.189   2.383
  402SOL    HW1 2105   6.189   0.117   2.343
  402SOL    HW2 2106   6.161   0.278   2.345
  403SOL     OW 2107   2.459   1.247   5.276
  403SOL    HW1 2108   2.532   1.300   5.320
  403SOL    HW2 2109   2.395   1.214   5.345
  404SOL     OW 2110   3.791   5.077   3.782
  404SOL    HW1 2111   3.742   5.165   3.784
  404SOL    HW2 2112   3.828   5.057   3.873
  405SOL     OW 2113   2.658   4.656   4.014
  405SOL    HW1 2114   2.693   4.665   4.107
  405SOL    HW2 2115   2.733   4.667   3.948
  406SOL     OW 2116   0.582   5.607   5.896
  406SOL    HW1 2117   0.671   5.563   5.902
  406SOL    HW2 2118   0.590   5.704   5.918
  407SOL     OW 2119   2.094   3.278   4.627
  407SOL    HW1 2120   2.144   3.299   4.711
  407SOL    HW2 2121   2.142   3.207   4.576
  408SOL     OW 2122   2.634   1.635   3.694
  408SOL    HW1 2123   2.568   1.655   3.767
  408SOL    HW2 2124   2.677   1.720   3.665
  409SOL     OW 2125   0.772   3.700   2.716
  409SOL    HW1 2126   0.869   3.726   2.718
  409SOL    HW2 2127   0.762   3.606   2.748
  410SOL     OW 2128   1.864   1.509   1.406
  410SOL    HW1 2129   1.923   1.437   1.368
  410SOL    HW2 2130   1.848   1.490   1.503
  411SOL     OW 2131   0.897   2.867   1.447
  411SOL    HW1 2132   0.978   2.917   1.418
  411SOL    HW2 2133   0.923   2.792   1.508
  412SOL     OW 2134   1.525   5.850   1.910
  412SOL    HW1 2135   1.494   5.945   1.918
  412SOL    HW2 2136   1.525   5.823   1.814
  413SOL     OW 2137   6.002   5.801   2.354
  413SOL    HW1 2138   6.009   5.899   2.369
  413SOL    HW2 2139   5.923   5.765   2.405
  414SOL     OW 2140   2.046   6.445   3.607
  414SOL    HW1 2141   2.126   6.447   3.667
  414SOL    HW2 2142   2.077   6.427   3.513
  415SOL     OW 2143   6.442   1.221   0.496
  415SOL    HW1 2144   6.492   1.141   0.528
  415SOL    HW2 2145   6.349   1.218   0.532
  416SOL     OW 2146   5.023   3.029   4.809
  416SOL    HW1 2147   4.974   3.054   4.892
  416SOL    HW2 2148   4.959   2.988   4.743
  417SOL     OW 2149   2.293   1.882   6.062
  417SOL    HW1 2150   2.353   1.914   6.135
  417SOL    HW2 2151   2.303   1.941   5.982
  418SOL     OW 2152   3.841   6.354   4.916
  418SOL    HW1 2153   3.890   6.269   4.937
  418SOL    HW2 2154   3.760   6.333   4.863
  419SOL     OW 2155   0.352   0.217   0.776
  419SOL    HW1 2156   0.442   0.191   0.740
  419SOL    HW2 2157   0.299   0.134   0.796
  420SOL     OW 2158   5.049   1.186   6.261
  420SOL    HW1 2159   4.982   1.114   6.277
  420SOL    HW2 2160   5.018   1.245   6.186
  421SOL     OW 2161   5.370   3.481   2.762
  421SOL    HW1 2162   5.457   3.515   2.795
  421SOL    HW2 2163   5.306   3.471   2.839
  422SOL     OW 2164   4.900   3.216   1.896
  422SOL    HW1 2165   4.978   3.213   1.958
  422SOL    HW2 2166   4.829   3.153   1.929
  423SOL     OW 2167   3.576   1.370   6.750
  423SOL    HW1 2168   3.582   1.282   6.702
  423SOL    HW2 2169   3.480   1.396   6.761
  424SOL     OW 2170   0.996   3.594   3.394
  424SOL    HW1 2171   0.923   3.590   3.325
  424SOL    HW2 2172   0.956   3.581   3.485
  425SOL     OW 2173   2.658   1.064   5.610
  425SOL    HW1 2174   2.650   1.041   5.513
  425SOL    HW2 2175   2.728   1.006   5.652
  426SOL     OW 2176   2.615   2.238   4.184
  426SOL    HW1 2177   2.689   2.171   4.185
  426SOL    HW2 2178   2.640   2.317   4.240
  427SOL     OW 2179   3.747   2.109   3.183
  427SOL    HW1 2180   3.649   2.124   3.201
  427SOL    HW2 2181   3.761   2.097   3.085
  428SOL     OW 2182   2.661   1.960   5.706
  428SOL    HW1 2183   2.729   1.911   5.652
  428SOL    HW2 2184   2.574   1.962   5.656
  429SOL     OW 2185   0.755   5.897   3.914
  429SOL    HW1 2186   0.829   5.835   3.939
  429SOL    HW2 2187   0.767   5.928   3.820
  430SOL     OW 2188   1.258   0.145   3.779
  430SOL    HW1 2189   1.305   0.230   3.757
  430SOL    HW2 2190   1.312   0.068   3.748
  431SOL     OW 2191   2.807   1.914   1.617
  431SOL    HW1 2192   2.759   1.854   1.553
  431SOL    HW2 2193   2.758   2.001   1.625
  432SOL     OW 2194   4.273   2.278   2.077
  432SOL    HW1 2195   4.274   2.206   2.008
  432SOL    HW2 2196   4.203   2.346   2.054
  433SOL     OW 2197   2.115   5.433   0.456
  433SOL    HW1 2198   2.122   5.527   0.423
  433SOL    HW2 2199   2.198   5.409   0.507
  434SOL     OW 2200   4.069   5.798   3.776
  434SOL    HW1 2201   4.014   5.714   3.772
  434SOL    HW2 2202   4.114   5.813   3.688
  435SOL     OW 2203   3.596   1.602   5.966
  435SOL    HW1 2204   3.541   1.648   6.035
  435SOL    HW2 2205   3.647   1.670   5.913
  436SOL     OW 2206   4.698   0.087   2.686
  436SOL    HW1 2207   4.713   0.124   2.777
  436SOL    HW2 2208   4.601   0.062   2.676
  437SOL     OW 2209   6.579   0.713   5.087
  437SOL    HW1 2210   6.499   0.742   5.140
  437SOL    HW2 2211   6.574   0.754   4.995
  438SOL     OW 2212   0.307   4.198   2.730
  438SOL    HW1 2213   0.287   4.201   2.828
  438SOL    HW2 2214   0.246   4.262   2.682
  439SOL     OW 2215   6.962   0.308   4.382
  439SOL    HW1 2216   0.027   0.291   4.327
  439SOL    HW2 2217   6.945   0.406   4.389
  440SOL     OW 2218   3.975   1.367   0.701
  440SOL    HW1 2219   3.927   1.450   0.674
  440SOL    HW2 2220   3.977   1.360   0.801
  441SOL     OW 2221   0.248   4.011   2.465
  441SOL    HW1 2222   0.283   3.970   2.380
  441SOL    HW2 2223   0.264   3.947   2.541
  442SOL     OW 2224   5.150   3.085   5.702
  442SOL    HW1 2225   5.175   3.047   5.613
  442SOL    HW2 2226   5.229   3.083   5.763
  443SOL     OW 2227   4.929   3.462   2.262
  443SOL    HW1 2228   4.877   3.377   2.266
  443SOL    HW2 2229   4.904   3.519   2.341
  444SOL     OW 2230   4.003   0.950   1.833
  444SOL    HW1 2231   3.934   0.879   1.845
  444SOL    HW2 2232   3.960   1.040   1.833
  445SOL     OW 2233   1.601   5.699   2.362
  445SOL    HW1 2234   1.553   5.613   2.379
  445SOL    HW2 2235   1.617   5.708   2.264
  446SOL     OW 2236   5.335   6.844   1.656
  446SOL    HW1 2237   5.267   6.892   1.712
  446SOL    HW2 2238   5.385   6.910   1.601
  447SOL     OW 2239   5.900   4.667   1.064
  447SOL    HW1 2240   5.903   4.581   1.013
  447SOL    HW2 2241   5.943   4.739   1.010
  448SOL     OW 2242   2.710   0.169   3.085
  448SOL    HW1 2243   2.707   0.077   3.126
  448SOL    HW2 2244   2.803   0.205   3.090
  449SOL     OW 2245   1.437   4.196   4.941
  449SOL    HW1 2246   1.478   4.282   4.912
  449SOL    HW2 2247   1.447   4.128   4.868
  450SOL     OW 2248   0.698   4.847   3.585
  450SOL    HW1 2249   0.607   4.877   3.613
  450SOL    HW2 2250   0.694   4.751   3.558
  451SOL     OW 2251   0.725   1.966   2.227
  451SOL    HW1 2252   0.714   1.870   2.249
  451SOL    HW2 2253   0.789   2.008   2.291
  452SOL     OW 2254   4.828   5.223   1.958
  452SOL    HW1 2255   4.775   5.138   1.958
  452SOL    HW2 2256   4.780   5.293   1.905
  453SOL     OW 2257   3.549   0.495   6.098
  453SOL    HW1 2258   3.460   0.452   6.085
  453SOL    HW2 2259   3.612   0.431   6.141
  454SOL     OW 2260   6.651   3.170   6.044
  454SOL    HW1 2261   6.667   3.254   5.993
  454SOL    HW2 2262   6.607   3.103   5.985
  455SOL     OW 2263   6.161   4.667   6.006
  455SOL    HW1 2264   6.240   4.727   6.014
  455SOL    HW2 2265   6.082   4.709   6.050
  456SOL     OW 2266   2.760   0.795   2.607
  456SOL    HW1 2267   2.792   0.890   2.604
  456SOL    HW2 2268   2.661   0.793   2.615
  457SOL     OW 2269   2.637   0.380   0.226
  457SOL    HW1 2270   2.713   0.392   0.162
  457SOL    HW2 2271   2.616   0.283   0.237
  458SOL     OW 2272   3.235   1.877   3.294
  458SOL    HW1 2273   3.240   1.878   3.194
  458SOL    HW2 2274   3.147   1.914   3.324
  459SOL     OW 2275   3.341   6.997   3.743
  459SOL    HW1 2276   3.364   0.070   3.705
  459SOL    HW2 2277   3.334   7.003   3.843
  460SOL     OW 2278   1.028   1.264   5.857
  460SOL    HW1 2279   1.090   1.187   5.869
  460SOL    HW2 2280   0.938   1.230   5.830
  461SOL     OW 2281   0.772   5.116   5.690
  461SOL    HW1 2282   0.713   5.113   5.771
  461SOL    HW2 2283   0.846   5.050   5.699
  462SOL     OW 2284   3.059   4.029   4.724
  462SOL    HW1 2285   2.980   4.025   4.664
  462SOL    HW2 2286   3.138   4.064   4.674
  463SOL     OW 2287   5.288   6.942   3.127
  463SOL    HW1 2288   5.340   6.931   3.042
  463SOL    HW2 2289   5.291   6.856   3.179
  464SOL     OW 2290   3.984   5.164   6.478
  464SOL    HW1 2291   3.947   5.135   6.390
  464SOL    HW2 2292   4.056   5.232   6.462
  465SOL     OW 2293   0.929   3.821   1.306
  465SOL    HW1 2294   0.883   3.747   1.256
  465SOL    HW2 2295   1.026   3.802   1.313
  466SOL     OW 2296   3.689   5.677   4.707
  466SOL    HW1 2297   3.723   5.753   4.651
  466SOL    HW2 2298   3.730   5.592   4.675
  467SOL     OW 2299   6.024   6.841   1.922
  467SOL    HW1 2300   6.068   6.751   1.922
  467SOL    HW2 2301   6.033   6.883   2.012
  468SOL     OW 2302   3.176   6.851   6.649
  468SOL    HW1 2303   3.139   6.758   6.647
  468SOL    HW2 2304   3.231   6.863   6.732
  469SOL     OW 2305   3.483   5.061   5.401
  469SOL    HW1 2306   3.530   5.032   5.318
  469SOL    HW2 2307   3.420   5.135   5.380
  470SOL     OW 2308   2.357   4.948   2.975
  470SOL    HW1 2309   2.342   4.897   2.890
  470SOL    HW2 2310   2.381   5.042   2.953
  471SOL     OW 2311   1.713   2.403   4.058
  471SOL    HW1 2312   1.759   2.337   3.998
  471SOL    HW2 2313   1.671   2.355   4.135
  472SOL     OW 2314   5.841   3.433   6.393
  472SOL    HW1 2315   5.917   3.408   6.334
  472SOL    HW2 2316   5.814   3.355   6.450
  473SOL     OW 2317   6.267   2.911   2.273
  473SOL    HW1 2318   6.191   2.973   2.257
  473SOL    HW2 2319   6.318   2.898   2.188
  474SOL     OW 2320   4.512   6.295   4.033
  474SOL    HW1 2321   4.509   6.285   4.133
  474SOL    HW2 2322   4.439   6.357   4.004
  475SOL     OW 2323   5.956   2.016   0.502
  475SOL    HW1 2324   5.865   2.018   0.543
  475SOL    HW2 2325   5.961   1.940   0.437
  476SOL     OW 2326   1.196   4.423   1.536
  476SOL    HW1 2327   1.109   4.427   1.488
  476SOL    HW2 2328   1.239   4.334   1.519
  477SOL     OW 2329   1.645   4.467   3.642
  477SOL    HW1 2330   1.602   4.545   3.687
  477SOL    HW2 2331   1.582   4.427   3.576
  478SOL     OW 2332   5.051   5.469   2.007
  478SOL    HW1 2333   5.130   5.420   1.969
  478SOL    HW2 2334   5.004   5.410   2.072
  479SOL     OW 2335   3.186   4.115   3.651
  479SOL    HW1 2336   3.169   4.162   3.564
  479SOL    HW2 2337   3.113   4.047   3.666
  480SOL     OW 2338   1.261   0.827   3.160
  480SOL    HW1 2339   1.262   0.730   3.134
  480SOL    HW2 2340   1.337   0.875   3.117
  481SOL     OW 2341   6.902   0.152   0.700
  481SOL    HW1 2342   6.910   0.245   0.738
  481SOL    HW2 2343   6.835   0.153   0.625
  482SOL     OW 2344   3.929   4.931   1.662
  482SOL    HW1 2345   3.843   4.890   1.632
  482SOL    HW2 2346   4.003   4.900   1.602
  483SOL     OW 2347   5.610   1.796   4.147
  483SOL    HW1 2348   5.544   1.869   4.132
  483SOL    HW2 2349   5.661   1.779   4.063
  484SOL     OW 2350   2.376   4.303   4.197
  484SOL    HW1 2351   2.401   4.378   4.135
  484SOL    HW2 2352   2.425   4.220   4.171
  485SOL     OW 2353   5.735   3.376   1.623
  485SOL    HW1 2354   5.692   3.287   1.640
  485SOL    HW2 2355   5.717   3.404   1.529
  486SOL     OW 2356   5.915   5.959   6.302
  486SOL    HW1 2357   5.819   5.987   6.303
  486SOL    HW2 2358   5.965   6.007   6.374
  487SOL     OW 2359   6.701   7.009   5.979
  487SOL    HW1 2360   6.798   0.008   5.960
  487SOL    HW2 2361   6.686   7.008   6.078
  488SOL     OW 2362   2.112   5.763   3.074
  488SOL    HW1 2363   2.112   5.857   3.110
  488SOL    HW2 2364   2.017   5.731   3.068
  489SOL     OW 2365   1.339   6.070   6.257
  489SOL    HW1 2366   1.346   6.033   6.349
  489SOL    HW2 2367   1.423   6.051   6.206
  490SOL     OW 2368   1.200   4.334   4.266
  490SOL    HW1 2369   1.102   4.322   4.249
  490SOL    HW2 2370   1.214   4.349   4.364
  491SOL     OW 2371   0.615   2.644   0.746
  491SOL    HW1 2372   0.640   2.681   0.835
  491SOL    HW2 2373   0.673   2.684   0.675
  492SOL     OW 2374   0.912   2.449   5.590
  492SOL    HW1 2375   0.960   2.364   5.567
  492SOL    HW2 2376   0.975   2.510   5.638
  493SOL     OW 2377   2.398   5.572   4.308
  493SOL    HW1 2378   2.471   5.637   4.287
  493SOL    HW2 2379   2.367   5.527   4.224
  494SOL     OW 2380   2.382   6.621   4.701
  494SOL    HW1 2381   2.429   6.698   4.657
  494SOL    HW2 2382   2.416   6.611   4.794
  495SOL     OW 2383   3.754   4.019   5.984
  495SOL    HW1 2384   3.668   4.028   5.935
  495SOL    HW2 2385   3.806   3.942   5.947
  496SOL     OW 2386   4.917   1.275   3.247
  496SOL    HW1 2387   4.944   1.184   3.277
  496SOL    HW2 2388   4.996   1.337   3.250
  497SOL     OW 2389   4.698   1.930   7.004
  497SOL    HW1 2390   4.787   1.888   6.984
  497SOL    HW2 2391   4.693   1.950   0.085
  498SOL     OW 2392   0.613   6.623   1.763
  498SOL    HW1 2393   0.702   6.586   1.736
  498SOL    HW2 2394   0.607   6.718   1.734
  499SOL     OW 2395   2.993   5.931   7.011
  499SOL    HW1 2396   3.004   5.927   0.094
  499SOL    HW2 2397   2.990   6.026   6.981
  500SOL     OW 2398   5.808   2.056   0.136
  500SOL    HW1 2399   5.870   2.113   0.191
  500SOL    HW2 2400   5.840   2.055   0.042
  501SOL     OW 2401   1.059   1.303   4.438
  501SOL    HW1 2402   1.113   1.227   4.404
  501SOL    HW2 2403   0.962   1.281   4.432
  502SOL     OW 2404   2.016   4.890   6.776
  502SOL    HW1 2405   1.925   4.908   6.812
  502SOL    HW2 2406   2.065   4.828   6.838
  503SOL     OW 2407   4.087   5.060   0.395
  503SOL    HW1 2408   3.988   5.072   0.396
  503SOL    HW2 2409   4.129   5.114   0.468
  504SOL     OW 2410   5.835   6.204   1.786
  504SOL    HW1 2411   5.795   6.199   1.877
  504SOL    HW2 2412   5.809   6.122   1.734
  505SOL     OW 2413   4.701   6.081   4.833
  505SOL    HW1 2414   4.770   6.151   4.811
  505SOL    HW2 2415   4.667   6.040   4.749
  506SOL     OW 2416   4.188   5.206   2.037
  506SOL    HW1 2417   4.121   5.183   2.107
  506SOL    HW2 2418   4.190   5.306   2.025
  507SOL     OW 2419   2.974   0.711   0.790
  507SOL    HW1 2420   2.874   0.705   0.785
  507SOL    HW2 2421   3.000   0.801   0.824
  508SOL     OW 2422   6.979   4.213   3.561
  508SOL    HW1 2423   6.891   4.169   3.578
  508SOL    HW2 2424   0.020   4.204   3.642
  509SOL     OW 2425   4.707   0.262   6.218
  509SOL    HW1 2426   4.798   0.281   6.182
  509SOL    HW2 2427   4.698   0.303   6.309
  510SOL     OW 2428   6.574   3.830   6.928
  510SOL    HW1 2429   6.586   3.924   6.895
  510SOL    HW2 2430   6.499   3.828   6.994
  511SOL     OW 2431   0.633   2.385   0.658
  511SOL    HW1 2432   0.552   2.333   0.684
  511SOL    HW2 2433   0.631   2.474   0.703
  512SOL     OW 2434   6.815   2.287   4.920
  512SOL    HW1 2435   6.832   2.220   4.992
  512SOL    HW2 2436   6.853   2.252   4.834
  513SOL     OW 2437   5.333   0.975   3.063
  513SOL    HW1 2438   5.258   0.909   3.055
  513SOL    HW2 2439   5.394   0.966   2.984
  514SOL     OW 2440   6.167   0.090   4.892
  514SOL    HW1 2441   6.206   0.038   4.815
  514SOL    HW2 2442   6.209   0.061   4.977
  515SOL     OW 2443   3.561   0.365   5.526
  515SOL    HW1 2444   3.566   0.423   5.444
  515SOL    HW2 2445   3.561   0.269   5.499
  516SOL     OW 2446   2.462   5.792   2.178
  516SOL    HW1 2447   2.443   5.880   2.134
  516SOL    HW2 2448   2.439   5.799   2.275
  517SOL     OW 2449   3.657   5.743   1.410
  517SOL    HW1 2450   3.695   5.825   1.368
  517SOL    HW2 2451   3.647   5.672   1.341
  518SOL     OW 2452   1.911   3.586   3.805
  518SOL    HW1 2453   1.943   3.579   3.900
  518SOL    HW2 2454   1.855   3.669   3.795
  519SOL     OW 2455   0.132   0.338   2.134
  519SOL    HW1 2456   0.058   0.374   2.077
  519SOL    HW2 2457   0.169   0.255   2.092
  520SOL     OW 2458   1.846   4.114   0.901
  520SOL    HW1 2459   1.935   4.136   0.940
  520SOL    HW2 2460   1.847   4.021   0.866
  521SOL     OW 2461   6.575   6.261   4.826
  521SOL    HW1 2462   6.598   6.256   4.923
  521SOL    HW2 2463   6.502   6.195   4.806
  522SOL     OW 2464   3.739   4.200   1.508
  522SOL    HW1 2465   3.829   4.206   1.552
  522SOL    HW2 2466   3.691   4.288   1.517
  523SOL     OW 2467   1.064   6.971   1.182
  523SOL    HW1 2468   1.144   7.009   1.135
  523SOL    HW2 2469   0.982   6.992   1.128
  524SOL     OW 2470   0.238   2.455   1.579
  524SOL    HW1 2471   0.332   2.431   1.605
  524SOL    HW2 2472   0.234   2.466   1.479
  525SOL     OW 2473   1.035   3.467   5.462
  525SOL    HW1 2474   1.088   3.422   5.534
  525SOL    HW2 2475   0.991   3.397   5.405
  526SOL     OW 2476   3.271   0.256   3.888
  526SOL    HW1 2477   3.235   0.210   3.807
  526SOL    HW2 2478   3.225   0.344   3.900
  527SOL     OW 2479   0.427   1.003   0.619
  527SOL    HW1 2480   0.345   1.057   0.642
  527SOL    HW2 2481   0.415   0.961   0.529
  528SOL     OW 2482   6.927   3.588   4.007
  528SOL    HW1 2483   7.007   3.537   3.975
  528SOL    HW2 2484   6.891   3.642   3.931
  529SOL     OW 2485   1.864   0.759   0.316
  529SOL    HW1 2486   1.911   0.807   0.391
  529SOL    HW2 2487   1.849   0.664   0.343
  530SOL     OW 2488   3.733   3.929   1.183
  530SOL    HW1 2489   3.741   3.910   1.085
  530SOL    HW2 2490   3.820   3.964   1.218
  531SOL     OW 2491   1.224   0.281   0.807
  531SOL    HW1 2492   1.185   0.307   0.895
  531SOL    HW2 2493   1.317   0.246   0.821
  532SOL     OW 2494   1.617   2.452   6.810
  532SOL    HW1 2495   1.695   2.479   6.867
  532SOL    HW2 2496   1.640   2.463   6.714
  533SOL     OW 2497   3.757   0.164   4.708
  533SOL    HW1 2498   3.807   0.094   4.758
  533SOL    HW2 2499   3.680   0.196   4.763
  534SOL     OW 2500   1.647   5.267   1.732
  534SOL    HW1 2501   1.742   5.255   1.763
  534SOL    HW2 2502   1.608   5.349   1.775
  535SOL     OW 2503   5.291   3.118   4.041
  535SOL    HW1 2504   5.318   3.026   4.070
  535SOL    HW2 2505   5.226   3.110   3.966
  536SOL     OW 2506   6.942   0.099   2.157
  536SOL    HW1 2507   6.999   0.052   2.225
  536SOL    HW2 2508   6.860   0.136   2.202
  537SOL     OW 2509   4.052   2.115   4.301
  537SOL    HW1 2510   4.113   2.060   4.358
  537SOL    HW2 2511   4.096   2.202   4.280
  538SOL     OW 2512   3.319   4.763   5.283
  538SOL    HW1 2513   3.333   4.835   5.214
  538SOL    HW2 2514   3.221   4.752   5.300
  539SOL     OW 2515   1.005   0.036   0.010
  539SOL    HW1 2516   0.953   6.982   0.059
  539SOL    HW2 2517   0.946   0.113   7.006
  540SOL     OW 2518   0.640   0.129   4.213
  540SOL    HW1 2519   0.706   0.104   4.141
  540SOL    HW2 2520   0.690   0.148   4.298
  541SOL     OW 2521   4.083   5.771   4.073
  541SOL    HW1 2522   4.065   5.752   3.976
  541SOL    HW2 2523   3.996   5.784   4.121
  542SOL     OW 2524   3.373   0.554   5.852
  542SOL    HW1 2525   3.347   0.482   5.916
  542SOL    HW2 2526   3.311   0.632   5.864
  543SOL     OW 2527   6.521   2.168   4.153
  543SOL    HW1 2528   6.536   2.214   4.065
  543SOL    HW2 2529   6.482   2.233   4.218
  544SOL     OW 2530   1.907   3.908   1.161
  544SOL    HW1 2531   1.882   3.813   1.143
  544SOL    HW2 2532   1.960   3.914   1.246
  545SOL     OW 2533   5.588   0.732   1.369
  545SOL    HW1 2534   5.683   0.708   1.388
  545SOL    HW2 2535   5.539   0.743   1.456
  546SOL     OW 2536   0.209   4.180   3.002
  546SOL    HW1 2537   0.197   4.266   3.052
  546SOL    HW2 2538   0.123   4.128   3.005
  547SOL     OW 2539   5.343   0.991   6.030
  547SOL    HW1 2540   5.377   1.015   6.121
  547SOL    HW2 2541   5.407   1.023   5.960
  548SOL     OW 2542   3.359   2.349   0.032
  548SOL    HW1 2543   3.311   2.436   0.025
  548SOL    HW2 2544   3.293   2.275   0.044
  549SOL     OW 2545   5.848   1.441   1.746
  549SOL    HW1 2546   5.769   1.444   1.685
  549SOL    HW2 2547   5.932   1.456   1.694
  550SOL     OW 2548   6.821   5.329   3.102
  550SOL    HW1 2549   6.911   5.294   3.129
  550SOL    HW2 2550   6.794   5.403   3.163
  551SOL     OW 2551   6.414   0.819   0.811
  551SOL    HW1 2552   6.415   0.730   0.858
  551SOL    HW2 2553   6.376   0.808   0.719
  552SOL     OW 2554   6.430   5.009   5.810
  552SOL    HW1 2555   6.503   5.056   5.759
  552SOL    HW2 2556   6.355   4.986   5.747
  553SOL     OW 2557   2.617   1.670   0.011
  553SOL    HW1 2558   2.586   1.744   0.071
  553SOL    HW2 2559   2.546   1.600   0.005
  554SOL     OW 2560   5.662   6.361   1.597
  554SOL    HW1 2561   5.750   6.386   1.556
  554SOL    HW2 2562   5.665   6.267   1.630
  555SOL     OW 2563   1.327   4.127   5.596
  555SOL    HW1 2564   1.426   4.141   5.588
  555SOL    HW2 2565   1.282   4.163   5.514
  556SOL     OW 2566   5.372   0.223   4.243
  556SOL    HW1 2567   5.282   0.220   4.288
  556SOL    HW2 2568   5.444   0.222   4.312
  557SOL     OW 2569   6.780   4.244   6.569
  557SOL    HW1 2570   6.829   4.331   6.557
  557SOL    HW2 2571   6.843   4.168   6.554
  558SOL     OW 2572   3.203   4.051   2.278
  558SOL    HW1 2573   3.281   4.063   2.216
  558SOL    HW2 2574   3.132   3.998   2.232
  559SOL     OW 2575   6.278   0.135   5.689
  559SOL    HW1 2576   6.258   0.231   5.673
  559SOL    HW2 2577   6.376   0.119   5.677
  560SOL     OW 2578   6.079   2.940   3.426
  560SOL    HW1 2579   6.071   2.977   3.518
  560SOL    HW2 2580   6.086   2.841   3.430
  561SOL     OW 2581   0.806   2.989   0.407
  561SOL    HW1 2582   0.864   2.972   0.328
  561SOL    HW2 2583   0.710   2.986   0.380
  562SOL     OW 2584   4.211   6.754   5.334
  562SOL    HW1 2585   4.289   6.797   5.381
  562SOL    HW2 2586   4.130   6.811   5.346
  563SOL     OW 2587   1.858   1.300   4.576
  563SOL    HW1 2588   1.911   1.334   4.499
  563SOL    HW2 2589   1.858   1.200   4.576
  564SOL     OW 2590   0.017   1.914   5.830
  564SOL    HW1 2591   6.940   1.949   5.836
  564SOL    HW2 2592   0.065   1.962   5.757
  565SOL     OW 2593   4.087   3.480   3.302
  565SOL    HW1 2594   4.117   3.474   3.398
  565SOL    HW2 2595   4.086   3.389   3.262
  566SOL     OW 2596   3.522   0.190   3.198
  566SOL    HW1 2597   3.572   0.223   3.278
  566SOL    HW2 2598   3.446   0.132   3.228
  567SOL     OW 2599   2.116   2.856   5.793
  567SOL    HW1 2600   2.141   2.951   5.771
  567SOL    HW2 2601   2.191   2.796   5.767
  568SOL     OW 2602   6.832   6.520   0.250
  568SOL    HW1 2603   6.897   6.583   0.208
  568SOL    HW2 2604   6.881   6.456   0.309
  569SOL     OW 2605   6.327   2.212   0.496
  569SOL    HW1 2606   6.372   2.301   0.498
  569SOL    HW2 2607   6.366   2.154   0.567
  570SOL     OW 2608   2.410   0.621   5.671
  570SOL    HW1 2609   2.375   0.534   5.637
  570SOL    HW2 2610   2.412   0.688   5.597
  571SOL     OW 2611   2.380   5.343   2.640
  571SOL    HW1 2612   2.392   5.422   2.701
  571SOL    HW2 2613   2.314   5.367   2.569
  572SOL     OW 2614   2.774   7.016   4.065
  572SOL    HW1 2615   2.697   0.034   4.117
  572SOL    HW2 2616   2.857   0.051   4.088
  573SOL     OW 2617   7.009   1.106   5.233
  573SOL    HW1 2618   0.010   1.090   5.330
  573SOL    HW2 2619   6.910   1.101   5.216
  574SOL     OW 2620   2.181   2.351   5.588
  574SOL    HW1 2621   2.158   2.410   5.510
  574SOL    HW2 2622   2.112   2.363   5.660
  575SOL     OW 2623   3.840   2.994   0.605
  575SOL    HW1 2624   3.812   3.058   0.676
  575SOL    HW2 2625   3.805   3.024   0.517
  576SOL     OW 2626   2.060   3.107   3.251
  576SOL    HW1 2627   2.025   3.158   3.172
  576SOL    HW2 2628   2.131   3.044   3.220
  577SOL     OW 2629   0.892   1.207   1.942
  577SOL    HW1 2630   0.888   1.274   1.867
  577SOL    HW2 2631   0.818   1.140   1.929
  578SOL     OW 2632   2.196   6.467   6.849
  578SOL    HW1 2633   2.171   6.464   6.946
  578SOL    HW2 2634   2.273   6.530   6.836
  579SOL     OW 2635   2.316   4.240   1.966
  579SOL    HW1 2636   2.277   4.327   1.997
  579SOL    HW2 2637   2.397   4.257   1.910
  580SOL     OW 2638   4.259   5.545   4.521
  580SOL    HW1 2639   4.243   5.598   4.438
  580SOL    HW2 2640   4.230   5.450   4.506
  581SOL     OW 2641   1.781   2.588   4.705
  581SOL    HW1 2642   1.698   2.617   4.658
  581SOL    HW2 2643   1.828   2.668   4.743
  582SOL     OW 2644   5.272   5.713   3.702
  582SOL    HW1 2645   5.231   5.780   3.763
  582SOL    HW2 2646   5.204   5.681   3.636
  583SOL     OW 2647   4.266   5.700   5.778
  583SOL    HW1 2648   4.183   5.647   5.795
  583SOL    HW2 2649   4.340   5.638   5.751
  584SOL     OW 2650   4.370   0.814   5.506
  584SOL    HW1 2651   4.297   0.872   5.468
  584SOL    HW2 2652   4.439   0.872   5.549
  585SOL     OW 2653   2.994   0.690   2.050
  585SOL    HW1 2654   3.041   0.667   2.135
  585SOL    HW2 2655   3.045   0.762   2.002
  586SOL     OW 2656   4.841   6.823   0.607
  586SOL    HW1 2657   4.846   6.812   0.706
  586SOL    HW2 2658   4.814   6.917   0.586
  587SOL     OW 2659   4.844   2.010   1.630
  587SOL    HW1 2660   4.750   2.043   1.635
  587SOL    HW2 2661   4.870   1.999   1.534
  588SOL     OW 2662   1.389   5.428   2.643
  588SOL    HW1 2663   1.297   5.390   2.648
  588SOL    HW2 2664   1.428   5.433   2.735
  589SOL     OW 2665   3.171   6.093   0.806
  589SOL    HW1 2666   3.269   6.091   0.825
  589SOL    HW2 2667   3.148   6.177   0.757
  590SOL     OW 2668   4.687   1.918   0.674
  590SOL    HW1 2669   4.740   1.974   0.738
  590SOL    HW2 2670   4.659   1.974   0.596
  591SOL     OW 2671   3.739   6.050   4.653
  591SOL    HW1 2672   3.800   6.128   4.657
  591SOL    HW2 2673   3.719   6.019   4.746
  592SOL     OW 2674   4.177   1.883   4.094
  592SOL    HW1 2675   4.246   1.955   4.084
  592SOL    HW2 2676   4.108   1.912   4.160
  593SOL     OW 2677   2.895   1.236   6.408
  593SOL    HW1 2678   2.858   1.243   6.501
  593SOL    HW2 2679   2.825   1.198   6.348
  594SOL     OW 2680   5.162   1.246   2.036
  594SOL    HW1 2681   5.215   1.288   1.962
  594SOL    HW2 2682   5.067   1.277   2.032
  595SOL     OW 2683   5.438   5.784   2.534
  595SOL    HW1 2684   5.469   5.851   2.602
  595SOL    HW2 2685   5.456   5.692   2.568
  596SOL     OW 2686   6.629   4.926   4.347
  596SOL    HW1 2687   6.613   4.901   4.442
  596SOL    HW2 2688   6.598   4.852   4.287
  597SOL     OW 2689   2.634   0.372   6.169
  597SOL    HW1 2690   2.650   0.305   6.096
  597SOL    HW2 2691   2.617   0.461   6.128
  598SOL     OW 2692   2.985   3.342   4.508
  598SOL    HW1 2693   2.989   3.250   4.469
  598SOL    HW2 2694   2.978   3.335   4.608
  599SOL     OW 2695   1.297   5.459   1.886
  599SOL    HW1 2696   1.364   5.401   1.933
  599SOL    HW2 2697   1.261   5.527   1.950
  600SOL     OW 2698   0.115   3.889   4.876
  600SOL    HW1 2699   0.025   3.916   4.839
  600SOL    HW2 2700   0.159   3.826   4.812
  601SOL     OW 2701   2.013   6.424   4.976
  601SOL    HW1 2702   2.060   6.511   4.964
  601SOL    HW2 2703   1.915   6.436   4.957
  602SOL     OW 2704   2.307   6.446   3.712
  602SOL    HW1 2705   2.329   6.352   3.686
  602SOL    HW2 2706   2.367   6.509   3.662
  603SOL     OW 2707   1.750   1.381   5.500
  603SOL    HW1 2708   1.734   1.285   5.479
  603SOL    HW2 2709   1.781   1.390   5.595
  604SOL     OW 2710   6.638   2.433   1.773
  604SOL    HW1 2711   6.736   2.437   1.792
  604SOL    HW2 2712   6.621   2.467   1.680
  605SOL     OW 2713   6.923   5.779   2.383
  605SOL    HW1 2714   6.993   5.746   2.446
  605SOL    HW2 2715   6.864   5.703   2.355
  606SOL     OW 2716   3.599   6.553   4.583
  606SOL    HW1 2717   3.659   6.615   4.635
  606SOL    HW2 2718   3.504   6.576   4.602
  607SOL     OW 2719   0.823   4.239   6.071
  607SOL    HW1 2720   0.751   4.184   6.029
  607SOL    HW2 2721   0.842   4.319   6.012
  608SOL     OW 2722   2.648   1.393   5.413
  608SOL    HW1 2723   2.730   1.340   5.434
  608SOL    HW2 2724   2.674   1.486   5.386
  609SOL     OW 2725   3.482   2.803   2.064
  609SOL    HW1 2726   3.411   2.793   1.994
  609SOL    HW2 2727   3.500   2.715   2.107
  610SOL     OW 2728   4.782   3.542   0.900
  610SOL    HW1 2729   4.844   3.485   0.955
  610SOL    HW2 2730   4.718   3.483   0.850
  611SOL     OW 2731   3.829   0.549   2.560
  611SOL    HW1 2732   3.761   0.543   2.633
  611SOL    HW2 2733   3.901   0.613   2.586
  612SOL     OW 2734   3.937   4.854   5.871
  612SOL    HW1 2735   3.945   4.827   5.775
  612SOL    HW2 2736   3.857   4.809   5.911
  613SOL     OW 2737   4.591   5.175   5.633
  613SOL    HW1 2738   4.552   5.257   5.675
  613SOL    HW2 2739   4.685   5.194   5.604
  614SOL     OW 2740   4.054   5.082   5.912
  614SOL    HW1 2741   4.017   4.997   5.875
  614SOL    HW2 2742   4.017   5.159   5.860
  615SOL     OW 2743   0.608   5.157   1.945
  615SOL    HW1 2744   0.544   5.085   1.919
  615SOL    HW2 2745   0.595   5.181   2.041
  616SOL     OW 2746   5.690   3.586   3.226
  616SOL    HW1 2747   5.767   3.594   3.163
  616SOL    HW2 2748   5.706   3.511   3.290
  617SOL     OW 2749   3.186   5.539   6.387
  617SOL    HW1 2750   3.204   5.588   6.302
  617SOL    HW2 2751   3.162   5.445   6.367
  618SOL     OW 2752   1.634   1.056   2.281
  618SOL    HW1 2753   1.547   1.079   2.326
  618SOL    HW2 2754   1.681   1.141   2.255
  619SOL     OW 2755   0.862   1.295   6.572
  619SOL    HW1 2756   0.866   1.321   6.475
  619SOL    HW2 2757   0.914   1.211   6.586
  620SOL     OW 2758   4.271   3.730   0.880
  620SOL    HW1 2759   4.347   3.764   0.825
  620SOL    HW2 2760   4.306   3.667   0.949
  621SOL     OW 2761   0.350   4.923   1.825
  621SOL    HW1 2762   0.291   4.914   1.745
  621SOL    HW2 2763   0.297   4.956   1.903
  622SOL     OW 2764   1.510   0.859   6.934
  622SOL    HW1 2765   1.541   0.944   6.891
  622SOL    HW2 2766   1.410   0.857   6.937
  623SOL     OW 2767   0.771   4.630   6.494
  623SOL    HW1 2768   0.703   4.567   6.457
  623SOL    HW2 2769   0.735   4.673   6.577
  624SOL     OW 2770   0.690   2.748   2.398
  624SOL    HW1 2771   0.621   2.676   2.394
  624SOL    HW2 2772   0.705   2.784   2.306
  625SOL     OW 2773   2.423   1.451   1.955
  625SOL    HW1 2774   2.416   1.549   1.976
  625SOL    HW2 2775   2.460   1.439   1.863
  626SOL     OW 2776   2.782   6.406   4.763
  626SOL    HW1 2777   2.711   6.362   4.817
  626SOL    HW2 2778   2.868   6.407   4.815
  627SOL     OW 2779   5.260   0.939   0.036
  627SOL    HW1 2780   5.320   0.903   6.981
  627SOL    HW2 2781   5.203   0.866   0.072
  628SOL     OW 2782   4.864   3.938   3.698
  628SOL    HW1 2783   4.870   3.942   3.598
  628SOL    HW2 2784   4.819   4.021   3.732
  629SOL     OW 2785   1.162   6.853   0.578
  629SOL    HW1 2786   1.253   6.817   0.597
  629SOL    HW2 2787   1.098   6.820   0.647
  630SOL     OW 2788   3.956   2.215   0.875
  630SOL    HW1 2789   3.960   2.155   0.795
  630SOL    HW2 2790   4.020   2.182   0.945
  631SOL     OW 2791   2.461   6.893   5.375
  631SOL    HW1 2792   2.378   6.845   5.406
  631SOL    HW2 2793   2.511   6.835   5.311
  632SOL     OW 2794   2.293   0.750   0.939
  632SOL    HW1 2795   2.380   0.784   0.903
  632SOL    HW2 2796   2.283   0.777   1.035
  633SOL     OW 2797   2.532   6.761   6.568
  633SOL    HW1 2798   2.454   6.761   6.506
  633SOL    HW2 2799   2.617   6.752   6.515
  634SOL     OW 2800   3.408   5.965   0.353
  634SOL    HW1 2801   3.386   5.892   0.418
  634SOL    HW2 2802   3.325   6.018   0.334
  635SOL     OW 2803   2.794   0.559   2.766
  635SOL    HW1 2804   2.805   0.631   2.699
  635SOL    HW2 2805   2.839   0.476   2.734
  636SOL     OW 2806   5.301   5.376   0.147
  636SOL    HW1 2807   5.377   5.328   0.104
  636SOL    HW2 2808   5.226   5.385   0.081
  637SOL     OW 2809   4.408   4.630   0.858
  637SOL    HW1 2810   4.312   4.625   0.885
  637SOL    HW2 2811   4.417   4.609   0.761
  638SOL     OW 2812   5.197   1.177   2.776
  638SOL    HW1 2813   5.234   1.193   2.868
  638SOL    HW2 2814   5.126   1.245   2.757
  639SOL     OW 2815   4.373   4.570   1.898
  639SOL    HW1 2816   4.425   4.485   1.910
  639SOL    HW2 2817   4.297   4.572   1.964
  640SOL     OW 2818   2.554   4.390   5.386
  640SOL    HW1 2819   2.470   4.427   5.349
  640SOL    HW2 2820   2.631   4.447   5.358
  641SOL     OW 2821   0.181   6.047   4.684
  641SOL    HW1 2822   0.184   6.022   4.588
  641SOL    HW2 2823   0.104   6.001   4.729
  642SOL     OW 2824   1.039   5.440   4.708
  642SOL    HW1 2825   1.059   5.414   4.803
  642SOL    HW2 2826   1.007   5.534   4.706
  643SOL     OW 2827   5.930   5.712   5.239
  643SOL    HW1 2828   5.833   5.720   5.213
  643SOL    HW2 2829   5.987   5.742   5.163
  644SOL     OW 2830   1.399   6.555   2.136
  644SOL    HW1 2831   1.447   6.518   2.215
  644SOL    HW2 2832   1.429   6.507   2.053
  645SOL     OW 2833   5.500   2.556   3.729
  645SOL    HW1 2834   5.450   2.628   3.680
  645SOL    HW2 2835   5.520   2.587   3.822
  646SOL     OW 2836   1.683   1.761   4.543
  646SOL    HW1 2837   1.670   1.781   4.446
  646SOL    HW2 2838   1.757   1.817   4.580
  647SOL     OW 2839   5.868   3.220   0.353
  647SOL    HW1 2840   5.915   3.277   0.420
  647SOL    HW2 2841   5.925   3.142   0.329
  648SOL     OW 2842   5.950   3.422   1.787
  648SOL    HW1 2843   5.869   3.434   1.730
  648SOL    HW2 2844   5.930   3.356   1.859
  649SOL     OW 2845   4.452   4.487   1.161
  649SOL    HW1 2846   4.393   4.537   1.098
  649SOL    HW2 2847   4.422   4.504   1.255
  650SOL     OW 2848   5.079   4.897   0.587
  650SOL    HW1 2849   5.061   4.971   0.652
  650SOL    HW2 2850   5.109   4.816   0.636
  651SOL     OW 2851   1.121   5.904   6.646
  651SOL    HW1 2852   1.058   5.963   6.697
  651SOL    HW2 2853   1.114   5.925   6.549
  652SOL     OW 2854   4.326   1.469   2.503
  652SOL    HW1 2855   4.254   1.420   2.455
  652SOL    HW2 2856   4.408   1.473   2.445
  653SOL     OW 2857   3.739   4.888   3.595
  653SOL    HW1 2858   3.766   4.958   3.662
  653SOL    HW2 2859   3.766   4.798   3.629
  654SOL     OW 2860   6.498   4.344   0.369
  654SOL    HW1 2861   6.477   4.352   0.466
  654SOL    HW2 2862   6.557   4.421   0.341
  655SOL     OW 2863   0.475   0.595   0.850
  655SOL    HW1 2864   0.395   0.539   0.874
  655SOL    HW2 2865   0.524   0.552   0.774
  656SOL     OW 2866   2.811   6.516   2.097
  656SOL    HW1 2867   2.842   6.471   2.181
  656SOL    HW2 2868   2.813   6.616   2.110
  657SOL     OW 2869   2.923   1.438   6.839
  657SOL    HW1 2870   2.899   1.535   6.829
  657SOL    HW2 2871   2.857   1.393   6.899
  658SOL     OW 2872   3.344   4.767   5.970
  658SOL    HW1 2873   3.294   4.693   5.924
  658SOL    HW2 2874   3.423   4.793   5.914
  659SOL     OW 2875   2.448   0.137   6.596
  659SOL    HW1 2876   2.451   0.053   6.541
  659SOL    HW2 2877   2.410   0.211   6.541
  660SOL     OW 2878   3.725   5.471   2.907
  660SOL    HW1 2879   3.753   5.543   2.843
  660SOL    HW2 2880   3.790   5.467   2.983
  661SOL     OW 2881   5.239   5.444   2.963
  661SOL    HW1 2882   5.332   5.419   2.937
  661SOL    HW2 2883   5.177   5.430   2.886
  662SOL     OW 2884   3.314   1.169   6.800
  662SOL    HW1 2885   3.219   1.199   6.812
  662SOL    HW2 2886   3.373   1.224   6.859
  663SOL     OW 2887   2.422   4.481   5.049
  663SOL    HW1 2888   2.438   4.490   4.950
  663SOL    HW2 2889   2.367   4.399   5.066
  664SOL     OW 2890   6.402   0.659   6.912
  664SOL    HW1 2891   6.412   0.680   6.815
  664SOL    HW2 2892   6.492   0.644   6.953
  665SOL     OW 2893   2.445   5.537   2.812
  665SOL    HW1 2894   2.390   5.552   2.894
  665SOL    HW2 2895   2.542   5.529   2.837
  666SOL     OW 2896   4.183   0.977   2.195
  666SOL    HW1 2897   4.262   1.034   2.171
  666SOL    HW2 2898   4.100   1.033   2.198
  667SOL     OW 2899   0.832   6.572   2.687
  667SOL    HW1 2900   0.760   6.625   2.731
  667SOL    HW2 2901   0.885   6.632   2.626
  668SOL     OW 2902   5.072   3.818   0.406
  668SOL    HW1 2903   4.985   3.815   0.356
  668SOL    HW2 2904   5.129   3.740   0.379
  669SOL     OW 2905   5.336   1.768   3.191
  669SOL    HW1 2906   5.392   1.849   3.172
  669SOL    HW2 2907   5.256   1.767   3.131
  670SOL     OW 2908   2.167   1.879   3.253
  670SOL    HW1 2909   2.140   1.822   3.331
  670SOL    HW2 2910   2.264   1.902   3.261
  671SOL     OW 2911   3.114   6.331   1.672
  671SOL    HW1 2912   3.153   6.414   1.634
  671SOL    HW2 2913   3.153   6.251   1.626
  672SOL     OW 2914   1.128   6.647   2.287
  672SOL    HW1 2915   1.164   6.638   2.380
  672SOL    HW2 2916   1.197   6.617   2.221
  673SOL     OW 2917   5.645   6.998   0.299
  673SOL    HW1 2918   5.617   0.005   0.206
  673SOL    HW2 2919   5.744   6.981   0.300
  674SOL     OW 2920   0.448   0.850   4.350
  674SOL    HW1 2921   0.352   0.871   4.333
  674SOL    HW2 2922   0.456   0.756   4.384
  675SOL     OW 2923   6.114   2.856   2.726
  675SOL    HW1 2924   6.182   2.842   2.654
  675SOL    HW2 2925   6.075   2.768   2.754
  676SOL     OW 2926   1.982   5.833   6.194
  676SOL    HW1 2927   1.968   5.931   6.206
  676SOL    HW2 2928   2.079   5.814   6.185
  677SOL     OW 2929   4.742   1.487   0.802
  677SOL    HW1 2930   4.767   1.564   0.744
  677SOL    HW2 2931   4.805   1.411   0.785
  678SOL     OW 2932   1.908   4.920   4.743
  678SOL    HW1 2933   1.840   4.896   4.675
  678SOL    HW2 2934   1.933   4.838   4.796
  679SOL     OW 2935   5.345   1.641   5.486
  679SOL    HW1 2936   5.337   1.665   5.583
  679SOL    HW2 2937   5.326   1.721   5.430
  680SOL     OW 2938   4.385   0.058   4.525
  680SOL    HW1 2939   4.426   0.007   4.449
  680SOL    HW2 2940   4.380   0.155   4.500
  681SOL     OW 2941   4.797   4.883   2.386
  681SOL    HW1 2942   4.868   4.823   2.351
  681SOL    HW2 2943   4.719   4.884   2.322
  682SOL     OW 2944   1.134   0.877   3.566
  682SOL    HW1 2945   1.079   0.960   3.572
  682SOL    HW2 2946   1.138   0.832   3.655
  683SOL     OW 2947   4.649   3.603   1.215
  683SOL    HW1 2948   4.721   3.534   1.208
  683SOL    HW2 2949   4.589   3.581   1.291
  684SOL     OW 2950   6.762   0.998   6.021
  684SOL    HW1 2951   6.758   1.074   6.085
  684SOL    HW2 2952   6.814   0.923   6.061
  685SOL     OW 2953   3.529   0.478   3.000
  685SOL    HW1 2954   3.527   0.458   3.097
  685SOL    HW2 2955   3.608   0.536   2.979
  686SOL     OW 2956   4.296   0.538   5.199
  686SOL    HW1 2957   4.300   0.439   5.210
  686SOL    HW2 2958   4.377   0.579   5.240
  687SOL     OW 2959   1.288   1.955   4.470
  687SOL    HW1 2960   1.353   1.926   4.541
  687SOL    HW2 2961   1.292   1.892   4.393
  688SOL     OW 2962   6.238   1.091   6.840
  688SOL    HW1 2963   6.203   1.015   6.896
  688SOL    HW2 2964   6.210   1.178   6.881
  689SOL     OW 2965   1.170   4.840   5.982
  689SOL    HW1 2966   1.246   4.820   5.920
  689SOL    HW2 2967   1.190   4.923   6.034
  690SOL     OW 2968   5.805   3.433   2.665
  690SOL    HW1 2969   5.791   3.427   2.764
  690SOL    HW2 2970   5.749   3.507   2.628
  691SOL     OW 2971   4.977   1.832   0.306
  691SOL    HW1 2972   5.000   1.776   0.385
  691SOL    HW2 2973   5.037   1.808   0.230
  692SOL     OW 2974   2.573   0.706   4.790
  692SOL    HW1 2975   2.568   0.763   4.708
  692SOL    HW2 2976   2.481   0.693   4.827
  693SOL     OW 2977   5.153   5.920   3.827
  693SOL    HW1 2978   5.179   5.880   3.915
  693SOL    HW2 2979   5.076   5.982   3.839
  694SOL     OW 2980   4.673   5.768   5.127
  694SOL    HW1 2981   4.660   5.672   5.151
  694SOL    HW2 2982   4.740   5.776   5.053
  695SOL     OW 2983   3.121   0.003   3.969
  695SOL    HW1 2984   3.122   6.960   4.049
  695SOL    HW2 2985   3.114   6.965   3.886
  696SOL     OW 2986   4.527   4.404   3.101
  696SOL    HW1 2987   4.524   4.463   3.021
  696SOL    HW2 2988   4.533   4.459   3.184
  697SOL     OW 2989   0.059   4.975   2.331
  697SOL    HW1 2990   0.104   4.889   2.355
  697SOL    HW2 2991   0.124   5.033   2.282
  698SOL     OW 2992   5.551   6.845   0.846
  698SOL    HW1 2993   5.601   6.907   0.906
  698SOL    HW2 2994   5.616   6.794   0.789
  699SOL     OW 2995   2.475   2.392   1.041
  699SOL    HW1 2996   2.404   2.323   1.058
  699SOL    HW2 2997   2.565   2.349   1.050
  700SOL     OW 2998   3.904   6.729   2.943
  700SOL    HW1 2999   3.994   6.755   2.978
  700SOL    HW2 3000   3.905   6.633   2.917
  701SOL     OW 3001   6.079   5.273   1.484
  701SOL    HW1 3002   5.980   5.256   1.488
  701SOL    HW2 3003   6.097   5.342   1.413
  702SOL     OW 3004   3.018   1.170   4.032
  702SOL    HW1 3005   3.047   1.075   4.022
  702SOL    HW2 3006   2.997   1.188   4.128
  703SOL     OW 3007   2.782   2.339   5.967
  703SOL    HW1 3008   2.734   2.282   6.034
  703SOL    HW2 3009   2.816   2.422   6.012
  704SOL     OW 3010   1.287   2.635   5.883
  704SOL    HW1 3011   1.367   2.594   5.927
  704SOL    HW2 3012   1.209   2.631   5.945
  705SOL     OW 3013   0.023   6.439   4.793
  705SOL    HW1 3014   0.008   6.340   4.782
  705SOL    HW2 3015   6.959   6.480   4.836
  706SOL     OW 3016   4.564   0.952   5.145
  706SOL    HW1 3017   4.577   1.006   5.062
  706SOL    HW2 3018   4.476   0.903   5.139
  707SOL     OW 3019   3.448   5.294   3.561
  707SOL    HW1 3020   3.487   5.204   3.540
  707SOL    HW2 3021   3.484   5.362   3.498
  708SOL     OW 3022   3.488   0.549   3.761
  708SOL    HW1 3023   3.535   0.532   3.848
  708SOL    HW2 3024   3.537   0.502   3.687
  709SOL     OW 3025   2.385   0.093   1.633
  709SOL    HW1 3026   2.471   0.115   1.680
  709SOL    HW2 3027   2.326   0.042   1.695
  710SOL     OW 3028   4.647   2.752   1.744
  710SOL    HW1 3029   4.604   2.670   1.781
  710SOL    HW2 3030   4.627   2.830   1.802
  711SOL     OW 3031   0.237   2.317   5.693
  711SOL    HW1 3032   0.278   2.407   5.704
  711SOL    HW2 3033   0.302   2.255   5.648
  712SOL     OW 3034   4.750   3.997   0.380
  712SOL    HW1 3035   4.814   4.053   0.432
  712SOL    HW2 3036   4.781   3.991   0.285
  713SOL     OW 3037   4.009   2.699   5.351
  713SOL    HW1 3038   3.951   2.775   5.320
  713SOL    HW2 3039   4.044   2.649   5.271
  714SOL     OW 3040   5.201   4.960   3.694
  714SOL    HW1 3041   5.192   5.039   3.633
  714SOL    HW2 3042   5.262   4.893   3.652
  715SOL     OW 3043   6.375   5.258   5.442
  715SOL    HW1 3044   6.343   5.217   5.527
  715SOL    HW2 3045   6.462   5.304   5.458
  716SOL     OW 3046   2.074   1.603   2.660
  716SOL    HW1 3047   2.113   1.512   2.648
  716SOL    HW2 3048   2.044   1.639   2.572
  717SOL     OW 3049   5.273   5.213   4.041
  717SOL    HW1 3050   5.369   5.195   4.062
  717SOL    HW2 3051   5.228   5.127   4.014
  718SOL     OW 3052   5.786   1.807   4.346
  718SOL    HW1 3053   5.751   1.800   4.253
  718SOL    HW2 3054   5.732   1.872   4.398
  719SOL     OW 3055   5.516   0.074   3.700
  719SOL    HW1 3056   5.608   0.039   3.716
  719SOL    HW2 3057   5.486   0.126   3.779
  720SOL     OW 3058   2.068   1.108   6.893
  720SOL    HW1 3059   2.143   1.044   6.877
  720SOL    HW2 3060   2.061   1.128   6.991
  721SOL     OW 3061   0.162   2.187   3.128
  721SOL    HW1 3062   0.082   2.137   3.094
  721SOL    HW2 3063   0.223   2.207   3.051
  722SOL     OW 3064   4.121   6.839   0.377
  722SOL    HW1 3065   4.057   6.864   0.304
  722SOL    HW2 3066   4.075   6.846   0.466
  723SOL     OW 3067   2.442   5.851   3.632
  723SOL    HW1 3068   2.484   5.764   3.657
  723SOL    HW2 3069   2.497   5.895   3.561
  724SOL     OW 3070   1.431   0.855   3.504
  724SOL    HW1 3071   1.342   0.899   3.499
  724SOL    HW2 3072   1.465   0.859   3.598
  725SOL     OW 3073   1.442   4.041   2.772
  725SOL    HW1 3074   1.373   4.041   2.700
  725SOL    HW2 3075   1.447   3.951   2.815
  726SOL     OW 3076   2.062   4.260   0.666
  726SOL    HW1 3077   2.109   4.197   0.728
  726SOL    HW2 3078   2.012   4.207   0.597
  727SOL     OW 3079   4.225   5.491   5.168
  727SOL    HW1 3080   4.267   5.504   5.258
  727SOL    HW2 3081   4.128   5.471   5.179
  728SOL     OW 3082   6.534   3.476   4.128
  728SOL    HW1 3083   6.621   3.428   4.119
  728SOL    HW2 3084   6.527   3.546   4.056
  729SOL     OW 3085   0.303   4.217   1.702
  729SOL    HW1 3086   0.294   4.118   1.699
  729SOL    HW2 3087   0.400   4.242   1.706
  730SOL     OW 3088   5.012   0.483   3.464
  730SOL    HW1 3089   5.053   0.563   3.420
  730SOL    HW2 3090   4.939   0.447   3.406
  731SOL     OW 3091   4.241   4.454   6.341
  731SOL    HW1 3092   4.321   4.419   6.292
  731SOL    HW2 3093   4.183   4.506   6.278
  732SOL     OW 3094   4.975   1.463   4.200
  732SOL    HW1 3095   4.891   1.418   4.230
  732SOL    HW2 3096   5.043   1.395   4.175
  733SOL     OW 3097   5.884   6.402   3.253
  733SOL    HW1 3098   5.819   6.453   3.197
  733SOL    HW2 3099   5.896   6.449   3.341
  734SOL     OW 3100   5.604   6.330   2.691
  734SOL    HW1 3101   5.696   6.355   2.662
  734SOL    HW2 3102   5.605   6.239   2.732
  735SOL     OW 3103   5.190   0.848   2.010
  735SOL    HW1 3104   5.253   0.926   2.012
  735SOL    HW2 3105   5.231   0.771   2.058
  736SOL     OW 3106   0.920   1.692   4.774
  736SOL    HW1 3107   0.890   1.775   4.821
  736SOL    HW2 3108   0.941   1.714   4.678
  737SOL     OW 3109   5.578   0.847   6.408
  737SOL    HW1 3110   5.677   0.834   6.408
  737SOL    HW2 3111   5.555   0.929   6.355
  738SOL     OW 3112   2.582   4.116   1.394
  738SOL    HW1 3113   2.610   4.212   1.399
  738SOL    HW2 3114   2.611   4.068   1.477
  739SOL     OW 3115   2.953   6.649   4.901
  739SOL    HW1 3116   3.022   6.708   4.943
  739SOL    HW2 3117   2.977   6.553   4.917
  740SOL     OW 3118   5.237   3.443   3.017
  740SOL    HW1 3119   5.315   3.501   3.043
  740SOL    HW2 3120   5.167   3.447   3.089
  741SOL     OW 3121   2.538   0.781   2.906
  741SOL    HW1 3122   2.439   0.780   2.890
  741SOL    HW2 3123   2.572   0.687   2.904
  742SOL     OW 3124   1.859   6.850   1.562
  742SOL    HW1 3125   1.800   6.770   1.549
  742SOL    HW2 3126   1.870   6.867   1.660
  743SOL     OW 3127   0.904   6.463   3.157
  743SOL    HW1 3128   0.945   6.548   3.125
  743SOL    HW2 3129   0.843   6.481   3.233
  744SOL     OW 3130   4.846   2.072   0.309
  744SOL    HW1 3131   4.855   2.137   0.233
  744SOL    HW2 3132   4.901   1.991   0.290
  745SOL     OW 3133   2.910   6.373   5.315
  745SOL    HW1 3134   2.965   6.440   5.266
  745SOL    HW2 3135   2.888   6.297   5.255
  746SOL     OW 3136   6.597   4.548   5.235
  746SOL    HW1 3137   6.676   4.604   5.211
  746SOL    HW2 3138   6.543   4.595   5.305
  747SOL     OW 3139   5.013   5.912   3.005
  747SOL    HW1 3140   5.042   5.844   3.071
  747SOL    HW2 3141   5.066   5.996   3.017
  748SOL     OW 3142   5.662   5.503   2.056
  748SOL    HW1 3143   5.613   5.460   1.981
  748SOL    HW2 3144   5.614   5.486   2.142
  749SOL     OW 3145   4.909   3.483   3.759
  749SOL    HW1 3146   4.951   3.481   3.668
  749SOL    HW2 3147   4.878   3.390   3.783
  750SOL     OW 3148   2.201   2.057   1.611
  750SOL    HW1 3149   2.104   2.065   1.634
  750SOL    HW2 3150   2.252   2.131   1.657
  751SOL     OW 3151   4.468   0.445   7.002
  751SOL    HW1 3152   4.500   0.535   0.013
  751SOL    HW2 3153   4.403   0.411   0.054
  752SOL     OW 3154   3.550   2.428   5.509
  752SOL    HW1 3155   3.606   2.477   5.442
  752SOL    HW2 3156   3.470   2.389   5.464
  753SOL     OW 3157   4.113   3.767   4.787
  753SOL    HW1 3158   4.092   3.737   4.694
  753SOL    HW2 3159   4.180   3.842   4.784
  754SOL     OW 3160   5.582   0.294   0.047
  754SOL    HW1 3161   5.615   0.353   6.990
  754SOL    HW2 3162   5.590   0.198   0.019
  755SOL     OW 3163   4.149   4.653   5.308
  755SOL    HW1 3164   4.185   4.582   5.248
  755SOL    HW2 3165   4.123   4.613   5.396
  756SOL     OW 3166   2.328   4.809   5.725
  756SOL    HW1 3167   2.350   4.863   5.643
  756SOL    HW2 3168   2.408   4.755   5.752
  757SOL     OW 3169   2.826   6.829   2.598
  757SOL    HW1 3170   2.879   6.868   2.523
  757SOL    HW2 3171   2.734   6.809   2.567
  758SOL     OW 3172   3.342   1.531   3.848
  758SOL    HW1 3173   3.259   1.573   3.812
  758SOL    HW2 3174   3.353   1.554   3.945
  759SOL     OW 3175   0.715   2.948   4.461
  759SOL    HW1 3176   0.663   3.022   4.417
  759SOL    HW2 3177   0.682   2.860   4.427
  760SOL     OW 3178   6.886   5.817   3.586
  760SOL    HW1 3179   6.821   5.847   3.516
  760SOL    HW2 3180   6.953   5.889   3.602
  761SOL     OW 3181   4.473   3.235   5.962
  761SOL    HW1 3182   4.554   3.230   6.021
  761SOL    HW2 3183   4.489   3.300   5.888
  762SOL     OW 3184   3.342   5.702   4.492
  762SOL    HW1 3185   3.314   5.605   4.495
  762SOL    HW2 3186   3.314   5.741   4.404
  763SOL     OW 3187   5.526   0.644   0.329
  763SOL    HW1 3188   5.503   0.737   0.359
  763SOL    HW2 3189   5.610   0.615   0.375
  764SOL     OW 3190   5.269   0.088   5.231
  764SOL    HW1 3191   5.356   0.048   5.261
  764SOL    HW2 3192   5.253   0.064   5.135
  765SOL     OW 3193   0.121   6.439   1.217
  765SOL    HW1 3194   0.117   6.437   1.117
  765SOL    HW2 3195   0.137   6.533   1.248
  766SOL     OW 3196   2.114   2.061   5.314
  766SOL    HW1 3197   2.138   2.151   5.277
  766SOL    HW2 3198   2.063   2.072   5.399
  767SOL     OW 3199   0.428   6.323   4.662
  767SOL    HW1 3200   0.400   6.237   4.706
  767SOL    HW2 3201   0.498   6.304   4.593
  768SOL     OW 3202   2.108   5.588   2.041
  768SOL    HW1 3203   2.036   5.532   2.081
  768SOL    HW2 3204   2.091   5.684   2.063
  769SOL     OW 3205   2.948   2.129   4.980
  769SOL    HW1 3206   2.893   2.091   5.054
  769SOL    HW2 3207   3.023   2.183   5.019
  770SOL     OW 3208   1.962   4.715   4.909
  770SOL    HW1 3209   1.944   4.715   5.007
  770SOL    HW2 3210   2.037   4.651   4.890
  771SOL     OW 3211   0.996   5.990   3.083
  771SOL    HW1 3212   1.055   6.051   3.030
  771SOL    HW2 3213   1.050   5.913   3.117
  772SOL     OW 3214   5.769   4.340   0.562
  772SOL    HW1 3215   5.739   4.398   0.486
  772SOL    HW2 3216   5.693   4.326   0.625
  773SOL     OW 3217   0.294   3.930   3.322
  773SOL    HW1 3218   0.315   3.902   3.228
  773SOL    HW2 3219   0.194   3.936   3.333
  774SOL     OW 3220   2.018   0.561   2.946
  774SOL    HW1 3221   2.090   0.533   3.010
  774SOL    HW2 3222   2.043   0.650   2.906
  775SOL     OW 3223   2.062   4.787   3.282
  775SOL    HW1 3224   2.118   4.704   3.282
  775SOL    HW2 3225   2.070   4.833   3.194
  776SOL     OW 3226   2.416   5.240   6.814
  776SOL    HW1 3227   2.423   5.318   6.750
  776SOL    HW2 3228   2.333   5.188   6.793
  777SOL     OW 3229   2.124   3.908   0.489
  777SOL    HW1 3230   2.032   3.933   0.460
  777SOL    HW2 3231   2.168   3.853   0.418
  778SOL     OW 3232   2.774   0.091   1.237
  778SOL    HW1 3233   2.716   0.170   1.254
  778SOL    HW2 3234   2.718   0.011   1.218
  779SOL     OW 3235   0.154   2.188   3.662
  779SOL    HW1 3236   0.154   2.166   3.565
  779SOL    HW2 3237   0.059   2.197   3.694
  780SOL     OW 3238   0.925   1.796   4.505
  780SOL    HW1 3239   0.831   1.826   4.490
  780SOL    HW2 3240   0.971   1.784   4.416
  781SOL     OW 3241   1.024   4.444   0.648
  781SOL    HW1 3242   1.073   4.514   0.700
  781SOL    HW2 3243   0.926   4.467   0.645
  782SOL     OW 3244   2.000   3.522   5.348
  782SOL    HW1 3245   1.970   3.511   5.254
  782SOL    HW2 3246   1.931   3.572   5.400
  783SOL     OW 3247   6.255   4.976   6.498
  783SOL    HW1 3248   6.174   4.921   6.518
  783SOL    HW2 3249   6.314   4.980   6.578
  784SOL     OW 3250   3.262   6.291   0.142
  784SOL    HW1 3251   3.219   6.315   0.055
  784SOL    HW2 3252   3.290   6.374   0.189
  785SOL     OW 3253   1.364   6.448   4.785
  785SOL    HW1 3254   1.390   6.542   4.762
  785SOL    HW2 3255   1.272   6.431   4.752
  786SOL     OW 3256   6.754   1.235   3.331
  786SOL    HW1 3257   6.700   1.276   3.405
  786SOL    HW2 3258   6.850   1.264   3.341
  787SOL     OW 3259   2.840   0.412   0.792
  787SOL    HW1 3260   2.795   0.500   0.812
  787SOL    HW2 3261   2.915   0.427   0.728
  788SOL     OW 3262   3.348   2.689   1.036
  788SOL    HW1 3263   3.352   2.785   1.064
  788SOL    HW2 3264   3.374   2.682   0.939
  789SOL     OW 3265   4.169   5.115   1.624
  789SOL    HW1 3266   4.204   5.046   1.561
  789SOL    HW2 3267   4.241   5.182   1.643
  790SOL     OW 3268   0.774   2.538   2.823
  790SOL    HW1 3269   0.815   2.593   2.751
  790SOL    HW2 3270   0.823   2.552   2.908
  791SOL     OW 3271   3.154   5.259   5.058
  791SOL    HW1 3272   3.222   5.249   4.986
  791SOL    HW2 3273   3.144   5.356   5.082
  792SOL     OW 3274   1.314   0.758   0.863
  792SOL    HW1 3275   1.303   0.838   0.804
  792SOL    HW2 3276   1.323   0.676   0.807
  793SOL     OW 3277   3.014   5.855   4.265
  793SOL    HW1 3278   3.003   5.950   4.236
  793SOL    HW2 3279   3.105   5.823   4.239
  794SOL     OW 3280   3.693   3.313   3.370
  794SOL    HW1 3281   3.634   3.250   3.320
  794SOL    HW2 3282   3.683   3.297   3.468
  795SOL     OW 3283   3.830   0.082   6.442
  795SOL    HW1 3284   3.865   0.055   6.352
  795SOL    HW2 3285   3.735   0.113   6.433
  796SOL     OW 3286   0.722   3.147   6.632
  796SOL    HW1 3287   0.626   3.160   6.660
  796SOL    HW2 3288   0.728   3.069   6.570
  797SOL     OW 3289   5.252   6.476   0.892
  797SOL    HW1 3290   5.317   6.545   0.924
  797SOL    HW2 3291   5.292   6.385   0.903
  798SOL     OW 3292   3.815   6.234   1.170
  798SOL    HW1 3293   3.838   6.327   1.141
  798SOL    HW2 3294   3.818   6.173   1.091
  799SOL     OW 3295   1.250   2.438   5.517
  799SOL    HW1 3296   1.186   2.504   5.554
  799SOL    HW2 3297   1.343   2.463   5.544
  800SOL     OW 3298   5.828   2.674   1.918
  800SOL    HW1 3299   5.892   2.747   1.891
  800SOL    HW2 3300   5.781   2.701   2.002
  801SOL     OW 3301   2.135   5.094   5.693
  801SOL    HW1 3302   2.042   5.079   5.658
  801SOL    HW2 3303   2.201   5.079   5.619
  802SOL     OW 3304   5.750   3.222   6.586
  802SOL    HW1 3305   5.779   3.144   6.530
  802SOL    HW2 3306   5.652   3.238   6.573
  803SOL     OW 3307   2.671   1.608   5.236
  803SOL    HW1 3308   2.656   1.706   5.220
  803SOL    HW2 3309   2.692   1.563   5.149
  804SOL     OW 3310   5.907   1.134   2.519
  804SOL    HW1 3311   5.944   1.157   2.609
  804SOL    HW2 3312   5.900   1.035   2.510
  805SOL     OW 3313   3.682   0.292   3.651
  805SOL    HW1 3314   3.763   0.334   3.693
  805SOL    HW2 3315   3.623   0.254   3.722
  806SOL     OW 3316   1.942   6.032   5.831
  806SOL    HW1 3317   1.882   6.105   5.865
  806SOL    HW2 3318   1.916   6.008   5.738
  807SOL     OW 3319   0.395   6.107   6.236
  807SOL    HW1 3320   0.376   6.032   6.300
  807SOL    HW2 3321   0.463   6.168   6.276
  808SOL     OW 3322   5.364   2.705   6.933
  808SOL    HW1 3323   5.267   2.716   6.954
  808SOL    HW2 3324   5.388   2.760   6.853
  809SOL     OW 3325   2.123   4.581   0.454
  809SOL    HW1 3326   2.115   4.505   0.519
  809SOL    HW2 3327   2.220   4.601   0.438
  810SOL     OW 3328   3.989   3.123   6.995
  810SOL    HW1 3329   4.024   3.212   0.004
  810SOL    HW2 3330   3.950   3.077   0.059
  811SOL     OW 3331   5.389   5.315   4.456
  811SOL    HW1 3332   5.418   5.365   4.374
  811SOL    HW2 3333   5.468   5.296   4.514
  812SOL     OW 3334   0.399   2.982   1.920
  812SOL    HW1 3335   0.454   3.001   1.839
  812SOL    HW2 3336   0.302   2.986   1.896
  813SOL     OW 3337   0.726   1.982   4.445
  813SOL    HW1 3338   0.706   1.987   4.347
  813SOL    HW2 3339   0.763   2.069   4.476
  814SOL     OW 3340   0.886   5.133   3.050
  814SOL    HW1 3341   0.926   5.135   2.958
  814SOL    HW2 3342   0.924   5.207   3.104
  815SOL     OW 3343   4.695   1.576   4.057
  815SOL    HW1 3344   4.780   1.551   4.102
  815SOL    HW2 3345   4.624   1.510   4.082
  816SOL     OW 3346   5.531   4.800   6.650
  816SOL    HW1 3347   5.565   4.820   6.558
  816SOL    HW2 3348   5.504   4.704   6.655
  817SOL     OW 3349   0.918   4.388   6.758
  817SOL    HW1 3350   0.849   4.458   6.776
  817SOL    HW2 3351   1.007   4.431   6.745
  818SOL     OW 3352   6.135   2.752   4.588
  818SOL    HW1 3353   6.054   2.803   4.617
  818SOL    HW2 3354   6.162   2.688   4.660
  819SOL     OW 3355   5.175   2.727   2.133
  819SOL    HW1 3356   5.216   2.746   2.043
  819SOL    HW2 3357   5.145   2.632   2.136
  820SOL     OW 3358   2.063   2.225   4.824
  820SOL    HW1 3359   2.111   2.186   4.902
  820SOL    HW2 3360   1.996   2.292   4.856
  821SOL     OW 3361   5.727   3.380   5.549
  821SOL    HW1 3362   5.806   3.373   5.487
  821SOL    HW2 3363   5.754   3.428   5.632
  822SOL     OW 3364   0.667   4.116   3.439
  822SOL    HW1 3365   0.586   4.067   3.472
  822SOL    HW2 3366   0.737   4.115   3.511
  823SOL     OW 3367   1.156   4.191   5.392
  823SOL    HW1 3368   1.159   4.280   5.348
  823SOL    HW2 3369   1.125   4.122   5.327
  824SOL     OW 3370   5.746   1.671   5.614
  824SOL    HW1 3371   5.845   1.677   5.621
  824SOL    HW2 3372   5.714   1.721   5.534
  825SOL     OW 3373   6.329   5.821   0.681
  825SOL    HW1 3374   6.415   5.782   0.713
  825SOL    HW2 3375   6.323   5.917   0.710
  826SOL     OW 3376   3.739   1.295   6.209
  826SOL    HW1 3377   3.692   1.285   6.121
  826SOL    HW2 3378   3.687   1.246   6.280
  827SOL     OW 3379   3.728   4.152   4.795
  827SOL    HW1 3380   3.775   4.239   4.813
  827SOL    HW2 3381   3.632   4.169   4.773
  828SOL     OW 3382   6.502   5.909   5.312
  828SOL    HW1 3383   6.468   5.846   5.241
  828SOL    HW2 3384   6.567   5.861   5.371
  829SOL     OW 3385   3.151   3.039   2.733
  829SOL    HW1 3386   3.119   3.048   2.638
  829SOL    HW2 3387   3.094   3.096   2.793
  830SOL     OW 3388   6.822   4.058   0.216
  830SOL    HW1 3389   6.757   4.042   0.290
  830SOL    HW2 3390   6.835   3.973   0.164
  831SOL     OW 3391   4.748   6.526   1.311
  831SOL    HW1 3392   4.724   6.475   1.228
  831SOL    HW2 3393   4.747   6.465   1.390
  832SOL     OW 3394   3.151   2.097   4.486
  832SOL    HW1 3395   3.144   2.090   4.585
  832SOL    HW2 3396   3.162   2.006   4.446
  833SOL     OW 3397   2.414   2.550   6.542
  833SOL    HW1 3398   2.363   2.621   6.590
  833SOL    HW2 3399   2.379   2.541   6.449
  834SOL     OW 3400   5.341   3.420   0.155
  834SOL    HW1 3401   5.425   3.471   0.134
  834SOL    HW2 3402   5.365   3.337   0.205
  835SOL     OW 3403   0.440   6.474   4.342
  835SOL    HW1 3404   0.395   6.462   4.253
  835SOL    HW2 3405   0.384   6.533   4.400
  836SOL     OW 3406   3.518   1.173   4.481
  836SOL    HW1 3407   3.567   1.215   4.557
  836SOL    HW2 3408   3.455   1.104   4.515
  837SOL     OW 3409   1.552   0.923   0.567
  837SOL    HW1 3410   1.604   1.002   0.598
  837SOL    HW2 3411   1.568   0.846   0.629
  838SOL     OW 3412   2.263   5.549   3.033
  838SOL    HW1 3413   2.201   5.622   3.059
  838SOL    HW2 3414   2.220   5.460   3.050
  839SOL     OW 3415   1.175   2.066   0.531
  839SOL    HW1 3416   1.260   2.067   0.478
  839SOL    HW2 3417   1.099   2.090   0.471
  840SOL     OW 3418   5.351   5.485   6.643
  840SOL    HW1 3419   5.267   5.469   6.591
  840SOL    HW2 3420   5.389   5.397   6.671
  841SOL     OW 3421   3.731   4.677   6.626
  841SOL    HW1 3422   3.646   4.702   6.579
  841SOL    HW2 3423   3.765   4.591   6.588
  842SOL     OW 3424   3.367   6.448   6.521
  842SOL    HW1 3425   3.376   6.410   6.614
  842SOL    HW2 3426   3.277   6.489   6.512
  843SOL     OW 3427   1.427   1.176   2.458
  843SOL    HW1 3428   1.440   1.261   2.406
  843SOL    HW2 3429   1.330   1.164   2.477
  844SOL     OW 3430   5.998   0.403   1.419
  844SOL    HW1 3431   6.035   0.464   1.489
  844SOL    HW2 3432   5.898   0.407   1.422
  845SOL     OW 3433   3.761   1.362   2.540
  845SOL    HW1 3434   3.832   1.343   2.608
  845SOL    HW2 3435   3.797   1.427   2.472
  846SOL     OW 3436   2.889   2.213   0.153
  846SOL    HW1 3437   2.954   2.239   0.225
  846SOL    HW2 3438   2.933   2.148   0.090
  847SOL     OW 3439   2.349   4.552   1.785
  847SOL    HW1 3440   2.300   4.601   1.858
  847SOL    HW2 3441   2.302   4.567   1.698
  848SOL     OW 3442   0.014   5.790   0.007
  848SOL    HW1 3443   0.050   5.872   0.052
  848SOL    HW2 3444   0.080   5.716   0.015
  849SOL     OW 3445   6.227   3.732   6.763
  849SOL    HW1 3446   6.308   3.691   6.804
  849SOL    HW2 3447   6.148   3.719   6.824
  850SOL     OW 3448   0.695   0.632   5.027
  850SOL    HW1 3449   0.738   0.681   4.952
  850SOL    HW2 3450   0.603   0.666   5.042
  851SOL     OW 3451   6.585   3.648   5.771
  851SOL    HW1 3452   6.519   3.612   5.836
  851SOL    HW2 3453   6.537   3.681   5.689
  852SOL     OW 3454   0.910   4.024   2.452
  852SOL    HW1 3455   0.907   4.066   2.362
  852SOL    HW2 3456   0.939   3.929   2.444
  853SOL     OW 3457   2.761   3.625   0.186
  853SOL    HW1 3458   2.687   3.690   0.173
  853SOL    HW2 3459   2.747   3.576   0.272
  854SOL     OW 3460   5.583   6.789   6.554
  854SOL    HW1 3461   5.605   6.702   6.509
  854SOL    HW2 3462   5.538   6.850   6.488
  855SOL     OW 3463   6.053   0.869   0.187
  855SOL    HW1 3464   6.126   0.916   0.237
  855SOL    HW2 3465   6.054   0.898   0.092
  856SOL     OW 3466   2.157   6.051   0.570
  856SOL    HW1 3467   2.081   6.066   0.507
  856SOL    HW2 3468   2.131   6.084   0.661
  857SOL     OW 3469   6.240   5.194   5.684
  857SOL    HW1 3470   6.156   5.216   5.635
  857SOL    HW2 3471   6.238   5.099   5.714
  858SOL     OW 3472   4.057   3.289   0.208
  858SOL    HW1 3473   4.066   3.282   0.307
  858SOL    HW2 3474   4.144   3.264   0.165
  859SOL     OW 3475   4.401   6.328   5.676
  859SOL    HW1 3476   4.398   6.298   5.581
  859SOL    HW2 3477   4.309   6.351   5.707
  860SOL     OW 3478   5.133   3.363   5.771
  860SOL    HW1 3479   5.095   3.335   5.859
  860SOL    HW2 3480   5.140   3.282   5.711
  861SOL     OW 3481   2.591   6.355   2.380
  861SOL    HW1 3482   2.533   6.433   2.358
  861SOL    HW2 3483   2.687   6.382   2.375
  862SOL     OW 3484   1.011   4.478   3.424
  862SOL    HW1 3485   1.003   4.378   3.423
  862SOL    HW2 3486   1.107   4.505   3.412
  863SOL     OW 3487   0.108   0.633   0.302
  863SOL    HW1 3488   0.165   0.653   0.382
  863SOL    HW2 3489   0.106   0.713   0.241
  864SOL     OW 3490   5.910   0.177   4.770
  864SOL    HW1 3491   5.991   0.182   4.829
  864SOL    HW2 3492   5.878   0.083   4.766
  865SOL     OW 3493   2.035   6.423   4.393
  865SOL    HW1 3494   2.051   6.330   4.426
  865SOL    HW2 3495   2.099   6.486   4.437
  866SOL     OW 3496   3.241   6.404   2.255
  866SOL    HW1 3497   3.254   6.459   2.173
  866SOL    HW2 3498   3.310   6.331   2.256
  867SOL     OW 3499   6.129   2.149   0.042
  867SOL    HW1 3500   6.058   2.127   6.992
  867SOL    HW2 3501   6.087   2.183   0.126
  868SOL     OW 3502   0.138   2.041   2.576
  868SOL    HW1 3503   0.112   2.082   2.663
  868SOL    HW2 3504   0.229   2.073   2.550
  869SOL     OW 3505   6.614   3.979   3.111
  869SOL    HW1 3506   6.628   3.902   3.174
  869SOL    HW2 3507   6.567   4.053   3.159
  870SOL     OW 3508   3.452   5.221   1.745
  870SOL    HW1 3509   3.414   5.286   1.810
  870SOL    HW2 3510   3.475   5.135   1.792
  871SOL     OW 3511   4.506   1.579   3.574
  871SOL    HW1 3512   4.532   1.634   3.653
  871SOL    HW2 3513   4.412   1.547   3.585
  872SOL     OW 3514   6.856   3.267   4.964
  872SOL    HW1 3515   6.853   3.295   4.868
  872SOL    HW2 3516   6.903   3.336   5.018
  873SOL     OW 3517   4.956   6.862   6.374
  873SOL    HW1 3518   5.014   6.859   6.455
  873SOL    HW2 3519   4.967   6.950   6.328
  874SOL     OW 3520   5.042   4.623   0.429
  874SOL    HW1 3521   5.046   4.533   0.471
  874SOL    HW2 3522   4.947   4.649   0.413
  875SOL     OW 3523   4.945   5.317   0.511
  875SOL    HW1 3524   4.999   5.244   0.469
  875SOL    HW2 3525   4.851   5.312   0.479
  876SOL     OW 3526   7.013   6.213   1.290
  876SOL    HW1 3527   6.970   6.240   1.376
  876SOL    HW2 3528   0.061   6.283   1.261
  877SOL     OW 3529   2.747   3.451   6.977
  877SOL    HW1 3530   2.790   3.499   6.900
  877SOL    HW2 3531   2.745   3.510   0.041
  878SOL     OW 3532   3.838   6.653   4.354
  878SOL    HW1 3533   3.896   6.605   4.420
  878SOL    HW2 3534   3.790   6.728   4.400
  879SOL     OW 3535   5.484   0.904   0.858
  879SOL    HW1 3536   5.581   0.909   0.833
  879SOL    HW2 3537   5.476   0.866   0.950
  880SOL     OW 3538   3.021   3.769   2.522
  880SOL    HW1 3539   3.120   3.771   2.518
  880SOL    HW2 3540   2.991   3.762   2.618
  881SOL     OW 3541   4.248   2.035   6.618
  881SOL    HW1 3542   4.231   2.106   6.549
  881SOL    HW2 3543   4.228   2.072   6.709
  882SOL     OW 3544   0.783   3.376   4.157
  882SOL    HW1 3545   0.854   3.327   4.106
  882SOL    HW2 3546   0.825   3.420   4.237
  883SOL     OW 3547   2.909   0.347   2.609
  883SOL    HW1 3548   2.884   0.271   2.669
  883SOL    HW2 3549   2.875   0.329   2.517
  884SOL     OW 3550   4.859   3.068   5.032
  884SOL    HW1 3551   4.905   3.007   5.096
  884SOL    HW2 3552   4.776   3.105   5.074
  885SOL     OW 3553   3.760   1.896   6.393
  885SOL    HW1 3554   3.719   1.815   6.351
  885SOL    HW2 3555   3.844   1.920   6.343
  886SOL     OW 3556   3.442   0.307   0.106
  886SOL    HW1 3557   3.381   0.273   0.035
  886SOL    HW2 3558   3.394   0.375   0.161
  887SOL     OW 3559   4.215   0.820   4.182
  887SOL    HW1 3560   4.274   0.740   4.172
  887SOL    HW2 3561   4.120   0.790   4.195
  888SOL     OW 3562   0.101   0.410   3.355
  888SOL    HW1 3563   0.063   0.380   3.268
  888SOL    HW2 3564   0.170   0.345   3.386
  889SOL     OW 3565   0.606   3.541   0.027
  889SOL    HW1 3566   0.622   3.576   0.119
  889SOL    HW2 3567   0.684   3.563   6.986
  890SOL     OW 3568   2.350   5.938   3.879
  890SOL    HW1 3569   2.409   5.916   3.802
  890SOL    HW2 3570   2.259   5.964   3.845
  891SOL     OW 3571   5.892   5.928   0.927
  891SOL    HW1 3572   5.829   6.004   0.944
  891SOL    HW2 3573   5.980   5.964   0.895
  892SOL     OW 3574   2.643   4.049   5.931
  892SOL    HW1 3575   2.725   3.995   5.949
  892SOL    HW2 3576   2.634   4.064   5.833
  893SOL     OW 3577   2.741   6.631   2.884
  893SOL    HW1 3578   2.707   6.607   2.975
  893SOL    HW2 3579   2.764   6.547   2.834
  894SOL     OW 3580   1.573   4.108   1.504
  894SOL    HW1 3581   1.568   4.202   1.538
  894SOL    HW2 3582   1.598   4.047   1.580
  895SOL     OW 3583   0.172   6.179   3.413
  895SOL    HW1 3584   0.159   6.212   3.320
  895SOL    HW2 3585   0.201   6.255   3.472
  896SOL     OW 3586   6.489   6.318   5.783
  896SOL    HW1 3587   6.403   6.368   5.798
  896SOL    HW2 3588   6.468   6.222   5.764
  897SOL     OW 3589   5.332   0.758   6.485
  897SOL    HW1 3590   5.319   0.666   6.524
  897SOL    HW2 3591   5.425   0.765   6.449
  898SOL     OW 3592   3.668   6.241   2.859
  898SOL    HW1 3593   3.612   6.264   2.939
  898SOL    HW2 3594   3.633   6.157   2.818
  899SOL     OW 3595   0.284   4.860   6.236
  899SOL    HW1 3596   0.252   4.803   6.312
  899SOL    HW2 3597   0.311   4.950   6.270
  900SOL     OW 3598   5.770   6.664   0.823
  900SOL    HW1 3599   5.864   6.666   0.858
  900SOL    HW2 3600   5.773   6.659   0.723
  901SOL     OW 3601   1.292   1.314   2.127
  901SOL    HW1 3602   1.372   1.335   2.182
  901SOL    HW2 3603   1.220   1.275   2.185
  902SOL     OW 3604   6.435   4.291   1.250
  902SOL    HW1 3605   6.397   4.246   1.169
  902SOL    HW2 3606   6.509   4.235   1.287
  903SOL     OW 3607   6.785   1.815   0.429
  903SOL    HW1 3608   6.848   1.893   0.426
  903SOL    HW2 3609   6.719   1.828   0.502
  904SOL     OW 3610   3.442   2.154   3.224
  904SOL    HW1 3611   3.344   2.155   3.245
  904SOL    HW2 3612   3.494   2.176   3.307
  905SOL     OW 3613   6.258   2.751   0.320
  905SOL    HW1 3614   6.263   2.799   0.232
  905SOL    HW2 3615   6.277   2.654   0.307
  906SOL     OW 3616   6.839   2.955   5.514
  906SOL    HW1 3617   6.885   2.905   5.440
  906SOL    HW2 3618   6.891   3.038   5.535
  907SOL     OW 3619   4.624   3.515   6.842
  907SOL    HW1 3620   4.680   3.469   6.911
  907SOL    HW2 3621   4.561   3.579   6.888
  908SOL     OW 3622   2.757   4.758   2.163
  908SOL    HW1 3623   2.847   4.786   2.195
  908SOL    HW2 3624   2.766   4.683   2.097
  909SOL     OW 3625   5.187   5.069   6.257
  909SOL    HW1 3626   5.197   4.980   6.212
  909SOL    HW2 3627   5.092   5.100   6.249
  910SOL     OW 3628   2.853   3.037   1.614
  910SOL    HW1 3629   2.754   3.042   1.624
  910SOL    HW2 3630   2.886   2.952   1.655
  911SOL     OW 3631   1.484   5.543   6.382
  911SOL    HW1 3632   1.556   5.538   6.313
  911SOL    HW2 3633   1.396   5.561   6.338
  912SOL     OW 3634   4.580   2.290   3.365
  912SOL    HW1 3635   4.492   2.244   3.376
  912SOL    HW2 3636   4.640   2.268   3.442
  913SOL     OW 3637   5.176   0.127   3.303
  913SOL    HW1 3638   5.219   0.046   3.264
  913SOL    HW2 3639   5.202   0.208   3.250
  914SOL     OW 3640   2.736   0.110   6.800
  914SOL    HW1 3641   2.767   0.099   6.706
  914SOL    HW2 3642   2.663   0.045   6.819
  915SOL     OW 3643   6.141   6.148   0.788
  915SOL    HW1 3644   6.151   6.144   0.688
  915SOL    HW2 3645   6.071   6.216   0.811
  916SOL     OW 3646   0.845   2.404   2.228
  916SOL    HW1 3647   0.831   2.400   2.327
  916SOL    HW2 3648   0.836   2.312   2.188
  917SOL     OW 3649   0.088   6.962   0.673
  917SOL    HW1 3650   0.031   6.886   0.704
  917SOL    HW2 3651   0.033   0.029   0.668
  918SOL     OW 3652   1.579   5.793   0.829
  918SOL    HW1 3653   1.615   5.704   0.802
  918SOL    HW2 3654   1.647   5.842   0.883
  919SOL     OW 3655   5.746   1.783   3.922
  919SOL    HW1 3656   5.840   1.815   3.910
  919SOL    HW2 3657   5.683   1.842   3.872
  920SOL     OW 3658   2.678   5.041   2.286
  920SOL    HW1 3659   2.594   5.086   2.258
  920SOL    HW2 3660   2.757   5.092   2.253
  921SOL     OW 3661   5.060   5.659   4.599
  921SOL    HW1 3662   5.002   5.581   4.574
  921SOL    HW2 3663   5.152   5.644   4.565
  922SOL     OW 3664   4.003   3.488   3.692
  922SOL    HW1 3665   4.045   3.555   3.754
  922SOL    HW2 3666   3.904   3.488   3.705
  923SOL     OW 3667   2.304   3.058   5.528
  923SOL    HW1 3668   2.329   3.154   5.533
  923SOL    HW2 3669   2.376   3.002   5.570
  924SOL     OW 3670   0.013   3.734   2.472
  924SOL    HW1 3671   6.970   3.759   2.548
  924SOL    HW2 3672   0.106   3.720   2.505
  925SOL     OW 3673   5.940   1.847   0.292
  925SOL    HW1 3674   5.904   1.889   0.208
  925SOL    HW2 3675   6.004   1.774   0.268
  926SOL     OW 3676   0.848   0.869   2.095
  926SOL    HW1 3677   0.752   0.894   2.078
  926SOL    HW2 3678   0.874   0.795   2.034
  927SOL     OW 3679   5.533   3.888   3.851
  927SOL    HW1 3680   5.499   3.874   3.944
  927SOL    HW2 3681   5.596   3.966   3.851
  928SOL     OW 3682   3.035   5.771   6.807
  928SOL    HW1 3683   3.024   5.847   6.871
  928SOL    HW2 3684   2.951   5.717   6.805
  929SOL     OW 3685   6.664   1.360   5.426
  929SOL    HW1 3686   6.579   1.411   5.415
  929SOL    HW2 3687   6.658   1.274   5.376
  930SOL     OW 3688   5.343   5.139   6.480
  930SOL    HW1 3689   5.422   5.106   6.429
  930SOL    HW2 3690   5.259   5.121   6.428
  931SOL     OW 3691   6.728   2.740   3.261
  931SOL    HW1 3692   6.781   2.659   3.286
  931SOL    HW2 3693   6.677   2.721   3.176
  932SOL     OW 3694   3.573   0.601   4.057
  932SOL    HW1 3695   3.637   0.677   4.047
  932SOL    HW2 3696   3.488   0.635   4.097
  933SOL     OW 3697   1.211   5.111   2.545
  933SOL    HW1 3698   1.131   5.053   2.529
  933SOL    HW2 3699   1.184   5.193   2.595
  934SOL     OW 3700   1.468   4.500   6.413
  934SOL    HW1 3701   1.562   4.531   6.399
  934SOL    HW2 3702   1.414   4.519   6.331
  935SOL     OW 3703   5.200   3.251   3.456
  935SOL    HW1 3704   5.111   3.292   3.441
  935SOL    HW2 3705   5.270   3.305   3.409
  936SOL     OW 3706   1.612   0.402   6.709
  936SOL    HW1 3707   1.516   0.382   6.732
  936SOL    HW2 3708   1.671   0.350   6.770
  937SOL     OW 3709   5.199   1.444   5.340
  937SOL    HW1 3710   5.177   1.355   5.380
  937SOL    HW2 3711   5.250   1.499   5.406
  938SOL     OW 3712   5.922   5.611   4.075
  938SOL    HW1 3713   5.833   5.591   4.116
  938SOL    HW2 3714   5.949   5.536   4.014
  939SOL     OW 3715   0.409   0.155   5.235
  939SOL    HW1 3716   0.395   0.149   5.334
  939SOL    HW2 3717   0.355   0.085   5.189
  940SOL     OW 3718   1.889   4.738   0.574
  940SOL    HW1 3719   1.921   4.804   0.642
  940SOL    HW2 3720   1.916   4.646   0.601
  941SOL     OW 3721   3.591   0.180   6.402
  941SOL    HW1 3722   3.499   0.184   6.443
  941SOL    HW2 3723   3.625   0.273   6.391
  942SOL     OW 3724   0.370   5.269   0.808
  942SOL    HW1 3725   0.308   5.200   0.771
  942SOL    HW2 3726   0.387   5.339   0.738
  943SOL     OW 3727   2.963   5.210   3.068
  943SOL    HW1 3728   2.900   5.141   3.102
  943SOL    HW2 3729   2.938   5.236   2.974
  944SOL     OW 3730   0.754   6.695   4.555
  944SOL    HW1 3731   0.827   6.633   4.526
  944SOL    HW2 3732   0.748   6.772   4.491
  945SOL     OW 3733   0.664   5.595   6.196
  945SOL    HW1 3734   0.657   5.678   6.140
  945SOL    HW2 3735   0.645   5.515   6.140
  946SOL     OW 3736   4.804   3.095   3.641
  946SOL    HW1 3737   4.815   3.173   3.702
  946SOL    HW2 3738   4.786   3.012   3.694
  947SOL     OW 3739   3.959   3.949   4.452
  947SOL    HW1 3740   3.964   3.972   4.355
  947SOL    HW2 3741   4.044   3.906   4.481
  948SOL     OW 3742   4.303   1.086   2.554
  948SOL    HW1 3743   4.352   1.143   2.620
  948SOL    HW2 3744   4.205   1.102   2.562
  949SOL     OW 3745   2.844   6.622   6.557
  949SOL    HW1 3746   2.906   6.610   6.634
  949SOL    HW2 3747   2.836   6.536   6.507
  950SOL     OW 3748   0.250   6.404   2.015
  950SOL    HW1 3749   0.239   6.379   2.111
  950SOL    HW2 3750   0.347   6.401   1.991
  951SOL     OW 3751   2.206   6.777   2.986
  951SOL    HW1 3752   2.196   6.832   3.069
  951SOL    HW2 3753   2.116   6.745   2.956
  952SOL     OW 3754   3.477   1.522   1.825
  952SOL    HW1 3755   3.505   1.604   1.775
  952SOL    HW2 3756   3.454   1.547   1.919
  953SOL     OW 3757   6.134   4.701   5.117
  953SOL    HW1 3758   6.109   4.789   5.076
  953SOL    HW2 3759   6.051   4.648   5.134
  954SOL     OW 3760   4.744   5.841   2.242
  954SOL    HW1 3761   4.653   5.813   2.271
  954SOL    HW2 3762   4.746   5.940   2.228
  955SOL     OW 3763   1.534   3.953   0.344
  955SOL    HW1 3764   1.567   4.025   0.405
  955SOL    HW2 3765   1.461   3.902   0.390
  956SOL     OW 3766   6.075   0.561   1.620
  956SOL    HW1 3767   6.092   0.659   1.618
  956SOL    HW2 3768   6.162   0.512   1.629
  957SOL     OW 3769   6.115   1.891   3.389
  957SOL    HW1 3770   6.055   1.871   3.466
  957SOL    HW2 3771   6.062   1.892   3.304
  958SOL     OW 3772   5.261   0.046   1.925
  958SOL    HW1 3773   5.199   0.120   1.953
  958SOL    HW2 3774   5.319   0.079   1.850
  959SOL     OW 3775   3.933   6.427   3.996
  959SOL    HW1 3776   4.002   6.403   4.064
  959SOL    HW2 3777   3.944   6.368   3.916
  960SOL     OW 3778   0.685   0.509   0.044
  960SOL    HW1 3779   0.651   0.491   6.968
  960SOL    HW2 3780   0.628   0.459   0.110
  961SOL     OW 3781   3.653   6.811   2.982
  961SOL    HW1 3782   3.748   6.778   2.981
  961SOL    HW2 3783   3.619   6.818   2.888
  962SOL     OW 3784   6.484   0.010   4.738
  962SOL    HW1 3785   6.581   7.005   4.749
  962SOL    HW2 3786   6.474   0.093   4.683
  963SOL     OW 3787   5.484   3.094   0.992
  963SOL    HW1 3788   5.501   3.128   0.900
  963SOL    HW2 3789   5.392   3.053   0.996
  964SOL     OW 3790   4.518   4.339   5.212
  964SOL    HW1 3791   4.433   4.288   5.224
  964SOL    HW2 3792   4.591   4.276   5.183
  965SOL     OW 3793   5.861   2.471   3.858
  965SOL    HW1 3794   5.763   2.485   3.844
  965SOL    HW2 3795   5.911   2.555   3.834
  966SOL     OW 3796   5.101   1.815   4.703
  966SOL    HW1 3797   5.089   1.717   4.719
  966SOL    HW2 3798   5.177   1.830   4.640
  967SOL     OW 3799   5.155   4.008   6.030
  967SOL    HW1 3800   5.250   4.039   6.028
  967SOL    HW2 3801   5.153   3.908   6.036
  968SOL     OW 3802   3.939   0.486   1.774
  968SOL    HW1 3803   3.926   0.435   1.689
  968SOL    HW2 3804   3.891   0.441   1.849
  969SOL     OW 3805   3.255   4.099   5.791
  969SOL    HW1 3806   3.264   4.178   5.852
  969SOL    HW2 3807   3.158   4.081   5.774
  970SOL     OW 3808   5.827   0.678   5.984
  970SOL    HW1 3809   5.878   0.670   5.898
  970SOL    HW2 3810   5.808   0.774   6.002
  971SOL     OW 3811   5.524   4.123   2.937
  971SOL    HW1 3812   5.440   4.111   2.885
  971SOL    HW2 3813   5.511   4.090   3.030
  972SOL     OW 3814   0.345   2.614   0.867
  972SOL    HW1 3815   0.342   2.703   0.913
  972SOL    HW2 3816   0.427   2.609   0.810
  973SOL     OW 3817   0.123   3.520   6.054
  973SOL    HW1 3818   0.159   3.614   6.048
  973SOL    HW2 3819   0.146   3.470   5.971
  974SOL     OW 3820   0.240   5.362   3.912
  974SOL    HW1 3821   0.333   5.398   3.897
  974SOL    HW2 3822   0.228   5.280   3.857
  975SOL     OW 3823   2.704   6.748   2.238
  975SOL    HW1 3824   2.665   6.723   2.327
  975SOL    HW2 3825   2.636   6.797   2.184
  976SOL     OW 3826   6.648   3.733   2.483
  976SOL    HW1 3827   6.638   3.634   2.475
  976SOL    HW2 3828   6.561   3.773   2.513
  977SOL     OW 3829   0.008   0.829   2.555
  977SOL    HW1 3830   0.103   0.813   2.581
  977SOL    HW2 3831   7.001   0.924   2.572
  978SOL     OW 3832   5.469   3.185   2.051
  978SOL    HW1 3833   5.494   3.089   2.042
  978SOL    HW2 3834   5.391   3.194   2.113
  979SOL     OW 3835   0.042   4.114   0.009
  979SOL    HW1 3836   6.994   4.057   6.976
  979SOL    HW2 3837   0.066   4.070   0.096
  980SOL     OW 3838   3.428   1.469   4.648
  980SOL    HW1 3839   3.406   1.372   4.655
  980SOL    HW2 3840   3.513   1.488   4.696
  981SOL     OW 3841   6.496   6.197   5.373
  981SOL    HW1 3842   6.578   6.239   5.412
  981SOL    HW2 3843   6.503   6.098   5.381
  982SOL     OW 3844   6.745   1.140   5.194
  982SOL    HW1 3845   6.650   1.120   5.169
  982SOL    HW2 3846   6.775   1.224   5.150
  983SOL     OW 3847   0.139   4.408   4.315
  983SOL    HW1 3848   0.131   4.506   4.332
  983SOL    HW2 3849   0.236   4.383   4.310
  984SOL     OW 3850   1.541   2.049   3.082
  984SOL    HW1 3851   1.617   2.009   3.132
  984SOL    HW2 3852   1.575   2.095   3.000
  985SOL     OW 3853   6.571   4.062   4.572
  985SOL    HW1 3854   6.616   4.151   4.573
  985SOL    HW2 3855   6.484   4.069   4.522
  986SOL     OW 3856   5.172   5.033   1.152
  986SOL    HW1 3857   5.156   5.007   1.247
  986SOL    HW2 3858   5.175   5.133   1.144
  987SOL     OW 3859   5.527   5.104   4.075
  987SOL    HW1 3860   5.559   5.112   4.169
  987SOL    HW2 3861   5.515   5.007   4.052
  988SOL     OW 3862   3.070   4.328   1.436
  988SOL    HW1 3863   3.060   4.282   1.524
  988SOL    HW2 3864   2.979   4.349   1.400
  989SOL     OW 3865   0.484   1.456   1.298
  989SOL    HW1 3866   0.450   1.501   1.216
  989SOL    HW2 3867   0.408   1.431   1.357
  990SOL     OW 3868   3.959   7.012   3.537
  990SOL    HW1 3869   4.036   6.966   3.493
  990SOL    HW2 3870   3.956   0.091   3.506
  991SOL     OW 3871   0.014   4.534   3.881
  991SOL    HW1 3872   0.089   4.514   3.945
  991SOL    HW2 3873   0.052   4.557   3.792
  992SOL     OW 3874   0.442   2.659   1.277
  992SOL    HW1 3875   0.343   2.647   1.272
  992SOL    HW2 3876   0.481   2.594   1.341
  993SOL     OW 3877   1.393   4.961   0.638
  993SOL    HW1 3878   1.412   5.053   0.675
  993SOL    HW2 3879   1.478   4.920   0.607
  994SOL     OW 3880   3.013   6.194   6.937
  994SOL    HW1 3881   2.977   6.201   6.844
  994SOL    HW2 3882   3.017   6.285   6.978
  995SOL     OW 3883   5.809   3.183   6.193
  995SOL    HW1 3884   5.870   3.260   6.211
  995SOL    HW2 3885   5.737   3.211   6.129
  996SOL     OW 3886   3.891   6.043   5.915
  996SOL    HW1 3887   3.968   6.088   5.869
  996SOL    HW2 3888   3.805   6.077   5.876
  997SOL     OW 3889   1.407   5.588   3.872
  997SOL    HW1 3890   1.362   5.499   3.884
  997SOL    HW2 3891   1.418   5.606   3.774
  998SOL     OW 3892   6.556   0.475   6.570
  998SOL    HW1 3893   6.509   0.561   6.587
  998SOL    HW2 3894   6.538   0.411   6.645
  999SOL     OW 3895   4.966   3.886   2.044
  999SOL    HW1 3896   4.934   3.867   1.951
  999SOL    HW2 3897   4.956   3.984   2.062
 1000SOL     OW 3898   4.400   1.574   1.453
 1000SOL    HW1 3899   4.411   1.491   1.507
 1000SOL    HW2 3900   4.333   1.558   1.380
 1001SOL     OW 3901   3.023   6.193   2.227
 1001SOL    HW1 3902   3.075   6.271   2.193
 1001SOL    HW2 3903   3.082   6.135   2.282
 1002SOL     OW 3904   5.328   2.273   1.257
 1002SOL    HW1 3905   5.385   2.248   1.178
 1002SOL    HW2 3906   5.234   2.286   1.228
 1003SOL     OW 3907   0.468   0.245   3.074
 1003SOL    HW1 3908   0.558   0.203   3.082
 1003SOL    HW2 3909   0.406   0.183   3.027
 1004SOL     OW 3910   5.363   1.265   3.619
 1004SOL    HW1 3911   5.287   1.201   3.607
 1004SOL    HW2 3912   5.429   1.227   3.684
 1005SOL     OW 3913   1.203   4.305   3.302
 1005SOL    HW1 3914   1.136   4.258   3.359
 1005SOL    HW2 3915   1.255   4.237   3.250
 1006SOL     OW 3916   2.820   3.362   1.332
 1006SOL    HW1 3917   2.841   3.456   1.306
 1006SOL    HW2 3918   2.902   3.318   1.367
 1007SOL     OW 3919   4.924   1.384   6.997
 1007SOL    HW1 3920   4.860   1.395   6.920
 1007SOL    HW2 3921   4.918   1.465   0.039
 1008SOL     OW 3922   0.034   5.000   4.901
 1008SOL    HW1 3923   6.975   5.050   4.858
 1008SOL    HW2 3924   0.071   5.054   4.977
 1009SOL     OW 3925   6.488   5.293   6.788
 1009SOL    HW1 3926   6.436   5.209   6.778
 1009SOL    HW2 3927   6.493   5.340   6.699
 1010SOL     OW 3928   2.668   3.144   1.395
 1010SOL    HW1 3929   2.697   3.124   1.488
 1010SOL    HW2 3930   2.684   3.241   1.375
 1011SOL     OW 3931   6.644   4.756   2.625
 1011SOL    HW1 3932   6.665   4.818   2.700
 1011SOL    HW2 3933   6.729   4.726   2.582
 1012SOL     OW 3934   4.895   0.428   2.557
 1012SOL    HW1 3935   4.966   0.418   2.627
 1012SOL    HW2 3936   4.866   0.524   2.554
 1013SOL     OW 3937   6.650   0.437   6.249
 1013SOL    HW1 3938   6.726   0.461   6.310
 1013SOL    HW2 3939   6.564   0.467   6.290
 1014SOL     OW 3940   1.167   5.201   4.424
 1014SOL    HW1 3941   1.150   5.184   4.521
 1014SOL    HW2 3942   1.084   5.237   4.382
 1015SOL     OW 3943   3.572   6.082   6.779
 1015SOL    HW1 3944   3.650   6.022   6.797
 1015SOL    HW2 3945   3.490   6.027   6.768
 1016SOL     OW 3946   5.990   4.161   1.533
 1016SOL    HW1 3947   5.953   4.249   1.504
 1016SOL    HW2 3948   5.923   4.114   1.591
 1017SOL     OW 3949   2.380   1.610   2.311
 1017SOL    HW1 3950   2.440   1.567   2.379
 1017SOL    HW2 3951   2.298   1.554   2.298
 1018SOL     OW 3952   0.342   5.294   3.247
 1018SOL    HW1 3953   0.298   5.221   3.194
 1018SOL    HW2 3954   0.433   5.263   3.276
 1019SOL     OW 3955   6.638   4.714   0.748
 1019SOL    HW1 3956   6.678   4.802   0.724
 1019SOL    HW2 3957   6.551   4.702   0.699
 1020SOL     OW 3958   6.614   0.349   0.957
 1020SOL    HW1 3959   6.708   0.331   0.928
 1020SOL    HW2 3960   6.558   0.268   0.939
 1021SOL     OW 3961   6.671   6.238   1.344
 1021SOL    HW1 3962   6.703   6.146   1.365
 1021SOL    HW2 3963   6.651   6.246   1.247
 1022SOL     OW 3964   1.831   6.312   6.379
 1022SOL    HW1 3965   1.861   6.396   6.425
 1022SOL    HW2 3966   1.759   6.269   6.434
 1023SOL     OW 3967   0.729   1.703   3.574
 1023SOL    HW1 3968   0.793   1.764   3.621
 1023SOL    HW2 3969   0.781   1.641   3.515
 1024SOL     OW 3970   1.468   1.755   5.017
 1024SOL    HW1 3971   1.531   1.680   4.999
 1024SOL    HW2 3972   1.376   1.730   4.985
 1025SOL     OW 3973   4.479   3.655   0.485
 1025SOL    HW1 3974   4.572   3.618   0.483
 1025SOL    HW2 3975   4.458   3.697   0.397
 1026SOL     OW 3976   3.119   2.562   1.124
 1026SOL    HW1 3977   3.097   2.467   1.104
 1026SOL    HW2 3978   3.207   2.586   1.082
 1027SOL     OW 3979   0.378   6.384   0.912
 1027SOL    HW1 3980   0.409   6.458   0.971
 1027SOL    HW2 3981   0.444   6.310   0.913
 1028SOL     OW 3982   1.062   6.042   2.483
 1028SOL    HW1 3983   1.094   6.003   2.397
 1028SOL    HW2 3984   1.116   6.006   2.558
 1029SOL     OW 3985   1.089   1.522   6.341
 1029SOL    HW1 3986   1.086   1.621   6.356
 1029SOL    HW2 3987   1.153   1.501   6.267
 1030SOL     OW 3988   3.590   3.309   1.579
 1030SOL    HW1 3989   3.627   3.219   1.602
 1030SOL    HW2 3990   3.494   3.299   1.552
 1031SOL     OW 3991   3.315   3.517   1.411
 1031SOL    HW1 3992   3.405   3.556   1.430
 1031SOL    HW2 3993   3.244   3.579   1.447
 1032SOL     OW 3994   2.102   2.172   6.012
 1032SOL    HW1 3995   2.136   2.193   6.103
 1032SOL    HW2 3996   2.038   2.095   6.017
 1033SOL     OW 3997   0.700   6.256   2.076
 1033SOL    HW1 3998   0.776   6.231   2.016
 1033SOL    HW2 3999   0.728   6.245   2.171
 1034SOL     OW 4000   2.995   6.752   4.391
 1034SOL    HW1 4001   2.906   6.712   4.368
 1034SOL    HW2 4002   3.022   6.722   4.482
 1035SOL     OW 4003   0.900   2.143   5.955
 1035SOL    HW1 4004   0.967   2.213   5.982
 1035SOL    HW2 4005   0.848   2.175   5.876
 1036SOL     OW 4006   4.936   1.710   0.956
 1036SOL    HW1 4007   4.983   1.677   1.038
 1036SOL    HW2 4008   4.855   1.655   0.940
 1037SOL     OW 4009   1.621   2.813   2.695
 1037SOL    HW1 4010   1.665   2.730   2.660
 1037SOL    HW2 4011   1.587   2.868   2.618
 1038SOL     OW 4012   3.209   6.649   6.924
 1038SOL    HW1 4013   3.304   6.620   6.938
 1038SOL    HW2 4014   3.198   6.743   6.955
 1039SOL     OW 4015   3.493   2.884   3.831
 1039SOL    HW1 4016   3.420   2.950   3.843
 1039SOL    HW2 4017   3.545   2.876   3.916
 1040SOL     OW 4018   4.086   0.674   3.148
 1040SOL    HW1 4019   4.098   0.765   3.109
 1040SOL    HW2 4020   4.034   0.617   3.085
 1041SOL     OW 4021   6.744   6.295   6.179
 1041SOL    HW1 4022   6.698   6.209   6.203
 1041SOL    HW2 4023   6.719   6.322   6.086
 1042SOL     OW 4024   5.270   4.772   2.741
 1042SOL    HW1 4025   5.248   4.775   2.644
 1042SOL    HW2 4026   5.187   4.749   2.793
 1043SOL     OW 4027   3.298   2.110   4.109
 1043SOL    HW1 4028   3.361   2.162   4.167
 1043SOL    HW2 4029   3.266   2.029   4.158
 1044SOL     OW 4030   5.469   4.994   1.294
 1044SOL    HW1 4031   5.421   4.919   1.247
 1044SOL    HW2 4032   5.535   5.035   1.231
 1045SOL     OW 4033   2.461   0.544   3.517
 1045SOL    HW1 4034   2.364   0.564   3.503
 1045SOL    HW2 4035   2.476   0.445   3.515
 1046SOL     OW 4036   3.068   1.029   0.718
 1046SOL    HW1 4037   2.985   1.048   0.666
 1046SOL    HW2 4038   3.062   1.073   0.808
 1047SOL     OW 4039   3.705   6.468   3.064
 1047SOL    HW1 4040   3.678   6.531   3.136
 1047SOL    HW2 4041   3.644   6.389   3.064
 1048SOL     OW 4042   1.516   6.442   1.926
 1048SOL    HW1 4043   1.471   6.427   1.838
 1048SOL    HW2 4044   1.615   6.443   1.913
 1049SOL     OW 4045   4.290   6.009   5.322
 1049SOL    HW1 4046   4.271   5.934   5.385
 1049SOL    HW2 4047   4.268   5.980   5.229
 1050SOL     OW 4048   3.248   5.187   3.292
 1050SOL    HW1 4049   3.273   5.199   3.196
 1050SOL    HW2 4050   3.291   5.104   3.327
 1051SOL     OW 4051   0.432   0.168   6.892
 1051SOL    HW1 4052   0.366   0.213   6.832
 1051SOL    HW2 4053   0.525   0.186   6.860
 1052SOL     OW 4054   3.823   0.949   6.681
 1052SOL    HW1 4055   3.836   0.851   6.672
 1052SOL    HW2 4056   3.899   0.997   6.638
 1053SOL     OW 4057   6.139   2.957   3.049
 1053SOL    HW1 4058   6.054   2.995   3.012
 1053SOL    HW2 4059   6.202   2.936   2.974
 1054SOL     OW 4060   3.304   4.515   6.713
 1054SOL    HW1 4061   3.348   4.604   6.708
 1054SOL    HW2 4062   3.251   4.509   6.798
 1055SOL     OW 4063   4.702   6.379   6.786
 1055SOL    HW1 4064   4.796   6.361   6.814
 1055SOL    HW2 4065   4.662   6.449   6.846
 1056SOL     OW 4066   2.870   3.569   6.752
 1056SOL    HW1 4067   2.901   3.662   6.731
 1056SOL    HW2 4068   2.908   3.505   6.685
 1057SOL     OW 4069   2.939   1.658   1.341
 1057SOL    HW1 4070   2.973   1.644   1.434
 1057SOL    HW2 4071   2.998   1.611   1.276
 1058SOL     OW 4072   2.314   2.450   2.532
 1058SOL    HW1 4073   2.409   2.457   2.562
 1058SOL    HW2 4074   2.289   2.532   2.480
 1059SOL     OW 4075   2.887   6.183   1.415
 1059SOL    HW1 4076   2.944   6.266   1.422
 1059SOL    HW2 4077   2.898   6.129   1.498
 1060SOL     OW 4078   6.131   6.097   5.244
 1060SOL    HW1 4079   6.185   6.034   5.188
 1060SOL    HW2 4080   6.110   6.054   5.332
 1061SOL     OW 4081   6.672   4.088   6.783
 1061SOL    HW1 4082   6.600   4.031   6.744
 1061SOL    HW2 4083   6.694   4.163   6.720
 1062SOL     OW 4084   3.684   6.512   5.520
 1062SOL    HW1 4085   3.751   6.531   5.592
 1062SOL    HW2 4086   3.635   6.428   5.541
 1063SOL     OW 4087   2.229   6.303   6.240
 1063SOL    HW1 4088   2.219   6.241   6.317
 1063SOL    HW2 4089   2.284   6.259   6.168
 1064SOL     OW 4090   1.607   4.169   0.488
 1064SOL    HW1 4091   1.548   4.249   0.472
 1064SOL    HW2 4092   1.665   4.186   0.568
 1065SOL     OW 4093   4.509   0.405   4.257
 1065SOL    HW1 4094   4.558   0.354   4.187
 1065SOL    HW2 4095   4.563   0.485   4.284
 1066SOL     OW 4096   4.802   0.113   1.995
 1066SOL    HW1 4097   4.739   0.152   2.063
 1066SOL    HW2 4098   4.890   0.160   2.001
 1067SOL     OW 4099   2.575   1.004   0.423
 1067SOL    HW1 4100   2.494   0.960   0.462
 1067SOL    HW2 4101   2.552   1.098   0.397
 1068SOL     OW 4102   5.918   3.268   1.103
 1068SOL    HW1 4103   5.921   3.255   1.202
 1068SOL    HW2 4104   5.967   3.351   1.078
 1069SOL     OW 4105   6.478   4.047   1.725
 1069SOL    HW1 4106   6.379   4.037   1.715
 1069SOL    HW2 4107   6.505   4.139   1.696
 1070SOL     OW 4108   1.328   0.105   1.854
 1070SOL    HW1 4109   1.353   0.172   1.784
 1070SOL    HW2 4110   1.359   0.137   1.943
 1071SOL     OW 4111   6.569   3.073   5.525
 1071SOL    HW1 4112   6.566   3.058   5.624
 1071SOL    HW2 4113   6.657   3.040   5.490
 1072SOL     OW 4114   2.680   1.386   2.200
 1072SOL    HW1 4115   2.602   1.430   2.157
 1072SOL    HW2 4116   2.649   1.309   2.256
 1073SOL     OW 4117   5.015   1.633   3.434
 1073SOL    HW1 4118   5.093   1.691   3.456
 1073SOL    HW2 4119   5.011   1.619   3.335
 1074SOL     OW 4120   2.605   4.774   1.842
 1074SOL    HW1 4121   2.670   4.710   1.884
 1074SOL    HW2 4122   2.573   4.736   1.756
 1075SOL     OW 4123   5.756   3.216   5.003
 1075SOL    HW1 4124   5.684   3.263   5.055
 1075SOL    HW2 4125   5.725   3.202   4.909
 1076SOL     OW 4126   2.124   3.853   5.130
 1076SOL    HW1 4127   2.185   3.919   5.085
 1076SOL    HW2 4128   2.047   3.901   5.172
 1077SOL     OW 4129   0.181   6.891   6.940
 1077SOL    HW1 4130   0.150   6.817   6.999
 1077SOL    HW2 4131   0.278   6.878   6.919
 1078SOL     OW 4132   6.997   6.285   3.732
 1078SOL    HW1 4133   6.936   6.254   3.659
 1078SOL    HW2 4134   6.952   6.358   3.783
 1079SOL     OW 4135   0.804   6.056   2.599
 1079SOL    HW1 4136   0.813   6.015   2.690
 1079SOL    HW2 4137   0.893   6.053   2.553
 1080SOL     OW 4138   1.999   5.043   6.433
 1080SOL    HW1 4139   2.023   4.953   6.396
 1080SOL    HW2 4140   2.076   5.106   6.421
 1081SOL     OW 4141   6.530   5.770   4.222
 1081SOL    HW1 4142   6.601   5.710   4.184
 1081SOL    HW2 4143   6.522   5.753   4.320
 1082SOL     OW 4144   5.354   0.441   6.207
 1082SOL    HW1 4145   5.277   0.505   6.204
 1082SOL    HW2 4146   5.325   0.354   6.245
 1083SOL     OW 4147   4.851   4.289   0.794
 1083SOL    HW1 4148   4.913   4.243   0.857
 1083SOL    HW2 4149   4.766   4.311   0.842
 1084SOL     OW 4150   0.534   0.289   6.344
 1084SOL    HW1 4151   0.533   0.378   6.390
 1084SOL    HW2 4152   0.627   0.267   6.316
 1085SOL     OW 4153   1.820   3.832   4.321
 1085SOL    HW1 4154   1.783   3.922   4.341
 1085SOL    HW2 4155   1.919   3.832   4.332
 1086SOL     OW 4156   6.261   5.171   0.195
 1086SOL    HW1 4157   6.236   5.082   0.157
 1086SOL    HW2 4158   6.344   5.161   0.250
 1087SOL     OW 4159   2.486   0.147   5.261
 1087SOL    HW1 4160   2.516   0.064   5.307
 1087SOL    HW2 4161   2.465   0.127   5.165
 1088SOL     OW 4162   6.725   4.805   3.330
 1088SOL    HW1 4163   6.793   4.878   3.335
 1088SOL    HW2 4164   6.743   4.737   3.401
 1089SOL     OW 4165   6.417   4.245   4.288
 1089SOL    HW1 4166   6.379   4.326   4.332
 1089SOL    HW2 4167   6.384   4.163   4.335
 1090SOL     OW 4168   5.227   1.286   4.820
 1090SOL    HW1 4169   5.313   1.237   4.837
 1090SOL    HW2 4170   5.209   1.349   4.895
 1091SOL     OW 4171   2.307   2.841   3.383
 1091SOL    HW1 4172   2.355   2.754   3.372
 1091SOL    HW2 4173   2.357   2.897   3.450
 1092SOL     OW 4174   0.746   5.055   0.734
 1092SOL    HW1 4175   0.688   5.088   0.808
 1092SOL    HW2 4176   0.754   4.955   0.740
 1093SOL     OW 4177   2.189   6.965   1.780
 1093SOL    HW1 4178   2.242   6.882   1.794
 1093SOL    HW2 4179   2.139   6.987   1.864
 1094SOL     OW 4180   1.063   0.251   2.839
 1094SOL    HW1 4181   0.986   0.314   2.828
 1094SOL    HW2 4182   1.028   0.159   2.854
 1095SOL     OW 4183   6.702   3.460   0.141
 1095SOL    HW1 4184   6.603   3.460   0.125
 1095SOL    HW2 4185   6.746   3.519   0.074
 1096SOL     OW 4186   2.817   5.748   1.679
 1096SOL    HW1 4187   2.786   5.680   1.744
 1096SOL    HW2 4188   2.859   5.825   1.728
 1097SOL     OW 4189   3.410   5.152   4.215
 1097SOL    HW1 4190   3.418   5.056   4.190
 1097SOL    HW2 4191   3.338   5.164   4.283
 1098SOL     OW 4192   6.310   5.294   0.650
 1098SOL    HW1 4193   6.320   5.265   0.555
 1098SOL    HW2 4194   6.280   5.390   0.652
 1099SOL     OW 4195   4.469   0.649   6.067
 1099SOL    HW1 4196   4.450   0.718   5.997
 1099SOL    HW2 4197   4.568   0.631   6.070
 1100SOL     OW 4198   3.375   1.785   4.052
 1100SOL    HW1 4199   3.389   1.692   4.086
 1100SOL    HW2 4200   3.460   1.837   4.059
 1101SOL     OW 4201   6.499   3.138   5.789
 1101SOL    HW1 4202   6.423   3.075   5.775
 1101SOL    HW2 4203   6.486   3.219   5.731
 1102SOL     OW 4204   2.742   1.078   4.401
 1102SOL    HW1 4205   2.658   1.100   4.452
 1102SOL    HW2 4206   2.759   1.150   4.334
 1103SOL     OW 4207   3.063   0.100   6.624
 1103SOL    HW1 4208   3.105   0.010   6.631
 1103SOL    HW2 4209   2.978   0.093   6.572
 1104SOL     OW 4210   0.254   3.324   3.439
 1104SOL    HW1 4211   0.246   3.351   3.343
 1104SOL    HW2 4212   0.192   3.247   3.457
 1105SOL     OW 4213   5.328   0.856   5.320
 1105SOL    HW1 4214   5.338   0.879   5.223
 1105SOL    HW2 4215   5.358   0.762   5.335
 1106SOL     OW 4216   0.531   1.970   0.869
 1106SOL    HW1 4217   0.629   1.958   0.857
 1106SOL    HW2 4218   0.500   1.918   0.949
 1107SOL     OW 4219   0.994   0.999   0.586
 1107SOL    HW1 4220   0.927   0.925   0.596
 1107SOL    HW2 4221   1.000   1.026   0.490
 1108SOL     OW 4222   2.637   6.363   4.507
 1108SOL    HW1 4223   2.657   6.367   4.605
 1108SOL    HW2 4224   2.615   6.269   4.481
 1109SOL     OW 4225   5.406   1.284   4.397
 1109SOL    HW1 4226   5.397   1.383   4.411
 1109SOL    HW2 4227   5.502   1.257   4.406
 1110SOL     OW 4228   3.503   1.135   2.613
 1110SOL    HW1 4229   3.566   1.071   2.569
 1110SOL    HW2 4230   3.546   1.173   2.695
 1111SOL     OW 4231   5.105   3.705   6.842
 1111SOL    HW1 4232   5.018   3.670   6.806
 1111SOL    HW2 4233   5.174   3.634   6.835
 1112SOL     OW 4234   5.270   0.071   2.254
 1112SOL    HW1 4235   5.175   0.050   2.235
 1112SOL    HW2 4236   5.326   7.006   2.239
 1113SOL     OW 4237   5.369   4.396   2.280
 1113SOL    HW1 4238   5.412   4.475   2.237
 1113SOL    HW2 4239   5.440   4.335   2.316
 1114SOL     OW 4240   4.179   3.475   5.711
 1114SOL    HW1 4241   4.265   3.516   5.743
 1114SOL    HW2 4242   4.177   3.475   5.611
 1115SOL     OW 4243   3.394   4.499   5.683
 1115SOL    HW1 4244   3.310   4.502   5.736
 1115SOL    HW2 4245   3.436   4.409   5.691
 1116SOL     OW 4246   4.637   0.236   6.518
 1116SOL    HW1 4247   4.733   0.239   6.546
 1116SOL    HW2 4248   4.615   0.144   6.487
 1117SOL     OW 4249   1.360   3.135   1.932
 1117SOL    HW1 4250   1.365   3.229   1.964
 1117SOL    HW2 4251   1.416   3.124   1.850
 1118SOL     OW 4252   2.911   4.634   6.796
 1118SOL    HW1 4253   2.845   4.695   6.842
 1118SOL    HW2 4254   2.875   4.608   6.707
 1119SOL     OW 4255   3.904   5.252   4.081
 1119SOL    HW1 4256   3.906   5.158   4.047
 1119SOL    HW2 4257   3.811   5.288   4.074
 1120SOL     OW 4258   6.373   5.276   1.022
 1120SOL    HW1 4259   6.439   5.258   1.096
 1120SOL    HW2 4260   6.385   5.208   0.950
 1121SOL     OW 4261   6.585   5.198   4.514
 1121SOL    HW1 4262   6.650   5.143   4.566
 1121SOL    HW2 4263   6.629   5.283   4.484
 1122SOL     OW 4264   5.340   2.797   1.903
 1122SOL    HW1 4265   5.255   2.848   1.895
 1122SOL    HW2 4266   5.373   2.773   1.812
 1123SOL     OW 4267   4.495   2.033   3.156
 1123SOL    HW1 4268   4.431   1.979   3.102
 1123SOL    HW2 4269   4.535   1.976   3.228
 1124SOL     OW 4270   2.243   2.978   4.773
 1124SOL    HW1 4271   2.302   2.996   4.851
 1124SOL    HW2 4272   2.149   3.000   4.796
 1125SOL     OW 4273   1.133   3.887   3.666
 1125SOL    HW1 4274   1.187   3.967   3.694
 1125SOL    HW2 4275   1.180   3.804   3.694
 1126SOL     OW 4276   3.681   5.283   5.369
 1126SOL    HW1 4277   3.649   5.193   5.338
 1126SOL    HW2 4278   3.749   5.319   5.305
 1127SOL     OW 4279   5.678   6.526   3.128
 1127SOL    HW1 4280   5.590   6.556   3.166
 1127SOL    HW2 4281   5.672   6.526   3.028
 1128SOL     OW 4282   5.922   1.502   3.449
 1128SOL    HW1 4283   5.987   1.557   3.502
 1128SOL    HW2 4284   5.972   1.437   3.393
 1129SOL     OW 4285   1.659   0.327   0.808
 1129SOL    HW1 4286   1.621   0.368   0.725
 1129SOL    HW2 4287   1.724   0.391   0.850
 1130SOL     OW 4288   2.298   5.060   2.655
 1130SOL    HW1 4289   2.310   5.153   2.623
 1130SOL    HW2 4290   2.374   5.003   2.623
 1131SOL     OW 4291   1.616   6.403   3.985
 1131SOL    HW1 4292   1.658   6.474   3.928
 1131SOL    HW2 4293   1.649   6.414   4.079
 1132SOL     OW 4294   3.556   1.508   2.681
 1132SOL    HW1 4295   3.551   1.607   2.669
 1132SOL    HW2 4296   3.627   1.470   2.622
 1133SOL     OW 4297   1.513   6.742   5.014
 1133SOL    HW1 4298   1.420   6.726   5.047
 1133SOL    HW2 4299   1.508   6.784   4.923
 1134SOL     OW 4300   4.039   6.836   1.569
 1134SOL    HW1 4301   4.000   6.922   1.533
 1134SOL    HW2 4302   4.090   6.790   1.496
 1135SOL     OW 4303   2.130   5.972   3.738
 1135SOL    HW1 4304   2.079   5.925   3.665
 1135SOL    HW2 4305   2.187   6.044   3.698
 1136SOL     OW 4306   2.900   6.170   1.721
 1136SOL    HW1 4307   2.918   6.092   1.782
 1136SOL    HW2 4308   2.978   6.232   1.722
 1137SOL     OW 4309   0.143   5.757   5.808
 1137SOL    HW1 4310   0.106   5.677   5.760
 1137SOL    HW2 4311   0.212   5.801   5.751
 1138SOL     OW 4312   2.208   3.091   4.483
 1138SOL    HW1 4313   2.226   3.027   4.558
 1138SOL    HW2 4314   2.221   3.045   4.395
 1139SOL     OW 4315   2.916   5.419   4.155
 1139SOL    HW1 4316   2.828   5.444   4.116
 1139SOL    HW2 4317   2.909   5.331   4.202
 1140SOL     OW 4318   1.242   1.774   1.665
 1140SOL    HW1 4319   1.178   1.730   1.728
 1140SOL    HW2 4320   1.269   1.863   1.702
 1141SOL     OW 4321   6.125   4.377   6.642
 1141SOL    HW1 4322   6.050   4.410   6.700
 1141SOL    HW2 4323   6.093   4.373   6.547
 1142SOL     OW 4324   2.518   0.031   2.674
 1142SOL    HW1 4325   2.505   7.016   2.768
 1142SOL    HW2 4326   2.614   0.022   2.647
 1143SOL     OW 4327   1.156   3.779   1.672
 1143SOL    HW1 4328   1.081   3.827   1.626
 1143SOL    HW2 4329   1.242   3.827   1.652
 1144SOL     OW 4330   5.286   4.030   2.017
 1144SOL    HW1 4331   5.327   3.986   1.938
 1144SOL    HW2 4332   5.201   4.076   1.990
 1145SOL     OW 4333   0.115   1.466   0.642
 1145SOL    HW1 4334   0.094   1.554   0.599
 1145SOL    HW2 4335   0.061   1.456   0.725
 1146SOL     OW 4336   0.755   1.333   1.486
 1146SOL    HW1 4337   0.726   1.389   1.409
 1146SOL    HW2 4338   0.842   1.288   1.465
 1147SOL     OW 4339   3.354   6.847   1.091
 1147SOL    HW1 4340   3.354   6.933   1.040
 1147SOL    HW2 4341   3.440   6.798   1.073
 1148SOL     OW 4342   4.411   5.649   2.521
 1148SOL    HW1 4343   4.336   5.611   2.576
 1148SOL    HW2 4344   4.491   5.590   2.530
 1149SOL     OW 4345   4.591   2.297   1.679
 1149SOL    HW1 4346   4.661   2.290   1.750
 1149SOL    HW2 4347   4.567   2.205   1.647
 1150SOL     OW 4348   2.009   4.233   6.930
 1150SOL    HW1 4349   1.940   4.214   6.860
 1150SOL    HW2 4350   2.043   4.146   6.967
 1151SOL     OW 4351   6.604   5.235   3.950
 1151SOL    HW1 4352   6.595   5.333   3.964
 1151SOL    HW2 4353   6.554   5.208   3.868
 1152SOL     OW 4354   4.195   6.778   6.370
 1152SOL    HW1 4355   4.173   6.765   6.273
 1152SOL    HW2 4356   4.147   6.858   6.405
 1153SOL     OW 4357   6.370   0.535   1.176
 1153SOL    HW1 4358   6.334   0.443   1.164
 1153SOL    HW2 4359   6.451   0.531   1.235
 1154SOL     OW 4360   1.970   2.615   1.701
 1154SOL    HW1 4361   1.993   2.526   1.739
 1154SOL    HW2 4362   2.053   2.666   1.679
 1155SOL     OW 4363   2.845   6.097   5.173
 1155SOL    HW1 4364   2.801   6.072   5.260
 1155SOL    HW2 4365   2.933   6.050   5.166
 1156SOL     OW 4366   3.645   2.000   4.282
 1156SOL    HW1 4367   3.714   1.981   4.352
 1156SOL    HW2 4368   3.564   2.040   4.325
 1157SOL     OW 4369   3.409   1.292   5.546
 1157SOL    HW1 4370   3.340   1.362   5.567
 1157SOL    HW2 4371   3.368   1.202   5.557
 1158SOL     OW 4372   5.748   6.236   2.965
 1158SOL    HW1 4373   5.789   6.228   3.056
 1158SOL    HW2 4374   5.654   6.269   2.974
 1159SOL     OW 4375   6.366   6.355   2.065
 1159SOL    HW1 4376   6.359   6.257   2.044
 1159SOL    HW2 4377   6.462   6.379   2.079
 1160SOL     OW 4378   4.855   1.240   0.654
 1160SOL    HW1 4379   4.841   1.142   0.672
 1160SOL    HW2 4380   4.856   1.255   0.555
 1161SOL     OW 4381   0.457   5.462   6.780
 1161SOL    HW1 4382   0.395   5.538   6.759
 1161SOL    HW2 4383   0.411   5.398   6.843
 1162SOL     OW 4384   2.123   2.552   4.930
 1162SOL    HW1 4385   2.039   2.499   4.927
 1162SOL    HW2 4386   2.111   2.631   4.990
 1163SOL     OW 4387   6.215   4.037   1.642
 1163SOL    HW1 4388   6.192   4.029   1.739
 1163SOL    HW2 4389   6.134   4.064   1.590
 1164SOL     OW 4390   4.872   1.943   4.632
 1164SOL    HW1 4391   4.861   1.932   4.533
 1164SOL    HW2 4392   4.962   1.908   4.660
 1165SOL     OW 4393   3.857   6.343   3.338
 1165SOL    HW1 4394   3.794   6.286   3.391
 1165SOL    HW2 4395   3.825   6.438   3.339
 1166SOL     OW 4396   2.115   5.975   6.926
 1166SOL    HW1 4397   2.078   5.882   6.930
 1166SOL    HW2 4398   2.041   6.039   6.903
 1167SOL     OW 4399   5.594   4.561   2.490
 1167SOL    HW1 4400   5.620   4.464   2.485
 1167SOL    HW2 4401   5.497   4.570   2.466
 1168SOL     OW 4402   6.338   2.137   3.111
 1168SOL    HW1 4403   6.425   2.111   3.152
 1168SOL    HW2 4404   6.323   2.084   3.027
 1169SOL     OW 4405   5.690   0.457   5.026
 1169SOL    HW1 4406   5.639   0.525   4.973
 1169SOL    HW2 4407   5.682   0.479   5.123
 1170SOL     OW 4408   4.742   6.745   3.614
 1170SOL    HW1 4409   4.719   6.648   3.601
 1170SOL    HW2 4410   4.764   6.761   3.710
 1171SOL     OW 4411   1.444   0.462   1.252
 1171SOL    HW1 4412   1.396   0.550   1.245
 1171SOL    HW2 4413   1.393   0.393   1.201
 1172SOL     OW 4414   0.209   3.647   6.553
 1172SOL    HW1 4415   0.244   3.730   6.597
 1172SOL    HW2 4416   0.283   3.582   6.542
 1173SOL     OW 4417   3.035   1.410   1.117
 1173SOL    HW1 4418   3.122   1.362   1.107
 1173SOL    HW2 4419   2.994   1.387   1.205
 1174SOL     OW 4420   3.565   3.602   1.106
 1174SOL    HW1 4421   3.540   3.506   1.091
 1174SOL    HW2 4422   3.605   3.612   1.197
 1175SOL     OW 4423   3.575   3.153   4.934
 1175SOL    HW1 4424   3.643   3.212   4.978
 1175SOL    HW2 4425   3.553   3.189   4.843
 1176SOL     OW 4426   5.158   3.992   6.502
 1176SOL    HW1 4427   5.186   3.943   6.585
 1176SOL    HW2 4428   5.096   4.067   6.528
 1177SOL     OW 4429   6.262   2.590   4.787
 1177SOL    HW1 4430   6.280   2.498   4.823
 1177SOL    HW2 4431   6.344   2.646   4.799
 1178SOL     OW 4432   2.796   4.918   0.094
 1178SOL    HW1 4433   2.720   4.871   0.049
 1178SOL    HW2 4434   2.832   4.989   0.034
 1179SOL     OW 4435   2.379   5.125   1.052
 1179SOL    HW1 4436   2.294   5.168   1.020
 1179SOL    HW2 4437   2.457   5.173   1.013
 1180SOL     OW 4438   3.171   5.834   0.713
 1180SOL    HW1 4439   3.218   5.779   0.781
 1180SOL    HW2 4440   3.177   5.931   0.738
 1181SOL     OW 4441   0.256   5.639   6.741
 1181SOL    HW1 4442   0.159   5.628   6.759
 1181SOL    HW2 4443   0.284   5.732   6.765
 1182SOL     OW 4444   4.281   5.383   2.896
 1182SOL    HW1 4445   4.348   5.362   2.825
 1182SOL    HW2 4446   4.219   5.305   2.907
 1183SOL     OW 4447   2.138   3.871   6.288
 1183SOL    HW1 4448   2.093   3.785   6.312
 1183SOL    HW2 4449   2.147   3.877   6.189
 1184SOL     OW 4450   1.573   0.059   4.917
 1184SOL    HW1 4451   1.587   0.064   5.016
 1184SOL    HW2 4452   1.661   0.042   4.872
 1185SOL     OW 4453   0.022   1.398   6.912
 1185SOL    HW1 4454   0.100   1.456   6.936
 1185SOL    HW2 4455   7.001   1.429   6.825
 1186SOL     OW 4456   5.030   5.921   4.694
 1186SOL    HW1 4457   5.002   5.980   4.618
 1186SOL    HW2 4458   5.049   5.829   4.661
 1187SOL     OW 4459   6.513   0.320   5.684
 1187SOL    HW1 4460   6.518   0.232   5.732
 1187SOL    HW2 4461   6.531   0.306   5.587
 1188SOL     OW 4462   2.620   6.481   5.366
 1188SOL    HW1 4463   2.568   6.460   5.283
 1188SOL    HW2 4464   2.713   6.445   5.358
 1189SOL     OW 4465   6.043   3.340   3.341
 1189SOL    HW1 4466   5.961   3.327   3.286
 1189SOL    HW2 4467   6.097   3.255   3.340
 1190SOL     OW 4468   1.885   6.449   2.620
 1190SOL    HW1 4469   1.965   6.508   2.636
 1190SOL    HW2 4470   1.882   6.424   2.523
 1191SOL     OW 4471   4.578   4.934   3.040
 1191SOL    HW1 4472   4.548   4.998   3.110
 1191SOL    HW2 4473   4.501   4.879   3.008
 1192SOL     OW 4474   4.292   5.961   2.860
 1192SOL    HW1 4475   4.330   6.049   2.890
 1192SOL    HW2 4476   4.193   5.962   2.869
 1193SOL     OW 4477   6.049   4.858   3.778
 1193SOL    HW1 4478   6.003   4.834   3.863
 1193SOL    HW2 4479   5.984   4.905   3.717
 1194SOL     OW 4480   4.580   0.680   1.281
 1194SOL    HW1 4481   4.633   0.755   1.321
 1194SOL    HW2 4482   4.600   0.595   1.329
 1195SOL     OW 4483   6.195   3.445   2.134
 1195SOL    HW1 4484   6.257   3.437   2.056
 1195SOL    HW2 4485   6.146   3.532   2.128
 1196SOL     OW 4486   6.570   6.758   3.713
 1196SOL    HW1 4487   6.604   6.751   3.807
 1196SOL    HW2 4488   6.599   6.677   3.662
 1197SOL     OW 4489   3.771   6.797   0.518
 1197SOL    HW1 4490   3.715   6.869   0.557
 1197SOL    HW2 4491   3.864   6.803   0.554
 1198SOL     OW 4492   1.551   2.404   0.796
 1198SOL    HW1 4493   1.602   2.416   0.710
 1198SOL    HW2 4494   1.525   2.308   0.805
 1199SOL     OW 4495   4.770   5.182   1.522
 1199SOL    HW1 4496   4.829   5.118   1.472
 1199SOL    HW2 4497   4.797   5.276   1.502
 1200SOL     OW 4498   3.143   3.542   2.144
 1200SOL    HW1 4499   3.194   3.484   2.207
 1200SOL    HW2 4500   3.077   3.597   2.194
 1201SOL     OW 4501   1.358   1.996   4.876
 1201SOL    HW1 4502   1.398   2.002   4.784
 1201SOL    HW2 4503   1.388   1.911   4.919
 1202SOL     OW 4504   0.205   5.598   6.463
 1202SOL    HW1 4505   0.299   5.568   6.451
 1202SOL    HW2 4506   0.200   5.665   6.537
 1203SOL     OW 4507   4.899   6.085   5.976
 1203SOL    HW1 4508   4.810   6.076   5.930
 1203SOL    HW2 4509   4.937   6.176   5.958
 1204SOL     OW 4510   2.304   0.910   2.262
 1204SOL    HW1 4511   2.227   0.850   2.240
 1204SOL    HW2 4512   2.328   0.964   2.181
 1205SOL     OW 4513   5.142   4.072   1.370
 1205SOL    HW1 4514   5.081   4.103   1.443
 1205SOL    HW2 4515   5.195   4.149   1.335
 1206SOL     OW 4516   3.248   3.460   4.706
 1206SOL    HW1 4517   3.253   3.560   4.712
 1206SOL    HW2 4518   3.252   3.432   4.610
 1207SOL     OW 4519   2.295   6.195   1.736
 1207SOL    HW1 4520   2.209   6.244   1.752
 1207SOL    HW2 4521   2.361   6.258   1.693
 1208SOL     OW 4522   3.700   3.326   7.000
 1208SOL    HW1 4523   3.795   3.351   6.981
 1208SOL    HW2 4524   3.668   3.378   0.063
 1209SOL     OW 4525   3.564   0.092   5.449
 1209SOL    HW1 4526   3.578   0.039   5.533
 1209SOL    HW2 4527   3.567   0.030   5.370
 1210SOL     OW 4528   3.330   0.443   2.831
 1210SOL    HW1 4529   3.411   0.427   2.887
 1210SOL    HW2 4530   3.282   0.357   2.817
 1211SOL     OW 4531   0.655   4.011   1.026
 1211SOL    HW1 4532   0.720   3.999   1.100
 1211SOL    HW2 4533   0.699   3.990   0.939
 1212SOL     OW 4534   0.579   0.108   6.548
 1212SOL    HW1 4535   0.615   0.170   6.617
 1212SOL    HW2 4536   0.547   0.160   6.469
 1213SOL     OW 4537   5.854   2.451   0.930
 1213SOL    HW1 4538   5.809   2.524   0.982
 1213SOL    HW2 4539   5.799   2.429   0.850
 1214SOL     OW 4540   6.674   2.242   1.080
 1214SOL    HW1 4541   6.736   2.165   1.098
 1214SOL    HW2 4542   6.670   2.259   0.982
 1215SOL     OW 4543   0.852   5.010   4.498
 1215SOL    HW1 4544   0.846   5.093   4.553
 1215SOL    HW2 4545   0.815   5.026   4.407
 1216SOL     OW 4546   4.327   0.551   6.271
 1216SOL    HW1 4547   4.381   0.527   6.352
 1216SOL    HW2 4548   4.389   0.581   6.198
 1217SOL     OW 4549   2.540   4.630   0.776
 1217SOL    HW1 4550   2.540   4.541   0.729
 1217SOL    HW2 4551   2.605   4.691   0.731
 1218SOL     OW 4552   1.316   4.117   3.698
 1218SOL    HW1 4553   1.291   4.208   3.731
 1218SOL    HW2 4554   1.368   4.068   3.768
 1219SOL     OW 4555   3.772   6.177   2.245
 1219SOL    HW1 4556   3.791   6.090   2.200
 1219SOL    HW2 4557   3.856   6.211   2.288
 1220SOL     OW 4558   1.297   4.720   2.985
 1220SOL    HW1 4559   1.317   4.640   3.042
 1220SOL    HW2 4560   1.229   4.777   3.030
 1221SOL     OW 4561   5.581   3.259   6.057
 1221SOL    HW1 4562   5.626   3.343   6.025
 1221SOL    HW2 4563   5.486   3.279   6.081
 1222SOL     OW 4564   6.817   6.591   6.954
 1222SOL    HW1 4565   6.818   6.649   6.872
 1222SOL    HW2 4566   6.889   6.620   0.000
 1223SOL     OW 4567   3.009   6.426   0.052
 1223SOL    HW1 4568   2.991   6.524   0.062
 1223SOL    HW2 4569   2.973   6.377   0.132
 1224SOL     OW 4570   2.402   0.266   1.103
 1224SOL    HW1 4571   2.319   0.276   1.157
 1224SOL    HW2 4572   2.384   0.292   1.008
 1225SOL     OW 4573   3.235   4.352   6.243
 1225SOL    HW1 4574   3.253   4.274   6.302
 1225SOL    HW2 4575   3.188   4.423   6.295
 1226SOL     OW 4576   1.731   5.101   1.485
 1226SOL    HW1 4577   1.648   5.139   1.446
 1226SOL    HW2 4578   1.714   5.074   1.580
 1227SOL     OW 4579   0.100   3.986   6.710
 1227SOL    HW1 4580   0.167   3.913   6.718
 1227SOL    HW2 4581   0.048   3.993   6.795
 1228SOL     OW 4582   4.024   2.692   5.930
 1228SOL    HW1 4583   3.964   2.630   5.879
 1228SOL    HW2 4584   4.066   2.643   6.006
 1229SOL     OW 4585   3.528   4.987   6.697
 1229SOL    HW1 4586   3.615   4.998   6.649
 1229SOL    HW2 4587   3.538   4.916   6.767
 1230SOL     OW 4588   4.267   6.596   3.380
 1230SOL    HW1 4589   4.221   6.591   3.292
 1230SOL    HW2 4590   4.216   6.543   3.447
 1231SOL     OW 4591   1.957   3.084   4.813
 1231SOL    HW1 4592   1.874   3.089   4.870
 1231SOL    HW2 4593   1.971   3.171   4.767
 1232SOL     OW 4594   1.083   2.688   5.255
 1232SOL    HW1 4595   1.078   2.605   5.310
 1232SOL    HW2 4596   1.085   2.663   5.158
 1233SOL     OW 4597   0.510   3.031   5.398
 1233SOL    HW1 4598   0.473   2.948   5.439
 1233SOL    HW2 4599   0.516   3.020   5.298
 1234SOL     OW 4600   5.660   4.213   4.822
 1234SOL    HW1 4601   5.744   4.231   4.875
 1234SOL    HW2 4602   5.599   4.292   4.829
 1235SOL     OW 4603   6.473   5.510   3.511
 1235SOL    HW1 4604   6.550   5.545   3.565
 1235SOL    HW2 4605   6.505   5.483   3.421
 1236SOL     OW 4606   5.614   0.568   6.789
 1236SOL    HW1 4607   5.681   0.574   6.715
 1236SOL    HW2 4608   5.660   0.579   6.877
 1237SOL     OW 4609   2.689   4.431   6.701
 1237SOL    HW1 4610   2.729   4.426   6.609
 1237SOL    HW2 4611   2.596   4.466   6.695
 1238SOL     OW 4612   1.939   1.412   0.766
 1238SOL    HW1 4613   1.843   1.433   0.748
 1238SOL    HW2 4614   1.990   1.498   0.777
 1239SOL     OW 4615   6.561   6.203   6.570
 1239SOL    HW1 4616   6.534   6.223   6.664
 1239SOL    HW2 4617   6.567   6.104   6.557
 1240SOL     OW 4618   4.732   6.037   1.827
 1240SOL    HW1 4619   4.680   6.082   1.755
 1240SOL    HW2 4620   4.712   5.939   1.828
 1241SOL     OW 4621   6.832   4.037   4.324
 1241SOL    HW1 4622   6.850   4.135   4.311
 1241SOL    HW2 4623   6.902   3.998   4.384
 1242SOL     OW 4624   2.376   3.872   0.657
 1242SOL    HW1 4625   2.453   3.878   0.594
 1242SOL    HW2 4626   2.295   3.913   0.615
 1243SOL     OW 4627   1.843   5.140   5.658
 1243SOL    HW1 4628   1.875   5.208   5.592
 1243SOL    HW2 4629   1.795   5.186   5.732
 1244SOL     OW 4630   0.235   0.865   3.498
 1244SOL    HW1 4631   0.308   0.924   3.463
 1244SOL    HW2 4632   0.250   0.771   3.469
 1245SOL     OW 4633   3.596   3.501   0.185
 1245SOL    HW1 4634   3.676   3.532   0.236
 1245SOL    HW2 4635   3.520   3.565   0.199
 1246SOL     OW 4636   2.350   6.415   2.156
 1246SOL    HW1 4637   2.274   6.370   2.108
 1246SOL    HW2 4638   2.434   6.402   2.104
 1247SOL     OW 4639   1.995   6.605   6.045
 1247SOL    HW1 4640   2.062   6.540   6.081
 1247SOL    HW2 4641   1.989   6.596   5.946
 1248SOL     OW 4642   2.072   5.495   3.627
 1248SOL    HW1 4643   2.139   5.562   3.656
 1248SOL    HW2 4644   2.082   5.477   3.529
 1249SOL     OW 4645   5.859   3.094   3.388
 1249SOL    HW1 4646   5.802   3.018   3.419
 1249SOL    HW2 4647   5.952   3.061   3.370
 1250SOL     OW 4648   1.046   4.205   3.883
 1250SOL    HW1 4649   1.120   4.273   3.885
 1250SOL    HW2 4650   1.084   4.115   3.905
 1251SOL     OW 4651   3.930   0.041   4.892
 1251SOL    HW1 4652   4.005   0.063   4.830
 1251SOL    HW2 4653   3.935   0.101   4.972
 1252SOL     OW 4654   3.382   4.097   5.528
 1252SOL    HW1 4655   3.317   4.079   5.602
 1252SOL    HW2 4656   3.451   4.024   5.527
 1253SOL     OW 4657   3.969   5.199   2.653
 1253SOL    HW1 4658   3.987   5.291   2.619
 1253SOL    HW2 4659   3.881   5.198   2.700
 1254SOL     OW 4660   6.531   1.654   3.035
 1254SOL    HW1 4661   6.567   1.609   2.954
 1254SOL    HW2 4662   6.544   1.596   3.115
 1255SOL     OW 4663   6.908   7.002   6.360
 1255SOL    HW1 4664   6.946   0.062   6.308
 1255SOL    HW2 4665   6.911   0.006   6.458
 1256SOL     OW 4666   5.540   0.253   3.474
 1256SOL    HW1 4667   5.536   0.189   3.551
 1256SOL    HW2 4668   5.636   0.265   3.447
 1257SOL     OW 4669   6.654   1.044   3.662
 1257SOL    HW1 4670   6.656   1.067   3.759
 1257SOL    HW2 4671   6.673   0.947   3.650
 1258SOL     OW 4672   0.504   6.977   3.287
 1258SOL    HW1 4673   0.568   0.033   3.310
 1258SOL    HW2 4674   0.411   7.014   3.280
 1259SOL     OW 4675   3.729   1.894   4.974
 1259SOL    HW1 4676   3.632   1.919   4.983
 1259SOL    HW2 4677   3.746   1.810   5.025
 1260SOL     OW 4678   0.787   1.078   0.224
 1260SOL    HW1 4679   0.714   1.132   0.266
 1260SOL    HW2 4680   0.753   1.038   0.139
 1261SOL     OW 4681   0.111   5.161   0.399
 1261SOL    HW1 4682   0.170   5.167   0.480
 1261SOL    HW2 4683   0.099   5.253   0.361
 1262SOL     OW 4684   5.591   5.853   1.139
 1262SOL    HW1 4685   5.630   5.911   1.067
 1262SOL    HW2 4686   5.662   5.795   1.177
 1263SOL     OW 4687   1.620   2.543   3.707
 1263SOL    HW1 4688   1.635   2.466   3.769
 1263SOL    HW2 4689   1.706   2.591   3.692
 1264SOL     OW 4690   0.818   2.641   4.981
 1264SOL    HW1 4691   0.882   2.708   4.944
 1264SOL    HW2 4692   0.725   2.677   4.974
 1265SOL     OW 4693   6.123   6.479   4.435
 1265SOL    HW1 4694   6.035   6.483   4.483
 1265SOL    HW2 4695   6.182   6.412   4.481
 1266SOL     OW 4696   2.155   0.569   4.624
 1266SOL    HW1 4697   2.106   0.616   4.551
 1266SOL    HW2 4698   2.174   0.475   4.597
 1267SOL     OW 4699   4.003   0.354   2.458
 1267SOL    HW1 4700   4.058   0.382   2.379
 1267SOL    HW2 4701   3.930   0.421   2.473
 1268SOL     OW 4702   4.318   2.618   5.382
 1268SOL    HW1 4703   4.301   2.712   5.412
 1268SOL    HW2 4704   4.242   2.587   5.326
 1269SOL     OW 4705   6.023   2.601   4.306
 1269SOL    HW1 4706   6.003   2.516   4.258
 1269SOL    HW2 4707   5.938   2.648   4.328
 1270SOL     OW 4708   0.021   4.846   3.533
 1270SOL    HW1 4709   0.032   4.945   3.519
 1270SOL    HW2 4710   6.945   4.827   3.567
 1271SOL     OW 4711   1.359   1.418   1.617
 1271SOL    HW1 4712   1.331   1.422   1.713
 1271SOL    HW2 4713   1.436   1.355   1.608
 1272SOL     OW 4714   6.919   4.315   0.196
 1272SOL    HW1 4715   6.910   4.216   0.199
 1272SOL    HW2 4716   6.900   4.347   0.103
 1273SOL     OW 4717   1.385   4.997   5.309
 1273SOL    HW1 4718   1.297   5.035   5.339
 1273SOL    HW2 4719   1.447   5.072   5.286
 1274SOL     OW 4720   0.838   5.374   2.740
 1274SOL    HW1 4721   0.796   5.293   2.780
 1274SOL    HW2 4722   0.780   5.454   2.756
 1275SOL     OW 4723   3.036   0.892   2.480
 1275SOL    HW1 4724   2.961   0.913   2.542
 1275SOL    HW2 4725   3.123   0.915   2.524
 1276SOL     OW 4726   5.499   4.419   4.159
 1276SOL    HW1 4727   5.531   4.343   4.101
 1276SOL    HW2 4728   5.428   4.470   4.110
 1277SOL     OW 4729   0.593   6.232   0.650
 1277SOL    HW1 4730   0.504   6.239   0.606
 1277SOL    HW2 4731   0.582   6.199   0.744
 1278SOL     OW 4732   1.041   5.700   2.759
 1278SOL    HW1 4733   1.057   5.610   2.799
 1278SOL    HW2 4734   1.051   5.694   2.659
 1279SOL     OW 4735   2.425   1.836   0.151
 1279SOL    HW1 4736   2.346   1.809   0.097
 1279SOL    HW2 4737   2.443   1.934   0.139
 1280SOL     OW 4738   2.788   1.819   3.545
 1280SOL    HW1 4739   2.851   1.888   3.510
 1280SOL    HW2 4740   2.742   1.775   3.468
 1281SOL     OW 4741   4.217   5.711   4.316
 1281SOL    HW1 4742   4.158   5.732   4.238
 1281SOL    HW2 4743   4.287   5.782   4.324
 1282SOL     OW 4744   0.175   2.473   1.180
 1282SOL    HW1 4745   0.187   2.408   1.104
 1282SOL    HW2 4746   0.124   2.553   1.147
 1283SOL     OW 4747   6.592   3.383   5.406
 1283SOL    HW1 4748   6.529   3.408   5.479
 1283SOL    HW2 4749   6.638   3.298   5.429
 1284SOL     OW 4750   4.156   1.834   1.313
 1284SOL    HW1 4751   4.120   1.885   1.235
 1284SOL    HW2 4752   4.168   1.738   1.288
 1285SOL     OW 4753   3.464   1.119   5.103
 1285SOL    HW1 4754   3.553   1.094   5.141
 1285SOL    HW2 4755   3.459   1.219   5.092
 1286SOL     OW 4756   4.367   1.880   2.099
 1286SOL    HW1 4757   4.380   1.947   2.172
 1286SOL    HW2 4758   4.304   1.918   2.031
 1287SOL     OW 4759   6.513   4.526   4.673
 1287SOL    HW1 4760   6.555   4.497   4.759
 1287SOL    HW2 4761   6.415   4.505   4.675
 1288SOL     OW 4762   4.476   4.439   6.544
 1288SOL    HW1 4763   4.540   4.504   6.503
 1288SOL    HW2 4764   4.384   4.478   6.544
 1289SOL     OW 4765   0.029   0.530   1.880
 1289SOL    HW1 4766   0.016   0.431   1.881
 1289SOL    HW2 4767   0.049   0.563   1.972
 1290SOL     OW 4768   1.515   0.057   6.781
 1290SOL    HW1 4769   1.520   6.974   6.784
 1290SOL    HW2 4770   1.425   0.084   6.748
 1291SOL     OW 4771   6.430   5.202   3.106
 1291SOL    HW1 4772   6.344   5.151   3.100
 1291SOL    HW2 4773   6.496   5.165   3.041
 1292SOL     OW 4774   0.924   6.052   2.202
 1292SOL    HW1 4775   0.868   6.017   2.127
 1292SOL    HW2 4776   0.963   6.140   2.176
 1293SOL     OW 4777   3.151   0.805   6.806
 1293SOL    HW1 4778   3.106   0.748   6.875
 1293SOL    HW2 4779   3.191   0.747   6.735
 1294SOL     OW 4780   2.489   3.551   5.419
 1294SOL    HW1 4781   2.422   3.597   5.360
 1294SOL    HW2 4782   2.520   3.467   5.375
 1295SOL     OW 4783   6.435   4.345   0.627
 1295SOL    HW1 4784   6.481   4.281   0.689
 1295SOL    HW2 4785   6.389   4.416   0.681
 1296SOL     OW 4786   5.329   6.738   5.849
 1296SOL    HW1 4787   5.274   6.770   5.772
 1296SOL    HW2 4788   5.425   6.759   5.831
 1297SOL     OW 4789   0.451   0.017   2.016
 1297SOL    HW1 4790   0.514   0.056   2.083
 1297SOL    HW2 4791   0.502   7.009   1.933
 1298SOL     OW 4792   5.402   5.728   2.247
 1298SOL    HW1 4793   5.421   5.753   2.342
 1298SOL    HW2 4794   5.303   5.736   2.229
 1299SOL     OW 4795   1.609   3.328   4.724
 1299SOL    HW1 4796   1.659   3.250   4.762
 1299SOL    HW2 4797   1.673   3.386   4.674
 1300SOL     OW 4798   1.316   4.485   1.773
 1300SOL    HW1 4799   1.274   4.423   1.839
 1300SOL    HW2 4800   1.261   4.486   1.689
 1301SOL     OW 4801   0.903   0.612   1.504
 1301SOL    HW1 4802   0.934   0.531   1.454
 1301SOL    HW2 4803   0.981   0.671   1.524
 1302SOL     OW 4804   5.626   6.781   5.579
 1302SOL    HW1 4805   5.694   6.709   5.563
 1302SOL    HW2 4806   5.636   6.816   5.673
 1303SOL     OW 4807   4.195   6.352   1.414
 1303SOL    HW1 4808   4.172   6.425   1.349
 1303SOL    HW2 4809   4.132   6.354   1.491
 1304SOL     OW 4810   0.330   1.546   1.055
 1304SOL    HW1 4811   0.419   1.592   1.058
 1304SOL    HW2 4812   0.336   1.466   0.995
 1305SOL     OW 4813   5.854   3.820   6.533
 1305SOL    HW1 4814   5.815   3.822   6.625
 1305SOL    HW2 4815   5.810   3.889   6.476
 1306SOL     OW 4816   2.238   5.670   3.926
 1306SOL    HW1 4817   2.142   5.670   3.954
 1306SOL    HW2 4818   2.287   5.741   3.976
 1307SOL     OW 4819   2.146   2.289   3.985
 1307SOL    HW1 4820   2.240   2.316   3.966
 1307SOL    HW2 4821   2.145   2.201   4.033
 1308SOL     OW 4822   6.764   5.594   6.321
 1308SOL    HW1 4823   6.676   5.550   6.305
 1308SOL    HW2 4824   6.764   5.638   6.411
 1309SOL     OW 4825   4.993   4.357   6.784
 1309SOL    HW1 4826   5.001   4.456   6.768
 1309SOL    HW2 4827   5.041   4.332   6.867
 1310SOL     OW 4828   1.424   4.395   3.494
 1310SOL    HW1 4829   1.409   4.306   3.450
 1310SOL    HW2 4830   1.367   4.464   3.451
 1311SOL     OW 4831   7.010   5.974   0.389
 1311SOL    HW1 4832   7.003   6.032   0.471
 1311SOL    HW2 4833   6.937   5.999   0.325
 1312SOL     OW 4834   2.115   0.408   6.269
 1312SOL    HW1 4835   2.156   0.477   6.209
 1312SOL    HW2 4836   2.018   0.427   6.279
 1313SOL     OW 4837   6.466   5.703   3.004
 1313SOL    HW1 4838   6.393   5.696   3.072
 1313SOL    HW2 4839   6.436   5.659   2.919
 1314SOL     OW 4840   2.834   1.751   4.889
 1314SOL    HW1 4841   2.761   1.696   4.928
 1314SOL    HW2 4842   2.801   1.844   4.872
 1315SOL     OW 4843   6.505   1.197   4.147
 1315SOL    HW1 4844   6.500   1.243   4.236
 1315SOL    HW2 4845   6.417   1.154   4.127
 1316SOL     OW 4846   4.199   0.604   4.815
 1316SOL    HW1 4847   4.272   0.651   4.767
 1316SOL    HW2 4848   4.118   0.663   4.820
 1317SOL     OW 4849   2.705   3.504   5.839
 1317SOL    HW1 4850   2.765   3.535   5.913
 1317SOL    HW2 4851   2.746   3.528   5.751
 1318SOL     OW 4852   1.323   2.826   6.503
 1318SOL    HW1 4853   1.311   2.913   6.550
 1318SOL    HW2 4854   1.346   2.755   6.571
 1319SOL     OW 4855   0.017   6.754   0.824
 1319SOL    HW1 4856   6.953   6.767   0.881
 1319SOL    HW2 4857   7.010   6.700   0.743
 1320SOL     OW 4858   3.076   2.605   5.669
 1320SOL    HW1 4859   3.033   2.628   5.581
 1320SOL    HW2 4860   3.098   2.508   5.671
 1321SOL     OW 4861   5.737   2.550   6.754
 1321SOL    HW1 4862   5.656   2.553   6.695
 1321SOL    HW2 4863   5.819   2.556   6.698
 1322SOL     OW 4864   3.506   1.518   0.490
 1322SOL    HW1 4865   3.499   1.599   0.431
 1322SOL    HW2 4866   3.529   1.438   0.434
 1323SOL     OW 4867   3.893   0.530   0.002
 1323SOL    HW1 4868   3.804   0.547   6.974
 1323SOL    HW2 4869   3.880   0.527   0.101
 1324SOL     OW 4870   0.937   3.739   6.936
 1324SOL    HW1 4871   0.917   3.806   7.007
 1324SOL    HW2 4872   0.941   3.784   6.847
 1325SOL     OW 4873   2.717   4.771   6.493
 1325SOL    HW1 4874   2.729   4.847   6.428
 1325SOL    HW2 4875   2.781   4.698   6.470
 1326SOL     OW 4876   4.898   3.235   3.911
 1326SOL    HW1 4877   4.840   3.170   3.960
 1326SOL    HW2 4878   4.927   3.307   3.973
 1327SOL     OW 4879   6.331   6.265   1.209
 1327SOL    HW1 4880   6.332   6.197   1.282
 1327SOL    HW2 4881   6.419   6.265   1.162
 1328SOL     OW 4882   1.499   3.515   5.888
 1328SOL    HW1 4883   1.575   3.456   5.862
 1328SOL    HW2 4884   1.486   3.511   5.987
 1329SOL     OW 4885   0.437   3.302   3.080
 1329SOL    HW1 4886   0.376   3.224   3.095
 1329SOL    HW2 4887   0.426   3.368   3.154
 1330SOL     OW 4888   6.310   3.084   1.287
 1330SOL    HW1 4889   6.395   3.062   1.239
 1330SOL    HW2 4890   6.237   3.101   1.221
 1331SOL     OW 4891   5.090   1.825   3.028
 1331SOL    HW1 4892   5.033   1.746   3.009
 1331SOL    HW2 4893   5.033   1.902   3.058
 1332SOL     OW 4894   1.571   6.673   0.501
 1332SOL    HW1 4895   1.525   6.737   0.562
 1332SOL    HW2 4896   1.510   6.649   0.426
 1333SOL     OW 4897   3.195   4.094   3.256
 1333SOL    HW1 4898   3.262   4.124   3.324
 1333SOL    HW2 4899   3.188   4.162   3.184
 1334SOL     OW 4900   6.964   3.109   2.333
 1334SOL    HW1 4901   6.896   3.174   2.298
 1334SOL    HW2 4902   7.009   3.148   2.413
 1335SOL     OW 4903   1.548   3.885   2.207
 1335SOL    HW1 4904   1.606   3.889   2.126
 1335SOL    HW2 4905   1.593   3.831   2.278
 1336SOL     OW 4906   3.240   0.463   5.133
 1336SOL    HW1 4907   3.162   0.520   5.106
 1336SOL    HW2 4908   3.315   0.476   5.068
 1337SOL     OW 4909   6.879   1.461   3.641
 1337SOL    HW1 4910   6.850   1.515   3.720
 1337SOL    HW2 4911   6.849   1.366   3.654
 1338SOL     OW 4912   6.238   4.272   5.328
 1338SOL    HW1 4913   6.158   4.213   5.335
 1338SOL    HW2 4914   6.317   4.218   5.301
 1339SOL     OW 4915   0.290   0.495   0.154
 1339SOL    HW1 4916   0.240   0.553   0.218
 1339SOL    HW2 4917   0.314   0.408   0.198
 1340SOL     OW 4918   4.712   1.822   1.853
 1340SOL    HW1 4919   4.722   1.871   1.766
 1340SOL    HW2 4920   4.652   1.873   1.913
 1341SOL     OW 4921   4.857   0.208   6.740
 1341SOL    HW1 4922   4.822   0.262   6.816
 1341SOL    HW2 4923   4.827   0.113   6.749
 1342SOL     OW 4924   2.894   5.984   0.860
 1342SOL    HW1 4925   2.984   6.029   0.856
 1342SOL    HW2 4926   2.828   6.046   0.903
 1343SOL     OW 4927   5.546   5.816   2.784
 1343SOL    HW1 4928   5.531   5.863   2.871
 1343SOL    HW2 4929   5.611   5.741   2.798
 1344SOL     OW 4930   0.072   0.061   4.923
 1344SOL    HW1 4931   0.071   6.983   4.889
 1344SOL    HW2 4932   0.162   0.101   4.909
 1345SOL     OW 4933   0.639   5.699   1.367
 1345SOL    HW1 4934   0.559   5.640   1.375
 1345SOL    HW2 4935   0.698   5.684   1.447
 1346SOL     OW 4936   2.483   5.534   6.161
 1346SOL    HW1 4937   2.446   5.499   6.075
 1346SOL    HW2 4938   2.417   5.519   6.234
 1347SOL     OW 4939   1.312   0.425   6.754
 1347SOL    HW1 4940   1.308   0.434   6.854
 1347SOL    HW2 4941   1.241   0.363   6.723
 1348SOL     OW 4942   0.197   6.272   5.334
 1348SOL    HW1 4943   0.186   6.197   5.268
 1348SOL    HW2 4944   0.293   6.300   5.336
 1349SOL     OW 4945   4.945   3.384   4.166
 1349SOL    HW1 4946   4.905   3.310   4.219
 1349SOL    HW2 4947   4.872   3.444   4.133
 1350SOL     OW 4948   2.953   3.555   0.805
 1350SOL    HW1 4949   2.894   3.558   0.886
 1350SOL    HW2 4950   2.966   3.461   0.776
 1351SOL     OW 4951   6.757   2.361   5.513
 1351SOL    HW1 4952   6.823   2.413   5.460
 1351SOL    HW2 4953   6.699   2.423   5.565
 1352SOL     OW 4954   0.096   0.355   2.411
 1352SOL    HW1 4955   0.038   0.436   2.419
 1352SOL    HW2 4956   0.106   0.330   2.315
 1353SOL     OW 4957   0.509   1.162   1.152
 1353SOL    HW1 4958   0.478   1.242   1.203
 1353SOL    HW2 4959   0.453   1.151   1.070
 1354SOL     OW 4960   5.784   4.559   2.085
 1354SOL    HW1 4961   5.695   4.519   2.064
 1354SOL    HW2 4962   5.798   4.642   2.031
 1355SOL     OW 4963   6.391   3.650   5.103
 1355SOL    HW1 4964   6.416   3.602   5.019
 1355SOL    HW2 4965   6.464   3.638   5.171
 1356SOL     OW 4966   3.590   3.062   1.295
 1356SOL    HW1 4967   3.682   3.031   1.272
 1356SOL    HW2 4968   3.580   3.158   1.271
 1357SOL     OW 4969   6.821   3.800   5.492
 1357SOL    HW1 4970   6.738   3.843   5.528
 1357SOL    HW2 4971   6.808   3.701   5.489
 1358SOL     OW 4972   1.603   6.459   6.777
 1358SOL    HW1 4973   1.535   6.449   6.703
 1358SOL    HW2 4974   1.659   6.540   6.760
 1359SOL     OW 4975   6.364   4.421   1.811
 1359SOL    HW1 4976   6.339   4.480   1.887
 1359SOL    HW2 4977   6.316   4.450   1.728
 1360SOL     OW 4978   2.438   1.945   6.591
 1360SOL    HW1 4979   2.473   2.038   6.603
 1360SOL    HW2 4980   2.468   1.888   6.667
 1361SOL     OW 4981   6.764   5.017   4.642
 1361SOL    HW1 4982   6.847   4.990   4.594
 1361SOL    HW2 4983   6.708   4.936   4.660
 1362SOL     OW 4984   3.010   3.143   3.140
 1362SOL    HW1 4985   3.110   3.131   3.146
 1362SOL    HW2 4986   2.982   3.146   3.044
 1363SOL     OW 4987   0.887   6.235   5.305
 1363SOL    HW1 4988   0.858   6.148   5.343
 1363SOL    HW2 4989   0.986   6.235   5.292
 1364SOL     OW 4990   4.183   3.982   0.980
 1364SOL    HW1 4991   4.157   3.937   1.065
 1364SOL    HW2 4992   4.218   3.914   0.916
 1365SOL     OW 4993   0.323   3.596   0.185
 1365SOL    HW1 4994   0.239   3.548   0.209
 1365SOL    HW2 4995   0.350   3.572   0.091
 1366SOL     OW 4996   2.476   6.645   4.945
 1366SOL    HW1 4997   2.557   6.677   4.896
 1366SOL    HW2 4998   2.487   6.661   5.043
 1367SOL     OW 4999   2.167   0.894   3.039
 1367SOL    HW1 5000   2.161   0.980   3.090
 1367SOL    HW2 5001   2.174   0.818   3.104
 1368SOL     OW 5002   6.044   6.683   3.967
 1368SOL    HW1 5003   6.017   6.704   4.061
 1368SOL    HW2 5004   6.125   6.738   3.943
 1369SOL     OW 5005   0.882   0.596   3.092
 1369SOL    HW1 5006   0.928   0.509   3.108
 1369SOL    HW2 5007   0.802   0.582   3.034
 1370SOL     OW 5008   2.902   1.165   1.693
 1370SOL    HW1 5009   2.950   1.087   1.735
 1370SOL    HW2 5010   2.968   1.222   1.645
 1371SOL     OW 5011   4.148   0.902   6.318
 1371SOL    HW1 5012   4.207   0.917   6.397
 1371SOL    HW2 5013   4.155   0.806   6.289
 1372SOL     OW 5014   3.679   1.754   2.131
 1372SOL    HW1 5015   3.649   1.843   2.096
 1372SOL    HW2 5016   3.612   1.684   2.108
 1373SOL     OW 5017   1.060   6.102   0.930
 1373SOL    HW1 5018   1.133   6.086   0.998
 1373SOL    HW2 5019   1.090   6.069   0.841
 1374SOL     OW 5020   5.010   2.525   0.410
 1374SOL    HW1 5021   5.065   2.443   0.395
 1374SOL    HW2 5022   5.033   2.565   0.499
 1375SOL     OW 5023   0.403   4.176   5.731
 1375SOL    HW1 5024   0.390   4.079   5.752
 1375SOL    HW2 5025   0.418   4.186   5.633
 1376SOL     OW 5026   4.984   2.312   2.442
 1376SOL    HW1 5027   4.900   2.270   2.407
 1376SOL    HW2 5028   5.049   2.240   2.467
 1377SOL     OW 5029   0.375   5.579   4.649
 1377SOL    HW1 5030   0.433   5.504   4.679
 1377SOL    HW2 5031   0.360   5.642   4.726
 1378SOL     OW 5032   1.376   1.842   0.981
 1378SOL    HW1 5033   1.323   1.833   0.897
 1378SOL    HW2 5034   1.443   1.768   0.986
 1379SOL     OW 5035   3.838   6.174   1.887
 1379SOL    HW1 5036   3.763   6.241   1.888
 1379SOL    HW2 5037   3.867   6.158   1.793
 1380SOL     OW 5038   6.151   6.618   2.501
 1380SOL    HW1 5039   6.131   6.634   2.404
 1380SOL    HW2 5040   6.170   6.521   2.516
 1381SOL     OW 5041   6.040   1.452   1.566
 1381SOL    HW1 5042   6.120   1.395   1.547
 1381SOL    HW2 5043   5.977   1.449   1.488
 1382SOL     OW 5044   5.792   4.860   6.503
 1382SOL    HW1 5045   5.842   4.784   6.463
 1382SOL    HW2 5046   5.856   4.927   6.540
 1383SOL     OW 5047   2.632   0.243   0.731
 1383SOL    HW1 5048   2.637   0.301   0.650
 1383SOL    HW2 5049   2.678   0.289   0.808
 1384SOL     OW 5050   3.439   1.965   3.011
 1384SOL    HW1 5051   3.428   2.031   3.085
 1384SOL    HW2 5052   3.518   1.991   2.955
 1385SOL     OW 5053   5.959   3.057   2.868
 1385SOL    HW1 5054   6.013   3.026   2.790
 1385SOL    HW2 5055   5.862   3.061   2.842
 1386SOL     OW 5056   1.953   2.537   4.271
 1386SOL    HW1 5057   1.949   2.633   4.299
 1386SOL    HW2 5058   1.986   2.531   4.177
 1387SOL     OW 5059   2.242   0.389   5.077
 1387SOL    HW1 5060   2.295   0.451   5.136
 1387SOL    HW2 5061   2.145   0.394   5.102
 1388SOL     OW 5062   6.687   1.035   4.624
 1388SOL    HW1 5063   6.646   0.981   4.551
 1388SOL    HW2 5064   6.659   0.999   4.713
 1389SOL     OW 5065   6.908   0.456   4.776
 1389SOL    HW1 5066   6.989   0.413   4.735
 1389SOL    HW2 5067   6.894   0.420   4.868
 1390SOL     OW 5068   4.709   2.845   2.880
 1390SOL    HW1 5069   4.618   2.878   2.857
 1390SOL    HW2 5070   4.720   2.750   2.849
 1391SOL     OW 5071   6.017   1.095   4.441
 1391SOL    HW1 5072   6.012   1.193   4.427
 1391SOL    HW2 5073   5.985   1.072   4.533
 1392SOL     OW 5074   4.582   4.968   6.123
 1392SOL    HW1 5075   4.483   4.971   6.134
 1392SOL    HW2 5076   4.626   5.025   6.193
 1393SOL     OW 5077   5.958   0.659   6.869
 1393SOL    HW1 5078   5.915   0.615   6.790
 1393SOL    HW2 5079   5.887   0.703   6.925
 1394SOL     OW 5080   4.468   6.830   4.007
 1394SOL    HW1 5081   4.375   6.864   4.022
 1394SOL    HW2 5082   4.472   6.781   3.921
 1395SOL     OW 5083   1.093   5.440   2.357
 1395SOL    HW1 5084   0.999   5.404   2.358
 1395SOL    HW2 5085   1.156   5.366   2.333
 1396SOL     OW 5086   1.797   1.876   3.951
 1396SOL    HW1 5087   1.802   1.887   3.852
 1396SOL    HW2 5088   1.872   1.928   3.993
 1397SOL     OW 5089   0.542   5.713   4.478
 1397SOL    HW1 5090   0.506   5.678   4.564
 1397SOL    HW2 5091   0.529   5.645   4.406
 1398SOL     OW 5092   0.791   6.715   0.660
 1398SOL    HW1 5093   0.752   6.689   0.748
 1398SOL    HW2 5094   0.732   6.783   0.617
 1399SOL     OW 5095   4.000   0.221   0.353
 1399SOL    HW1 5096   4.075   0.196   0.291
 1399SOL    HW2 5097   3.932   0.147   0.354
 1400SOL     OW 5098   0.212   0.778   5.132
 1400SOL    HW1 5099   0.184   0.749   5.224
 1400SOL    HW2 5100   0.200   0.877   5.122
 1401SOL     OW 5101   5.504   0.489   3.060
 1401SOL    HW1 5102   5.604   0.486   3.061
 1401SOL    HW2 5103   5.473   0.545   2.983
 1402SOL     OW 5104   6.340   4.707   2.847
 1402SOL    HW1 5105   6.421   4.703   2.789
 1402SOL    HW2 5106   6.322   4.803   2.872
 1403SOL     OW 5107   3.404   3.101   6.711
 1403SOL    HW1 5108   3.467   3.057   6.775
 1403SOL    HW2 5109   3.310   3.079   6.736
 1404SOL     OW 5110   3.832   0.023   0.378
 1404SOL    HW1 5111   3.824   6.959   0.436
 1404SOL    HW2 5112   3.741   0.050   0.347
 1405SOL     OW 5113   0.989   3.972   1.555
 1405SOL    HW1 5114   1.062   4.039   1.539
 1405SOL    HW2 5115   0.979   3.914   1.475
 1406SOL     OW 5116   2.277   3.388   0.862
 1406SOL    HW1 5117   2.211   3.361   0.793
 1406SOL    HW2 5118   2.230   3.408   0.948
 1407SOL     OW 5119   0.076   3.117   1.191
 1407SOL    HW1 5120   0.081   3.051   1.266
 1407SOL    HW2 5121   0.078   3.210   1.228
 1408SOL     OW 5122   5.452   6.649   1.004
 1408SOL    HW1 5123   5.495   6.708   0.935
 1408SOL    HW2 5124   5.519   6.630   1.076
 1409SOL     OW 5125   6.711   1.389   5.695
 1409SOL    HW1 5126   6.704   1.363   5.598
 1409SOL    HW2 5127   6.744   1.483   5.702
 1410SOL     OW 5128   3.839   0.766   6.067
 1410SOL    HW1 5129   3.827   0.850   6.016
 1410SOL    HW2 5130   3.935   0.753   6.090
 1411SOL     OW 5131   3.556   5.369   6.982
 1411SOL    HW1 5132   3.588   5.361   0.060
 1411SOL    HW2 5133   3.487   5.300   6.964
 1412SOL     OW 5134   2.470   3.308   0.200
 1412SOL    HW1 5135   2.480   3.372   0.276
 1412SOL    HW2 5136   2.482   3.214   0.233
 1413SOL     OW 5137   1.316   1.510   4.712
 1413SOL    HW1 5138   1.414   1.519   4.696
 1413SOL    HW2 5139   1.280   1.595   4.751
 1414SOL     OW 5140   0.849   4.388   2.604
 1414SOL    HW1 5141   0.934   4.379   2.656
 1414SOL    HW2 5142   0.823   4.485   2.599
 1415SOL     OW 5143   2.610   1.600   4.945
 1415SOL    HW1 5144   2.625   1.581   4.848
 1415SOL    HW2 5145   2.515   1.628   4.959
 1416SOL     OW 5146   4.514   0.434   4.728
 1416SOL    HW1 5147   4.584   0.443   4.798
 1416SOL    HW2 5148   4.526   0.505   4.659
 1417SOL     OW 5149   3.896   3.550   6.104
 1417SOL    HW1 5150   3.887   3.580   6.009
 1417SOL    HW2 5151   3.992   3.557   6.132
 1418SOL     OW 5152   4.156   4.110   5.874
 1418SOL    HW1 5153   4.087   4.043   5.899
 1418SOL    HW2 5154   4.168   4.175   5.949
 1419SOL     OW 5155   1.730   5.350   2.419
 1419SOL    HW1 5156   1.771   5.367   2.509
 1419SOL    HW2 5157   1.648   5.407   2.409
 1420SOL     OW 5158   2.797   0.144   2.822
 1420SOL    HW1 5159   2.746   0.184   2.898
 1420SOL    HW2 5160   2.816   0.048   2.842
 1421SOL     OW 5161   1.318   4.672   5.827
 1421SOL    HW1 5162   1.353   4.595   5.881
 1421SOL    HW2 5163   1.247   4.639   5.764
 1422SOL     OW 5164   2.025   3.179   6.371
 1422SOL    HW1 5165   1.985   3.236   6.299
 1422SOL    HW2 5166   2.083   3.235   6.429
 1423SOL     OW 5167   4.331   0.322   4.453
 1423SOL    HW1 5168   4.270   0.398   4.478
 1423SOL    HW2 5169   4.391   0.352   4.379
 1424SOL     OW 5170   5.969   2.806   0.361
 1424SOL    HW1 5171   5.991   2.891   0.312
 1424SOL    HW2 5172   6.047   2.743   0.353
 1425SOL     OW 5173   5.569   6.733   3.734
 1425SOL    HW1 5174   5.527   6.805   3.679
 1425SOL    HW2 5175   5.604   6.661   3.674
 1426SOL     OW 5176   3.459   1.687   0.101
 1426SOL    HW1 5177   3.524   1.614   0.080
 1426SOL    HW2 5178   3.395   1.698   0.025
 1427SOL     OW 5179   2.055   0.073   3.421
 1427SOL    HW1 5180   1.960   0.041   3.417
 1427SOL    HW2 5181   2.110   0.023   3.354
 1428SOL     OW 5182   0.506   2.490   3.855
 1428SOL    HW1 5183   0.406   2.489   3.845
 1428SOL    HW2 5184   0.549   2.470   3.767
 1429SOL     OW 5185   6.454   1.255   1.691
 1429SOL    HW1 5186   6.365   1.226   1.726
 1429SOL    HW2 5187   6.490   1.185   1.629
 1430SOL     OW 5188   2.026   3.523   4.061
 1430SOL    HW1 5189   1.942   3.514   4.113
 1430SOL    HW2 5190   2.079   3.439   4.066
 1431SOL     OW 5191   2.969   1.051   6.897
 1431SOL    HW1 5192   3.010   0.962   6.879
 1431SOL    HW2 5193   2.871   1.047   6.878
 1432SOL     OW 5194   3.593   0.962   2.200
 1432SOL    HW1 5195   3.626   1.057   2.199
 1432SOL    HW2 5196   3.625   0.916   2.283
 1433SOL     OW 5197   2.389   0.110   3.851
 1433SOL    HW1 5198   2.471   0.166   3.840
 1433SOL    HW2 5199   2.312   0.155   3.807
 1434SOL     OW 5200   6.896   3.434   0.369
 1434SOL    HW1 5201   6.820   3.415   0.307
 1434SOL    HW2 5202   6.864   3.489   0.446
 1435SOL     OW 5203   1.680   0.380   3.869
 1435SOL    HW1 5204   1.777   0.372   3.843
 1435SOL    HW2 5205   1.659   0.312   3.939
 1436SOL     OW 5206   5.259   1.192   0.146
 1436SOL    HW1 5207   5.238   1.250   0.067
 1436SOL    HW2 5208   5.291   1.103   0.115
 1437SOL     OW 5209   3.768   0.418   6.285
 1437SOL    HW1 5210   3.837   0.473   6.332
 1437SOL    HW2 5211   3.810   0.335   6.250
 1438SOL     OW 5212   1.875   0.494   2.365
 1438SOL    HW1 5213   1.884   0.399   2.394
 1438SOL    HW2 5214   1.940   0.551   2.416
 1439SOL     OW 5215   0.260   4.681   6.808
 1439SOL    HW1 5216   0.323   4.683   6.731
 1439SOL    HW2 5217   0.269   4.593   6.856
 1440SOL     OW 5218   3.274   3.148   3.160
 1440SOL    HW1 5219   3.339   3.221   3.137
 1440SOL    HW2 5220   3.324   3.063   3.176
 1441SOL     OW 5221   6.276   3.366   3.807
 1441SOL    HW1 5222   6.226   3.359   3.893
 1441SOL    HW2 5223   6.293   3.462   3.786
 1442SOL     OW 5224   5.556   6.591   6.940
 1442SOL    HW1 5225   5.556   6.496   6.909
 1442SOL    HW2 5226   5.599   6.649   6.871
 1443SOL     OW 5227   0.955   2.361   3.223
 1443SOL    HW1 5228   0.984   2.455   3.244
 1443SOL    HW2 5229   1.022   2.297   3.261
 1444SOL     OW 5230   5.661   0.970   4.949
 1444SOL    HW1 5231   5.699   0.976   5.041
 1444SOL    HW2 5232   5.702   0.892   4.901
 1445SOL     OW 5233   6.287   2.416   0.998
 1445SOL    HW1 5234   6.213   2.463   0.950
 1445SOL    HW2 5235   6.263   2.406   1.095
 1446SOL     OW 5236   4.362   0.420   0.974
 1446SOL    HW1 5237   4.401   0.341   1.021
 1446SOL    HW2 5238   4.382   0.503   1.027
 1447SOL     OW 5239   5.443   1.345   5.481
 1447SOL    HW1 5240   5.420   1.436   5.516
 1447SOL    HW2 5241   5.510   1.302   5.541
 1448SOL     OW 5242   5.239   0.306   6.809
 1448SOL    HW1 5243   5.213   0.340   6.900
 1448SOL    HW2 5244   5.331   0.339   6.787
 1449SOL     OW 5245   4.704   5.541   0.539
 1449SOL    HW1 5246   4.746   5.631   0.548
 1449SOL    HW2 5247   4.712   5.492   0.626
 1450SOL     OW 5248   5.598   1.940   3.768
 1450SOL    HW1 5249   5.510   1.970   3.804
 1450SOL    HW2 5250   5.654   2.020   3.744
 1451SOL     OW 5251   1.307   6.846   2.464
 1451SOL    HW1 5252   1.362   6.899   2.400
 1451SOL    HW2 5253   1.347   6.755   2.476
 1452SOL     OW 5254   4.680   0.687   5.135
 1452SOL    HW1 5255   4.725   0.660   5.220
 1452SOL    HW2 5256   4.646   0.781   5.143
 1453SOL     OW 5257   4.605   4.393   4.608
 1453SOL    HW1 5258   4.585   4.380   4.705
 1453SOL    HW2 5259   4.609   4.303   4.563
 1454SOL     OW 5260   4.532   3.945   1.266
 1454SOL    HW1 5261   4.506   3.871   1.204
 1454SOL    HW2 5262   4.491   4.031   1.236
 1455SOL     OW 5263   2.116   2.258   1.352
 1455SOL    HW1 5264   2.029   2.233   1.396
 1455SOL    HW2 5265   2.182   2.284   1.422
 1456SOL     OW 5266   6.879   5.022   4.253
 1456SOL    HW1 5267   6.897   4.973   4.168
 1456SOL    HW2 5268   6.793   4.989   4.293
 1457SOL     OW 5269   1.996   0.328   3.478
 1457SOL    HW1 5270   1.904   0.357   3.504
 1457SOL    HW2 5271   1.994   0.234   3.444
 1458SOL     OW 5272   6.667   5.539   0.059
 1458SOL    HW1 5273   6.692   5.540   0.155
 1458SOL    HW2 5274   6.703   5.456   0.016
 1459SOL     OW 5275   2.762   0.048   0.904
 1459SOL    HW1 5276   2.861   0.036   0.913
 1459SOL    HW2 5277   2.742   0.110   0.828
 1460SOL     OW 5278   0.505   6.528   0.298
 1460SOL    HW1 5279   0.430   6.463   0.286
 1460SOL    HW2 5280   0.530   6.533   0.395
 1461SOL     OW 5281   4.653   4.749   1.266
 1461SOL    HW1 5282   4.608   4.752   1.177
 1461SOL    HW2 5283   4.584   4.760   1.338
 1462SOL     OW 5284   5.455   0.098   5.695
 1462SOL    HW1 5285   5.457   0.085   5.794
 1462SOL    HW2 5286   5.363   0.082   5.661
 1463SOL     OW 5287   0.466   0.772   5.035
 1463SOL    HW1 5288   0.370   0.785   5.059
 1463SOL    HW2 5289   0.473   0.756   4.937
 1464SOL     OW 5290   6.804   6.856   1.465
 1464SOL    HW1 5291   6.844   6.863   1.556
 1464SOL    HW2 5292   6.713   6.813   1.471
 1465SOL     OW 5293   0.559   6.908   4.946
 1465SOL    HW1 5294   0.538   6.898   4.849
 1465SOL    HW2 5295   0.509   6.840   4.998
 1466SOL     OW 5296   5.412   5.456   4.234
 1466SOL    HW1 5297   5.479   5.523   4.203
 1466SOL    HW2 5298   5.334   5.455   4.171
 1467SOL     OW 5299   6.405   3.868   2.518
 1467SOL    HW1 5300   6.403   3.956   2.566
 1467SOL    HW2 5301   6.315   3.826   2.522
 1468SOL     OW 5302   4.983   6.195   2.775
 1468SOL    HW1 5303   5.058   6.196   2.710
 1468SOL    HW2 5304   4.973   6.104   2.814
 1469SOL     OW 5305   0.273   0.771   2.618
 1469SOL    HW1 5306   0.351   0.762   2.556
 1469SOL    HW2 5307   0.302   0.819   2.701
 1470SOL     OW 5308   0.198   1.096   3.259
 1470SOL    HW1 5309   0.260   1.138   3.325
 1470SOL    HW2 5310   0.104   1.123   3.280
 1471SOL     OW 5311   6.278   0.854   0.561
 1471SOL    HW1 5312   6.268   0.906   0.477
 1471SOL    HW2 5313   6.262   0.757   0.543
 1472SOL     OW 5314   4.518   6.152   5.035
 1472SOL    HW1 5315   4.587   6.134   4.965
 1472SOL    HW2 5316   4.562   6.157   5.125
 1473SOL     OW 5317   6.076   4.488   4.242
 1473SOL    HW1 5318   6.145   4.426   4.205
 1473SOL    HW2 5319   6.073   4.571   4.187
 1474SOL     OW 5320   4.994   4.799   3.627
 1474SOL    HW1 5321   5.074   4.840   3.670
 1474SOL    HW2 5322   4.912   4.849   3.654
 1475SOL     OW 5323   6.785   0.672   3.196
 1475SOL    HW1 5324   6.864   0.647   3.140
 1475SOL    HW2 5325   6.794   0.766   3.228
 1476SOL     OW 5326   6.446   2.093   1.200
 1476SOL    HW1 5327   6.509   2.165   1.228
 1476SOL    HW2 5328   6.356   2.109   1.241
 1477SOL     OW 5329   3.028   6.507   3.020
 1477SOL    HW1 5330   3.070   6.478   3.106
 1477SOL    HW2 5331   3.008   6.605   3.025
 1478SOL     OW 5332   6.660   4.624   1.925
 1478SOL    HW1 5333   6.673   4.686   2.003
 1478SOL    HW2 5334   6.705   4.537   1.945
 1479SOL     OW 5335   1.245   5.606   0.664
 1479SOL    HW1 5336   1.178   5.575   0.731
 1479SOL    HW2 5337   1.269   5.702   0.683
 1480SOL     OW 5338   2.673   1.083   6.884
 1480SOL    HW1 5339   2.668   0.984   6.875
 1480SOL    HW2 5340   2.614   1.112   6.959
 1481SOL     OW 5341   6.905   2.488   5.964
 1481SOL    HW1 5342   6.939   2.547   5.890
 1481SOL    HW2 5343   6.832   2.536   6.014
 1482SOL     OW 5344   5.965   0.611   6.441
 1482SOL    HW1 5345   6.046   0.636   6.494
 1482SOL    HW2 5346   5.968   0.655   6.352
 1483SOL     OW 5347   6.264   2.823   6.438
 1483SOL    HW1 5348   6.284   2.728   6.415
 1483SOL    HW2 5349   6.347   2.878   6.431
 1484SOL     OW 5350   6.363   6.751   2.669
 1484SOL    HW1 5351   6.307   6.715   2.744
 1484SOL    HW2 5352   6.304   6.792   2.599
 1485SOL     OW 5353   5.745   2.718   4.194
 1485SOL    HW1 5354   5.740   2.661   4.276
 1485SOL    HW2 5355   5.717   2.812   4.218
 1486SOL     OW 5356   4.691   1.832   2.317
 1486SOL    HW1 5357   4.600   1.812   2.280
 1486SOL    HW2 5358   4.696   1.802   2.412
 1487SOL     OW 5359   6.215   1.236   5.343
 1487SOL    HW1 5360   6.281   1.177   5.388
 1487SOL    HW2 5361   6.122   1.209   5.369
 1488SOL     OW 5362   4.107   1.965   2.777
 1488SOL    HW1 5363   4.122   1.886   2.718
 1488SOL    HW2 5364   4.097   2.048   2.721
 1489SOL     OW 5365   3.542   4.985   4.597
 1489SOL    HW1 5366   3.628   4.965   4.645
 1489SOL    HW2 5367   3.561   4.997   4.499
 1490SOL     OW 5368   2.206   2.475   0.674
 1490SOL    HW1 5369   2.198   2.512   0.581
 1490SOL    HW2 5370   2.295   2.499   0.713
 1491SOL     OW 5371   0.125   2.337   5.426
 1491SOL    HW1 5372   0.148   2.353   5.522
 1491SOL    HW2 5373   0.055   2.402   5.396
 1492SOL     OW 5374   5.353   2.901   2.270
 1492SOL    HW1 5375   5.441   2.916   2.225
 1492SOL    HW2 5376   5.311   2.817   2.236
 1493SOL     OW 5377   5.512   0.669   4.988
 1493SOL    HW1 5378   5.512   0.678   4.888
 1493SOL    HW2 5379   5.440   0.727   5.026
 1494SOL     OW 5380   5.338   2.309   4.398
 1494SOL    HW1 5381   5.315   2.362   4.480
 1494SOL    HW2 5382   5.396   2.232   4.423
 1495SOL     OW 5383   2.030   2.596   2.458
 1495SOL    HW1 5384   2.123   2.625   2.478
 1495SOL    HW2 5385   2.026   2.556   2.366
 1496SOL     OW 5386   0.613   1.101   3.138
 1496SOL    HW1 5387   0.590   1.192   3.103
 1496SOL    HW2 5388   0.700   1.104   3.187
 1497SOL     OW 5389   5.102   4.646   5.762
 1497SOL    HW1 5390   5.191   4.677   5.729
 1497SOL    HW2 5391   5.033   4.715   5.741
 1498SOL     OW 5392   1.958   5.624   0.163
 1498SOL    HW1 5393   1.995   5.640   0.072
 1498SOL    HW2 5394   2.025   5.650   0.233
 1499SOL     OW 5395   0.539   5.064   5.031
 1499SOL    HW1 5396   0.451   5.070   5.077
 1499SOL    HW2 5397   0.612   5.083   5.096
 1500SOL     OW 5398   4.320   6.487   5.262
 1500SOL    HW1 5399   4.275   6.570   5.294
 1500SOL    HW2 5400   4.417   6.506   5.245
 1501SOL     OW 5401   4.114   0.388   6.342
 1501SOL    HW1 5402   4.171   0.471   6.334
 1501SOL    HW2 5403   4.130   0.346   6.431
 1502SOL     OW 5404   6.599   6.483   0.065
 1502SOL    HW1 5405   6.676   6.523   0.015
 1502SOL    HW2 5406   6.634   6.435   0.146
 1503SOL     OW 5407   3.330   3.830   5.636
 1503SOL    HW1 5408   3.297   3.814   5.542
 1503SOL    HW2 5409   3.415   3.780   5.650
 1504SOL     OW 5410   2.835   6.134   4.378
 1504SOL    HW1 5411   2.752   6.154   4.325
 1504SOL    HW2 5412   2.915   6.144   4.319
 1505SOL     OW 5413   4.909   5.188   1.266
 1505SOL    HW1 5414   4.972   5.265   1.270
 1505SOL    HW2 5415   4.880   5.172   1.171
 1506SOL     OW 5416   0.640   6.701   2.820
 1506SOL    HW1 5417   0.602   6.618   2.861
 1506SOL    HW2 5418   0.571   6.744   2.761
 1507SOL     OW 5419   2.106   0.795   6.179
 1507SOL    HW1 5420   2.104   0.768   6.083
 1507SOL    HW2 5421   2.114   0.895   6.185
 1508SOL     OW 5422   4.766   0.145   0.316
 1508SOL    HW1 5423   4.685   0.202   0.304
 1508SOL    HW2 5424   4.772   0.080   0.240
 1509SOL     OW 5425   5.098   1.728   0.550
 1509SOL    HW1 5426   5.096   1.827   0.561
 1509SOL    HW2 5427   5.129   1.686   0.636
 1510SOL     OW 5428   0.394   1.554   3.937
 1510SOL    HW1 5429   0.458   1.626   3.962
 1510SOL    HW2 5430   0.402   1.533   3.840
 1511SOL     OW 5431   1.769   2.194   0.572
 1511SOL    HW1 5432   1.742   2.267   0.510
 1511SOL    HW2 5433   1.855   2.218   0.618
 1512SOL     OW 5434   5.851   0.448   2.655
 1512SOL    HW1 5435   5.863   0.431   2.557
 1512SOL    HW2 5436   5.940   0.441   2.701
 1513SOL     OW 5437   4.070   1.312   2.335
 1513SOL    HW1 5438   4.159   1.349   2.308
 1513SOL    HW2 5439   3.997   1.370   2.299
 1514SOL     OW 5440   4.953   1.725   5.405
 1514SOL    HW1 5441   5.036   1.747   5.354
 1514SOL    HW2 5442   4.932   1.799   5.469
 1515SOL     OW 5443   6.345   4.866   4.890
 1515SOL    HW1 5444   6.319   4.774   4.919
 1515SOL    HW2 5445   6.287   4.933   4.936
 1516SOL     OW 5446   0.819   1.364   1.093
 1516SOL    HW1 5447   0.849   1.298   1.161
 1516SOL    HW2 5448   0.796   1.317   1.008
 1517SOL     OW 5449   3.606   5.077   3.439
 1517SOL    HW1 5450   3.667   5.155   3.428
 1517SOL    HW2 5451   3.658   5.000   3.477
 1518SOL     OW 5452   0.713   4.715   1.436
 1518SOL    HW1 5453   0.678   4.659   1.511
 1518SOL    HW2 5454   0.800   4.756   1.463
 1519SOL     OW 5455   6.656   5.056   1.080
 1519SOL    HW1 5456   6.743   5.008   1.069
 1519SOL    HW2 5457   6.662   5.146   1.036
 1520SOL     OW 5458   1.297   2.726   3.365
 1520SOL    HW1 5459   1.382   2.764   3.403
 1520SOL    HW2 5460   1.287   2.755   3.270
 1521SOL     OW 5461   2.392   4.274   5.596
 1521SOL    HW1 5462   2.458   4.310   5.531
 1521SOL    HW2 5463   2.336   4.204   5.552
 1522SOL     OW 5464   0.073   2.410   6.655
 1522SOL    HW1 5465   6.989   2.406   6.655
 1522SOL    HW2 5466   0.109   2.326   6.695
 1523SOL     OW 5467   6.693   1.383   1.083
 1523SOL    HW1 5468   6.633   1.430   1.017
 1523SOL    HW2 5469   6.762   1.447   1.117
 1524SOL     OW 5470   6.432   0.674   3.056
 1524SOL    HW1 5471   6.360   0.607   3.078
 1524SOL    HW2 5472   6.515   0.627   3.028
 1525SOL     OW 5473   4.314   1.418   5.866
 1525SOL    HW1 5474   4.365   1.347   5.817
 1525SOL    HW2 5475   4.217   1.392   5.871
 1526SOL     OW 5476   6.827   2.014   1.102
 1526SOL    HW1 5477   6.790   1.953   1.033
 1526SOL    HW2 5478   6.821   1.971   1.192
 1527SOL     OW 5479   3.328   2.035   5.487
 1527SOL    HW1 5480   3.383   2.044   5.569
 1527SOL    HW2 5481   3.231   2.025   5.512
 1528SOL     OW 5482   5.065   6.021   3.335
 1528SOL    HW1 5483   5.112   6.047   3.420
 1528SOL    HW2 5484   5.050   5.922   3.334
 1529SOL     OW 5485   2.995   0.515   5.714
 1529SOL    HW1 5486   3.090   0.507   5.684
 1529SOL    HW2 5487   2.992   0.555   5.806
 1530SOL     OW 5488   3.486   0.165   2.230
 1530SOL    HW1 5489   3.494   0.239   2.297
 1530SOL    HW2 5490   3.488   0.077   2.278
 1531SOL     OW 5491   6.782   0.345   5.385
 1531SOL    HW1 5492   6.870   0.347   5.432
 1531SOL    HW2 5493   6.786   0.403   5.303
 1532SOL     OW 5494   3.149   2.055   5.214
 1532SOL    HW1 5495   3.144   2.146   5.172
 1532SOL    HW2 5496   3.242   2.018   5.204
 1533SOL     OW 5497   5.745   2.882   6.738
 1533SOL    HW1 5498   5.700   2.972   6.730
 1533SOL    HW2 5499   5.836   2.894   6.778
 1534SOL     OW 5500   0.213   6.573   1.587
 1534SOL    HW1 5501   0.236   6.647   1.651
 1534SOL    HW2 5502   0.189   6.491   1.639
 1535SOL     OW 5503   4.973   5.454   4.277
 1535SOL    HW1 5504   5.021   5.460   4.189
 1535SOL    HW2 5505   4.981   5.361   4.313
 1536SOL     OW 5506   2.702   5.698   3.745
 1536SOL    HW1 5507   2.738   5.778   3.791
 1536SOL    HW2 5508   2.746   5.688   3.656
 1537SOL     OW 5509   2.733   5.115   4.477
 1537SOL    HW1 5510   2.725   5.084   4.572
 1537SOL    HW2 5511   2.650   5.090   4.427
 1538SOL     OW 5512   2.207   5.083   6.707
 1538SOL    HW1 5513   2.136   5.015   6.724
 1538SOL    HW2 5514   2.263   5.054   6.630
 1539SOL     OW 5515   3.204   4.710   1.687
 1539SOL    HW1 5516   3.292   4.662   1.682
 1539SOL    HW2 5517   3.141   4.672   1.619
 1540SOL     OW 5518   0.240   6.973   5.126
 1540SOL    HW1 5519   0.224   6.946   5.031
 1540SOL    HW2 5520   0.153   7.000   5.167
 1541SOL     OW 5521   5.067   2.351   1.190
 1541SOL    HW1 5522   5.020   2.430   1.230
 1541SOL    HW2 5523   5.004   2.303   1.129
 1542SOL     OW 5524   0.775   6.497   1.023
 1542SOL    HW1 5525   0.781   6.398   1.006
 1542SOL    HW2 5526   0.680   6.526   1.015
 1543SOL     OW 5527   3.185   4.026   4.300
 1543SOL    HW1 5528   3.098   3.978   4.318
 1543SOL    HW2 5529   3.195   4.041   4.202
 1544SOL     OW 5530   4.038   3.606   2.968
 1544SOL    HW1 5531   3.944   3.633   2.948
 1544SOL    HW2 5532   4.045   3.575   3.063
 1545SOL     OW 5533   6.396   0.887   4.773
 1545SOL    HW1 5534   6.485   0.854   4.802
 1545SOL    HW2 5535   6.359   0.827   4.702
 1546SOL     OW 5536   6.961   6.516   5.913
 1546SOL    HW1 5537   6.896   6.588   5.939
 1546SOL    HW2 5538   6.913   6.428   5.908
 1547SOL     OW 5539   3.954   5.911   0.056
 1547SOL    HW1 5540   3.942   5.915   6.973
 1547SOL    HW2 5541   4.008   5.831   0.080
 1548SOL     OW 5542   6.264   4.619   3.901
 1548SOL    HW1 5543   6.209   4.543   3.865
 1548SOL    HW2 5544   6.207   4.675   3.961
 1549SOL     OW 5545   6.379   1.504   1.446
 1549SOL    HW1 5546   6.374   1.594   1.401
 1549SOL    HW2 5547   6.472   1.468   1.439
 1550SOL     OW 5548   2.662   6.184   3.672
 1550SOL    HW1 5549   2.702   6.154   3.759
 1550SOL    HW2 5550   2.683   6.118   3.601
 1551SOL     OW 5551   1.579   2.951   1.398
 1551SOL    HW1 5552   1.569   2.931   1.301
 1551SOL    HW2 5553   1.596   3.049   1.410
 1552SOL     OW 5554   0.705   6.884   0.474
 1552SOL    HW1 5555   0.799   6.918   0.475
 1552SOL    HW2 5556   0.658   6.917   0.393
 1553SOL     OW 5557   5.796   1.684   6.584
 1553SOL    HW1 5558   5.731   1.720   6.518
 1553SOL    HW2 5559   5.747   1.629   6.652
 1554SOL     OW 5560   2.864   1.663   0.931
 1554SOL    HW1 5561   2.810   1.588   0.966
 1554SOL    HW2 5562   2.835   1.686   0.838
 1555SOL     OW 5563   4.443   0.982   5.880
 1555SOL    HW1 5564   4.388   1.056   5.841
 1555SOL    HW2 5565   4.457   0.911   5.811
 1556SOL     OW 5566   3.498   1.775   0.351
 1556SOL    HW1 5567   3.409   1.769   0.395
 1556SOL    HW2 5568   3.488   1.761   0.252
 1557SOL     OW 5569   1.782   2.820   0.431
 1557SOL    HW1 5570   1.747   2.814   0.524
 1557SOL    HW2 5571   1.881   2.834   0.434
 1558SOL     OW 5572   5.333   2.823   6.615
 1558SOL    HW1 5573   5.280   2.759   6.670
 1558SOL    HW2 5574   5.348   2.784   6.524
 1559SOL     OW 5575   2.379   5.530   3.686
 1559SOL    HW1 5576   2.350   5.435   3.693
 1559SOL    HW2 5577   2.370   5.574   3.775
 1560SOL     OW 5578   3.960   1.845   0.682
 1560SOL    HW1 5579   3.903   1.800   0.612
 1560SOL    HW2 5580   3.921   1.827   0.772
 1561SOL     OW 5581   6.392   6.254   0.853
 1561SOL    HW1 5582   6.424   6.253   0.758
 1561SOL    HW2 5583   6.320   6.185   0.864
 1562SOL     OW 5584   3.993   7.006   2.228
 1562SOL    HW1 5585   3.921   0.054   2.206
 1562SOL    HW2 5586   3.969   6.915   2.193
 1563SOL     OW 5587   3.046   2.211   4.058
 1563SOL    HW1 5588   3.013   2.245   4.146
 1563SOL    HW2 5589   3.144   2.194   4.064
 1564SOL     OW 5590   0.930   1.543   3.404
 1564SOL    HW1 5591   0.974   1.612   3.347
 1564SOL    HW2 5592   0.954   1.452   3.371
 1565SOL     OW 5593   4.087   1.078   4.724
 1565SOL    HW1 5594   4.146   1.032   4.790
 1565SOL    HW2 5595   4.078   1.175   4.748
 1566SOL     OW 5596   5.101   4.534   3.766
 1566SOL    HW1 5597   5.064   4.609   3.712
 1566SOL    HW2 5598   5.129   4.460   3.704
 1567SOL     OW 5599   5.800   0.553   4.768
 1567SOL    HW1 5600   5.706   0.549   4.735
 1567SOL    HW2 5601   5.810   0.491   4.846
 1568SOL     OW 5602   2.947   5.043   1.413
 1568SOL    HW1 5603   3.040   5.054   1.450
 1568SOL    HW2 5604   2.897   5.128   1.423
 1569SOL     OW 5605   3.382   0.733   2.836
 1569SOL    HW1 5606   3.347   0.790   2.911
 1569SOL    HW2 5607   3.354   0.638   2.850
 1570SOL     OW 5608   2.849   5.952   6.219
 1570SOL    HW1 5609   2.910   5.889   6.269
 1570SOL    HW2 5610   2.771   5.902   6.184
 1571SOL     OW 5611   0.514   2.412   4.474
 1571SOL    HW1 5612   0.543   2.340   4.536
 1571SOL    HW2 5613   0.595   2.464   4.443
 1572SOL     OW 5614   2.493   5.467   2.277
 1572SOL    HW1 5615   2.587   5.500   2.263
 1572SOL    HW2 5616   2.436   5.542   2.310
 1573SOL     OW 5617   5.969   6.334   0.429
 1573SOL    HW1 5618   6.019   6.295   0.353
 1573SOL    HW2 5619   6.026   6.332   0.511
 1574SOL     OW 5620   6.718   4.042   3.554
 1574SOL    HW1 5621   6.713   4.003   3.646
 1574SOL    HW2 5622   6.643   4.106   3.540
 1575SOL     OW 5623   6.535   1.860   0.043
 1575SOL    HW1 5624   6.557   1.820   6.971
 1575SOL    HW2 5625   6.615   1.857   0.102
 1576SOL     OW 5626   1.058   0.186   1.723
 1576SOL    HW1 5627   1.072   0.089   1.701
 1576SOL    HW2 5628   1.117   0.242   1.665
 1577SOL     OW 5629   3.941   5.774   5.529
 1577SOL    HW1 5630   4.038   5.794   5.539
 1577SOL    HW2 5631   3.905   5.820   5.448
 1578SOL     OW 5632   4.789   0.987   1.053
 1578SOL    HW1 5633   4.847   0.908   1.073
 1578SOL    HW2 5634   4.844   1.059   1.010
 1579SOL     OW 5635   2.005   2.196   1.084
 1579SOL    HW1 5636   1.987   2.283   1.037
 1579SOL    HW2 5637   2.057   2.214   1.167
 1580SOL     OW 5638   3.420   3.454   2.774
 1580SOL    HW1 5639   3.360   3.374   2.776
 1580SOL    HW2 5640   3.466   3.458   2.685
 1581SOL     OW 5641   6.212   4.421   5.568
 1581SOL    HW1 5642   6.230   4.400   5.472
 1581SOL    HW2 5643   6.278   4.374   5.626
 1582SOL     OW 5644   4.636   6.224   5.297
 1582SOL    HW1 5645   4.705   6.255   5.362
 1582SOL    HW2 5646   4.553   6.196   5.347
 1583SOL     OW 5647   0.971   4.905   4.755
 1583SOL    HW1 5648   1.056   4.952   4.779
 1583SOL    HW2 5649   0.907   4.971   4.715
 1584SOL     OW 5650   0.237   4.687   0.378
 1584SOL    HW1 5651   0.169   4.631   0.330
 1584SOL    HW2 5652   0.272   4.757   0.315
 1585SOL     OW 5653   3.440   6.422   3.459
 1585SOL    HW1 5654   3.400   6.505   3.419
 1585SOL    HW2 5655   3.368   6.366   3.499
 1586SOL     OW 5656   3.368   5.674   3.649
 1586SOL    HW1 5657   3.393   5.650   3.556
 1586SOL    HW2 5658   3.273   5.649   3.666
 1587SOL     OW 5659   2.694   5.905   6.891
 1587SOL    HW1 5660   2.721   5.922   6.986
 1587SOL    HW2 5661   2.596   5.919   6.881
 1588SOL     OW 5662   6.489   1.587   3.332
 1588SOL    HW1 5663   6.498   1.685   3.350
 1588SOL    HW2 5664   6.402   1.570   3.286
 1589SOL     OW 5665   6.017   4.494   4.513
 1589SOL    HW1 5666   6.036   4.467   4.419
 1589SOL    HW2 5667   6.049   4.588   4.528
 1590SOL     OW 5668   6.517   2.790   3.766
 1590SOL    HW1 5669   6.584   2.754   3.830
 1590SOL    HW2 5670   6.547   2.880   3.733
 1591SOL     OW 5671   1.461   6.600   1.390
 1591SOL    HW1 5672   1.493   6.630   1.300
 1591SOL    HW2 5673   1.362   6.615   1.396
 1592SOL     OW 5674   6.922   4.271   5.869
 1592SOL    HW1 5675   6.959   4.186   5.833
 1592SOL    HW2 5676   6.895   4.259   5.964
 1593SOL     OW 5677   3.449   0.239   6.822
 1593SOL    HW1 5678   3.499   0.315   6.782
 1593SOL    HW2 5679   3.472   0.154   6.774
 1594SOL     OW 5680   5.923   0.100   2.833
 1594SOL    HW1 5681   5.996   0.034   2.814
 1594SOL    HW2 5682   5.860   0.061   2.900
 1595SOL     OW 5683   0.422   3.949   0.429
 1595SOL    HW1 5684   0.330   3.911   0.417
 1595SOL    HW2 5685   0.420   4.014   0.505
 1596SOL     OW 5686   4.352   4.786   2.963
 1596SOL    HW1 5687   4.278   4.845   2.929
 1596SOL    HW2 5688   4.320   4.738   3.046
 1597SOL     OW 5689   3.968   5.947   6.761
 1597SOL    HW1 5690   3.937   5.938   6.667
 1597SOL    HW2 5691   3.991   6.043   6.780
 1598SOL     OW 5692   1.545   4.771   0.193
 1598SOL    HW1 5693   1.540   4.673   0.173
 1598SOL    HW2 5694   1.500   4.823   0.121
 1599SOL     OW 5695   4.589   5.699   3.426
 1599SOL    HW1 5696   4.615   5.605   3.404
 1599SOL    HW2 5697   4.500   5.700   3.470
 1600SOL     OW 5698   4.308   6.978   2.050
 1600SOL    HW1 5699   4.233   6.926   2.008
 1600SOL    HW2 5700   4.278   7.015   2.138
 1601SOL     OW 5701   6.732   0.000   4.823
 1601SOL    HW1 5702   6.740   0.008   4.922
 1601SOL    HW2 5703   6.789   0.069   4.779
 1602SOL     OW 5704   3.595   5.595   3.817
 1602SOL    HW1 5705   3.581   5.629   3.910
 1602SOL    HW2 5706   3.518   5.624   3.759
 1603SOL     OW 5707   3.522   5.449   3.103
 1603SOL    HW1 5708   3.564   5.445   3.012
 1603SOL    HW2 5709   3.589   5.425   3.172
 1604SOL     OW 5710   4.155   5.468   1.987
 1604SOL    HW1 5711   4.150   5.497   2.083
 1604SOL    HW2 5712   4.144   5.548   1.928
 1605SOL     OW 5713   4.577   5.643   0.815
 1605SOL    HW1 5714   4.593   5.676   0.721
 1605SOL    HW2 5715   4.500   5.693   0.854
 1606SOL     OW 5716   3.574   5.930   4.905
 1606SOL    HW1 5717   3.574   5.862   4.978
 1606SOL    HW2 5718   3.510   5.902   4.833
 1607SOL     OW 5719   4.554   5.679   2.895
 1607SOL    HW1 5720   4.635   5.638   2.853
 1607SOL    HW2 5721   4.556   5.778   2.881
 1608SOL     OW 5722   5.105   1.479   3.235
 1608SOL    HW1 5723   5.149   1.428   3.161
 1608SOL    HW2 5724   5.160   1.473   3.318
 1609SOL     OW 5725   2.306   6.604   1.007
 1609SOL    HW1 5726   2.268   6.661   0.935
 1609SOL    HW2 5727   2.306   6.508   0.978
 1610SOL     OW 5728   5.300   0.458   0.647
 1610SOL    HW1 5729   5.291   0.489   0.552
 1610SOL    HW2 5730   5.253   0.370   0.658
 1611SOL     OW 5731   1.525   4.323   1.279
 1611SOL    HW1 5732   1.605   4.264   1.270
 1611SOL    HW2 5733   1.453   4.291   1.217
 1612SOL     OW 5734   3.437   0.143   1.928
 1612SOL    HW1 5735   3.449   0.239   1.953
 1612SOL    HW2 5736   3.374   0.100   1.993
 1613SOL     OW 5737   6.615   5.421   2.512
 1613SOL    HW1 5738   6.582   5.491   2.576
 1613SOL    HW2 5739   6.564   5.337   2.525
 1614SOL     OW 5740   6.241   1.573   6.440
 1614SOL    HW1 5741   6.314   1.579   6.509
 1614SOL    HW2 5742   6.226   1.663   6.400
 1615SOL     OW 5743   1.182   4.269   6.478
 1615SOL    HW1 5744   1.135   4.260   6.390
 1615SOL    HW2 5745   1.115   4.288   6.550
 1616SOL     OW 5746   2.143   1.505   4.749
 1616SOL    HW1 5747   2.212   1.570   4.716
 1616SOL    HW2 5748   2.121   1.440   4.677
 1617SOL     OW 5749   6.015   6.143   3.124
 1617SOL    HW1 5750   6.020   6.239   3.154
 1617SOL    HW2 5751   6.029   6.083   3.202
 1618SOL     OW 5752   3.058   5.544   3.250
 1618SOL    HW1 5753   3.072   5.516   3.344
 1618SOL    HW2 5754   3.132   5.510   3.193
 1619SOL     OW 5755   1.411   4.258   6.911
 1619SOL    HW1 5756   1.404   4.178   6.970
 1619SOL    HW2 5757   1.452   4.231   6.824
 1620SOL     OW 5758   3.528   5.088   5.895
 1620SOL    HW1 5759   3.477   5.090   5.981
 1620SOL    HW2 5760   3.466   5.067   5.820
 1621SOL     OW 5761   5.150   5.691   1.103
 1621SOL    HW1 5762   5.173   5.788   1.100
 1621SOL    HW2 5763   5.227   5.639   1.141
 1622SOL     OW 5764   6.980   4.953   4.517
 1622SOL    HW1 5765   0.057   4.917   4.521
 1622SOL    HW2 5766   6.953   4.966   4.422
 1623SOL     OW 5767   0.480   2.177   3.975
 1623SOL    HW1 5768   0.506   2.264   3.933
 1623SOL    HW2 5769   0.383   2.182   4.002
 1624SOL     OW 5770   4.253   1.906   0.674
 1624SOL    HW1 5771   4.164   1.865   0.695
 1624SOL    HW2 5772   4.239   1.997   0.634
 1625SOL     OW 5773   0.705   5.959   1.145
 1625SOL    HW1 5774   0.709   5.957   1.045
 1625SOL    HW2 5775   0.778   5.902   1.182
 1626SOL     OW 5776   2.811   2.363   1.352
 1626SOL    HW1 5777   2.840   2.455   1.379
 1626SOL    HW2 5778   2.858   2.295   1.408
 1627SOL     OW 5779   4.288   1.628   5.235
 1627SOL    HW1 5780   4.272   1.722   5.268
 1627SOL    HW2 5781   4.347   1.631   5.155
 1628SOL     OW 5782   5.795   6.789   0.540
 1628SOL    HW1 5783   5.800   6.746   0.450
 1628SOL    HW2 5784   5.713   6.845   0.546
 1629SOL     OW 5785   1.938   0.356   3.806
 1629SOL    HW1 5786   1.961   0.323   3.714
 1629SOL    HW2 5787   2.000   0.431   3.831
 1630SOL     OW 5788   0.339   3.844   6.721
 1630SOL    HW1 5789   0.370   3.927   6.768
 1630SOL    HW2 5790   0.415   3.779   6.713
 1631SOL     OW 5791   0.071   3.706   6.986
 1631SOL    HW1 5792   0.056   3.679   6.891
 1631SOL    HW2 5793   0.165   3.737   6.998
 1632SOL     OW 5794   6.433   5.214   2.546
 1632SOL    HW1 5795   6.367   5.173   2.483
 1632SOL    HW2 5796   6.394   5.215   2.638
 1633SOL     OW 5797   5.512   3.553   4.028
 1633SOL    HW1 5798   5.430   3.604   4.002
 1633SOL    HW2 5799   5.500   3.513   4.118
 1634SOL     OW 5800   6.549   1.631   4.379
 1634SOL    HW1 5801   6.511   1.568   4.446
 1634SOL    HW2 5802   6.509   1.722   4.393
 1635SOL     OW 5803   3.986   6.388   3.111
 1635SOL    HW1 5804   3.907   6.371   3.052
 1635SOL    HW2 5805   3.962   6.364   3.205
 1636SOL     OW 5806   6.204   6.057   1.677
 1636SOL    HW1 5807   6.225   6.134   1.736
 1636SOL    HW2 5808   6.258   5.977   1.704
 1637SOL     OW 5809   0.583   6.902   1.752
 1637SOL    HW1 5810   0.673   6.919   1.792
 1637SOL    HW2 5811   0.578   6.947   1.662
 1638SOL     OW 5812   6.266   2.945   1.725
 1638SOL    HW1 5813   6.307   3.012   1.664
 1638SOL    HW2 5814   6.306   2.855   1.708
 1639SOL     OW 5815   5.702   2.513   2.628
 1639SOL    HW1 5816   5.620   2.473   2.668
 1639SOL    HW2 5817   5.698   2.613   2.636
 1640SOL     OW 5818   6.828   0.128   6.848
 1640SOL    HW1 5819   6.909   0.118   6.907
 1640SOL    HW2 5820   6.752   0.075   6.887
 1641SOL     OW 5821   6.488   2.410   3.091
 1641SOL    HW1 5822   6.495   2.423   3.190
 1641SOL    HW2 5823   6.429   2.331   3.072
 1642SOL     OW 5824   6.691   2.594   6.134
 1642SOL    HW1 5825   6.625   2.588   6.059
 1642SOL    HW2 5826   6.697   2.689   6.166
 1643SOL     OW 5827   2.366   6.180   3.669
 1643SOL    HW1 5828   2.458   6.156   3.701
 1643SOL    HW2 5829   2.352   6.145   3.576
 1644SOL     OW 5830   6.060   2.467   1.499
 1644SOL    HW1 5831   6.063   2.506   1.591
 1644SOL    HW2 5832   6.040   2.369   1.504
 1645SOL     OW 5833   2.199   0.954   5.581
 1645SOL    HW1 5834   2.113   0.982   5.624
 1645SOL    HW2 5835   2.230   0.868   5.620
 1646SOL     OW 5836   1.324   4.816   0.873
 1646SOL    HW1 5837   1.381   4.858   0.943
 1646SOL    HW2 5838   1.326   4.872   0.790
 1647SOL     OW 5839   5.613   2.596   3.968
 1647SOL    HW1 5840   5.549   2.558   4.035
 1647SOL    HW2 5841   5.687   2.644   4.016
 1648SOL     OW 5842   5.382   6.025   1.204
 1648SOL    HW1 5843   5.441   5.953   1.170
 1648SOL    HW2 5844   5.434   6.110   1.213
 1649SOL     OW 5845   3.540   0.710   3.522
 1649SOL    HW1 5846   3.639   0.708   3.507
 1649SOL    HW2 5847   3.520   0.695   3.618
 1650SOL     OW 5848   2.960   3.963   6.983
 1650SOL    HW1 5849   3.015   4.046   6.987
 1650SOL    HW2 5850   2.966   3.922   6.892
 1651SOL     OW 5851   1.002   2.624   3.297
 1651SOL    HW1 5852   1.041   2.601   3.386
 1651SOL    HW2 5853   1.074   2.625   3.228
 1652SOL     OW 5854   0.365   3.170   1.494
 1652SOL    HW1 5855   0.350   3.074   1.470
 1652SOL    HW2 5856   0.394   3.221   1.413
 1653SOL     OW 5857   0.211   4.790   2.968
 1653SOL    HW1 5858   0.187   4.720   3.036
 1653SOL    HW2 5859   0.137   4.796   2.900
 1654SOL     OW 5860   6.729   3.262   2.213
 1654SOL    HW1 5861   6.663   3.282   2.285
 1654SOL    HW2 5862   6.703   3.178   2.165
 1655SOL     OW 5863   0.156   6.844   4.867
 1655SOL    HW1 5864   0.191   6.863   4.775
 1655SOL    HW2 5865   0.177   6.749   4.891
 1656SOL     OW 5866   2.211   4.563   3.170
 1656SOL    HW1 5867   2.189   4.562   3.072
 1656SOL    HW2 5868   2.242   4.473   3.198
 1657SOL     OW 5869   1.299   6.430   5.674
 1657SOL    HW1 5870   1.199   6.428   5.673
 1657SOL    HW2 5871   1.332   6.427   5.768
 1658SOL     OW 5872   6.454   6.967   6.603
 1658SOL    HW1 5873   6.373   6.997   6.653
 1658SOL    HW2 5874   6.482   0.022   6.539
 1659SOL     OW 5875   4.449   6.695   6.410
 1659SOL    HW1 5876   4.377   6.750   6.368
 1659SOL    HW2 5877   4.440   6.698   6.509
 1660SOL     OW 5878   2.865   0.464   2.231
 1660SOL    HW1 5879   2.857   0.373   2.272
 1660SOL    HW2 5880   2.805   0.528   2.279
 1661SOL     OW 5881   4.149   4.763   2.552
 1661SOL    HW1 5882   4.132   4.680   2.498
 1661SOL    HW2 5883   4.074   4.827   2.538
 1662SOL     OW 5884   0.205   1.318   4.899
 1662SOL    HW1 5885   0.234   1.235   4.851
 1662SOL    HW2 5886   0.106   1.314   4.914
 1663SOL     OW 5887   4.769   4.713   0.323
 1663SOL    HW1 5888   4.775   4.746   0.417
 1663SOL    HW2 5889   4.725   4.624   0.321
 1664SOL     OW 5890   1.253   6.835   5.682
 1664SOL    HW1 5891   1.234   6.934   5.687
 1664SOL    HW2 5892   1.351   6.820   5.672
 1665SOL     OW 5893   2.494   4.349   0.237
 1665SOL    HW1 5894   2.403   4.308   0.230
 1665SOL    HW2 5895   2.560   4.291   0.187
 1666SOL     OW 5896   5.735   6.796   6.275
 1666SOL    HW1 5897   5.645   6.758   6.257
 1666SOL    HW2 5898   5.795   6.779   6.197
 1667SOL     OW 5899   0.386   6.269   1.276
 1667SOL    HW1 5900   0.411   6.313   1.362
 1667SOL    HW2 5901   0.296   6.302   1.248
 1668SOL     OW 5902   5.409   4.534   3.213
 1668SOL    HW1 5903   5.351   4.578   3.144
 1668SOL    HW2 5904   5.361   4.530   3.300
 1669SOL     OW 5905   6.020   3.506   5.247
 1669SOL    HW1 5906   6.105   3.532   5.292
 1669SOL    HW2 5907   6.041   3.465   5.158
 1670SOL     OW 5908   1.794   4.765   6.613
 1670SOL    HW1 5909   1.796   4.783   6.514
 1670SOL    HW2 5910   1.884   4.785   6.651
 1671SOL     OW 5911   5.783   2.282   1.226
 1671SOL    HW1 5912   5.805   2.232   1.142
 1671SOL    HW2 5913   5.689   2.316   1.220
 1672SOL     OW 5914   0.828   3.602   0.220
 1672SOL    HW1 5915   0.851   3.693   0.185
 1672SOL    HW2 5916   0.745   3.608   0.276
 1673SOL     OW 5917   1.860   0.923   4.731
 1673SOL    HW1 5918   1.885   1.005   4.782
 1673SOL    HW2 5919   1.765   0.930   4.701
 1674SOL     OW 5920   4.898   2.251   2.816
 1674SOL    HW1 5921   4.935   2.164   2.782
 1674SOL    HW2 5922   4.806   2.264   2.779
 1675SOL     OW 5923   4.992   0.803   1.283
 1675SOL    HW1 5924   5.007   0.721   1.338
 1675SOL    HW2 5925   4.938   0.869   1.336
 1676SOL     OW 5926   1.146   2.421   2.516
 1676SOL    HW1 5927   1.155   2.515   2.550
 1676SOL    HW2 5928   1.152   2.357   2.592
 1677SOL     OW 5929   4.029   3.109   2.963
 1677SOL    HW1 5930   4.052   3.164   2.883
 1677SOL    HW2 5931   3.997   3.019   2.933
 1678SOL     OW 5932   0.928   0.082   1.404
 1678SOL    HW1 5933   0.956   0.175   1.427
 1678SOL    HW2 5934   1.005   0.033   1.362
 1679SOL     OW 5935   0.516   2.867   6.161
 1679SOL    HW1 5936   0.494   2.813   6.242
 1679SOL    HW2 5937   0.492   2.963   6.177
 1680SOL     OW 5938   5.040   2.465   3.957
 1680SOL    HW1 5939   5.031   2.388   3.894
 1680SOL    HW2 5940   5.073   2.432   4.045
 1681SOL     OW 5941   2.129   6.064   4.269
 1681SOL    HW1 5942   2.135   6.092   4.365
 1681SOL    HW2 5943   2.143   5.965   4.263
 1682SOL     OW 5944   3.142   6.834   4.191
 1682SOL    HW1 5945   3.092   6.809   4.273
 1682SOL    HW2 5946   3.226   6.779   4.185
 1683SOL     OW 5947   5.965   4.509   2.791
 1683SOL    HW1 5948   5.878   4.559   2.787
 1683SOL    HW2 5949   5.947   4.411   2.799
 1684SOL     OW 5950   2.526   4.538   2.006
 1684SOL    HW1 5951   2.473   4.532   1.921
 1684SOL    HW2 5952   2.624   4.538   1.985
 1685SOL     OW 5953   6.850   1.367   5.070
 1685SOL    HW1 5954   6.891   1.323   4.990
 1685SOL    HW2 5955   6.833   1.463   5.051
 1686SOL     OW 5956   4.911   5.827   2.780
 1686SOL    HW1 5957   4.964   5.848   2.862
 1686SOL    HW2 5958   4.827   5.881   2.780
 1687SOL     OW 5959   5.522   4.262   2.007
 1687SOL    HW1 5960   5.453   4.192   2.026
 1687SOL    HW2 5961   5.591   4.224   1.944
 1688SOL     OW 5962   1.399   0.886   2.610
 1688SOL    HW1 5963   1.368   0.944   2.535
 1688SOL    HW2 5964   1.492   0.913   2.637
 1689SOL     OW 5965   4.536   1.075   1.289
 1689SOL    HW1 5966   4.437   1.061   1.292
 1689SOL    HW2 5967   4.582   0.986   1.297
 1690SOL     OW 5968   0.510   4.001   3.815
 1690SOL    HW1 5969   0.606   3.976   3.828
 1690SOL    HW2 5970   0.492   4.014   3.718
 1691SOL     OW 5971   4.604   2.854   5.388
 1691SOL    HW1 5972   4.569   2.936   5.433
 1691SOL    HW2 5973   4.547   2.831   5.310
 1692SOL     OW 5974   5.457   5.203   1.083
 1692SOL    HW1 5975   5.448   5.115   1.036
 1692SOL    HW2 5976   5.396   5.270   1.040
 1693SOL     OW 5977   5.281   6.754   5.183
 1693SOL    HW1 5978   5.327   6.756   5.272
 1693SOL    HW2 5979   5.238   6.843   5.166
 1694SOL     OW 5980   4.857   1.297   5.265
 1694SOL    HW1 5981   4.817   1.388   5.273
 1694SOL    HW2 5982   4.950   1.304   5.228
 1695SOL     OW 5983   4.331   1.275   6.418
 1695SOL    HW1 5984   4.235   1.256   6.397
 1695SOL    HW2 5985   4.387   1.261   6.336
 1696SOL     OW 5986   5.257   6.166   0.402
 1696SOL    HW1 5987   5.319   6.100   0.443
 1696SOL    HW2 5988   5.175   6.120   0.368
 1697SOL     OW 5989   5.391   2.398   2.262
 1697SOL    HW1 5990   5.349   2.456   2.331
 1697SOL    HW2 5991   5.320   2.350   2.211
 1698SOL     OW 5992   4.214   0.968   1.629
 1698SOL    HW1 5993   4.213   0.881   1.580
 1698SOL    HW2 5994   4.169   0.957   1.718
 1699SOL     OW 5995   2.477   6.913   0.465
 1699SOL    HW1 5996   2.557   6.870   0.508
 1699SOL    HW2 5997   2.453   6.996   0.516
 1700SOL     OW 5998   6.430   2.490   2.764
 1700SOL    HW1 5999   6.377   2.541   2.832
 1700SOL    HW2 6000   6.375   2.477   2.681
 1701SOL     OW 6001   0.266   6.044   5.189
 1701SOL    HW1 6002   0.341   6.047   5.255
 1701SOL    HW2 6003   0.303   6.044   5.096
 1702SOL     OW 6004   1.749   2.464   6.190
 1702SOL    HW1 6005   1.718   2.558   6.176
 1702SOL    HW2 6006   1.844   2.464   6.220
 1703SOL     OW 6007   2.803   2.056   0.967
 1703SOL    HW1 6008   2.825   1.973   1.019
 1703SOL    HW2 6009   2.746   2.116   1.023
 1704SOL     OW 6010   2.959   2.494   0.774
 1704SOL    HW1 6011   3.051   2.525   0.750
 1704SOL    HW2 6012   2.964   2.400   0.808
 1705SOL     OW 6013   4.057   2.212   0.187
 1705SOL    HW1 6014   4.046   2.278   0.261
 1705SOL    HW2 6015   4.079   2.122   0.226
 1706SOL     OW 6016   4.943   2.075   6.870
 1706SOL    HW1 6017   4.876   2.083   6.796
 1706SOL    HW2 6018   4.914   2.132   6.947
 1707SOL     OW 6019   4.384   2.220   2.670
 1707SOL    HW1 6020   4.320   2.270   2.727
 1707SOL    HW2 6021   4.334   2.164   2.604
 1708SOL     OW 6022   3.282   4.934   1.852
 1708SOL    HW1 6023   3.268   4.850   1.798
 1708SOL    HW2 6024   3.380   4.948   1.866
 1709SOL     OW 6025   4.776   4.971   0.864
 1709SOL    HW1 6026   4.868   4.939   0.887
 1709SOL    HW2 6027   4.757   4.950   0.767
 1710SOL     OW 6028   4.557   5.156   3.225
 1710SOL    HW1 6029   4.508   5.223   3.170
 1710SOL    HW2 6030   4.553   5.181   3.322
 1711SOL     OW 6031   4.136   4.312   6.528
 1711SOL    HW1 6032   4.166   4.365   6.448
 1711SOL    HW2 6033   4.173   4.353   6.611
 1712SOL     OW 6034   0.469   1.544   2.883
 1712SOL    HW1 6035   0.373   1.569   2.891
 1712SOL    HW2 6036   0.521   1.621   2.846
 1713SOL     OW 6037   3.993   0.482   2.937
 1713SOL    HW1 6038   4.006   0.399   2.992
 1713SOL    HW2 6039   3.897   0.491   2.911
 1714SOL     OW 6040   3.820   3.533   0.332
 1714SOL    HW1 6041   3.875   3.503   0.410
 1714SOL    HW2 6042   3.872   3.600   0.279
 1715SOL     OW 6043   2.037   6.891   2.210
 1715SOL    HW1 6044   1.944   6.856   2.200
 1715SOL    HW2 6045   2.052   6.918   2.305
 1716SOL     OW 6046   5.204   1.177   3.925
 1716SOL    HW1 6047   5.181   1.085   3.958
 1716SOL    HW2 6048   5.166   1.190   3.834
 1717SOL     OW 6049   3.334   6.461   5.205
 1717SOL    HW1 6050   3.421   6.510   5.196
 1717SOL    HW2 6051   3.325   6.426   5.298
 1718SOL     OW 6052   1.782   2.961   1.647
 1718SOL    HW1 6053   1.754   2.903   1.571
 1718SOL    HW2 6054   1.848   3.029   1.615
 1719SOL     OW 6055   1.476   5.460   2.369
 1719SOL    HW1 6056   1.434   5.390   2.312
 1719SOL    HW2 6057   1.438   5.457   2.461
 1720SOL     OW 6058   0.634   3.151   5.877
 1720SOL    HW1 6059   0.701   3.181   5.945
 1720SOL    HW2 6060   0.546   3.196   5.896
 1721SOL     OW 6061   1.305   2.104   1.057
 1721SOL    HW1 6062   1.336   2.017   1.018
 1721SOL    HW2 6063   1.209   2.096   1.084
 1722SOL     OW 6064   2.375   2.573   3.444
 1722SOL    HW1 6065   2.277   2.582   3.463
 1722SOL    HW2 6066   2.425   2.557   3.530
 1723SOL     OW 6067   5.467   3.572   0.550
 1723SOL    HW1 6068   5.423   3.514   0.618
 1723SOL    HW2 6069   5.566   3.558   0.553
 1724SOL     OW 6070   6.145   2.123   1.561
 1724SOL    HW1 6071   6.085   2.187   1.609
 1724SOL    HW2 6072   6.205   2.078   1.627
 1725SOL     OW 6073   1.391   5.873   6.801
 1725SOL    HW1 6074   1.310   5.919   6.765
 1725SOL    HW2 6075   1.419   5.801   6.738
 1726SOL     OW 6076   5.550   4.342   3.081
 1726SOL    HW1 6077   5.468   4.374   3.127
 1726SOL    HW2 6078   5.526   4.273   3.013
 1727SOL     OW 6079   2.957   3.762   3.836
 1727SOL    HW1 6080   3.014   3.842   3.851
 1727SOL    HW2 6081   2.967   3.731   3.741
 1728SOL     OW 6082   5.085   2.043   4.304
 1728SOL    HW1 6083   5.097   1.977   4.230
 1728SOL    HW2 6084   5.165   2.040   4.365
 1729SOL     OW 6085   1.607   3.053   2.907
 1729SOL    HW1 6086   1.600   2.984   2.835
 1729SOL    HW2 6087   1.516   3.070   2.945
 1730SOL     OW 6088   2.407   5.011   4.754
 1730SOL    HW1 6089   2.411   5.110   4.768
 1730SOL    HW2 6090   2.327   4.974   4.801
 1731SOL     OW 6091   6.090   4.673   3.559
 1731SOL    HW1 6092   6.075   4.741   3.631
 1731SOL    HW2 6093   6.002   4.637   3.528
 1732SOL     OW 6094   2.531   3.745   5.642
 1732SOL    HW1 6095   2.595   3.810   5.600
 1732SOL    HW2 6096   2.523   3.664   5.584
 1733SOL     OW 6097   2.366   3.660   6.393
 1733SOL    HW1 6098   2.319   3.719   6.327
 1733SOL    HW2 6099   2.310   3.650   6.475
 1734SOL     OW 6100   0.004   3.160   1.566
 1734SOL    HW1 6101   0.033   3.130   1.657
 1734SOL    HW2 6102   0.006   3.082   1.503
 1735SOL     OW 6103   4.094   4.976   6.185
 1735SOL    HW1 6104   4.064   5.005   6.094
 1735SOL    HW2 6105   4.058   4.885   6.204
 1736SOL     OW 6106   5.428   3.401   0.792
 1736SOL    HW1 6107   5.449   3.313   0.749
 1736SOL    HW2 6108   5.345   3.439   0.751
 1737SOL     OW 6109   4.537   2.062   5.419
 1737SOL    HW1 6110   4.486   2.123   5.479
 1737SOL    HW2 6111   4.522   2.089   5.324
 1738SOL     OW 6112   1.409   3.524   3.988
 1738SOL    HW1 6113   1.463   3.578   3.923
 1738SOL    HW2 6114   1.471   3.470   4.046
 1739SOL     OW 6115   5.736   0.712   3.728
 1739SOL    HW1 6116   5.645   0.737   3.696
 1739SOL    HW2 6117   5.742   0.613   3.739
 1740SOL     OW 6118   6.279   2.996   4.510
 1740SOL    HW1 6119   6.319   2.920   4.459
 1740SOL    HW2 6120   6.201   2.962   4.564
 1741SOL     OW 6121   0.404   1.812   4.487
 1741SOL    HW1 6122   0.490   1.771   4.516
 1741SOL    HW2 6123   0.388   1.896   4.539
 1742SOL     OW 6124   6.252   6.234   6.065
 1742SOL    HW1 6125   6.170   6.176   6.066
 1742SOL    HW2 6126   6.321   6.191   6.007
 1743SOL     OW 6127   1.505   1.394   2.312
 1743SOL    HW1 6128   1.600   1.371   2.290
 1743SOL    HW2 6129   1.502   1.483   2.358
 1744SOL     OW 6130   3.765   2.029   4.720
 1744SOL    HW1 6131   3.737   1.988   4.807
 1744SOL    HW2 6132   3.688   2.079   4.681
 1745SOL     OW 6133   6.163   6.769   1.286
 1745SOL    HW1 6134   6.249   6.799   1.244
 1745SOL    HW2 6135   6.178   6.681   1.331
 1746SOL     OW 6136   2.256   4.076   3.978
 1746SOL    HW1 6137   2.205   4.082   4.063
 1746SOL    HW2 6138   2.225   3.997   3.925
 1747SOL     OW 6139   4.469   0.176   2.328
 1747SOL    HW1 6140   4.454   0.273   2.310
 1747SOL    HW2 6141   4.382   0.127   2.325
 1748SOL     OW 6142   6.715   3.088   5.099
 1748SOL    HW1 6143   6.758   3.159   5.044
 1748SOL    HW2 6144   6.776   3.061   5.173
 1749SOL     OW 6145   1.265   4.572   1.121
 1749SOL    HW1 6146   1.293   4.668   1.127
 1749SOL    HW2 6147   1.231   4.542   1.210
 1750SOL     OW 6148   3.609   6.980   5.695
 1750SOL    HW1 6149   3.635   0.039   5.755
 1750SOL    HW2 6150   3.511   6.965   5.701
 1751SOL     OW 6151   5.673   2.906   4.879
 1751SOL    HW1 6152   5.628   2.893   4.967
 1751SOL    HW2 6153   5.653   2.998   4.845
 1752SOL     OW 6154   6.782   0.500   2.267
 1752SOL    HW1 6155   6.858   0.499   2.332
 1752SOL    HW2 6156   6.792   0.579   2.206
 1753SOL     OW 6157   6.138   1.704   2.038
 1753SOL    HW1 6158   6.137   1.760   1.955
 1753SOL    HW2 6159   6.052   1.653   2.044
 1754SOL     OW 6160   3.112   5.504   3.947
 1754SOL    HW1 6161   3.174   5.425   3.950
 1754SOL    HW2 6162   3.055   5.504   4.029
 1755SOL     OW 6163   6.291   6.652   4.759
 1755SOL    HW1 6164   6.192   6.638   4.753
 1755SOL    HW2 6165   6.337   6.598   4.689
 1756SOL     OW 6166   5.044   6.857   6.642
 1756SOL    HW1 6167   5.025   6.799   6.721
 1756SOL    HW2 6168   5.105   6.931   6.670
 1757SOL     OW 6169   2.050   4.970   5.273
 1757SOL    HW1 6170   1.966   5.024   5.280
 1757SOL    HW2 6171   2.107   5.005   5.199
 1758SOL     OW 6172   2.109   6.185   4.545
 1758SOL    HW1 6173   2.142   6.249   4.614
 1758SOL    HW2 6174   2.112   6.092   4.581
 1759SOL     OW 6175   1.770   6.672   0.117
 1759SOL    HW1 6176   1.735   6.579   0.128
 1759SOL    HW2 6177   1.837   6.690   0.189
 1760SOL     OW 6178   6.915   0.956   4.882
 1760SOL    HW1 6179   6.984   0.888   4.858
 1760SOL    HW2 6180   6.875   0.934   4.971
 1761SOL     OW 6181   5.712   1.679   2.449
 1761SOL    HW1 6182   5.760   1.647   2.367
 1761SOL    HW2 6183   5.696   1.601   2.511
 1762SOL     OW 6184   0.555   1.900   6.131
 1762SOL    HW1 6185   0.640   1.859   6.099
 1762SOL    HW2 6186   0.484   1.887   6.062
 1763SOL     OW 6187   0.257   3.675   3.910
 1763SOL    HW1 6188   0.326   3.741   3.881
 1763SOL    HW2 6189   0.198   3.717   3.980
 1764SOL     OW 6190   1.459   5.681   3.024
 1764SOL    HW1 6191   1.379   5.729   3.060
 1764SOL    HW2 6192   1.524   5.747   2.985
 1765SOL     OW 6193   5.494   3.385   2.320
 1765SOL    HW1 6194   5.520   3.403   2.225
 1765SOL    HW2 6195   5.460   3.291   2.328
 1766SOL     OW 6196   4.317   4.715   3.912
 1766SOL    HW1 6197   4.402   4.750   3.952
 1766SOL    HW2 6198   4.324   4.715   3.813
 1767SOL     OW 6199   0.522   4.657   2.533
 1767SOL    HW1 6200   0.525   4.728   2.463
 1767SOL    HW2 6201   0.601   4.596   2.522
 1768SOL     OW 6202   5.101   6.366   2.299
 1768SOL    HW1 6203   5.148   6.342   2.214
 1768SOL    HW2 6204   5.017   6.312   2.307
 1769SOL     OW 6205   5.990   0.752   0.604
 1769SOL    HW1 6206   5.970   0.663   0.645
 1769SOL    HW2 6207   6.081   0.782   0.633
 1770SOL     OW 6208   1.679   5.066   0.329
 1770SOL    HW1 6209   1.675   5.140   0.396
 1770SOL    HW2 6210   1.762   5.076   0.273
 1771SOL     OW 6211   1.256   3.230   6.107
 1771SOL    HW1 6212   1.256   3.215   6.008
 1771SOL    HW2 6213   1.227   3.146   6.153
 1772SOL     OW 6214   2.214   4.488   2.854
 1772SOL    HW1 6215   2.279   4.421   2.891
 1772SOL    HW2 6216   2.264   4.569   2.824
 1773SOL     OW 6217   1.628   6.280   6.161
 1773SOL    HW1 6218   1.600   6.192   6.198
 1773SOL    HW2 6219   1.716   6.307   6.199
 1774SOL     OW 6220   4.977   5.689   0.898
 1774SOL    HW1 6221   5.024   5.687   0.986
 1774SOL    HW2 6222   5.041   5.662   0.826
 1775SOL     OW 6223   1.939   5.539   6.761
 1775SOL    HW1 6224   1.843   5.565   6.757
 1775SOL    HW2 6225   1.950   5.446   6.727
 1776SOL     OW 6226   4.250   2.450   5.652
 1776SOL    HW1 6227   4.280   2.484   5.741
 1776SOL    HW2 6228   4.186   2.516   5.611
 1777SOL     OW 6229   4.934   6.625   6.763
 1777SOL    HW1 6230   5.012   6.586   6.714
 1777SOL    HW2 6231   4.910   6.567   6.840
 1778SOL     OW 6232   5.900   0.074   3.934
 1778SOL    HW1 6233   5.863   0.002   3.994
 1778SOL    HW2 6234   5.862   0.162   3.961
 1779SOL     OW 6235   5.695   6.574   4.686
 1779SOL    HW1 6236   5.611   6.580   4.633
 1779SOL    HW2 6237   5.674   6.537   4.777
 1780SOL     OW 6238   2.105   5.401   5.005
 1780SOL    HW1 6239   2.146   5.392   4.914
 1780SOL    HW2 6240   2.030   5.467   5.001
 1781SOL     OW 6241   4.150   0.559   4.463
 1781SOL    HW1 6242   4.072   0.615   4.493
 1781SOL    HW2 6243   4.233   0.615   4.462
 1782SOL     OW 6244   6.675   1.548   2.575
 1782SOL    HW1 6245   6.638   1.608   2.504
 1782SOL    HW2 6246   6.762   1.585   2.608
 1783SOL     OW 6247   2.225   3.841   6.556
 1783SOL    HW1 6248   2.202   3.865   6.462
 1783SOL    HW2 6249   2.320   3.865   6.575
 1784SOL     OW 6250   2.592   6.806   1.519
 1784SOL    HW1 6251   2.686   6.775   1.509
 1784SOL    HW2 6252   2.561   6.847   1.433
 1785SOL     OW 6253   1.706   6.263   4.542
 1785SOL    HW1 6254   1.635   6.332   4.532
 1785SOL    HW2 6255   1.712   6.209   4.457
 1786SOL     OW 6256   0.963   6.681   1.004
 1786SOL    HW1 6257   0.888   6.614   0.998
 1786SOL    HW2 6258   0.973   6.710   1.099
 1787SOL     OW 6259   2.965   3.264   6.627
 1787SOL    HW1 6260   3.055   3.279   6.669
 1787SOL    HW2 6261   2.950   3.333   6.556
 1788SOL     OW 6262   4.723   4.099   1.112
 1788SOL    HW1 6263   4.663   4.064   1.183
 1788SOL    HW2 6264   4.698   4.058   1.024
 1789SOL     OW 6265   5.815   4.026   1.709
 1789SOL    HW1 6266   5.806   4.063   1.802
 1789SOL    HW2 6267   5.760   3.943   1.702
 1790SOL     OW 6268   2.125   1.981   4.452
 1790SOL    HW1 6269   2.193   1.994   4.523
 1790SOL    HW2 6270   2.047   2.042   4.469
 1791SOL     OW 6271   4.661   0.129   3.626
 1791SOL    HW1 6272   4.569   0.129   3.585
 1791SOL    HW2 6273   4.717   0.060   3.580
 1792SOL     OW 6274   0.433   1.838   5.905
 1792SOL    HW1 6275   0.342   1.859   5.941
 1792SOL    HW2 6276   0.434   1.852   5.806
 1793SOL     OW 6277   0.283   0.771   5.847
 1793SOL    HW1 6278   0.192   0.736   5.827
 1793SOL    HW2 6279   0.277   0.844   5.915
 1794SOL     OW 6280   1.274   0.332   6.058
 1794SOL    HW1 6281   1.201   0.266   6.074
 1794SOL    HW2 6282   1.326   0.346   6.143
 1795SOL     OW 6283   5.681   4.802   1.165
 1795SOL    HW1 6284   5.686   4.892   1.207
 1795SOL    HW2 6285   5.774   4.770   1.143
 1796SOL     OW 6286   0.583   0.741   6.704
 1796SOL    HW1 6287   0.642   0.764   6.626
 1796SOL    HW2 6288   0.591   0.811   6.774
 1797SOL     OW 6289   1.890   4.978   6.105
 1797SOL    HW1 6290   1.920   5.066   6.068
 1797SOL    HW2 6291   1.930   4.965   6.196
 1798SOL     OW 6292   2.686   3.777   5.300
 1798SOL    HW1 6293   2.628   3.852   5.271
 1798SOL    HW2 6294   2.630   3.707   5.346
 1799SOL     OW 6295   3.388   1.580   0.739
 1799SOL    HW1 6296   3.427   1.562   0.649
 1799SOL    HW2 6297   3.307   1.638   0.729
 1800SOL     OW 6298   5.543   3.377   5.119
 1800SOL    HW1 6299   5.485   3.375   5.038
 1800SOL    HW2 6300   5.582   3.468   5.130
 1801SOL     OW 6301   0.993   0.837   3.083
 1801SOL    HW1 6302   0.973   0.743   3.056
 1801SOL    HW2 6303   1.071   0.838   3.146
 1802SOL     OW 6304   6.900   4.932   4.006
 1802SOL    HW1 6305   6.821   4.876   3.981
 1802SOL    HW2 6306   6.899   5.016   3.950
 1803SOL     OW 6307   0.346   0.179   3.337
 1803SOL    HW1 6308   0.402   0.235   3.398
 1803SOL    HW2 6309   0.355   0.211   3.243
 1804SOL     OW 6310   2.230   3.115   5.849
 1804SOL    HW1 6311   2.239   3.087   5.945
 1804SOL    HW2 6312   2.320   3.115   5.806
 1805SOL     OW 6313   6.977   5.446   0.724
 1805SOL    HW1 6314   6.977   5.374   0.792
 1805SOL    HW2 6315   6.910   5.516   0.750
 1806SOL     OW 6316   0.382   1.852   1.731
 1806SOL    HW1 6317   0.372   1.836   1.829
 1806SOL    HW2 6318   0.323   1.928   1.704
 1807SOL     OW 6319   0.417   2.563   2.867
 1807SOL    HW1 6320   0.377   2.646   2.827
 1807SOL    HW2 6321   0.517   2.568   2.863
 1808SOL     OW 6322   5.150   2.158   5.995
 1808SOL    HW1 6323   5.127   2.255   5.992
 1808SOL    HW2 6324   5.166   2.124   5.902
 1809SOL     OW 6325   4.604   0.201   5.097
 1809SOL    HW1 6326   4.699   0.171   5.103
 1809SOL    HW2 6327   4.564   0.169   5.011
 1810SOL     OW 6328   0.817   0.400   4.174
 1810SOL    HW1 6329   0.901   0.347   4.177
 1810SOL    HW2 6330   0.820   0.472   4.245
 1811SOL     OW 6331   4.126   5.409   1.403
 1811SOL    HW1 6332   4.189   5.474   1.446
 1811SOL    HW2 6333   4.178   5.337   1.357
 1812SOL     OW 6334   4.720   6.683   6.326
 1812SOL    HW1 6335   4.630   6.714   6.356
 1812SOL    HW2 6336   4.786   6.757   6.337
 1813SOL     OW 6337   4.758   4.379   2.266
 1813SOL    HW1 6338   4.769   4.415   2.173
 1813SOL    HW2 6339   4.831   4.314   2.286
 1814SOL     OW 6340   6.580   6.167   0.343
 1814SOL    HW1 6341   6.597   6.094   0.410
 1814SOL    HW2 6342   6.603   6.133   0.251
 1815SOL     OW 6343   5.251   6.732   1.170
 1815SOL    HW1 6344   5.323   6.713   1.103
 1815SOL    HW2 6345   5.169   6.680   1.148
 1816SOL     OW 6346   3.682   4.958   5.243
 1816SOL    HW1 6347   3.767   4.918   5.279
 1816SOL    HW2 6348   3.691   4.970   5.145
 1817SOL     OW 6349   0.162   2.100   3.958
 1817SOL    HW1 6350   0.132   2.185   3.916
 1817SOL    HW2 6351   0.125   2.022   3.907
 1818SOL     OW 6352   2.733   0.900   0.233
 1818SOL    HW1 6353   2.677   0.947   0.301
 1818SOL    HW2 6354   2.698   0.808   0.217
 1819SOL     OW 6355   1.788   4.819   2.578
 1819SOL    HW1 6356   1.860   4.868   2.628
 1819SOL    HW2 6357   1.817   4.806   2.483
 1820SOL     OW 6358   3.198   0.063   5.019
 1820SOL    HW1 6359   3.260   0.090   5.093
 1820SOL    HW2 6360   3.142   0.141   4.993
 1821SOL     OW 6361   3.662   2.095   2.591
 1821SOL    HW1 6362   3.570   2.129   2.608
 1821SOL    HW2 6363   3.683   2.102   2.494
 1822SOL     OW 6364   6.815   3.372   2.903
 1822SOL    HW1 6365   6.805   3.276   2.876
 1822SOL    HW2 6366   6.724   3.412   2.917
 1823SOL     OW 6367   4.398   6.210   1.913
 1823SOL    HW1 6368   4.477   6.270   1.907
 1823SOL    HW2 6369   4.338   6.225   1.834
 1824SOL     OW 6370   4.368   3.054   1.774
 1824SOL    HW1 6371   4.334   3.110   1.698
 1824SOL    HW2 6372   4.464   3.075   1.790
 1825SOL     OW 6373   1.220   2.248   4.937
 1825SOL    HW1 6374   1.252   2.153   4.929
 1825SOL    HW2 6375   1.193   2.282   4.847
 1826SOL     OW 6376   3.702   2.109   1.731
 1826SOL    HW1 6377   3.603   2.111   1.717
 1826SOL    HW2 6378   3.728   2.180   1.796
 1827SOL     OW 6379   5.549   5.908   0.843
 1827SOL    HW1 6380   5.528   6.006   0.841
 1827SOL    HW2 6381   5.472   5.859   0.884
 1828SOL     OW 6382   1.462   3.376   5.503
 1828SOL    HW1 6383   1.401   3.428   5.564
 1828SOL    HW2 6384   1.458   3.416   5.412
 1829SOL     OW 6385   3.656   0.941   2.499
 1829SOL    HW1 6386   3.594   0.875   2.455
 1829SOL    HW2 6387   3.748   0.928   2.463
 1830SOL     OW 6388   5.422   0.602   5.356
 1830SOL    HW1 6389   5.482   0.611   5.436
 1830SOL    HW2 6390   5.367   0.519   5.365
 1831SOL     OW 6391   3.706   4.815   0.509
 1831SOL    HW1 6392   3.649   4.790   0.587
 1831SOL    HW2 6393   3.667   4.775   0.426
 1832SOL     OW 6394   2.531   2.692   0.246
 1832SOL    HW1 6395   2.557   2.647   0.331
 1832SOL    HW2 6396   2.466   2.634   0.196
 1833SOL     OW 6397   5.785   1.193   6.872
 1833SOL    HW1 6398   5.696   1.205   6.916
 1833SOL    HW2 6399   5.843   1.134   6.928
 1834SOL     OW 6400   0.418   2.752   5.409
 1834SOL    HW1 6401   0.415   2.764   5.508
 1834SOL    HW2 6402   0.394   2.658   5.386
 1835SOL     OW 6403   6.756   6.609   1.802
 1835SOL    HW1 6404   6.837   6.551   1.811
 1835SOL    HW2 6405   6.674   6.556   1.825
 1836SOL     OW 6406   5.217   2.869   2.581
 1836SOL    HW1 6407   5.310   2.832   2.587
 1836SOL    HW2 6408   5.176   2.841   2.494
 1837SOL     OW 6409   2.696   2.148   6.147
 1837SOL    HW1 6410   2.622   2.212   6.172
 1837SOL    HW2 6411   2.658   2.072   6.095
 1838SOL     OW 6412   5.198   0.994   0.537
 1838SOL    HW1 6413   5.243   0.905   0.543
 1838SOL    HW2 6414   5.264   1.066   0.559
 1839SOL     OW 6415   0.301   0.722   0.443
 1839SOL    HW1 6416   0.332   0.817   0.449
 1839SOL    HW2 6417   0.379   0.660   0.446
 1840SOL     OW 6418   4.169   6.078   3.565
 1840SOL    HW1 6419   4.192   6.111   3.656
 1840SOL    HW2 6420   4.070   6.064   3.559
 1841SOL     OW 6421   1.604   0.860   2.085
 1841SOL    HW1 6422   1.595   0.897   1.992
 1841SOL    HW2 6423   1.620   0.936   2.149
 1842SOL     OW 6424   1.046   5.550   0.906
 1842SOL    HW1 6425   0.952   5.519   0.920
 1842SOL    HW2 6426   1.046   5.646   0.877
 1843SOL     OW 6427   2.290   1.219   5.477
 1843SOL    HW1 6428   2.229   1.240   5.401
 1843SOL    HW2 6429   2.268   1.128   5.513
 1844SOL     OW 6430   5.923   2.732   6.184
 1844SOL    HW1 6431   5.871   2.667   6.240
 1844SOL    HW2 6432   5.977   2.681   6.117
 1845SOL     OW 6433   1.310   2.465   2.805
 1845SOL    HW1 6434   1.255   2.519   2.741
 1845SOL    HW2 6435   1.320   2.372   2.769
 1846SOL     OW 6436   3.314   1.005   1.967
 1846SOL    HW1 6437   3.342   1.094   1.929
 1846SOL    HW2 6438   3.289   1.017   2.063
 1847SOL     OW 6439   1.701   5.455   5.395
 1847SOL    HW1 6440   1.652   5.424   5.476
 1847SOL    HW2 6441   1.681   5.552   5.378
 1848SOL     OW 6442   3.327   6.664   3.343
 1848SOL    HW1 6443   3.402   6.705   3.290
 1848SOL    HW2 6444   3.324   6.705   3.434
 1849SOL     OW 6445   4.851   2.950   2.500
 1849SOL    HW1 6446   4.934   2.937   2.446
 1849SOL    HW2 6447   4.853   3.039   2.545
 1850SOL     OW 6448   4.310   1.669   0.978
 1850SOL    HW1 6449   4.264   1.595   0.928
 1850SOL    HW2 6450   4.374   1.715   0.916
 1851SOL     OW 6451   0.183   4.626   4.573
 1851SOL    HW1 6452   0.108   4.640   4.508
 1851SOL    HW2 6453   0.147   4.637   4.666
 1852SOL     OW 6454   0.535   0.208   2.551
 1852SOL    HW1 6455   0.560   0.303   2.533
 1852SOL    HW2 6456   0.526   0.195   2.650
 1853SOL     OW 6457   0.022   2.692   5.801
 1853SOL    HW1 6458   0.042   2.789   5.814
 1853SOL    HW2 6459   0.048   2.665   5.708
 1854SOL     OW 6460   1.020   6.844   3.345
 1854SOL    HW1 6461   0.924   6.817   3.355
 1854SOL    HW2 6462   1.063   6.846   3.435
 1855SOL     OW 6463   5.389   3.389   4.449
 1855SOL    HW1 6464   5.435   3.434   4.525
 1855SOL    HW2 6465   5.319   3.327   4.485
 1856SOL     OW 6466   3.862   3.116   0.847
 1856SOL    HW1 6467   3.888   3.023   0.873
 1856SOL    HW2 6468   3.903   3.182   0.910
 1857SOL     OW 6469   3.931   1.469   6.808
 1857SOL    HW1 6470   3.863   1.542   6.817
 1857SOL    HW2 6471   3.921   1.405   6.883
 1858SOL     OW 6472   4.921   2.264   4.350
 1858SOL    HW1 6473   4.833   2.264   4.398
 1858SOL    HW2 6474   4.965   2.175   4.362
 1859SOL     OW 6475   6.787   1.747   4.319
 1859SOL    HW1 6476   6.835   1.790   4.395
 1859SOL    HW2 6477   6.706   1.700   4.353
 1860SOL     OW 6478   2.066   1.382   5.942
 1860SOL    HW1 6479   2.144   1.331   5.906
 1860SOL    HW2 6480   2.038   1.342   6.030
 1861SOL     OW 6481   6.900   6.541   3.852
 1861SOL    HW1 6482   6.944   6.611   3.795
 1861SOL    HW2 6483   6.937   6.545   3.945
 1862SOL     OW 6484   2.981   5.725   5.536
 1862SOL    HW1 6485   2.972   5.724   5.636
 1862SOL    HW2 6486   3.074   5.751   5.511
 1863SOL     OW 6487   0.126   2.634   0.350
 1863SOL    HW1 6488   0.098   2.566   0.418
 1863SOL    HW2 6489   0.206   2.601   0.300
 1864SOL     OW 6490   3.974   5.658   2.143
 1864SOL    HW1 6491   3.988   5.593   2.069
 1864SOL    HW2 6492   4.037   5.636   2.219
 1865SOL     OW 6493   5.932   2.059   5.378
 1865SOL    HW1 6494   6.012   2.000   5.369
 1865SOL    HW2 6495   5.920   2.112   5.294
 1866SOL     OW 6496   0.543   5.111   3.318
 1866SOL    HW1 6497   0.480   5.034   3.308
 1866SOL    HW2 6498   0.636   5.081   3.295
 1867SOL     OW 6499   1.047   2.410   1.487
 1867SOL    HW1 6500   1.113   2.482   1.468
 1867SOL    HW2 6501   0.959   2.435   1.447
 1868SOL     OW 6502   6.028   3.344   6.970
 1868SOL    HW1 6503   5.968   3.349   6.891
 1868SOL    HW2 6504   6.008   3.420   0.016
 1869SOL     OW 6505   4.817   0.914   4.359
 1869SOL    HW1 6506   4.812   0.982   4.286
 1869SOL    HW2 6507   4.773   0.829   4.328
 1870SOL     OW 6508   6.312   6.008   5.051
 1870SOL    HW1 6509   6.370   6.089   5.064
 1870SOL    HW2 6510   6.371   5.927   5.040
 1871SOL     OW 6511   0.300   6.325   0.233
 1871SOL    HW1 6512   0.218   6.371   0.200
 1871SOL    HW2 6513   0.277   6.233   0.265
 1872SOL     OW 6514   3.017   2.814   1.706
 1872SOL    HW1 6515   3.093   2.819   1.771
 1872SOL    HW2 6516   3.012   2.721   1.669
 1873SOL     OW 6517   6.465   1.457   0.905
 1873SOL    HW1 6518   6.370   1.432   0.884
 1873SOL    HW2 6519   6.514   1.473   0.820
 1874SOL     OW 6520   0.428   5.414   0.557
 1874SOL    HW1 6521   0.350   5.468   0.588
 1874SOL    HW2 6522   0.505   5.475   0.538
 1875SOL     OW 6523   6.566   5.383   0.747
 1875SOL    HW1 6524   6.632   5.348   0.813
 1875SOL    HW2 6525   6.482   5.330   0.751
 1876SOL     OW 6526   6.911   5.489   1.027
 1876SOL    HW1 6527   6.961   5.424   1.084
 1876SOL    HW2 6528   6.961   5.575   1.023
 1877SOL     OW 6529   1.135   1.685   2.247
 1877SOL    HW1 6530   1.082   1.605   2.219
 1877SOL    HW2 6531   1.163   1.674   2.342
 1878SOL     OW 6532   5.410   3.883   4.125
 1878SOL    HW1 6533   5.331   3.822   4.116
 1878SOL    HW2 6534   5.449   3.873   4.216
 1879SOL     OW 6535   4.696   5.909   4.392
 1879SOL    HW1 6536   4.755   5.828   4.394
 1879SOL    HW2 6537   4.716   5.962   4.310
 1880SOL     OW 6538   0.030   2.135   4.439
 1880SOL    HW1 6539   0.123   2.125   4.404
 1880SOL    HW2 6540   7.008   2.045   4.459
 1881SOL     OW 6541   1.669   1.649   4.041
 1881SOL    HW1 6542   1.590   1.629   3.983
 1881SOL    HW2 6543   1.729   1.714   3.994
 1882SOL     OW 6544   1.407   5.440   0.503
 1882SOL    HW1 6545   1.354   5.409   0.424
 1882SOL    HW2 6546   1.347   5.490   0.566
 1883SOL     OW 6547   1.437   2.682   2.926
 1883SOL    HW1 6548   1.518   2.704   2.873
 1883SOL    HW2 6549   1.398   2.596   2.893
 1884SOL     OW 6550   4.130   0.791   0.296
 1884SOL    HW1 6551   4.087   0.774   0.208
 1884SOL    HW2 6552   4.217   0.838   0.282
 1885SOL     OW 6553   6.941   1.731   0.938
 1885SOL    HW1 6554   7.010   1.788   0.893
 1885SOL    HW2 6555   6.985   1.652   0.979
 1886SOL     OW 6556   3.198   2.357   5.676
 1886SOL    HW1 6557   3.172   2.326   5.768
 1886SOL    HW2 6558   3.199   2.279   5.614
 1887SOL     OW 6559   0.893   6.687   5.144
 1887SOL    HW1 6560   0.920   6.692   5.048
 1887SOL    HW2 6561   0.891   6.778   5.184
 1888SOL     OW 6562   1.674   1.978   5.334
 1888SOL    HW1 6563   1.633   1.977   5.243
 1888SOL    HW2 6564   1.708   2.070   5.355
 1889SOL     OW 6565   3.614   2.929   6.861
 1889SOL    HW1 6566   3.673   2.856   6.898
 1889SOL    HW2 6567   3.566   2.894   6.780
 1890SOL     OW 6568   6.592   6.065   0.094
 1890SOL    HW1 6569   6.589   6.094   7.015
 1890SOL    HW2 6570   6.632   5.973   0.100
 1891SOL     OW 6571   5.393   3.561   6.188
 1891SOL    HW1 6572   5.472   3.555   6.249
 1891SOL    HW2 6573   5.358   3.469   6.169
 1892SOL     OW 6574   4.125   6.934   1.845
 1892SOL    HW1 6575   4.102   6.888   1.760
 1892SOL    HW2 6576   4.042   6.943   1.901
 1893SOL     OW 6577   3.051   1.585   4.916
 1893SOL    HW1 6578   2.967   1.638   4.906
 1893SOL    HW2 6579   3.063   1.525   4.837
 1894SOL     OW 6580   4.448   3.545   1.024
 1894SOL    HW1 6581   4.507   3.500   0.958
 1894SOL    HW2 6582   4.504   3.596   1.090
 1895SOL     OW 6583   4.284   0.391   3.320
 1895SOL    HW1 6584   4.381   0.367   3.311
 1895SOL    HW2 6585   4.276   0.483   3.357
 1896SOL     OW 6586   6.016   2.268   5.874
 1896SOL    HW1 6587   6.004   2.169   5.871
 1896SOL    HW2 6588   6.039   2.302   5.783
 1897SOL     OW 6589   5.622   5.054   3.590
 1897SOL    HW1 6590   5.585   5.003   3.512
 1897SOL    HW2 6591   5.599   5.151   3.580
 1898SOL     OW 6592   5.733   6.710   6.754
 1898SOL    HW1 6593   5.692   6.760   6.678
 1898SOL    HW2 6594   5.796   6.641   6.718
 1899SOL     OW 6595   1.379   1.888   3.246
 1899SOL    HW1 6596   1.434   1.956   3.197
 1899SOL    HW2 6597   1.287   1.924   3.260
 1900SOL     OW 6598   2.529   5.983   0.994
 1900SOL    HW1 6599   2.604   6.048   0.993
 1900SOL    HW2 6600   2.527   5.932   0.907
 1901SOL     OW 6601   1.503   1.585   6.211
 1901SOL    HW1 6602   1.424   1.539   6.171
 1901SOL    HW2 6603   1.575   1.593   6.142
 1902SOL     OW 6604   1.576   2.399   5.489
 1902SOL    HW1 6605   1.604   2.334   5.419
 1902SOL    HW2 6606   1.639   2.394   5.567
 1903SOL     OW 6607   6.559   4.563   3.976
 1903SOL    HW1 6608   6.590   4.468   3.972
 1903SOL    HW2 6609   6.474   4.573   3.926
 1904SOL     OW 6610   0.776   0.612   4.381
 1904SOL    HW1 6611   0.796   0.704   4.416
 1904SOL    HW2 6612   0.735   0.557   4.454
 1905SOL     OW 6613   6.468   3.249   4.323
 1905SOL    HW1 6614   6.377   3.209   4.310
 1905SOL    HW2 6615   6.497   3.293   4.238
 1906SOL     OW 6616   2.613   6.609   0.274
 1906SOL    HW1 6617   2.572   6.643   0.359
 1906SOL    HW2 6618   2.620   6.684   0.208
 1907SOL     OW 6619   3.385   6.077   3.198
 1907SOL    HW1 6620   3.352   5.983   3.193
 1907SOL    HW2 6621   3.344   6.123   3.277
 1908SOL     OW 6622   4.929   0.861   6.826
 1908SOL    HW1 6623   4.858   0.849   6.895
 1908SOL    HW2 6624   4.950   0.958   6.817
 1909SOL     OW 6625   4.170   5.098   4.639
 1909SOL    HW1 6626   4.187   5.004   4.610
 1909SOL    HW2 6627   4.239   5.125   4.707
 1910SOL     OW 6628   5.139   2.765   4.728
 1910SOL    HW1 6629   5.121   2.843   4.787
 1910SOL    HW2 6630   5.056   2.712   4.717
 1911SOL     OW 6631   0.102   3.720   6.294
 1911SOL    HW1 6632   0.054   3.640   6.258
 1911SOL    HW2 6633   0.156   3.693   6.374
 1912SOL     OW 6634   3.177   6.187   3.363
 1912SOL    HW1 6635   3.188   6.169   3.461
 1912SOL    HW2 6636   3.080   6.193   3.340
 1913SOL     OW 6637   1.391   4.441   5.275
 1913SOL    HW1 6638   1.414   4.528   5.231
 1913SOL    HW2 6639   1.416   4.446   5.372
 1914SOL     OW 6640   4.255   1.434   5.442
 1914SOL    HW1 6641   4.284   1.340   5.424
 1914SOL    HW2 6642   4.253   1.485   5.356
 1915SOL     OW 6643   3.672   0.553   5.312
 1915SOL    HW1 6644   3.746   0.548   5.244
 1915SOL    HW2 6645   3.693   0.625   5.377
 1916SOL     OW 6646   3.957   6.356   1.592
 1916SOL    HW1 6647   3.913   6.414   1.523
 1916SOL    HW2 6648   3.991   6.413   1.667
 1917SOL     OW 6649   3.752   3.224   4.307
 1917SOL    HW1 6650   3.777   3.131   4.277
 1917SOL    HW2 6651   3.833   3.271   4.342
 1918SOL     OW 6652   5.741   6.420   4.350
 1918SOL    HW1 6653   5.743   6.331   4.396
 1918SOL    HW2 6654   5.648   6.441   4.322
 1919SOL     OW 6655   6.561   6.707   2.075
 1919SOL    HW1 6656   6.603   6.739   2.159
 1919SOL    HW2 6657   6.584   6.610   2.060
 1920SOL     OW 6658   6.813   5.933   4.037
 1920SOL    HW1 6659   6.898   5.976   4.008
 1920SOL    HW2 6660   6.740   5.957   3.972
 1921SOL     OW 6661   1.065   0.097   6.166
 1921SOL    HW1 6662   0.992   0.142   6.217
 1921SOL    HW2 6663   1.145   0.086   6.225
 1922SOL     OW 6664   3.520   4.418   1.113
 1922SOL    HW1 6665   3.484   4.347   1.173
 1922SOL    HW2 6666   3.494   4.508   1.148
 1923SOL     OW 6667   2.031   2.242   0.604
 1923SOL    HW1 6668   2.059   2.338   0.602
 1923SOL    HW2 6669   2.076   2.192   0.530
 1924SOL     OW 6670   0.883   3.833   2.130
 1924SOL    HW1 6671   0.980   3.817   2.111
 1924SOL    HW2 6672   0.847   3.757   2.183
 1925SOL     OW 6673   3.351   4.025   0.378
 1925SOL    HW1 6674   3.450   4.021   0.362
 1925SOL    HW2 6675   3.317   4.116   0.356
 1926SOL     OW 6676   0.501   0.317   3.511
 1926SOL    HW1 6677   0.588   0.272   3.492
 1926SOL    HW2 6678   0.508   0.367   3.597
 1927SOL     OW 6679   4.005   3.706   0.203
 1927SOL    HW1 6680   4.069   3.682   0.277
 1927SOL    HW2 6681   4.008   3.805   0.188
 1928SOL     OW 6682   6.726   4.867   5.380
 1928SOL    HW1 6683   6.803   4.845   5.440
 1928SOL    HW2 6684   6.640   4.847   5.428
 1929SOL     OW 6685   1.549   6.954   3.109
 1929SOL    HW1 6686   1.468   7.004   3.080
 1929SOL    HW2 6687   1.573   6.886   3.040
 1930SOL     OW 6688   6.645   4.993   0.097
 1930SOL    HW1 6689   6.600   4.939   0.168
 1930SOL    HW2 6690   6.669   4.934   0.020
 1931SOL     OW 6691   0.794   2.519   5.271
 1931SOL    HW1 6692   0.709   2.557   5.234
 1931SOL    HW2 6693   0.870   2.543   5.211
 1932SOL     OW 6694   5.713   3.158   2.518
 1932SOL    HW1 6695   5.758   3.191   2.434
 1932SOL    HW2 6696   5.720   3.228   2.589
 1933SOL     OW 6697   2.699   4.359   1.422
 1933SOL    HW1 6698   2.637   4.437   1.423
 1933SOL    HW2 6699   2.737   4.345   1.513
 1934SOL     OW 6700   0.297   5.899   4.267
 1934SOL    HW1 6701   0.384   5.890   4.315
 1934SOL    HW2 6702   0.223   5.873   4.328
 1935SOL     OW 6703   2.581   0.670   3.964
 1935SOL    HW1 6704   2.537   0.740   4.021
 1935SOL    HW2 6705   2.584   0.702   3.869
 1936SOL     OW 6706   6.609   5.629   5.771
 1936SOL    HW1 6707   6.547   5.552   5.760
 1936SOL    HW2 6708   6.703   5.598   5.765
 1937SOL     OW 6709   4.157   6.923   2.486
 1937SOL    HW1 6710   4.110   6.960   2.566
 1937SOL    HW2 6711   4.109   6.950   2.402
 1938SOL     OW 6712   5.332   0.431   3.812
 1938SOL    HW1 6713   5.268   0.363   3.777
 1938SOL    HW2 6714   5.332   0.511   3.751
 1939SOL     OW 6715   2.465   0.276   3.242
 1939SOL    HW1 6716   2.479   0.278   3.341
 1939SOL    HW2 6717   2.553   0.288   3.196
 1940SOL     OW 6718   6.950   5.294   0.064
 1940SOL    HW1 6719   6.853   5.283   0.041
 1940SOL    HW2 6720   7.004   5.294   6.997
 1941SOL     OW 6721   4.900   5.110   3.139
 1941SOL    HW1 6722   4.998   5.099   3.157
 1941SOL    HW2 6723   4.887   5.152   3.049
 1942SOL     OW 6724   6.047   5.457   3.250
 1942SOL    HW1 6725   6.097   5.512   3.182
 1942SOL    HW2 6726   6.011   5.518   3.321
 1943SOL     OW 6727   3.180   5.494   2.826
 1943SOL    HW1 6728   3.164   5.544   2.742
 1943SOL    HW2 6729   3.176   5.396   2.807
 1944SOL     OW 6730   6.714   1.000   1.776
 1944SOL    HW1 6731   6.687   1.030   1.868
 1944SOL    HW2 6732   6.727   0.901   1.776
 1945SOL     OW 6733   2.909   5.165   4.263
 1945SOL    HW1 6734   2.886   5.086   4.207
 1945SOL    HW2 6735   2.844   5.172   4.339
 1946SOL     OW 6736   1.886   0.416   0.020
 1946SOL    HW1 6737   1.866   0.507   7.000
 1946SOL    HW2 6738   1.803   0.377   0.060
 1947SOL     OW 6739   5.457   6.482   4.258
 1947SOL    HW1 6740   5.361   6.477   4.231
 1947SOL    HW2 6741   5.465   6.525   4.348
 1948SOL     OW 6742   6.221   4.023   5.688
 1948SOL    HW1 6743   6.142   3.970   5.717
 1948SOL    HW2 6744   6.255   3.987   5.601
 1949SOL     OW 6745   5.420   4.118   6.598
 1949SOL    HW1 6746   5.398   4.210   6.564
 1949SOL    HW2 6747   5.335   4.066   6.609
 1950SOL     OW 6748   3.327   3.613   0.537
 1950SOL    HW1 6749   3.376   3.574   0.615
 1950SOL    HW2 6750   3.268   3.688   0.568
 1951SOL     OW 6751   6.764   2.153   6.872
 1951SOL    HW1 6752   6.728   2.129   6.781
 1951SOL    HW2 6753   6.789   2.069   6.920
 1952SOL     OW 6754   3.648   1.931   5.462
 1952SOL    HW1 6755   3.671   2.027   5.455
 1952SOL    HW2 6756   3.562   1.914   5.414
 1953SOL     OW 6757   0.208   3.572   5.637
 1953SOL    HW1 6758   0.294   3.609   5.672
 1953SOL    HW2 6759   0.225   3.485   5.592
 1954SOL     OW 6760   2.801   2.165   3.580
 1954SOL    HW1 6761   2.879   2.218   3.613
 1954SOL    HW2 6762   2.743   2.138   3.657
 1955SOL     OW 6763   6.552   5.602   2.694
 1955SOL    HW1 6764   6.636   5.649   2.721
 1955SOL    HW2 6765   6.478   5.669   2.683
 1956SOL     OW 6766   6.005   6.097   2.380
 1956SOL    HW1 6767   6.059   6.070   2.460
 1956SOL    HW2 6768   6.007   6.196   2.370
 1957SOL     OW 6769   0.865   6.927   5.279
 1957SOL    HW1 6770   0.779   6.967   5.247
 1957SOL    HW2 6771   0.898   6.978   5.358
 1958SOL     OW 6772   5.206   3.615   5.857
 1958SOL    HW1 6773   5.175   3.529   5.816
 1958SOL    HW2 6774   5.132   3.654   5.912
 1959SOL     OW 6775   1.419   2.250   6.163
 1959SOL    HW1 6776   1.515   2.228   6.180
 1959SOL    HW2 6777   1.362   2.172   6.191
 1960SOL     OW 6778   5.506   6.418   1.377
 1960SOL    HW1 6779   5.411   6.446   1.383
 1960SOL    HW2 6780   5.531   6.366   1.459
 1961SOL     OW 6781   5.855   4.866   4.017
 1961SOL    HW1 6782   5.792   4.873   3.940
 1961SOL    HW2 6783   5.873   4.958   4.053
 1962SOL     OW 6784   6.822   6.576   3.053
 1962SOL    HW1 6785   6.814   6.490   3.104
 1962SOL    HW2 6786   6.776   6.566   2.965
 1963SOL     OW 6787   1.860   0.187   2.646
 1963SOL    HW1 6788   1.879   0.271   2.697
 1963SOL    HW2 6789   1.899   0.194   2.554
 1964SOL     OW 6790   5.851   3.696   2.815
 1964SOL    HW1 6791   5.948   3.677   2.834
 1964SOL    HW2 6792   5.840   3.718   2.718
 1965SOL     OW 6793   2.257   5.152   3.802
 1965SOL    HW1 6794   2.234   5.121   3.710
 1965SOL    HW2 6795   2.351   5.188   3.803
 1966SOL     OW 6796   6.248   5.582   5.458
 1966SOL    HW1 6797   6.211   5.628   5.539
 1966SOL    HW2 6798   6.238   5.483   5.470
 1967SOL     OW 6799   4.629   2.223   4.957
 1967SOL    HW1 6800   4.706   2.208   5.019
 1967SOL    HW2 6801   4.589   2.313   4.975
 1968SOL     OW 6802   2.896   5.280   6.213
 1968SOL    HW1 6803   2.953   5.267   6.294
 1968SOL    HW2 6804   2.955   5.302   6.135
 1969SOL     OW 6805   6.523   2.663   1.217
 1969SOL    HW1 6806   6.590   2.684   1.145
 1969SOL    HW2 6807   6.519   2.740   1.281
 1970SOL     OW 6808   1.785   0.069   3.443
 1970SOL    HW1 6809   1.772   0.095   3.539
 1970SOL    HW2 6810   1.700   0.033   3.407
 1971SOL     OW 6811   0.434   6.290   6.540
 1971SOL    HW1 6812   0.438   6.360   6.611
 1971SOL    HW2 6813   0.343   6.292   6.497
 1972SOL     OW 6814   0.948   4.987   3.614
 1972SOL    HW1 6815   0.856   4.954   3.591
 1972SOL    HW2 6816   0.948   5.025   3.706
 1973SOL     OW 6817   2.662   2.939   0.640
 1973SOL    HW1 6818   2.692   2.854   0.683
 1973SOL    HW2 6819   2.574   2.925   0.595
 1974SOL     OW 6820   5.663   0.676   4.465
 1974SOL    HW1 6821   5.628   0.622   4.542
 1974SOL    HW2 6822   5.589   0.693   4.400
 1975SOL     OW 6823   3.610   0.564   3.267
 1975SOL    HW1 6824   3.540   0.624   3.308
 1975SOL    HW2 6825   3.665   0.617   3.202
 1976SOL     OW 6826   7.006   4.952   0.307
 1976SOL    HW1 6827   0.060   4.904   0.256
 1976SOL    HW2 6828   0.026   5.037   0.343
 1977SOL     OW 6829   1.903   2.747   5.109
 1977SOL    HW1 6830   1.834   2.772   5.177
 1977SOL    HW2 6831   1.991   2.785   5.135
 1978SOL     OW 6832   6.827   1.570   4.707
 1978SOL    HW1 6833   6.816   1.602   4.801
 1978SOL    HW2 6834   6.889   1.632   4.658
 1979SOL     OW 6835   5.681   4.912   3.821
 1979SOL    HW1 6836   5.625   4.832   3.843
 1979SOL    HW2 6837   5.636   4.965   3.749
 1980SOL     OW 6838   4.262   0.139   1.328
 1980SOL    HW1 6839   4.245   0.204   1.402
 1980SOL    HW2 6840   4.176   0.116   1.283
 1981SOL     OW 6841   4.674   3.063   1.630
 1981SOL    HW1 6842   4.684   3.040   1.727
 1981SOL    HW2 6843   4.595   3.015   1.592
 1982SOL     OW 6844   5.584   6.472   4.907
 1982SOL    HW1 6845   5.664   6.491   4.963
 1982SOL    HW2 6846   5.527   6.555   4.902
 1983SOL     OW 6847   0.587   3.730   3.352
 1983SOL    HW1 6848   0.517   3.800   3.337
 1983SOL    HW2 6849   0.676   3.774   3.359
 1984SOL     OW 6850   4.330   0.378   5.778
 1984SOL    HW1 6851   4.378   0.452   5.827
 1984SOL    HW2 6852   4.233   0.381   5.802
 1985SOL     OW 6853   1.372   0.774   1.609
 1985SOL    HW1 6854   1.358   0.776   1.708
 1985SOL    HW2 6855   1.467   0.795   1.588
 1986SOL     OW 6856   1.264   1.462   6.128
 1986SOL    HW1 6857   1.232   1.503   6.042
 1986SOL    HW2 6858   1.245   1.364   6.127
 1987SOL     OW 6859   3.148   3.012   6.740
 1987SOL    HW1 6860   3.093   2.979   6.663
 1987SOL    HW2 6861   3.088   3.054   6.808
 1988SOL     OW 6862   4.543   3.133   0.778
 1988SOL    HW1 6863   4.444   3.124   0.786
 1988SOL    HW2 6864   4.587   3.055   0.822
 1989SOL     OW 6865   2.551   0.175   4.090
 1989SOL    HW1 6866   2.465   0.140   4.052
 1989SOL    HW2 6867   2.599   0.228   4.020
 1990SOL     OW 6868   2.426   0.663   1.971
 1990SOL    HW1 6869   2.424   0.753   1.925
 1990SOL    HW2 6870   2.517   0.648   2.009
 1991SOL     OW 6871   3.491   5.499   4.833
 1991SOL    HW1 6872   3.395   5.525   4.841
 1991SOL    HW2 6873   3.538   5.562   4.771
 1992SOL     OW 6874   1.951   6.600   5.305
 1992SOL    HW1 6875   2.023   6.531   5.305
 1992SOL    HW2 6876   1.866   6.561   5.270
 1993SOL     OW 6877   3.620   3.318   5.261
 1993SOL    HW1 6878   3.657   3.304   5.168
 1993SOL    HW2 6879   3.598   3.414   5.274
 1994SOL     OW 6880   6.215   2.534   2.025
 1994SOL    HW1 6881   6.312   2.524   2.046
 1994SOL    HW2 6882   6.200   2.515   1.928
 1995SOL     OW 6883   5.304   2.338   1.691
 1995SOL    HW1 6884   5.383   2.392   1.720
 1995SOL    HW2 6885   5.257   2.301   1.771
 1996SOL     OW 6886   3.123   4.175   6.981
 1996SOL    HW1 6887   3.136   4.265   6.938
 1996SOL    HW2 6888   3.210   4.128   6.988
 1997SOL     OW 6889   5.524   0.894   3.611
 1997SOL    HW1 6890   5.424   0.891   3.617
 1997SOL    HW2 6891   5.562   0.911   3.702
 1998SOL     OW 6892   2.910   4.854   5.162
 1998SOL    HW1 6893   2.958   4.842   5.249
 1998SOL    HW2 6894   2.891   4.764   5.123
 1999SOL     OW 6895   2.050   1.070   2.016
 1999SOL    HW1 6896   1.992   1.005   2.065
 1999SOL    HW2 6897   2.137   1.028   1.993
 2000SOL     OW 6898   3.743   2.139   5.108
 2000SOL    HW1 6899   3.718   2.052   5.066
 2000SOL    HW2 6900   3.837   2.164   5.082
 2001SOL     OW 6901   2.728   2.711   0.775
 2001SOL    HW1 6902   2.804   2.655   0.809
 2001SOL    HW2 6903   2.643   2.659   0.782
 2002SOL     OW 6904   1.580   4.986   4.846
 2002SOL    HW1 6905   1.617   4.997   4.939
 2002SOL    HW2 6906   1.516   4.909   4.845
 2003SOL     OW 6907   6.433   5.717   3.816
 2003SOL    HW1 6908   6.488   5.800   3.805
 2003SOL    HW2 6909   6.373   5.706   3.737
 2004SOL     OW 6910   2.847   0.813   5.647
 2004SOL    HW1 6911   2.887   0.738   5.593
 2004SOL    HW2 6912   2.799   0.774   5.726
 2005SOL     OW 6913   2.417   6.231   6.065
 2005SOL    HW1 6914   2.473   6.301   6.020
 2005SOL    HW2 6915   2.395   6.159   6.000
 2006SOL     OW 6916   3.844   4.970   4.031
 2006SOL    HW1 6917   3.746   4.950   4.023
 2006SOL    HW2 6918   3.875   4.942   4.122
 2007SOL     OW 6919   5.793   5.981   0.620
 2007SOL    HW1 6920   5.741   5.937   0.693
 2007SOL    HW2 6921   5.890   5.983   0.644
 2008SOL     OW 6922   0.533   5.743   4.048
 2008SOL    HW1 6923   0.622   5.783   4.024
 2008SOL    HW2 6924   0.508   5.771   4.140
 2009SOL     OW 6925   0.262   0.189   1.942
 2009SOL    HW1 6926   0.297   0.282   1.932
 2009SOL    HW2 6927   0.338   0.127   1.962
 2010SOL     OW 6928   1.537   0.400   0.587
 2010SOL    HW1 6929   1.544   0.429   0.491
 2010SOL    HW2 6930   1.465   0.453   0.632
 2011SOL     OW 6931   6.992   1.965   5.236
 2011SOL    HW1 6932   7.007   1.999   5.329
 2011SOL    HW2 6933   0.062   1.937   5.196
 2012SOL     OW 6934   1.133   3.679   1.201
 2012SOL    HW1 6935   1.121   3.601   1.263
 2012SOL    HW2 6936   1.231   3.700   1.194
 2013SOL     OW 6937   4.897   1.562   2.280
 2013SOL    HW1 6938   4.959   1.591   2.353
 2013SOL    HW2 6939   4.875   1.640   2.222
 2014SOL     OW 6940   2.447   5.692   2.481
 2014SOL    HW1 6941   2.443   5.790   2.502
 2014SOL    HW2 6942   2.370   5.646   2.524
 2015SOL     OW 6943   3.564   6.958   6.737
 2015SOL    HW1 6944   3.651   6.924   6.702
 2015SOL    HW2 6945   3.497   6.963   6.663
 2016SOL     OW 6946   0.231   5.234   4.641
 2016SOL    HW1 6947   0.190   5.264   4.555
 2016SOL    HW2 6948   0.205   5.140   4.660
 2017SOL     OW 6949   3.206   5.858   2.713
 2017SOL    HW1 6950   3.117   5.885   2.675
 2017SOL    HW2 6951   3.227   5.764   2.687
 2018SOL     OW 6952   0.859   5.583   5.754
 2018SOL    HW1 6953   0.815   5.655   5.702
 2018SOL    HW2 6954   0.937   5.621   5.804
 2019SOL     OW 6955   6.038   1.742   2.437
 2019SOL    HW1 6956   5.949   1.728   2.394
 2019SOL    HW2 6957   6.102   1.782   2.370
 2020SOL     OW 6958   2.808   6.033   2.966
 2020SOL    HW1 6959   2.864   6.034   2.883
 2020SOL    HW2 6960   2.784   5.939   2.989
 2021SOL     OW 6961   1.227   0.388   2.126
 2021SOL    HW1 6962   1.166   0.363   2.051
 2021SOL    HW2 6963   1.175   0.396   2.210
 2022SOL     OW 6964   1.943   3.816   1.748
 2022SOL    HW1 6965   1.988   3.746   1.692
 2022SOL    HW2 6966   1.967   3.802   1.844
 2023SOL     OW 6967   6.742   1.001   5.612
 2023SOL    HW1 6968   6.692   0.971   5.531
 2023SOL    HW2 6969   6.683   0.994   5.693
 2024SOL     OW 6970   5.835   0.999   3.503
 2024SOL    HW1 6971   5.882   0.942   3.571
 2024SOL    HW2 6972   5.772   0.942   3.451
 2025SOL     OW 6973   6.912   1.320   1.387
 2025SOL    HW1 6974   6.954   1.317   1.477
 2025SOL    HW2 6975   6.850   1.241   1.377
 2026SOL     OW 6976   1.908   1.594   5.593
 2026SOL    HW1 6977   1.862   1.601   5.504
 2026SOL    HW2 6978   2.003   1.568   5.580
 2027SOL     OW 6979   0.959   1.394   3.078
 2027SOL    HW1 6980   1.003   1.361   3.161
 2027SOL    HW2 6981   0.864   1.361   3.075
 2028SOL     OW 6982   4.318   2.993   6.945
 2028SOL    HW1 6983   4.279   3.080   6.976
 2028SOL    HW2 6984   4.279   2.970   6.856
 2029SOL     OW 6985   1.133   0.751   0.326
 2029SOL    HW1 6986   1.068   0.705   0.265
 2029SOL    HW2 6987   1.087   0.827   0.371
 2030SOL     OW 6988   1.898   1.113   3.292
 2030SOL    HW1 6989   1.875   1.043   3.360
 2030SOL    HW2 6990   1.875   1.079   3.200
 2031SOL     OW 6991   5.725   6.874   2.166
 2031SOL    HW1 6992   5.723   6.827   2.078
 2031SOL    HW2 6993   5.735   6.807   2.239
 2032SOL     OW 6994   5.179   6.751   1.422
 2032SOL    HW1 6995   5.227   6.773   1.336
 2032SOL    HW2 6996   5.246   6.739   1.495
 2033SOL     OW 6997   5.998   5.296   6.764
 2033SOL    HW1 6998   6.044   5.372   6.718
 2033SOL    HW2 6999   5.983   5.318   6.860
 2034SOL     OW 7000   2.073   6.992   2.452
 2034SOL    HW1 7001   2.031   6.931   2.520
 2034SOL    HW2 7002   2.101   0.060   2.497
 2035SOL     OW 7003   1.322   2.808   2.448
 2035SOL    HW1 7004   1.250   2.769   2.389
 2035SOL    HW2 7005   1.291   2.897   2.483
 2036SOL     OW 7006   1.982   4.515   0.700
 2036SOL    HW1 7007   1.892   4.522   0.742
 2036SOL    HW2 7008   2.021   4.426   0.720
 2037SOL     OW 7009   0.213   1.317   6.085
 2037SOL    HW1 7010   0.167   1.316   6.174
 2037SOL    HW2 7011   0.254   1.407   6.070
 2038SOL     OW 7012   0.927   0.696   3.987
 2038SOL    HW1 7013   0.892   0.785   4.015
 2038SOL    HW2 7014   0.851   0.633   3.973
 2039SOL     OW 7015   0.584   5.474   2.431
 2039SOL    HW1 7016   0.629   5.548   2.482
 2039SOL    HW2 7017   0.495   5.454   2.474
 2040SOL     OW 7018   4.178   3.428   4.602
 2040SOL    HW1 7019   4.115   3.387   4.668
 2040SOL    HW2 7020   4.245   3.359   4.573
 2041SOL     OW 7021   6.339   4.332   5.820
 2041SOL    HW1 7022   6.378   4.423   5.835
 2041SOL    HW2 7023   6.301   4.298   5.906
 2042SOL     OW 7024   4.234   5.252   6.716
 2042SOL    HW1 7025   4.281   5.323   6.663
 2042SOL    HW2 7026   4.285   5.166   6.707
 2043SOL     OW 7027   5.488   4.728   1.804
 2043SOL    HW1 7028   5.512   4.824   1.806
 2043SOL    HW2 7029   5.422   4.711   1.730
 2044SOL     OW 7030   6.485   0.177   2.075
 2044SOL    HW1 7031   6.427   0.172   2.156
 2044SOL    HW2 7032   6.458   0.106   2.010
 2045SOL     OW 7033   2.032   5.202   5.931
 2045SOL    HW1 7034   2.071   5.157   5.851
 2045SOL    HW2 7035   1.993   5.291   5.904
 2046SOL     OW 7036   6.502   6.969   5.003
 2046SOL    HW1 7037   6.520   7.003   4.911
 2046SOL    HW2 7038   6.500   6.869   5.002
 2047SOL     OW 7039   5.761   2.469   0.402
 2047SOL    HW1 7040   5.693   2.541   0.411
 2047SOL    HW2 7041   5.846   2.496   0.447
 2048SOL     OW 7042   4.755   6.938   5.636
 2048SOL    HW1 7043   4.704   6.869   5.688
 2048SOL    HW2 7044   4.817   6.987   5.698
 2049SOL     OW 7045   4.788   0.434   0.313
 2049SOL    HW1 7046   4.748   0.475   0.395
 2049SOL    HW2 7047   4.774   0.335   0.315
 2050SOL     OW 7048   5.350   2.311   4.001
 2050SOL    HW1 7049   5.267   2.332   4.051
 2050SOL    HW2 7050   5.334   2.321   3.903
 2051SOL     OW 7051   1.719   5.558   0.713
 2051SOL    HW1 7052   1.815   5.569   0.738
 2051SOL    HW2 7053   1.707   5.578   0.616
 2052SOL     OW 7054   0.967   3.001   0.903
 2052SOL    HW1 7055   0.873   3.010   0.936
 2052SOL    HW2 7056   0.972   3.030   0.808
 2053SOL     OW 7057   5.880   0.773   0.353
 2053SOL    HW1 7058   5.930   0.769   0.439
 2053SOL    HW2 7059   5.940   0.808   0.281
 2054SOL     OW 7060   6.091   2.524   0.833
 2054SOL    HW1 7061   6.075   2.617   0.867
 2054SOL    HW2 7062   6.014   2.466   0.858
 2055SOL     OW 7063   5.357   2.617   4.149
 2055SOL    HW1 7064   5.387   2.604   4.244
 2055SOL    HW2 7065   5.258   2.600   4.143
 2056SOL     OW 7066   1.983   0.708   3.416
 2056SOL    HW1 7067   1.973   0.786   3.354
 2056SOL    HW2 7068   1.903   0.700   3.474
 2057SOL     OW 7069   0.039   3.226   4.002
 2057SOL    HW1 7070   7.014   3.273   3.923
 2057SOL    HW2 7071   0.105   3.287   4.045
 2058SOL     OW 7072   6.635   2.492   2.406
 2058SOL    HW1 7073   6.712   2.489   2.470
 2058SOL    HW2 7074   6.568   2.422   2.432
 2059SOL     OW 7075   1.728   1.453   6.895
 2059SOL    HW1 7076   1.759   1.531   6.950
 2059SOL    HW2 7077   1.805   1.418   6.841
 2060SOL     OW 7078   0.816   5.353   2.471
 2060SOL    HW1 7079   0.726   5.382   2.439
 2060SOL    HW2 7080   0.837   5.399   2.557
 2061SOL     OW 7081   6.435   1.774   1.705
 2061SOL    HW1 7082   6.393   1.766   1.614
 2061SOL    HW2 7083   6.397   1.703   1.765
 2062SOL     OW 7084   4.641   0.563   3.192
 2062SOL    HW1 7085   4.647   0.470   3.228
 2062SOL    HW2 7086   4.560   0.572   3.134
 2063SOL     OW 7087   2.089   2.694   6.244
 2063SOL    HW1 7088   2.036   2.624   6.293
 2063SOL    HW2 7089   2.049   2.784   6.263
 2064SOL     OW 7090   1.082   2.782   0.344
 2064SOL    HW1 7091   0.995   2.733   0.357
 2064SOL    HW2 7092   1.139   2.734   0.278
 2065SOL     OW 7093   6.085   4.043   1.288
 2065SOL    HW1 7094   6.041   4.059   1.377
 2065SOL    HW2 7095   6.066   3.950   1.258
 2066SOL     OW 7096   0.985   7.006   4.313
 2066SOL    HW1 7097   1.074   6.995   4.270
 2066SOL    HW2 7098   0.966   0.087   4.325
 2067SOL     OW 7099   6.547   0.171   1.525
 2067SOL    HW1 7100   6.587   0.118   1.599
 2067SOL    HW2 7101   6.563   0.269   1.542
 2068SOL     OW 7102   1.755   1.675   5.370
 2068SOL    HW1 7103   1.684   1.605   5.379
 2068SOL    HW2 7104   1.720   1.752   5.317
 2069SOL     OW 7105   0.648   2.440   2.039
 2069SOL    HW1 7106   0.724   2.454   2.103
 2069SOL    HW2 7107   0.665   2.357   1.986
 2070SOL     OW 7108   1.141   0.844   2.791
 2070SOL    HW1 7109   1.125   0.926   2.846
 2070SOL    HW2 7110   1.209   0.864   2.720
 2071SOL     OW 7111   1.250   6.950   4.232
 2071SOL    HW1 7112   1.287   0.016   4.189
 2071SOL    HW2 7113   1.323   6.904   4.283
 2072SOL     OW 7114   4.888   5.449   1.500
 2072SOL    HW1 7115   4.876   5.509   1.420
 2072SOL    HW2 7116   4.918   5.503   1.578
 2073SOL     OW 7117   2.613   6.565   6.119
 2073SOL    HW1 7118   2.590   6.541   6.214
 2073SOL    HW2 7119   2.712   6.581   6.112
 2074SOL     OW 7120   5.823   1.670   1.962
 2074SOL    HW1 7121   5.800   1.766   1.946
 2074SOL    HW2 7122   5.839   1.625   1.874
 2075SOL     OW 7123   4.797   3.204   0.452
 2075SOL    HW1 7124   4.700   3.208   0.477
 2075SOL    HW2 7125   4.827   3.109   0.450
 2076SOL     OW 7126   5.202   0.117   1.161
 2076SOL    HW1 7127   5.291   0.083   1.132
 2076SOL    HW2 7128   5.165   0.059   1.234
 2077SOL     OW 7129   5.478   1.309   2.859
 2077SOL    HW1 7130   5.484   1.405   2.885
 2077SOL    HW2 7131   5.529   1.253   2.924
 2078SOL     OW 7132   3.147   5.095   5.786
 2078SOL    HW1 7133   3.224   5.062   5.731
 2078SOL    HW2 7134   3.146   5.047   5.874
 2079SOL     OW 7135   5.571   1.007   3.849
 2079SOL    HW1 7136   5.666   0.990   3.877
 2079SOL    HW2 7137   5.545   1.100   3.872
 2080SOL     OW 7138   2.496   2.537   4.415
 2080SOL    HW1 7139   2.583   2.488   4.417
 2080SOL    HW2 7140   2.471   2.565   4.508
 2081SOL     OW 7141   0.421   6.683   5.527
 2081SOL    HW1 7142   0.349   6.653   5.589
 2081SOL    HW2 7143   0.388   6.682   5.433
 2082SOL     OW 7144   5.420   0.797   1.593
 2082SOL    HW1 7145   5.366   0.856   1.653
 2082SOL    HW2 7146   5.374   0.708   1.583
 2083SOL     OW 7147   3.719   5.109   6.293
 2083SOL    HW1 7148   3.725   5.128   6.391
 2083SOL    HW2 7149   3.718   5.195   6.242
 2084SOL     OW 7150   0.216   2.808   3.404
 2084SOL    HW1 7151   0.217   2.836   3.307
 2084SOL    HW2 7152   0.123   2.817   3.439
 2085SOL     OW 7153   5.292   0.610   5.940
 2085SOL    HW1 7154   5.291   0.545   6.016
 2085SOL    HW2 7155   5.386   0.632   5.916
 2086SOL     OW 7156   2.949   5.059   0.778
 2086SOL    HW1 7157   2.904   5.093   0.695
 2086SOL    HW2 7158   2.880   5.042   0.849
 2087SOL     OW 7159   5.092   6.847   3.723
 2087SOL    HW1 7160   5.114   6.892   3.637
 2087SOL    HW2 7161   5.083   6.749   3.708
 2088SOL     OW 7162   3.500   0.258   0.665
 2088SOL    HW1 7163   3.402   0.245   0.681
 2088SOL    HW2 7164   3.536   0.322   0.733
 2089SOL     OW 7165   4.308   0.459   6.769
 2089SOL    HW1 7166   4.374   0.486   6.839
 2089SOL    HW2 7167   4.284   0.539   6.714
 2090SOL     OW 7168   3.770   3.372   4.724
 2090SOL    HW1 7169   3.762   3.419   4.636
 2090SOL    HW2 7170   3.866   3.346   4.739
 2091SOL     OW 7171   2.117   4.837   1.505
 2091SOL    HW1 7172   2.134   4.739   1.512
 2091SOL    HW2 7173   2.033   4.853   1.452
 2092SOL     OW 7174   6.745   6.504   1.005
 2092SOL    HW1 7175   6.773   6.494   1.101
 2092SOL    HW2 7176   6.733   6.601   0.984
 2093SOL     OW 7177   0.960   2.666   1.617
 2093SOL    HW1 7178   0.939   2.665   1.715
 2093SOL    HW2 7179   1.058   2.684   1.605
 2094SOL     OW 7180   5.810   0.102   2.257
 2094SOL    HW1 7181   5.737   0.144   2.311
 2094SOL    HW2 7182   5.787   0.006   2.239
 2095SOL     OW 7183   5.760   5.416   4.923
 2095SOL    HW1 7184   5.836   5.475   4.896
 2095SOL    HW2 7185   5.769   5.389   5.019
 2096SOL     OW 7186   4.943   3.902   2.667
 2096SOL    HW1 7187   4.985   3.811   2.659
 2096SOL    HW2 7188   4.910   3.915   2.760
 2097SOL     OW 7189   0.143   2.339   6.942
 2097SOL    HW1 7190   0.095   2.424   6.960
 2097SOL    HW2 7191   0.239   2.348   6.970
 2098SOL     OW 7192   4.658   0.102   4.321
 2098SOL    HW1 7193   4.668   0.010   4.283
 2098SOL    HW2 7194   4.642   0.167   4.247
 2099SOL     OW 7195   3.194   1.480   4.366
 2099SOL    HW1 7196   3.209   1.426   4.448
 2099SOL    HW2 7197   3.096   1.490   4.349
 2100SOL     OW 7198   4.502   4.011   6.368
 2100SOL    HW1 7199   4.518   3.998   6.270
 2100SOL    HW2 7200   4.587   4.036   6.413
 2101SOL     OW 7201   0.442   6.924   3.545
 2101SOL    HW1 7202   0.348   6.960   3.546
 2101SOL    HW2 7203   0.479   6.929   3.452
 2102SOL     OW 7204   0.089   5.126   2.992
 2102SOL    HW1 7205   0.031   5.110   2.912
 2102SOL    HW2 7206   0.176   5.077   2.980
 2103SOL     OW 7207   3.447   3.671   6.225
 2103SOL    HW1 7208   3.464   3.766   6.253
 2103SOL    HW2 7209   3.380   3.669   6.151
 2104SOL     OW 7210   1.600   3.275   5.730
 2104SOL    HW1 7211   1.539   3.313   5.660
 2104SOL    HW2 7212   1.675   3.226   5.686
 2105SOL     OW 7213   5.847   5.745   1.543
 2105SOL    HW1 7214   5.850   5.814   1.615
 2105SOL    HW2 7215   5.890   5.781   1.460
 2106SOL     OW 7216   4.796   5.506   6.847
 2106SOL    HW1 7217   4.865   5.462   6.789
 2106SOL    HW2 7218   4.740   5.436   6.891
 2107SOL     OW 7219   4.163   4.373   6.048
 2107SOL    HW1 7220   4.211   4.297   6.093
 2107SOL    HW2 7221   4.222   4.410   5.976
 2108SOL     OW 7222   5.771   4.924   6.056
 2108SOL    HW1 7223   5.692   4.877   6.093
 2108SOL    HW2 7224   5.855   4.877   6.084
 2109SOL     OW 7225   5.841   6.428   2.604
 2109SOL    HW1 7226   5.875   6.471   2.520
 2109SOL    HW2 7227   5.916   6.416   2.668
 2110SOL     OW 7228   2.519   4.411   6.329
 2110SOL    HW1 7229   2.466   4.343   6.380
 2110SOL    HW2 7230   2.459   4.486   6.302
 2111SOL     OW 7231   1.388   2.884   0.077
 2111SOL    HW1 7232   1.313   2.948   0.060
 2111SOL    HW2 7233   1.458   2.928   0.132
 2112SOL     OW 7234   4.897   2.993   1.509
 2112SOL    HW1 7235   4.913   2.900   1.540
 2112SOL    HW2 7236   4.805   3.022   1.538
 2113SOL     OW 7237   0.615   0.517   2.956
 2113SOL    HW1 7238   0.559   0.600   2.951
 2113SOL    HW2 7239   0.565   0.446   3.005
 2114SOL     OW 7240   2.284   3.657   0.042
 2114SOL    HW1 7241   2.187   3.638   0.058
 2114SOL    HW2 7242   2.326   3.578   7.014
 2115SOL     OW 7243   2.349   4.826   2.434
 2115SOL    HW1 7244   2.429   4.880   2.460
 2115SOL    HW2 7245   2.361   4.791   2.341
 2116SOL     OW 7246   0.426   4.321   3.329
 2116SOL    HW1 7247   0.488   4.396   3.352
 2116SOL    HW2 7248   0.360   4.309   3.403
 2117SOL     OW 7249   0.249   4.704   0.927
 2117SOL    HW1 7250   0.269   4.666   0.837
 2117SOL    HW2 7251   0.305   4.660   0.996
 2118SOL     OW 7252   0.136   3.921   2.075
 2118SOL    HW1 7253   0.198   3.984   2.121
 2118SOL    HW2 7254   0.051   3.913   2.128
 2119SOL     OW 7255   2.579   6.150   1.393
 2119SOL    HW1 7256   2.679   6.158   1.387
 2119SOL    HW2 7257   2.549   6.074   1.336
 2120SOL     OW 7258   6.524   4.648   2.214
 2120SOL    HW1 7259   6.509   4.709   2.292
 2120SOL    HW2 7260   6.622   4.627   2.205
 2121SOL     OW 7261   0.286   5.701   4.882
 2121SOL    HW1 7262   0.207   5.762   4.873
 2121SOL    HW2 7263   0.325   5.711   4.973
 2122SOL     OW 7264   4.578   4.389   4.871
 2122SOL    HW1 7265   4.654   4.453   4.863
 2122SOL    HW2 7266   4.505   4.431   4.925
 2123SOL     OW 7267   6.393   4.319   3.062
 2123SOL    HW1 7268   6.322   4.356   3.001
 2123SOL    HW2 7269   6.448   4.394   3.097
 2124SOL     OW 7270   2.190   2.120   0.792
 2124SOL    HW1 7271   2.137   2.177   0.728
 2124SOL    HW2 7272   2.274   2.091   0.748
 2125SOL     OW 7273   3.008   0.197   0.682
 2125SOL    HW1 7274   2.968   0.174   0.593
 2125SOL    HW2 7275   2.937   0.234   0.742
 2126SOL     OW 7276   2.659   0.841   6.797
 2126SOL    HW1 7277   2.726   0.769   6.786
 2126SOL    HW2 7278   2.568   0.807   6.771
 2127SOL     OW 7279   5.781   3.041   4.458
 2127SOL    HW1 7280   5.762   3.135   4.486
 2127SOL    HW2 7281   5.861   3.039   4.398
 2128SOL     OW 7282   0.528   4.870   3.870
 2128SOL    HW1 7283   0.592   4.794   3.864
 2128SOL    HW2 7284   0.434   4.835   3.865
 2129SOL     OW 7285   4.119   1.575   5.670
 2129SOL    HW1 7286   4.116   1.623   5.758
 2129SOL    HW2 7287   4.214   1.568   5.640
 2130SOL     OW 7288   4.216   6.519   2.268
 2130SOL    HW1 7289   4.241   6.553   2.359
 2130SOL    HW2 7290   4.300   6.497   2.218
 2131SOL     OW 7291   6.948   1.552   0.131
 2131SOL    HW1 7292   6.969   1.527   0.037
 2131SOL    HW2 7293   0.017   1.570   0.180
 2132SOL     OW 7294   1.850   3.267   0.547
 2132SOL    HW1 7295   1.812   3.186   0.592
 2132SOL    HW2 7296   1.894   3.240   0.461
 2133SOL     OW 7297   2.611   2.763   6.017
 2133SOL    HW1 7298   2.529   2.707   6.026
 2133SOL    HW2 7299   2.691   2.704   6.008
 2134SOL     OW 7300   1.198   0.507   0.465
 2134SOL    HW1 7301   1.188   0.597   0.424
 2134SOL    HW2 7302   1.225   0.441   0.394
 2135SOL     OW 7303   0.560   3.725   4.045
 2135SOL    HW1 7304   0.597   3.697   3.957
 2135SOL    HW2 7305   0.497   3.654   4.078
 2136SOL     OW 7306   2.214   5.785   1.677
 2136SOL    HW1 7307   2.257   5.838   1.750
 2136SOL    HW2 7308   2.197   5.692   1.709
 2137SOL     OW 7309   2.525   6.102   4.012
 2137SOL    HW1 7310   2.460   6.054   3.952
 2137SOL    HW2 7311   2.477   6.176   4.060
 2138SOL     OW 7312   5.569   1.890   2.541
 2138SOL    HW1 7313   5.625   1.969   2.516
 2138SOL    HW2 7314   5.621   1.806   2.527
 2139SOL     OW 7315   2.922   1.298   5.372
 2139SOL    HW1 7316   2.948   1.350   5.453
 2139SOL    HW2 7317   2.965   1.208   5.374
 2140SOL     OW 7318   2.338   1.511   5.289
 2140SOL    HW1 7319   2.353   1.412   5.284
 2140SOL    HW2 7320   2.424   1.558   5.267
 2141SOL     OW 7321   6.288   4.405   2.452
 2141SOL    HW1 7322   6.225   4.478   2.478
 2141SOL    HW2 7323   6.315   4.416   2.356
 2142SOL     OW 7324   2.080   1.315   3.263
 2142SOL    HW1 7325   2.013   1.373   3.218
 2142SOL    HW2 7326   2.034   1.237   3.305
 2143SOL     OW 7327   1.713   4.549   0.708
 2143SOL    HW1 7328   1.652   4.568   0.631
 2143SOL    HW2 7329   1.676   4.590   0.791
 2144SOL     OW 7330   6.451   6.096   4.199
 2144SOL    HW1 7331   6.353   6.107   4.217
 2144SOL    HW2 7332   6.473   5.998   4.192
 2145SOL     OW 7333   4.249   7.013   3.756
 2145SOL    HW1 7334   4.340   0.019   3.791
 2145SOL    HW2 7335   4.214   0.071   3.700
 2146SOL     OW 7336   1.966   3.198   0.993
 2146SOL    HW1 7337   1.970   3.200   0.894
 2146SOL    HW2 7338   1.937   3.107   1.024
 2147SOL     OW 7339   5.432   1.325   5.218
 2147SOL    HW1 7340   5.430   1.321   5.318
 2147SOL    HW2 7341   5.342   1.350   5.184
 2148SOL     OW 7342   0.302   3.054   6.855
 2148SOL    HW1 7343   0.219   3.060   6.911
 2148SOL    HW2 7344   0.381   3.045   6.915
 2149SOL     OW 7345   0.563   0.498   6.819
 2149SOL    HW1 7346   0.475   0.515   6.863
 2149SOL    HW2 7347   0.595   0.581   6.774
 2150SOL     OW 7348   2.239   3.319   1.523
 2150SOL    HW1 7349   2.327   3.365   1.518
 2150SOL    HW2 7350   2.179   3.354   1.451
 2151SOL     OW 7351   1.405   5.648   0.207
 2151SOL    HW1 7352   1.360   5.560   0.194
 2151SOL    HW2 7353   1.441   5.680   0.120
 2152SOL     OW 7354   3.899   6.102   3.634
 2152SOL    HW1 7355   3.836   6.159   3.581
 2152SOL    HW2 7356   3.850   6.024   3.672
 2153SOL     OW 7357   4.907   1.147   3.887
 2153SOL    HW1 7358   4.920   1.077   3.817
 2153SOL    HW2 7359   4.885   1.234   3.844
 2154SOL     OW 7360   3.003   6.793   2.993
 2154SOL    HW1 7361   2.943   6.870   2.971
 2154SOL    HW2 7362   3.083   6.827   3.042
 2155SOL     OW 7363   4.855   6.761   1.155
 2155SOL    HW1 7364   4.767   6.713   1.158
 2155SOL    HW2 7365   4.872   6.805   1.244
 2156SOL     OW 7366   5.944   1.396   4.007
 2156SOL    HW1 7367   6.027   1.451   3.994
 2156SOL    HW2 7368   5.899   1.382   3.919
 2157SOL     OW 7369   3.615   5.320   3.767
 2157SOL    HW1 7370   3.553   5.328   3.689
 2157SOL    HW2 7371   3.670   5.403   3.774
 2158SOL     OW 7372   3.365   0.613   0.077
 2158SOL    HW1 7373   3.458   0.628   0.110
 2158SOL    HW2 7374   3.304   0.682   0.116
 2159SOL     OW 7375   1.495   0.308   5.545
 2159SOL    HW1 7376   1.592   0.286   5.532
 2159SOL    HW2 7377   1.478   0.402   5.515
 2160SOL     OW 7378   5.715   6.435   0.464
 2160SOL    HW1 7379   5.812   6.411   0.453
 2160SOL    HW2 7380   5.691   6.509   0.402
 2161SOL     OW 7381   1.840   1.964   2.591
 2161SOL    HW1 7382   1.804   2.004   2.507
 2161SOL    HW2 7383   1.815   2.021   2.669
 2162SOL     OW 7384   1.417   6.953   2.211
 2162SOL    HW1 7385   1.439   6.885   2.140
 2162SOL    HW2 7386   1.423   0.028   2.171
 2163SOL     OW 7387   1.659   3.095   2.013
 2163SOL    HW1 7388   1.679   3.004   1.977
 2163SOL    HW2 7389   1.598   3.143   1.950
 2164SOL     OW 7390   1.754   2.572   2.513
 2164SOL    HW1 7391   1.850   2.541   2.517
 2164SOL    HW2 7392   1.738   2.619   2.427
 2165SOL     OW 7393   0.007   1.734   4.160
 2165SOL    HW1 7394   6.928   1.729   4.188
 2165SOL    HW2 7395   0.065   1.704   4.235
 2166SOL     OW 7396   6.926   4.057   3.101
 2166SOL    HW1 7397   6.971   4.064   3.190
 2166SOL    HW2 7398   6.841   4.006   3.110
 2167SOL     OW 7399   2.191   2.044   4.118
 2167SOL    HW1 7400   2.268   2.052   4.182
 2167SOL    HW2 7401   2.106   2.037   4.170
 2168SOL     OW 7402   1.895   1.438   3.101
 2168SOL    HW1 7403   1.893   1.388   3.015
 2168SOL    HW2 7404   1.804   1.476   3.119
 2169SOL     OW 7405   0.253   0.631   1.663
 2169SOL    HW1 7406   0.341   0.656   1.704
 2169SOL    HW2 7407   0.179   0.654   1.726
 2170SOL     OW 7408   0.968   4.304   5.561
 2170SOL    HW1 7409   1.033   4.240   5.519
 2170SOL    HW2 7410   0.898   4.328   5.494
 2171SOL     OW 7411   0.605   5.165   0.942
 2171SOL    HW1 7412   0.580   5.154   1.038
 2171SOL    HW2 7413   0.524   5.190   0.889
 2172SOL     OW 7414   0.990   1.645   5.090
 2172SOL    HW1 7415   1.071   1.671   5.142
 2172SOL    HW2 7416   0.945   1.727   5.054
 2173SOL     OW 7417   5.522   0.208   4.996
 2173SOL    HW1 7418   5.598   0.271   4.979
 2173SOL    HW2 7419   5.436   0.251   4.967
 2174SOL     OW 7420   0.167   6.528   5.211
 2174SOL    HW1 7421   0.150   6.443   5.260
 2174SOL    HW2 7422   0.236   6.582   5.260
 2175SOL     OW 7423   3.203   3.589   5.314
 2175SOL    HW1 7424   3.106   3.567   5.305
 2175SOL    HW2 7425   3.213   3.688   5.329
 2176SOL     OW 7426   5.492   2.244   1.466
 2176SOL    HW1 7427   5.428   2.273   1.538
 2176SOL    HW2 7428   5.445   2.245   1.378
 2177SOL     OW 7429   0.247   0.485   3.626
 2177SOL    HW1 7430   0.256   0.521   3.533
 2177SOL    HW2 7431   0.201   0.552   3.684
 2178SOL     OW 7432   1.043   2.202   2.359
 2178SOL    HW1 7433   1.076   2.286   2.402
 2178SOL    HW2 7434   0.964   2.167   2.409
 2179SOL     OW 7435   1.879   4.095   6.439
 2179SOL    HW1 7436   1.862   4.157   6.362
 2179SOL    HW2 7437   1.878   4.001   6.408
 2180SOL     OW 7438   0.748   5.863   2.109
 2180SOL    HW1 7439   0.763   5.931   2.037
 2180SOL    HW2 7440   0.816   5.790   2.100
 2181SOL     OW 7441   3.756   4.940   4.740
 2181SOL    HW1 7442   3.789   5.031   4.716
 2181SOL    HW2 7443   3.829   4.889   4.784
 2182SOL     OW 7444   0.091   5.634   2.528
 2182SOL    HW1 7445   0.049   5.601   2.613
 2182SOL    HW2 7446   0.138   5.558   2.483
 2183SOL     OW 7447   3.926   2.687   0.119
 2183SOL    HW1 7448   3.912   2.588   0.109
 2183SOL    HW2 7449   3.993   2.718   0.052
 2184SOL     OW 7450   6.170   0.831   6.935
 2184SOL    HW1 7451   6.260   0.788   6.931
 2184SOL    HW2 7452   6.099   0.760   6.935
 2185SOL     OW 7453   0.640   0.982   6.870
 2185SOL    HW1 7454   0.662   1.039   6.791
 2185SOL    HW2 7455   0.549   1.007   6.904
 2186SOL     OW 7456   6.802   5.442   5.290
 2186SOL    HW1 7457   6.770   5.395   5.207
 2186SOL    HW2 7458   6.888   5.489   5.271
 2187SOL     OW 7459   0.775   5.620   3.029
 2187SOL    HW1 7460   0.794   5.718   3.025
 2187SOL    HW2 7461   0.723   5.593   2.949
 2188SOL     OW 7462   1.999   0.350   0.763
 2188SOL    HW1 7463   1.984   0.442   0.800
 2188SOL    HW2 7464   2.035   0.291   0.836
 2189SOL     OW 7465   2.796   1.091   1.097
 2189SOL    HW1 7466   2.817   1.081   1.195
 2189SOL    HW2 7467   2.882   1.100   1.046
 2190SOL     OW 7468   6.138   4.142   2.424
 2190SOL    HW1 7469   6.123   4.241   2.420
 2190SOL    HW2 7470   6.235   4.122   2.411
 2191SOL     OW 7471   2.823   0.629   6.732
 2191SOL    HW1 7472   2.837   0.678   6.645
 2191SOL    HW2 7473   2.774   0.544   6.715
 2192SOL     OW 7474   4.489   1.036   1.584
 2192SOL    HW1 7475   4.502   1.132   1.558
 2192SOL    HW2 7476   4.391   1.016   1.589
 2193SOL     OW 7477   1.040   6.757   6.731
 2193SOL    HW1 7478   1.084   6.825   6.791
 2193SOL    HW2 7479   1.052   6.784   6.636
 2194SOL     OW 7480   1.027   4.167   6.245
 2194SOL    HW1 7481   0.950   4.213   6.201
 2194SOL    HW2 7482   1.000   4.138   6.337
 2195SOL     OW 7483   0.411   4.110   6.437
 2195SOL    HW1 7484   0.349   4.069   6.504
 2195SOL    HW2 7485   0.439   4.201   6.469
 2196SOL     OW 7486   2.837   6.436   5.853
 2196SOL    HW1 7487   2.901   6.361   5.835
 2196SOL    HW2 7488   2.850   6.508   5.785
 2197SOL     OW 7489   2.698   5.030   5.676
 2197SOL    HW1 7490   2.711   4.967   5.752
 2197SOL    HW2 7491   2.650   5.111   5.709
 2198SOL     OW 7492   0.368   0.757   6.503
 2198SOL    HW1 7493   0.317   0.699   6.566
 2198SOL    HW2 7494   0.433   0.813   6.554
 2199SOL     OW 7495   4.162   6.684   4.291
 2199SOL    HW1 7496   4.130   6.744   4.218
 2199SOL    HW2 7497   4.085   6.661   4.351
 2200SOL     OW 7498   2.636   1.542   4.346
 2200SOL    HW1 7499   2.561   1.488   4.387
 2200SOL    HW2 7500   2.597   1.608   4.282
 2201SOL     OW 7501   6.293   4.215   3.840
 2201SOL    HW1 7502   6.222   4.179   3.780
 2201SOL    HW2 7503   6.380   4.219   3.789
 2202SOL     OW 7504   4.096   5.953   1.957
 2202SOL    HW1 7505   4.181   5.967   2.007
 2202SOL    HW2 7506   4.018   5.979   2.015
 2203SOL     OW 7507   2.182   3.290   1.102
 2203SOL    HW1 7508   2.103   3.248   1.059
 2203SOL    HW2 7509   2.152   3.366   1.160
 2204SOL     OW 7510   4.700   3.073   1.028
 2204SOL    HW1 7511   4.632   3.113   1.089
 2204SOL    HW2 7512   4.711   2.975   1.050
 2205SOL     OW 7513   1.074   4.858   0.307
 2205SOL    HW1 7514   0.991   4.838   0.359
 2205SOL    HW2 7515   1.089   4.786   0.239
 2206SOL     OW 7516   2.731   2.513   6.245
 2206SOL    HW1 7517   2.704   2.562   6.327
 2206SOL    HW2 7518   2.783   2.574   6.185
 2207SOL     OW 7519   4.854   5.945   0.381
 2207SOL    HW1 7520   4.810   5.871   0.329
 2207SOL    HW2 7521   4.786   6.015   0.403
 2208SOL     OW 7522   0.850   6.148   4.160
 2208SOL    HW1 7523   0.891   6.069   4.205
 2208SOL    HW2 7524   0.768   6.119   4.112
 2209SOL     OW 7525   3.226   5.632   4.925
 2209SOL    HW1 7526   3.181   5.601   5.008
 2209SOL    HW2 7527   3.158   5.650   4.854
 2210SOL     OW 7528   5.059   6.232   1.023
 2210SOL    HW1 7529   5.049   6.255   1.120
 2210SOL    HW2 7530   4.970   6.237   0.978
 2211SOL     OW 7531   6.537   1.013   1.050
 2211SOL    HW1 7532   6.546   0.919   1.016
 2211SOL    HW2 7533   6.569   1.017   1.145
 2212SOL     OW 7534   2.367   6.222   6.844
 2212SOL    HW1 7535   2.459   6.237   6.880
 2212SOL    HW2 7536   2.314   6.307   6.852
 2213SOL     OW 7537   3.423   2.112   4.391
 2213SOL    HW1 7538   3.332   2.148   4.370
 2213SOL    HW2 7539   3.433   2.104   4.491
 2214SOL     OW 7540   4.169   3.057   6.135
 2214SOL    HW1 7541   4.070   3.066   6.147
 2214SOL    HW2 7542   4.190   3.045   6.039
 2215SOL     OW 7543   4.509   0.208   6.758
 2215SOL    HW1 7544   4.552   0.211   6.668
 2215SOL    HW2 7545   4.432   0.271   6.761
 2216SOL     OW 7546   0.770   6.804   6.233
 2216SOL    HW1 7547   0.686   6.806   6.179
 2216SOL    HW2 7548   0.754   6.850   6.321
 2217SOL     OW 7549   4.059   0.708   2.586
 2217SOL    HW1 7550   4.135   0.662   2.632
 2217SOL    HW2 7551   4.024   0.782   2.644
 2218SOL     OW 7552   0.375   5.524   5.542
 2218SOL    HW1 7553   0.376   5.524   5.642
 2218SOL    HW2 7554   0.421   5.442   5.508
 2219SOL     OW 7555   5.483   1.334   0.292
 2219SOL    HW1 7556   5.516   1.396   0.221
 2219SOL    HW2 7557   5.409   1.278   0.256
 2220SOL     OW 7558   0.662   6.219   5.663
 2220SOL    HW1 7559   0.664   6.315   5.636
 2220SOL    HW2 7560   0.680   6.211   5.761
 2221SOL     OW 7561   6.880   1.440   4.201
 2221SOL    HW1 7562   6.978   1.447   4.182
 2221SOL    HW2 7563   6.842   1.532   4.212
 2222SOL     OW 7564   4.700   6.216   1.200
 2222SOL    HW1 7565   4.686   6.125   1.161
 2222SOL    HW2 7566   4.727   6.208   1.295
 2223SOL     OW 7567   6.463   6.817   5.705
 2223SOL    HW1 7568   6.470   6.750   5.631
 2223SOL    HW2 7569   6.459   6.769   5.793
 2224SOL     OW 7570   5.713   3.843   0.522
 2224SOL    HW1 7571   5.766   3.926   0.505
 2224SOL    HW2 7572   5.657   3.822   0.442
 2225SOL     OW 7573   0.481   6.748   3.159
 2225SOL    HW1 7574   0.546   6.730   3.086
 2225SOL    HW2 7575   0.511   6.827   3.213
 2226SOL     OW 7576   2.218   4.919   0.842
 2226SOL    HW1 7577   2.218   4.823   0.813
 2226SOL    HW2 7578   2.244   4.924   0.939
 2227SOL     OW 7579   4.286   2.097   1.874
 2227SOL    HW1 7580   4.198   2.117   1.831
 2227SOL    HW2 7581   4.359   2.141   1.822
 2228SOL     OW 7582   4.901   5.019   7.006
 2228SOL    HW1 7583   4.903   5.111   0.029
 2228SOL    HW2 7584   4.864   5.024   6.913
 2229SOL     OW 7585   3.506   3.300   4.728
 2229SOL    HW1 7586   3.598   3.338   4.723
 2229SOL    HW2 7587   3.441   3.373   4.750
 2230SOL     OW 7588   5.487   6.432   0.603
 2230SOL    HW1 7589   5.571   6.417   0.551
 2230SOL    HW2 7590   5.472   6.530   0.614
 2231SOL     OW 7591   0.889   0.694   0.154
 2231SOL    HW1 7592   0.874   0.770   0.090
 2231SOL    HW2 7593   0.838   0.614   0.124
 2232SOL     OW 7594   1.306   0.113   5.487
 2232SOL    HW1 7595   1.244   0.095   5.563
 2232SOL    HW2 7596   1.385   0.164   5.520
 2233SOL     OW 7597   3.164   3.034   1.223
 2233SOL    HW1 7598   3.119   2.986   1.297
 2233SOL    HW2 7599   3.102   3.102   1.184
 2234SOL     OW 7600   3.961   2.111   0.615
 2234SOL    HW1 7601   3.883   2.140   0.559
 2234SOL    HW2 7602   3.948   2.016   0.644
 2235SOL     OW 7603   2.358   1.025   2.498
 2235SOL    HW1 7604   2.336   0.958   2.569
 2235SOL    HW2 7605   2.341   0.986   2.408
 2236SOL     OW 7606   2.176   4.273   5.343
 2236SOL    HW1 7607   2.088   4.287   5.388
 2236SOL    HW2 7608   2.220   4.190   5.378
 2237SOL     OW 7609   5.759   5.047   5.219
 2237SOL    HW1 7610   5.695   5.000   5.158
 2237SOL    HW2 7611   5.826   4.981   5.253
 2238SOL     OW 7612   4.983   4.253   2.334
 2238SOL    HW1 7613   4.967   4.160   2.366
 2238SOL    HW2 7614   5.017   4.250   2.240
 2239SOL     OW 7615   3.768   6.922   3.725
 2239SOL    HW1 7616   3.796   6.899   3.818
 2239SOL    HW2 7617   3.845   6.963   3.676
 2240SOL     OW 7618   4.748   5.530   3.086
 2240SOL    HW1 7619   4.750   5.629   3.074
 2240SOL    HW2 7620   4.742   5.485   2.996
 2241SOL     OW 7621   0.514   6.429   1.962
 2241SOL    HW1 7622   0.536   6.487   1.884
 2241SOL    HW2 7623   0.599   6.400   2.006
 2242SOL     OW 7624   4.961   3.157   3.155
 2242SOL    HW1 7625   4.902   3.152   3.074
 2242SOL    HW2 7626   4.912   3.118   3.234
 2243SOL     OW 7627   1.829   6.681   0.591
 2243SOL    HW1 7628   1.736   6.671   0.556
 2243SOL    HW2 7629   1.882   6.600   0.567
 2244SOL     OW 7630   2.524   0.026   1.059
 2244SOL    HW1 7631   2.475   0.112   1.072
 2244SOL    HW2 7632   2.611   0.043   1.014
 2245SOL     OW 7633   0.437   0.922   0.343
 2245SOL    HW1 7634   0.508   0.856   0.322
 2245SOL    HW2 7635   0.387   0.946   0.260
 2246SOL     OW 7636   2.320   0.934   4.979
 2246SOL    HW1 7637   2.237   0.989   4.974
 2246SOL    HW2 7638   2.312   0.854   4.920
 2247SOL     OW 7639   3.485   4.125   2.770
 2247SOL    HW1 7640   3.412   4.130   2.839
 2247SOL    HW2 7641   3.444   4.109   2.680
 2248SOL     OW 7642   5.580   4.013   5.315
 2248SOL    HW1 7643   5.546   3.919   5.312
 2248SOL    HW2 7644   5.506   4.076   5.290
 2249SOL     OW 7645   2.323   6.646   3.919
 2249SOL    HW1 7646   2.322   6.721   3.853
 2249SOL    HW2 7647   2.298   6.561   3.873
 2250SOL     OW 7648   3.989   3.926   6.190
 2250SOL    HW1 7649   3.924   4.001   6.203
 2250SOL    HW2 7650   3.969   3.880   6.103
 2251SOL     OW 7651   5.282   6.773   6.103
 2251SOL    HW1 7652   5.293   6.767   6.004
 2251SOL    HW2 7653   5.185   6.772   6.126
 2252SOL     OW 7654   4.947   1.931   2.730
 2252SOL    HW1 7655   4.882   1.914   2.804
 2252SOL    HW2 7656   5.032   1.881   2.750
 2253SOL     OW 7657   0.702   3.529   0.706
 2253SOL    HW1 7658   0.610   3.498   0.684
 2253SOL    HW2 7659   0.719   3.617   0.661
 2254SOL     OW 7660   3.920   3.926   2.848
 2254SOL    HW1 7661   4.017   3.943   2.833
 2254SOL    HW2 7662   3.907   3.840   2.897
 2255SOL     OW 7663   3.012   4.202   5.515
 2255SOL    HW1 7664   2.986   4.106   5.507
 2255SOL    HW2 7665   3.038   4.238   5.425
 2256SOL     OW 7666   4.992   6.006   1.757
 2256SOL    HW1 7667   5.038   5.955   1.830
 2256SOL    HW2 7668   4.894   6.009   1.775
 2257SOL     OW 7669   0.037   1.731   4.665
 2257SOL    HW1 7670   0.053   1.745   4.763
 2257SOL    HW2 7671   0.123   1.708   4.620
 2258SOL     OW 7672   2.167   6.639   4.515
 2258SOL    HW1 7673   2.198   6.705   4.447
 2258SOL    HW2 7674   2.216   6.652   4.600
 2259SOL     OW 7675   6.558   2.676   4.971
 2259SOL    HW1 7676   6.535   2.673   5.069
 2259SOL    HW2 7677   6.539   2.768   4.936
 2260SOL     OW 7678   1.215   4.139   1.530
 2260SOL    HW1 7679   1.270   4.125   1.448
 2260SOL    HW2 7680   1.274   4.137   1.610
 2261SOL     OW 7681   5.756   3.634   0.303
 2261SOL    HW1 7682   5.811   3.697   0.358
 2261SOL    HW2 7683   5.759   3.543   0.344
 2262SOL     OW 7684   6.543   0.431   4.282
 2262SOL    HW1 7685   6.570   0.375   4.360
 2262SOL    HW2 7686   6.505   0.517   4.313
 2263SOL     OW 7687   1.410   4.344   0.412
 2263SOL    HW1 7688   1.369   4.342   0.321
 2263SOL    HW2 7689   1.337   4.352   0.481
 2264SOL     OW 7690   2.084   6.733   6.415
 2264SOL    HW1 7691   2.037   6.770   6.335
 2264SOL    HW2 7692   2.091   6.803   6.485
 2265SOL     OW 7693   0.782   6.436   3.622
 2265SOL    HW1 7694   0.880   6.430   3.642
 2265SOL    HW2 7695   0.730   6.417   3.706
 2266SOL     OW 7696   5.023   1.677   6.647
 2266SOL    HW1 7697   5.053   1.657   6.554
 2266SOL    HW2 7698   4.923   1.670   6.652
 2267SOL     OW 7699   4.769   2.816   4.872
 2267SOL    HW1 7700   4.823   2.835   4.790
 2267SOL    HW2 7701   4.762   2.898   4.928
 2268SOL     OW 7702   6.707   4.524   6.221
 2268SOL    HW1 7703   6.626   4.537   6.164
 2268SOL    HW2 7704   6.756   4.443   6.189
 2269SOL     OW 7705   1.653   3.113   5.402
 2269SOL    HW1 7706   1.703   3.157   5.327
 2269SOL    HW2 7707   1.555   3.133   5.392
 2270SOL     OW 7708   4.417   2.477   6.169
 2270SOL    HW1 7709   4.506   2.446   6.201
 2270SOL    HW2 7710   4.372   2.404   6.117
 2271SOL     OW 7711   6.064   4.418   6.109
 2271SOL    HW1 7712   6.098   4.509   6.087
 2271SOL    HW2 7713   6.117   4.349   6.059
 2272SOL     OW 7714   6.126   1.081   5.923
 2272SOL    HW1 7715   6.162   1.084   6.016
 2272SOL    HW2 7716   6.049   1.145   5.915
 2273SOL     OW 7717   2.141   2.327   2.365
 2273SOL    HW1 7718   2.149   2.228   2.378
 2273SOL    HW2 7719   2.201   2.374   2.430
 2274SOL     OW 7720   0.577   1.198   0.349
 2274SOL    HW1 7721   0.582   1.292   0.381
 2274SOL    HW2 7722   0.494   1.155   0.385
 2275SOL     OW 7723   5.726   4.767   2.406
 2275SOL    HW1 7724   5.678   4.698   2.460
 2275SOL    HW2 7725   5.813   4.729   2.374
 2276SOL     OW 7726   1.621   1.387   1.322
 2276SOL    HW1 7727   1.545   1.421   1.266
 2276SOL    HW2 7728   1.698   1.451   1.314
 2277SOL     OW 7729   3.404   4.146   3.442
 2277SOL    HW1 7730   3.379   4.059   3.485
 2277SOL    HW2 7731   3.472   4.131   3.371
 2278SOL     OW 7732   0.620   2.396   3.578
 2278SOL    HW1 7733   0.592   2.339   3.501
 2278SOL    HW2 7734   0.664   2.479   3.544
 2279SOL     OW 7735   6.887   6.014   6.286
 2279SOL    HW1 7736   6.947   6.027   6.206
 2279SOL    HW2 7737   6.798   5.980   6.255
 2280SOL     OW 7738   5.163   1.208   5.450
 2280SOL    HW1 7739   5.232   1.241   5.515
 2280SOL    HW2 7740   5.154   1.109   5.459
 2281SOL     OW 7741   4.808   6.605   2.583
 2281SOL    HW1 7742   4.783   6.584   2.677
 2281SOL    HW2 7743   4.774   6.533   2.522
 2282SOL     OW 7744   4.238   5.317   5.661
 2282SOL    HW1 7745   4.140   5.302   5.654
 2282SOL    HW2 7746   4.276   5.261   5.735
 2283SOL     OW 7747   1.547   0.326   3.418
 2283SOL    HW1 7748   1.506   0.414   3.393
 2283SOL    HW2 7749   1.479   0.254   3.406
 2284SOL     OW 7750   1.047   3.204   6.380
 2284SOL    HW1 7751   1.007   3.232   6.467
 2284SOL    HW2 7752   1.131   3.255   6.364
 2285SOL     OW 7753   1.083   3.715   0.347
 2285SOL    HW1 7754   1.113   3.720   0.251
 2285SOL    HW2 7755   1.078   3.619   0.375
 2286SOL     OW 7756   4.926   6.447   3.507
 2286SOL    HW1 7757   4.994   6.469   3.577
 2286SOL    HW2 7758   4.839   6.424   3.551
 2287SOL     OW 7759   2.481   1.058   3.216
 2287SOL    HW1 7760   2.404   1.078   3.155
 2287SOL    HW2 7761   2.465   1.099   3.306
 2288SOL     OW 7762   0.623   5.251   3.537
 2288SOL    HW1 7763   0.597   5.202   3.454
 2288SOL    HW2 7764   0.708   5.301   3.520
 2289SOL     OW 7765   0.727   5.549   2.085
 2289SOL    HW1 7766   0.669   5.615   2.134
 2289SOL    HW2 7767   0.820   5.584   2.081
 2290SOL     OW 7768   1.128   4.735   1.332
 2290SOL    HW1 7769   1.054   4.667   1.337
 2290SOL    HW2 7770   1.100   4.809   1.271
 2291SOL     OW 7771   3.201   1.717   5.949
 2291SOL    HW1 7772   3.173   1.779   6.023
 2291SOL    HW2 7773   3.212   1.624   5.986
 2292SOL     OW 7774   1.369   0.907   4.698
 2292SOL    HW1 7775   1.427   0.832   4.731
 2292SOL    HW2 7776   1.273   0.882   4.706
 2293SOL     OW 7777   5.579   5.418   1.828
 2293SOL    HW1 7778   5.642   5.450   1.758
 2293SOL    HW2 7779   5.507   5.363   1.786
 2294SOL     OW 7780   3.896   6.624   0.142
 2294SOL    HW1 7781   3.801   6.625   0.173
 2294SOL    HW2 7782   3.943   6.704   0.178
 2295SOL     OW 7783   0.236   2.040   1.609
 2295SOL    HW1 7784   0.229   2.016   1.512
 2295SOL    HW2 7785   0.249   2.139   1.618
 2296SOL     OW 7786   3.022   0.576   0.322
 2296SOL    HW1 7787   3.088   0.527   0.380
 2296SOL    HW2 7788   3.009   0.526   0.236
 2297SOL     OW 7789   4.267   4.336   5.541
 2297SOL    HW1 7790   4.315   4.264   5.592
 2297SOL    HW2 7791   4.242   4.302   5.451
 2298SOL     OW 7792   3.649   1.988   1.282
 2298SOL    HW1 7793   3.633   2.086   1.271
 2298SOL    HW2 7794   3.734   1.974   1.332
 2299SOL     OW 7795   5.100   6.373   0.080
 2299SOL    HW1 7796   5.188   6.328   0.096
 2299SOL    HW2 7797   5.065   6.409   0.166
 2300SOL     OW 7798   1.584   5.599   1.389
 2300SOL    HW1 7799   1.629   5.537   1.452
 2300SOL    HW2 7800   1.638   5.608   1.305
 2301SOL     OW 7801   2.991   3.414   2.733
 2301SOL    HW1 7802   3.059   3.485   2.752
 2301SOL    HW2 7803   2.965   3.417   2.636
 2302SOL     OW 7804   3.814   5.955   2.651
 2302SOL    HW1 7805   3.862   6.010   2.720
 2302SOL    HW2 7806   3.715   5.966   2.662
 2303SOL     OW 7807   1.203   3.354   4.527
 2303SOL    HW1 7808   1.227   3.345   4.430
 2303SOL    HW2 7809   1.258   3.290   4.581
 2304SOL     OW 7810   2.685   0.539   3.209
 2304SOL    HW1 7811   2.591   0.572   3.214
 2304SOL    HW2 7812   2.729   0.550   3.298
 2305SOL     OW 7813   4.018   5.437   2.556
 2305SOL    HW1 7814   4.038   5.427   2.459
 2305SOL    HW2 7815   4.075   5.509   2.595
 2306SOL     OW 7816   2.459   4.402   2.273
 2306SOL    HW1 7817   2.509   4.365   2.195
 2306SOL    HW2 7818   2.521   4.453   2.332
 2307SOL     OW 7819   1.054   3.150   3.122
 2307SOL    HW1 7820   1.116   3.215   3.165
 2307SOL    HW2 7821   1.032   3.077   3.187
 2308SOL     OW 7822   0.693   0.994   6.537
 2308SOL    HW1 7823   0.792   0.993   6.550
 2308SOL    HW2 7824   0.667   1.072   6.481
 2309SOL     OW 7825   3.107   5.233   0.391
 2309SOL    HW1 7826   3.122   5.325   0.354
 2309SOL    HW2 7827   3.012   5.205   0.372
 2310SOL     OW 7828   5.957   0.704   1.838
 2310SOL    HW1 7829   5.960   0.619   1.785
 2310SOL    HW2 7830   5.869   0.711   1.885
 2311SOL     OW 7831   2.811   0.226   2.355
 2311SOL    HW1 7832   2.823   0.129   2.373
 2311SOL    HW2 7833   2.713   0.248   2.358
 2312SOL     OW 7834   3.984   0.088   2.905
 2312SOL    HW1 7835   3.952   0.149   2.977
 2312SOL    HW2 7836   3.960   0.125   2.816
 2313SOL     OW 7837   4.824   4.156   2.026
 2313SOL    HW1 7838   4.874   4.204   1.954
 2313SOL    HW2 7839   4.752   4.216   2.062
 2314SOL     OW 7840   5.960   0.863   3.730
 2314SOL    HW1 7841   5.896   0.788   3.744
 2314SOL    HW2 7842   6.054   0.829   3.738
 2315SOL     OW 7843   4.642   4.033   6.064
 2315SOL    HW1 7844   4.620   3.939   6.090
 2315SOL    HW2 7845   4.734   4.055   6.097
 2316SOL     OW 7846   2.704   1.195   6.146
 2316SOL    HW1 7847   2.651   1.146   6.077
 2316SOL    HW2 7848   2.647   1.265   6.188
 2317SOL     OW 7849   6.489   6.536   3.903
 2317SOL    HW1 7850   6.395   6.507   3.886
 2317SOL    HW2 7851   6.512   6.521   3.999
 2318SOL     OW 7852   2.115   3.831   4.648
 2318SOL    HW1 7853   2.112   3.852   4.550
 2318SOL    HW2 7854   2.159   3.906   4.697
 2319SOL     OW 7855   2.372   5.437   4.528
 2319SOL    HW1 7856   2.384   5.487   4.442
 2319SOL    HW2 7857   2.327   5.350   4.510
 2320SOL     OW 7858   1.386   3.139   5.377
 2320SOL    HW1 7859   1.398   3.227   5.423
 2320SOL    HW2 7860   1.291   3.108   5.387
 2321SOL     OW 7861   2.447   4.778   6.392
 2321SOL    HW1 7862   2.532   4.740   6.429
 2321SOL    HW2 7863   2.406   4.712   6.329
 2322SOL     OW 7864   2.090   3.431   2.238
 2322SOL    HW1 7865   1.990   3.422   2.237
 2322SOL    HW2 7866   2.122   3.451   2.146
 2323SOL     OW 7867   3.145   5.167   1.868
 2323SOL    HW1 7868   3.180   5.077   1.842
 2323SOL    HW2 7869   3.116   5.217   1.786
 2324SOL     OW 7870   6.615   6.064   2.077
 2324SOL    HW1 7871   6.694   6.103   2.124
 2324SOL    HW2 7872   6.601   6.114   1.991
 2325SOL     OW 7873   0.071   5.056   1.410
 2325SOL    HW1 7874   0.013   5.017   1.481
 2325SOL    HW2 7875   0.072   4.996   1.330
 2326SOL     OW 7876   1.236   6.240   6.656
 2326SOL    HW1 7877   1.321   6.293   6.658
 2326SOL    HW2 7878   1.163   6.292   6.700
 2327SOL     OW 7879   6.871   0.407   2.640
 2327SOL    HW1 7880   6.815   0.396   2.723
 2327SOL    HW2 7881   6.900   0.317   2.608
 2328SOL     OW 7882   1.363   2.103   2.079
 2328SOL    HW1 7883   1.304   2.058   2.145
 2328SOL    HW2 7884   1.399   2.188   2.118
 2329SOL     OW 7885   0.792   4.135   4.019
 2329SOL    HW1 7886   0.789   4.046   4.065
 2329SOL    HW2 7887   0.882   4.148   3.978
 2330SOL     OW 7888   0.061   3.223   0.373
 2330SOL    HW1 7889   0.161   3.229   0.365
 2330SOL    HW2 7890   0.025   3.313   0.400
 2331SOL     OW 7891   3.416   5.503   0.336
 2331SOL    HW1 7892   3.448   5.541   0.249
 2331SOL    HW2 7893   3.495   5.479   0.392
 2332SOL     OW 7894   6.057   0.393   5.880
 2332SOL    HW1 7895   6.055   0.491   5.899
 2332SOL    HW2 7896   6.146   0.355   5.908
 2333SOL     OW 7897   6.626   4.687   3.101
 2333SOL    HW1 7898   6.547   4.632   3.128
 2333SOL    HW2 7899   6.670   4.723   3.183
 2334SOL     OW 7900   1.161   0.995   6.397
 2334SOL    HW1 7901   1.214   0.953   6.324
 2334SOL    HW2 7902   1.147   1.092   6.377
 2335SOL     OW 7903   6.658   1.192   3.899
 2335SOL    HW1 7904   6.704   1.279   3.915
 2335SOL    HW2 7905   6.602   1.168   3.978
 2336SOL     OW 7906   3.099   1.652   3.797
 2336SOL    HW1 7907   3.112   1.585   3.724
 2336SOL    HW2 7908   3.086   1.743   3.757
 2337SOL     OW 7909   4.203   1.308   1.305
 2337SOL    HW1 7910   4.298   1.337   1.304
 2337SOL    HW2 7911   4.198   1.208   1.316
 2338SOL     OW 7912   1.194   3.988   3.992
 2338SOL    HW1 7913   1.262   4.021   4.058
 2338SOL    HW2 7914   1.131   3.926   4.039
 2339SOL     OW 7915   3.256   3.466   3.499
 2339SOL    HW1 7916   3.273   3.370   3.474
 2339SOL    HW2 7917   3.305   3.526   3.436
 2340SOL     OW 7918   0.544   4.924   6.606
 2340SOL    HW1 7919   0.612   4.943   6.677
 2340SOL    HW2 7920   0.473   4.995   6.608
 2341SOL     OW 7921   2.545   4.963   2.539
 2341SOL    HW1 7922   2.600   4.919   2.610
 2341SOL    HW2 7923   2.592   4.956   2.451
 2342SOL     OW 7924   2.579   6.959   4.290
 2342SOL    HW1 7925   2.561   6.985   4.196
 2342SOL    HW2 7926   2.597   6.860   4.295
 2343SOL     OW 7927   2.172   6.129   2.823
 2343SOL    HW1 7928   2.085   6.122   2.774
 2343SOL    HW2 7929   2.223   6.207   2.789
 2344SOL     OW 7930   6.695   5.591   0.352
 2344SOL    HW1 7931   6.655   5.670   0.396
 2344SOL    HW2 7932   6.792   5.584   0.377
 2345SOL     OW 7933   2.492   5.824   4.119
 2345SOL    HW1 7934   2.496   5.922   4.102
 2345SOL    HW2 7935   2.585   5.790   4.134
 2346SOL     OW 7936   4.089   3.235   5.800
 2346SOL    HW1 7937   4.007   3.262   5.850
 2346SOL    HW2 7938   4.136   3.316   5.766
 2347SOL     OW 7939   0.984   1.924   1.520
 2347SOL    HW1 7940   1.017   1.832   1.541
 2347SOL    HW2 7941   0.907   1.946   1.580
 2348SOL     OW 7942   1.784   6.087   3.626
 2348SOL    HW1 7943   1.874   6.051   3.603
 2348SOL    HW2 7944   1.794   6.173   3.677
 2349SOL     OW 7945   0.553   4.494   6.374
 2349SOL    HW1 7946   0.487   4.486   6.299
 2349SOL    HW2 7947   0.545   4.415   6.434
 2350SOL     OW 7948   5.667   3.812   6.085
 2350SOL    HW1 7949   5.742   3.839   6.145
 2350SOL    HW2 7950   5.581   3.851   6.119
 2351SOL     OW 7951   3.475   4.966   3.730
 2351SOL    HW1 7952   3.499   5.056   3.695
 2351SOL    HW2 7953   3.495   4.897   3.660
 2352SOL     OW 7954   6.538   3.054   3.535
 2352SOL    HW1 7955   6.504   2.967   3.500
 2352SOL    HW2 7956   6.475   3.088   3.605
 2353SOL     OW 7957   3.995   4.881   4.935
 2353SOL    HW1 7958   3.937   4.826   4.996
 2353SOL    HW2 7959   4.003   4.973   4.971
 2354SOL     OW 7960   2.282   2.283   4.656
 2354SOL    HW1 7961   2.215   2.279   4.730
 2354SOL    HW2 7962   2.246   2.337   4.580
 2355SOL     OW 7963   2.359   5.935   5.543
 2355SOL    HW1 7964   2.319   5.966   5.457
 2355SOL    HW2 7965   2.324   5.844   5.565
 2356SOL     OW 7966   1.017   2.976   6.917
 2356SOL    HW1 7967   1.021   2.876   6.927
 2356SOL    HW2 7968   1.052   3.001   6.827
 2357SOL     OW 7969   4.139   1.214   1.708
 2357SOL    HW1 7970   4.050   1.211   1.754
 2357SOL    HW2 7971   4.147   1.135   1.647
 2358SOL     OW 7972   2.647   5.471   5.467
 2358SOL    HW1 7973   2.568   5.443   5.413
 2358SOL    HW2 7974   2.642   5.429   5.558
 2359SOL     OW 7975   0.391   0.556   5.526
 2359SOL    HW1 7976   0.467   0.513   5.477
 2359SOL    HW2 7977   0.339   0.486   5.575
 2360SOL     OW 7978   6.011   3.729   0.531
 2360SOL    HW1 7979   6.013   3.780   0.445
 2360SOL    HW2 7980   5.946   3.773   0.594
 2361SOL     OW 7981   3.144   1.093   6.318
 2361SOL    HW1 7982   3.064   1.138   6.359
 2361SOL    HW2 7983   3.175   1.147   6.239
 2362SOL     OW 7984   2.943   6.096   3.594
 2362SOL    HW1 7985   2.937   6.190   3.560
 2362SOL    HW2 7986   2.951   6.097   3.694
 2363SOL     OW 7987   3.987   1.751   3.369
 2363SOL    HW1 7988   3.972   1.724   3.274
 2363SOL    HW2 7989   3.900   1.778   3.410
 2364SOL     OW 7990   1.675   2.263   2.108
 2364SOL    HW1 7991   1.682   2.359   2.080
 2364SOL    HW2 7992   1.723   2.205   2.042
 2365SOL     OW 7993   6.281   1.747   6.720
 2365SOL    HW1 7994   6.289   1.846   6.710
 2365SOL    HW2 7995   6.186   1.719   6.701
 2366SOL     OW 7996   2.811   5.279   0.407
 2366SOL    HW1 7997   2.850   5.320   0.489
 2366SOL    HW2 7998   2.770   5.190   0.429
 2367SOL     OW 7999   2.115   3.481   0.328
 2367SOL    HW1 8000   2.148   3.417   0.259
 2367SOL    HW2 8001   2.192   3.533   0.365
 2368SOL     OW 8002   5.689   6.832   4.532
 2368SOL    HW1 8003   5.692   6.733   4.543
 2368SOL    HW2 8004   5.701   6.877   4.621
 2369SOL     OW 8005   1.913   0.029   4.260
 2369SOL    HW1 8006   1.988   0.066   4.204
 2369SOL    HW2 8007   1.916   6.946   4.255
 2370SOL     OW 8008   5.419   3.225   0.355
 2370SOL    HW1 8009   5.490   3.165   0.317
 2370SOL    HW2 8010   5.370   3.177   0.428
 2371SOL     OW 8011   2.306   6.837   2.220
 2371SOL    HW1 8012   2.218   6.871   2.189
 2371SOL    HW2 8013   2.332   6.883   2.305
 2372SOL     OW 8014   6.553   2.818   2.123
 2372SOL    HW1 8015   6.591   2.906   2.095
 2372SOL    HW2 8016   6.528   2.765   2.042
 2373SOL     OW 8017   1.777   3.709   5.933
 2373SOL    HW1 8018   1.751   3.692   5.838
 2373SOL    HW2 8019   1.861   3.659   5.955
 2374SOL     OW 8020   6.392   2.375   5.199
 2374SOL    HW1 8021   6.423   2.458   5.247
 2374SOL    HW2 8022   6.436   2.370   5.109
 2375SOL     OW 8023   3.048   5.349   5.996
 2375SOL    HW1 8024   3.097   5.428   5.958
 2375SOL    HW2 8025   3.080   5.265   5.952
 2376SOL     OW 8026   6.131   3.503   3.982
 2376SOL    HW1 8027   6.038   3.470   3.965
 2376SOL    HW2 8028   6.155   3.486   4.078
 2377SOL     OW 8029   3.567   3.805   3.716
 2377SOL    HW1 8030   3.644   3.797   3.653
 2377SOL    HW2 8031   3.577   3.890   3.769
 2378SOL     OW 8032   5.223   2.349   0.587
 2378SOL    HW1 8033   5.134   2.313   0.617
 2378SOL    HW2 8034   5.231   2.340   0.488
 2379SOL     OW 8035   6.970   1.143   0.291
 2379SOL    HW1 8036   6.892   1.080   0.289
 2379SOL    HW2 8037   6.941   1.231   0.328
 2380SOL     OW 8038   7.008   2.587   6.995
 2380SOL    HW1 8039   6.916   2.583   0.019
 2380SOL    HW2 8040   7.002   2.620   6.901
 2381SOL     OW 8041   2.330   6.031   3.019
 2381SOL    HW1 8042   2.423   6.069   3.024
 2381SOL    HW2 8043   2.285   6.064   2.936
 2382SOL     OW 8044   1.681   3.880   4.593
 2382SOL    HW1 8045   1.766   3.923   4.562
 2382SOL    HW2 8046   1.623   3.859   4.514
 2383SOL     OW 8047   6.619   0.054   1.300
 2383SOL    HW1 8048   6.694   0.002   1.341
 2383SOL    HW2 8049   6.580   0.115   1.369
 2384SOL     OW 8050   5.248   2.157   2.822
 2384SOL    HW1 8051   5.236   2.153   2.922
 2384SOL    HW2 8052   5.308   2.083   2.793
 2385SOL     OW 8053   6.818   0.440   0.005
 2385SOL    HW1 8054   6.873   0.448   6.938
 2385SOL    HW2 8055   6.877   0.415   0.081
 2386SOL     OW 8056   5.208   5.814   4.079
 2386SOL    HW1 8057   5.285   5.860   4.124
 2386SOL    HW2 8058   5.227   5.716   4.073
 2387SOL     OW 8059   2.272   1.130   4.034
 2387SOL    HW1 8060   2.176   1.100   4.024
 2387SOL    HW2 8061   2.284   1.217   3.987
 2388SOL     OW 8062   6.919   2.586   3.847
 2388SOL    HW1 8063   7.013   2.615   3.863
 2388SOL    HW2 8064   6.856   2.652   3.888
 2389SOL     OW 8065   4.462   4.716   3.596
 2389SOL    HW1 8066   4.365   4.693   3.593
 2389SOL    HW2 8067   4.515   4.637   3.627
 2390SOL     OW 8068   3.406   2.897   2.693
 2390SOL    HW1 8069   3.400   2.855   2.602
 2390SOL    HW2 8070   3.315   2.922   2.724
 2391SOL     OW 8071   5.658   4.520   6.460
 2391SOL    HW1 8072   5.595   4.530   6.538
 2391SOL    HW2 8073   5.748   4.554   6.485
 2392SOL     OW 8074   3.047   0.100   6.299
 2392SOL    HW1 8075   2.987   0.099   6.379
 2392SOL    HW2 8076   3.042   0.012   6.253
 2393SOL     OW 8077   5.202   4.202   6.296
 2393SOL    HW1 8078   5.182   4.203   6.198
 2393SOL    HW2 8079   5.281   4.143   6.313
 2394SOL     OW 8080   0.174   3.758   4.402
 2394SOL    HW1 8081   0.080   3.744   4.433
 2394SOL    HW2 8082   0.181   3.736   4.305
 2395SOL     OW 8083   4.912   0.031   5.836
 2395SOL    HW1 8084   4.894   0.127   5.861
 2395SOL    HW2 8085   4.879   6.988   5.909
 2396SOL     OW 8086   3.784   4.888   1.054
 2396SOL    HW1 8087   3.852   4.870   1.124
 2396SOL    HW2 8088   3.745   4.980   1.067
 2397SOL     OW 8089   0.560   4.285   4.514
 2397SOL    HW1 8090   0.622   4.277   4.592
 2397SOL    HW2 8091   0.612   4.276   4.429
 2398SOL     OW 8092   4.887   3.850   6.714
 2398SOL    HW1 8093   4.790   3.875   6.720
 2398SOL    HW2 8094   4.895   3.757   6.680
 2399SOL     OW 8095   4.410   0.675   1.058
 2399SOL    HW1 8096   4.462   0.677   1.143
 2399SOL    HW2 8097   4.459   0.726   0.988
 2400SOL     OW 8098   2.832   3.493   1.058
 2400SOL    HW1 8099   2.866   3.551   1.133
 2400SOL    HW2 8100   2.750   3.535   1.019
 2401SOL     OW 8101   5.776   6.192   0.225
 2401SOL    HW1 8102   5.833   6.222   0.301
 2401SOL    HW2 8103   5.684   6.231   0.236
 2402SOL     OW 8104   0.542   0.092   4.567
 2402SOL    HW1 8105   0.592   0.152   4.629
 2402SOL    HW2 8106   0.493   0.023   4.620
 2403SOL     OW 8107   1.058   2.635   6.042
 2403SOL    HW1 8108   0.963   2.605   6.036
 2403SOL    HW2 8109   1.084   2.644   6.138
 2404SOL     OW 8110   2.380   1.109   1.233
 2404SOL    HW1 8111   2.317   1.162   1.290
 2404SOL    HW2 8112   2.460   1.166   1.211
 2405SOL     OW 8113   3.367   4.078   2.502
 2405SOL    HW1 8114   3.444   4.123   2.456
 2405SOL    HW2 8115   3.289   4.073   2.440
 2406SOL     OW 8116   3.359   1.170   1.300
 2406SOL    HW1 8117   3.418   1.228   1.356
 2406SOL    HW2 8118   3.327   1.221   1.221
 2407SOL     OW 8119   5.749   2.175   3.756
 2407SOL    HW1 8120   5.717   2.233   3.681
 2407SOL    HW2 8121   5.845   2.195   3.776
 2408SOL     OW 8122   4.462   4.484   2.205
 2408SOL    HW1 8123   4.523   4.439   2.139
 2408SOL    HW2 8124   4.517   4.528   2.276
 2409SOL     OW 8125   2.234   4.260   2.409
 2409SOL    HW1 8126   2.317   4.310   2.384
 2409SOL    HW2 8127   2.208   4.283   2.503
 2410SOL     OW 8128   4.011   3.355   4.371
 2410SOL    HW1 8129   3.943   3.426   4.387
 2410SOL    HW2 8130   4.059   3.333   4.456
 2411SOL     OW 8131   5.262   6.170   5.100
 2411SOL    HW1 8132   5.173   6.131   5.123
 2411SOL    HW2 8133   5.260   6.268   5.116
 2412SOL     OW 8134   5.344   4.652   1.596
 2412SOL    HW1 8135   5.326   4.559   1.563
 2412SOL    HW2 8136   5.366   4.711   1.518
 2413SOL     OW 8137   5.656   0.796   1.714
 2413SOL    HW1 8138   5.574   0.833   1.671
 2413SOL    HW2 8139   5.737   0.838   1.673
 2414SOL     OW 8140   4.790   4.183   3.832
 2414SOL    HW1 8141   4.720   4.244   3.794
 2414SOL    HW2 8142   4.792   4.192   3.931
 2415SOL     OW 8143   6.034   1.274   2.750
 2415SOL    HW1 8144   6.117   1.319   2.718
 2415SOL    HW2 8145   6.058   1.187   2.793
 2416SOL     OW 8146   5.505   2.093   5.651
 2416SOL    HW1 8147   5.548   2.171   5.698
 2416SOL    HW2 8148   5.561   2.012   5.664
 2417SOL     OW 8149   3.002   3.371   4.778
 2417SOL    HW1 8150   3.099   3.393   4.783
 2417SOL    HW2 8151   2.950   3.436   4.833
 2418SOL     OW 8152   3.521   3.327   4.167
 2418SOL    HW1 8153   3.440   3.365   4.212
 2418SOL    HW2 8154   3.590   3.305   4.235
 2419SOL     OW 8155   0.078   6.472   3.294
 2419SOL    HW1 8156   0.107   6.460   3.389
 2419SOL    HW2 8157   0.136   6.542   3.251
 2420SOL     OW 8158   3.393   0.428   1.701
 2420SOL    HW1 8159   3.324   0.381   1.644
 2420SOL    HW2 8160   3.473   0.368   1.712
 2421SOL     OW 8161   1.891   2.807   4.837
 2421SOL    HW1 8162   1.913   2.905   4.834
 2421SOL    HW2 8163   1.873   2.780   4.932
 2422SOL     OW 8164   5.141   1.607   0.783
 2422SOL    HW1 8165   5.059   1.636   0.831
 2422SOL    HW2 8166   5.195   1.548   0.842
 2423SOL     OW 8167   2.603   6.384   2.011
 2423SOL    HW1 8168   2.630   6.319   1.939
 2423SOL    HW2 8169   2.684   6.434   2.043
 2424SOL     OW 8170   6.262   0.965   0.332
 2424SOL    HW1 8171   6.230   1.060   0.326
 2424SOL    HW2 8172   6.357   0.960   0.303
 2425SOL     OW 8173   6.076   0.345   4.113
 2425SOL    HW1 8174   6.127   0.260   4.128
 2425SOL    HW2 8175   5.980   0.330   4.135
 2426SOL     OW 8176   1.691   4.971   5.088
 2426SOL    HW1 8177   1.699   4.948   5.185
 2426SOL    HW2 8178   1.778   5.007   5.055
 2427SOL     OW 8179   5.748   5.986   5.298
 2427SOL    HW1 8180   5.659   5.980   5.344
 2427SOL    HW2 8181   5.803   5.906   5.320
 2428SOL     OW 8182   0.702   0.765   1.605
 2428SOL    HW1 8183   0.652   0.808   1.530
 2428SOL    HW2 8184   0.757   0.689   1.569
 2429SOL     OW 8185   5.369   6.037   1.527
 2429SOL    HW1 8186   5.310   6.058   1.449
 2429SOL    HW2 8187   5.403   5.943   1.518
 2430SOL     OW 8188   5.927   0.860   2.522
 2430SOL    HW1 8189   5.920   0.840   2.620
 2430SOL    HW2 8190   5.869   0.796   2.472
 2431SOL     OW 8191   4.549   1.335   2.337
 2431SOL    HW1 8192   4.622   1.381   2.387
 2431SOL    HW2 8193   4.572   1.238   2.326
 2432SOL     OW 8194   4.493   6.177   2.285
 2432SOL    HW1 8195   4.551   6.132   2.217
 2432SOL    HW2 8196   4.404   6.198   2.243
 2433SOL     OW 8197   4.534   0.664   6.743
 2433SOL    HW1 8198   4.622   0.649   6.787
 2433SOL    HW2 8199   4.525   0.602   6.665
 2434SOL     OW 8200   3.713   1.033   5.608
 2434SOL    HW1 8201   3.662   1.023   5.523
 2434SOL    HW2 8202   3.680   0.966   5.675
 2435SOL     OW 8203   5.876   6.219   5.461
 2435SOL    HW1 8204   5.799   6.172   5.417
 2435SOL    HW2 8205   5.930   6.266   5.391
 2436SOL     OW 8206   2.043   5.954   0.294
 2436SOL    HW1 8207   2.008   6.036   0.338
 2436SOL    HW2 8208   2.125   5.976   0.241
 2437SOL     OW 8209   6.754   6.502   5.672
 2437SOL    HW1 8210   6.762   6.467   5.765
 2437SOL    HW2 8211   6.770   6.601   5.672
 2438SOL     OW 8212   2.697   2.458   0.664
 2438SOL    HW1 8213   2.795   2.463   0.683
 2438SOL    HW2 8214   2.673   2.365   0.634
 2439SOL     OW 8215   6.455   4.387   6.127
 2439SOL    HW1 8216   6.382   4.322   6.149
 2439SOL    HW2 8217   6.507   4.352   6.048
 2440SOL     OW 8218   5.316   5.326   5.815
 2440SOL    HW1 8219   5.359   5.255   5.870
 2440SOL    HW2 8220   5.384   5.396   5.791
 2441SOL     OW 8221   5.888   2.195   0.991
 2441SOL    HW1 8222   5.986   2.183   0.970
 2441SOL    HW2 8223   5.856   2.282   0.954
 2442SOL     OW 8224   0.906   3.981   4.616
 2442SOL    HW1 8225   0.893   3.946   4.709
 2442SOL    HW2 8226   0.821   3.973   4.565
 2443SOL     OW 8227   2.725   4.045   6.569
 2443SOL    HW1 8228   2.679   4.099   6.640
 2443SOL    HW2 8229   2.806   4.095   6.537
 2444SOL     OW 8230   2.297   3.805   5.741
 2444SOL    HW1 8231   2.386   3.793   5.699
 2444SOL    HW2 8232   2.225   3.790   5.673
 2445SOL     OW 8233   0.355   0.814   1.144
 2445SOL    HW1 8234   0.360   0.874   1.064
 2445SOL    HW2 8235   0.284   0.847   1.206
 2446SOL     OW 8236   6.267   4.444   4.804
 2446SOL    HW1 8237   6.177   4.400   4.802
 2446SOL    HW2 8238   6.298   4.453   4.898
 2447SOL     OW 8239   0.874   1.508   0.653
 2447SOL    HW1 8240   0.859   1.497   0.555
 2447SOL    HW2 8241   0.800   1.561   0.693
 2448SOL     OW 8242   1.016   0.278   4.740
 2448SOL    HW1 8243   1.067   0.338   4.802
 2448SOL    HW2 8244   0.969   0.333   4.671
 2449SOL     OW 8245   0.228   3.732   5.910
 2449SOL    HW1 8246   0.298   3.668   5.878
 2449SOL    HW2 8247   0.160   3.746   5.838
 2450SOL     OW 8248   2.208   4.272   2.671
 2450SOL    HW1 8249   2.183   4.196   2.731
 2450SOL    HW2 8250   2.199   4.358   2.720
 2451SOL     OW 8251   2.263   6.085   3.431
 2451SOL    HW1 8252   2.237   5.988   3.427
 2451SOL    HW2 8253   2.190   6.140   3.390
 2452SOL     OW 8254   0.974   2.713   4.081
 2452SOL    HW1 8255   1.051   2.768   4.049
 2452SOL    HW2 8256   0.888   2.760   4.061
 2453SOL     OW 8257   6.665   4.750   1.352
 2453SOL    HW1 8258   6.630   4.691   1.280
 2453SOL    HW2 8259   6.718   4.695   1.417
 2454SOL     OW 8260   3.376   1.321   2.298
 2454SOL    HW1 8261   3.461   1.269   2.289
 2454SOL    HW2 8262   3.355   1.335   2.394
 2455SOL     OW 8263   5.587   5.731   0.144
 2455SOL    HW1 8264   5.671   5.786   0.141
 2455SOL    HW2 8265   5.509   5.790   0.165
 2456SOL     OW 8266   5.046   6.224   1.285
 2456SOL    HW1 8267   5.080   6.132   1.301
 2456SOL    HW2 8268   4.964   6.240   1.340
 2457SOL     OW 8269   5.431   6.966   1.216
 2457SOL    HW1 8270   5.377   6.895   1.172
 2457SOL    HW2 8271   5.485   7.015   1.147
 2458SOL     OW 8272   0.776   5.646   3.319
 2458SOL    HW1 8273   0.685   5.675   3.349
 2458SOL    HW2 8274   0.774   5.624   3.222
 2459SOL     OW 8275   1.739   6.803   0.820
 2459SOL    HW1 8276   1.801   6.796   0.742
 2459SOL    HW2 8277   1.731   6.899   0.848
 2460SOL     OW 8278   3.350   5.617   1.646
 2460SOL    HW1 8279   3.436   5.666   1.663
 2460SOL    HW2 8280   3.303   5.602   1.733
 2461SOL     OW 8281   5.336   0.234   2.469
 2461SOL    HW1 8282   5.288   0.289   2.537
 2461SOL    HW2 8283   5.271   0.203   2.399
 2462SOL     OW 8284   1.723   5.069   6.489
 2462SOL    HW1 8285   1.667   4.992   6.521
 2462SOL    HW2 8286   1.814   5.036   6.465
 2463SOL     OW 8287   6.333   2.319   4.307
 2463SOL    HW1 8288   6.341   2.419   4.302
 2463SOL    HW2 8289   6.266   2.289   4.238
 2464SOL     OW 8290   1.608   3.145   1.061
 2464SOL    HW1 8291   1.554   3.126   0.979
 2464SOL    HW2 8292   1.694   3.095   1.057
 2465SOL     OW 8293   6.699   5.890   3.390
 2465SOL    HW1 8294   6.652   5.837   3.319
 2465SOL    HW2 8295   6.761   5.956   3.346
 2466SOL     OW 8296   4.161   1.734   2.662
 2466SOL    HW1 8297   4.235   1.708   2.600
 2466SOL    HW2 8298   4.073   1.724   2.615
 2467SOL     OW 8299   6.692   1.009   6.493
 2467SOL    HW1 8300   6.674   1.101   6.527
 2467SOL    HW2 8301   6.761   0.965   6.550
 2468SOL     OW 8302   0.054   4.872   1.187
 2468SOL    HW1 8303   0.047   4.781   1.229
 2468SOL    HW2 8304   6.990   4.888   1.131
 2469SOL     OW 8305   2.542   2.879   5.697
 2469SOL    HW1 8306   2.608   2.804   5.706
 2469SOL    HW2 8307   2.557   2.945   5.770
 2470SOL     OW 8308   5.497   2.876   0.125
 2470SOL    HW1 8309   5.468   2.843   0.215
 2470SOL    HW2 8310   5.448   2.827   0.054
 2471SOL     OW 8311   1.338   0.097   3.378
 2471SOL    HW1 8312   1.278   0.171   3.410
 2471SOL    HW2 8313   1.287   0.039   3.315
 2472SOL     OW 8314   6.228   1.582   3.230
 2472SOL    HW1 8315   6.165   1.659   3.229
 2472SOL    HW2 8316   6.193   1.508   3.172
 2473SOL     OW 8317   1.082   6.436   5.068
 2473SOL    HW1 8318   1.004   6.424   5.006
 2473SOL    HW2 8319   1.048   6.467   5.158
 2474SOL     OW 8320   6.065   4.991   4.984
 2474SOL    HW1 8321   6.043   5.061   5.051
 2474SOL    HW2 8322   6.077   5.034   4.894
 2475SOL     OW 8323   4.283   2.266   0.036
 2475SOL    HW1 8324   4.255   2.202   6.981
 2475SOL    HW2 8325   4.205   2.286   0.095
 2476SOL     OW 8326   0.612   2.243   4.232
 2476SOL    HW1 8327   0.592   2.197   4.145
 2476SOL    HW2 8328   0.526   2.276   4.272
 2477SOL     OW 8329   4.263   4.703   1.144
 2477SOL    HW1 8330   4.296   4.790   1.107
 2477SOL    HW2 8331   4.192   4.721   1.212
 2478SOL     OW 8332   6.600   6.956   3.260
 2478SOL    HW1 8333   6.532   0.013   3.260
 2478SOL    HW2 8334   6.593   6.904   3.175
 2479SOL     OW 8335   0.429   3.355   0.554
 2479SOL    HW1 8336   0.417   3.308   0.642
 2479SOL    HW2 8337   0.415   3.453   0.566
 2480SOL     OW 8338   0.404   3.404   1.062
 2480SOL    HW1 8339   0.323   3.440   1.107
 2480SOL    HW2 8340   0.466   3.479   1.039
 2481SOL     OW 8341   4.667   5.357   2.158
 2481SOL    HW1 8342   4.588   5.310   2.198
 2481SOL    HW2 8343   4.712   5.295   2.093
 2482SOL     OW 8344   4.696   2.211   4.463
 2482SOL    HW1 8345   4.653   2.298   4.486
 2482SOL    HW2 8346   4.662   2.140   4.525
 2483SOL     OW 8347   1.015   2.094   6.909
 2483SOL    HW1 8348   1.010   1.994   6.914
 2483SOL    HW2 8349   1.103   2.124   6.944
 2484SOL     OW 8350   3.013   2.222   5.881
 2484SOL    HW1 8351   2.992   2.125   5.890
 2484SOL    HW2 8352   2.934   2.276   5.912
 2485SOL     OW 8353   6.895   6.244   2.534
 2485SOL    HW1 8354   6.926   6.178   2.466
 2485SOL    HW2 8355   6.886   6.334   2.492
 2486SOL     OW 8356   0.999   5.364   3.165
 2486SOL    HW1 8357   0.939   5.424   3.112
 2486SOL    HW2 8358   1.068   5.418   3.212
 2487SOL     OW 8359   3.673   0.994   0.769
 2487SOL    HW1 8360   3.721   1.063   0.822
 2487SOL    HW2 8361   3.636   1.036   0.686
 2488SOL     OW 8362   3.110   6.298   6.601
 2488SOL    HW1 8363   3.118   6.280   6.503
 2488SOL    HW2 8364   3.193   6.267   6.647
 2489SOL     OW 8365   0.080   5.572   4.117
 2489SOL    HW1 8366   0.157   5.529   4.165
 2489SOL    HW2 8367   0.096   5.671   4.113
 2490SOL     OW 8368   4.809   3.460   1.856
 2490SOL    HW1 8369   4.864   3.528   1.904
 2490SOL    HW2 8370   4.837   3.368   1.884
 2491SOL     OW 8371   1.258   4.632   2.462
 2491SOL    HW1 8372   1.309   4.588   2.536
 2491SOL    HW2 8373   1.238   4.727   2.487
 2492SOL     OW 8374   4.298   3.104   6.383
 2492SOL    HW1 8375   4.295   3.090   6.284
 2492SOL    HW2 8376   4.371   3.169   6.405
 2493SOL     OW 8377   6.731   2.140   3.952
 2493SOL    HW1 8378   6.666   2.104   3.885
 2493SOL    HW2 8379   6.729   2.083   4.035
 2494SOL     OW 8380   4.979   3.433   1.568
 2494SOL    HW1 8381   4.880   3.425   1.561
 2494SOL    HW2 8382   5.020   3.342   1.574
 2495SOL     OW 8383   6.237   1.286   4.116
 2495SOL    HW1 8384   6.226   1.193   4.080
 2495SOL    HW2 8385   6.160   1.343   4.085
 2496SOL     OW 8386   0.627   6.503   0.539
 2496SOL    HW1 8387   0.667   6.415   0.565
 2496SOL    HW2 8388   0.642   6.569   0.612
 2497SOL     OW 8389   5.391   2.046   6.096
 2497SOL    HW1 8390   5.465   2.113   6.104
 2497SOL    HW2 8391   5.304   2.093   6.082
 2498SOL     OW 8392   1.467   4.040   4.715
 2498SOL    HW1 8393   1.422   4.059   4.628
 2498SOL    HW2 8394   1.557   4.000   4.698
 2499SOL     OW 8395   5.791   0.686   5.673
 2499SOL    HW1 8396   5.852   0.617   5.635
 2499SOL    HW2 8397   5.845   0.762   5.710
 2500SOL     OW 8398   4.790   2.820   6.494
 2500SOL    HW1 8399   4.885   2.789   6.489
 2500SOL    HW2 8400   4.788   2.920   6.503
 2501SOL     OW 8401   6.598   4.255   0.142
 2501SOL    HW1 8402   6.684   4.213   0.172
 2501SOL    HW2 8403   6.547   4.286   0.223
 2502SOL     OW 8404   1.946   6.740   2.894
 2502SOL    HW1 8405   1.915   6.658   2.941
 2502SOL    HW2 8406   1.908   6.821   2.940
 2503SOL     OW 8407   4.776   5.580   4.569
 2503SOL    HW1 8408   4.826   5.628   4.498
 2503SOL    HW2 8409   4.734   5.646   4.631
 2504SOL     OW 8410   2.045   4.432   3.743
 2504SOL    HW1 8411   2.130   4.381   3.749
 2504SOL    HW2 8412   2.044   4.502   3.815
 2505SOL     OW 8413   4.443   5.527   3.853
 2505SOL    HW1 8414   4.519   5.488   3.905
 2505SOL    HW2 8415   4.366   5.463   3.853
 2506SOL     OW 8416   0.058   2.123   6.793
 2506SOL    HW1 8417   0.076   2.048   6.857
 2506SOL    HW2 8418   0.024   2.202   6.843
 2507SOL     OW 8419   0.045   5.712   0.961
 2507SOL    HW1 8420   0.105   5.722   1.041
 2507SOL    HW2 8421   0.076   5.775   0.889
 2508SOL     OW 8422   2.415   2.513   2.199
 2508SOL    HW1 8423   2.359   2.587   2.236
 2508SOL    HW2 8424   2.506   2.517   2.239
 2509SOL     OW 8425   5.328   1.988   3.826
 2509SOL    HW1 8426   5.284   2.063   3.776
 2509SOL    HW2 8427   5.259   1.936   3.876
 2510SOL     OW 8428   3.616   5.914   1.138
 2510SOL    HW1 8429   3.641   5.927   1.234
 2510SOL    HW2 8430   3.615   5.816   1.117
 2511SOL     OW 8431   1.427   0.226   4.094
 2511SOL    HW1 8432   1.464   0.268   4.177
 2511SOL    HW2 8433   1.337   0.263   4.074
 2512SOL     OW 8434   4.651   2.622   4.157
 2512SOL    HW1 8435   4.563   2.609   4.110
 2512SOL    HW2 8436   4.660   2.555   4.230
 2513SOL     OW 8437   6.978   4.197   1.140
 2513SOL    HW1 8438   0.033   4.140   1.180
 2513SOL    HW2 8439   0.002   4.279   1.099
 2514SOL     OW 8440   1.212   1.493   4.144
 2514SOL    HW1 8441   1.220   1.479   4.243
 2514SOL    HW2 8442   1.115   1.504   4.120
 2515SOL     OW 8443   0.907   4.988   0.027
 2515SOL    HW1 8444   0.895   4.974   0.126
 2515SOL    HW2 8445   1.003   4.973   0.003
 2516SOL     OW 8446   4.677   6.421   3.873
 2516SOL    HW1 8447   4.606   6.382   3.931
 2516SOL    HW2 8448   4.732   6.347   3.833
 2517SOL     OW 8449   2.440   4.943   0.605
 2517SOL    HW1 8450   2.369   4.914   0.670
 2517SOL    HW2 8451   2.419   4.906   0.515
 2518SOL     OW 8452   2.349   2.581   6.265
 2518SOL    HW1 8453   2.412   2.603   6.191
 2518SOL    HW2 8454   2.263   2.630   6.250
 2519SOL     OW 8455   4.998   4.240   4.872
 2519SOL    HW1 8456   5.073   4.174   4.880
 2519SOL    HW2 8457   4.911   4.191   4.863
 2520SOL     OW 8458   1.951   4.954   1.969
 2520SOL    HW1 8459   1.944   4.930   1.872
 2520SOL    HW2 8460   1.976   5.051   1.977
 2521SOL     OW 8461   5.529   6.969   5.321
 2521SOL    HW1 8462   5.537   6.879   5.277
 2521SOL    HW2 8463   5.585   6.970   5.404
 2522SOL     OW 8464   1.359   3.229   4.708
 2522SOL    HW1 8465   1.453   3.262   4.716
 2522SOL    HW2 8466   1.307   3.255   4.790
 2523SOL     OW 8467   0.073   3.066   0.001
 2523SOL    HW1 8468   0.015   3.146   0.018
 2523SOL    HW2 8469   0.026   2.984   0.032
 2524SOL     OW 8470   1.191   6.883   5.151
 2524SOL    HW1 8471   1.101   6.906   5.186
 2524SOL    HW2 8472   1.187   6.872   5.052
 2525SOL     OW 8473   1.963   4.476   3.269
 2525SOL    HW1 8474   2.050   4.502   3.228
 2525SOL    HW2 8475   1.888   4.512   3.213
 2526SOL     OW 8476   6.919   1.710   5.479
 2526SOL    HW1 8477   6.896   1.640   5.411
 2526SOL    HW2 8478   6.862   1.791   5.464
 2527SOL     OW 8479   6.176   6.380   3.897
 2527SOL    HW1 8480   6.246   6.312   3.921
 2527SOL    HW2 8481   6.154   6.434   3.978
 2528SOL     OW 8482   5.926   5.730   0.541
 2528SOL    HW1 8483   5.853   5.720   0.608
 2528SOL    HW2 8484   5.895   5.698   0.452
 2529SOL     OW 8485   5.194   4.040   4.866
 2529SOL    HW1 8486   5.131   3.972   4.904
 2529SOL    HW2 8487   5.248   3.998   4.793
 2530SOL     OW 8488   0.714   6.872   4.341
 2530SOL    HW1 8489   0.809   6.901   4.337
 2530SOL    HW2 8490   0.658   6.935   4.287
 2531SOL     OW 8491   4.658   1.516   6.977
 2531SOL    HW1 8492   4.734   1.546   0.017
 2531SOL    HW2 8493   4.573   1.559   7.009
 2532SOL     OW 8494   1.798   4.483   5.950
 2532SOL    HW1 8495   1.789   4.383   5.953
 2532SOL    HW2 8496   1.894   4.508   5.949
 2533SOL     OW 8497   5.595   6.731   5.117
 2533SOL    HW1 8498   5.580   6.672   5.196
 2533SOL    HW2 8499   5.681   6.707   5.073
 2534SOL     OW 8500   0.112   1.504   3.940
 2534SOL    HW1 8501   0.196   1.552   3.961
 2534SOL    HW2 8502   0.094   1.510   3.841
 2535SOL     OW 8503   2.401   1.270   2.351
 2535SOL    HW1 8504   2.303   1.278   2.330
 2535SOL    HW2 8505   2.412   1.218   2.436
 2536SOL     OW 8506   6.601   0.335   3.873
 2536SOL    HW1 8507   6.699   0.347   3.888
 2536SOL    HW2 8508   6.551   0.368   3.954
 2537SOL     OW 8509   3.967   4.922   1.293
 2537SOL    HW1 8510   4.030   4.926   1.370
 2537SOL    HW2 8511   3.995   4.987   1.223
 2538SOL     OW 8512   1.725   4.702   5.381
 2538SOL    HW1 8513   1.802   4.721   5.320
 2538SOL    HW2 8514   1.737   4.752   5.467
 2539SOL     OW 8515   2.689   0.506   5.868
 2539SOL    HW1 8516   2.673   0.411   5.840
 2539SOL    HW2 8517   2.784   0.516   5.898
 2540SOL     OW 8518   5.685   1.990   2.121
 2540SOL    HW1 8519   5.748   2.029   2.188
 2540SOL    HW2 8520   5.736   1.963   2.039
 2541SOL     OW 8521   0.833   6.465   5.505
 2541SOL    HW1 8522   0.819   6.410   5.423
 2541SOL    HW2 8523   0.744   6.494   5.541
 2542SOL     OW 8524   3.450   1.754   4.643
 2542SOL    HW1 8525   3.411   1.662   4.644
 2542SOL    HW2 8526   3.547   1.749   4.618
 2543SOL     OW 8527   0.281   2.441   4.694
 2543SOL    HW1 8528   0.214   2.490   4.638
 2543SOL    HW2 8529   0.352   2.402   4.636
 2544SOL     OW 8530   6.109   5.732   2.656
 2544SOL    HW1 8531   6.103   5.681   2.570
 2544SOL    HW2 8532   6.063   5.820   2.647
 2545SOL     OW 8533   6.294   1.975   0.965
 2545SOL    HW1 8534   6.367   2.019   1.018
 2545SOL    HW2 8535   6.285   1.880   0.995
 2546SOL     OW 8536   6.323   4.009   2.962
 2546SOL    HW1 8537   6.352   4.082   3.023
 2546SOL    HW2 8538   6.276   4.048   2.883
 2547SOL     OW 8539   5.989   3.477   0.485
 2547SOL    HW1 8540   6.082   3.442   0.500
 2547SOL    HW2 8541   5.987   3.575   0.505
 2548SOL     OW 8542   6.794   6.751   5.627
 2548SOL    HW1 8543   6.777   6.753   5.726
 2548SOL    HW2 8544   6.890   6.770   5.609
 2549SOL     OW 8545   2.733   2.851   0.205
 2549SOL    HW1 8546   2.783   2.840   0.290
 2549SOL    HW2 8547   2.645   2.804   0.212
 2550SOL     OW 8548   3.988   5.924   6.458
 2550SOL    HW1 8549   4.044   5.970   6.390
 2550SOL    HW2 8550   3.913   5.876   6.412
 2551SOL     OW 8551   3.341   5.739   0.490
 2551SOL    HW1 8552   3.294   5.761   0.576
 2551SOL    HW2 8553   3.351   5.640   0.482
 2552SOL     OW 8554   2.241   5.858   1.388
 2552SOL    HW1 8555   2.334   5.845   1.355
 2552SOL    HW2 8556   2.237   5.838   1.486
 2553SOL     OW 8557   4.656   1.341   6.578
 2553SOL    HW1 8558   4.569   1.389   6.590
 2553SOL    HW2 8559   4.725   1.405   6.544
 2554SOL     OW 8560   1.322   5.698   1.375
 2554SOL    HW1 8561   1.415   5.660   1.378
 2554SOL    HW2 8562   1.256   5.625   1.388
 2555SOL     OW 8563   5.392   6.667   4.847
 2555SOL    HW1 8564   5.393   6.721   4.931
 2555SOL    HW2 8565   5.400   6.727   4.768
 2556SOL     OW 8566   3.905   0.500   0.301
 2556SOL    HW1 8567   3.900   0.558   0.382
 2556SOL    HW2 8568   3.931   0.407   0.328
 2557SOL     OW 8569   3.076   0.507   6.275
 2557SOL    HW1 8570   3.074   0.601   6.239
 2557SOL    HW2 8571   3.001   0.495   6.340
 2558SOL     OW 8572   5.219   3.442   0.636
 2558SOL    HW1 8573   5.132   3.399   0.662
 2558SOL    HW2 8574   5.210   3.484   0.546
 2559SOL     OW 8575   0.808   4.425   3.994
 2559SOL    HW1 8576   0.823   4.327   3.989
 2559SOL    HW2 8577   0.798   4.463   3.902
 2560SOL     OW 8578   4.817   2.019   3.691
 2560SOL    HW1 8579   4.858   1.987   3.777
 2560SOL    HW2 8580   4.804   2.118   3.695
 2561SOL     OW 8581   3.598   0.442   5.006
 2561SOL    HW1 8582   3.665   0.473   4.938
 2561SOL    HW2 8583   3.646   0.417   5.090
 2562SOL     OW 8584   2.602   6.437   3.795
 2562SOL    HW1 8585   2.508   6.452   3.826
 2562SOL    HW2 8586   2.608   6.347   3.751
 2563SOL     OW 8587   3.465   2.095   6.298
 2563SOL    HW1 8588   3.479   2.037   6.217
 2563SOL    HW2 8589   3.516   2.056   6.375
 2564SOL     OW 8590   1.789   1.678   0.011
 2564SOL    HW1 8591   1.822   1.729   6.948
 2564SOL    HW2 8592   1.758   1.742   0.081
 2565SOL     OW 8593   0.583   1.409   0.562
 2565SOL    HW1 8594   0.597   1.453   0.651
 2565SOL    HW2 8595   0.620   1.316   0.565
 2566SOL     OW 8596   2.537   0.756   0.762
 2566SOL    HW1 8597   2.504   0.676   0.713
 2566SOL    HW2 8598   2.538   0.835   0.700
 2567SOL     OW 8599   2.307   1.150   0.258
 2567SOL    HW1 8600   2.218   1.185   0.289
 2567SOL    HW2 8601   2.311   1.051   0.273
 2568SOL     OW 8602   3.373   6.025   0.040
 2568SOL    HW1 8603   3.309   6.083   0.092
 2568SOL    HW2 8604   3.452   6.004   0.096
 2569SOL     OW 8605   1.827   0.497   0.950
 2569SOL    HW1 8606   1.902   0.519   1.012
 2569SOL    HW2 8607   1.742   0.535   0.986
 2570SOL     OW 8608   7.003   6.447   5.521
 2570SOL    HW1 8609   6.919   6.429   5.573
 2570SOL    HW2 8610   6.980   6.459   5.425
 2571SOL     OW 8611   3.413   3.145   4.015
 2571SOL    HW1 8612   3.446   3.215   4.078
 2571SOL    HW2 8613   3.361   3.076   4.066
 2572SOL     OW 8614   1.802   5.951   1.948
 2572SOL    HW1 8615   1.714   5.905   1.938
 2572SOL    HW2 8616   1.866   5.890   1.996
 2573SOL     OW 8617   6.540   2.269   4.957
 2573SOL    HW1 8618   6.503   2.208   4.887
 2573SOL    HW2 8619   6.639   2.264   4.956
 2574SOL     OW 8620   0.572   3.581   2.327
 2574SOL    HW1 8621   0.659   3.585   2.276
 2574SOL    HW2 8622   0.572   3.651   2.398
 2575SOL     OW 8623   5.563   3.847   0.301
 2575SOL    HW1 8624   5.515   3.775   0.252
 2575SOL    HW2 8625   5.630   3.890   0.241
 2576SOL     OW 8626   1.986   6.707   3.714
 2576SOL    HW1 8627   2.000   6.639   3.642
 2576SOL    HW2 8628   2.011   6.667   3.803
 2577SOL     OW 8629   2.798   5.830   1.311
 2577SOL    HW1 8630   2.822   5.867   1.401
 2577SOL    HW2 8631   2.868   5.856   1.244
 2578SOL     OW 8632   4.966   1.637   3.907
 2578SOL    HW1 8633   5.035   1.594   3.966
 2578SOL    HW2 8634   4.912   1.702   3.961
 2579SOL     OW 8635   6.985   1.513   6.274
 2579SOL    HW1 8636   0.040   1.557   6.220
 2579SOL    HW2 8637   6.896   1.531   6.233
 2580SOL     OW 8638   1.043   2.548   6.399
 2580SOL    HW1 8639   1.054   2.462   6.349
 2580SOL    HW2 8640   1.108   2.615   6.364
 2581SOL     OW 8641   6.462   6.541   4.183
 2581SOL    HW1 8642   6.462   6.474   4.257
 2581SOL    HW2 8643   6.519   6.619   4.207
 2582SOL     OW 8644   0.651   5.554   2.757
 2582SOL    HW1 8645   0.662   5.639   2.705
 2582SOL    HW2 8646   0.560   5.516   2.742
 2583SOL     OW 8647   2.171   0.872   0.267
 2583SOL    HW1 8648   2.104   0.835   0.203
 2583SOL    HW2 8649   2.131   0.876   0.359
 2584SOL     OW 8650   5.170   6.601   1.936
 2584SOL    HW1 8651   5.098   6.540   1.903
 2584SOL    HW2 8652   5.259   6.566   1.908
 2585SOL     OW 8653   3.789   1.420   1.559
 2585SOL    HW1 8654   3.712   1.363   1.531
 2585SOL    HW2 8655   3.778   1.512   1.521
 2586SOL     OW 8656   6.597   2.558   4.448
 2586SOL    HW1 8657   6.670   2.581   4.384
 2586SOL    HW2 8658   6.629   2.489   4.512
 2587SOL     OW 8659   6.127   6.390   2.680
 2587SOL    HW1 8660   6.183   6.335   2.617
 2587SOL    HW2 8661   6.109   6.337   2.762
 2588SOL     OW 8662   5.320   0.531   1.856
 2588SOL    HW1 8663   5.220   0.519   1.855
 2588SOL    HW2 8664   5.355   0.522   1.763
 2589SOL     OW 8665   6.049   6.603   0.804
 2589SOL    HW1 8666   6.117   6.561   0.743
 2589SOL    HW2 8667   6.093   6.672   0.861
 2590SOL     OW 8668   4.152   6.216   2.520
 2590SOL    HW1 8669   4.248   6.188   2.527
 2590SOL    HW2 8670   4.128   6.272   2.599
 2591SOL     OW 8671   5.590   0.562   1.910
 2591SOL    HW1 8672   5.616   0.636   1.849
 2591SOL    HW2 8673   5.491   0.548   1.906
 2592SOL     OW 8674   3.325   5.576   1.379
 2592SOL    HW1 8675   3.311   5.667   1.338
 2592SOL    HW2 8676   3.350   5.587   1.475
 2593SOL     OW 8677   3.063   6.527   2.489
 2593SOL    HW1 8678   3.141   6.554   2.433
 2593SOL    HW2 8679   3.060   6.584   2.572
 2594SOL     OW 8680   1.054   5.895   6.373
 2594SOL    HW1 8681   1.031   5.975   6.317
 2594SOL    HW2 8682   0.986   5.823   6.358
 2595SOL     OW 8683   6.398   3.605   4.354
 2595SOL    HW1 8684   6.450   3.562   4.280
 2595SOL    HW2 8685   6.452   3.680   4.393
 2596SOL     OW 8686   3.922   2.040   1.995
 2596SOL    HW1 8687   3.884   2.121   2.040
 2596SOL    HW2 8688   3.965   2.068   1.909
 2597SOL     OW 8689   1.999   2.671   6.709
 2597SOL    HW1 8690   1.958   2.762   6.706
 2597SOL    HW2 8691   1.949   2.614   6.775
 2598SOL     OW 8692   6.409   2.818   2.893
 2598SOL    HW1 8693   6.495   2.784   2.931
 2598SOL    HW2 8694   6.339   2.748   2.901
 2599SOL     OW 8695   4.650   4.551   6.827
 2599SOL    HW1 8696   4.576   4.616   6.809
 2599SOL    HW2 8697   4.636   4.469   6.772
 2600SOL     OW 8698   6.643   3.857   3.361
 2600SOL    HW1 8699   6.671   3.939   3.412
 2600SOL    HW2 8700   6.587   3.799   3.419
 2601SOL     OW 8701   3.472   2.903   5.602
 2601SOL    HW1 8702   3.403   2.832   5.585
 2601SOL    HW2 8703   3.562   2.867   5.581
 2602SOL     OW 8704   6.150   5.959   4.679
 2602SOL    HW1 8705   6.204   5.913   4.608
 2602SOL    HW2 8706   6.079   5.896   4.712
 2603SOL     OW 8707   2.924   2.735   0.359
 2603SOL    HW1 8708   3.002   2.749   0.420
 2603SOL    HW2 8709   2.957   2.712   0.267
 2604SOL     OW 8710   6.137   0.919   1.867
 2604SOL    HW1 8711   6.093   0.832   1.886
 2604SOL    HW2 8712   6.092   0.991   1.919
 2605SOL     OW 8713   4.762   4.542   4.375
 2605SOL    HW1 8714   4.684   4.518   4.316
 2605SOL    HW2 8715   4.729   4.563   4.467
 2606SOL     OW 8716   0.006   4.619   1.850
 2606SOL    HW1 8717   0.011   4.526   1.816
 2606SOL    HW2 8718   6.947   4.667   1.805
 2607SOL     OW 8719   0.616   1.620   4.538
 2607SOL    HW1 8720   0.614   1.662   4.629
 2607SOL    HW2 8721   0.701   1.567   4.529
 2608SOL     OW 8722   5.296   0.758   0.682
 2608SOL    HW1 8723   5.388   0.782   0.714
 2608SOL    HW2 8724   5.293   0.660   0.661
 2609SOL     OW 8725   0.284   2.010   4.640
 2609SOL    HW1 8726   0.277   2.055   4.551
 2609SOL    HW2 8727   0.250   2.072   4.711
 2610SOL     OW 8728   6.136   5.667   4.269
 2610SOL    HW1 8729   6.198   5.593   4.242
 2610SOL    HW2 8730   6.056   5.667   4.210
 2611SOL     OW 8731   3.510   6.318   1.527
 2611SOL    HW1 8732   3.461   6.362   1.452
 2611SOL    HW2 8733   3.543   6.387   1.591
 2612SOL     OW 8734   6.184   6.470   4.160
 2612SOL    HW1 8735   6.275   6.508   4.140
 2612SOL    HW2 8736   6.158   6.495   4.253
 2613SOL     OW 8737   4.191   0.580   1.722
 2613SOL    HW1 8738   4.099   0.547   1.742
 2613SOL    HW2 8739   4.190   0.634   1.638
 2614SOL     OW 8740   6.869   6.536   6.571
 2614SOL    HW1 8741   6.801   6.467   6.544
 2614SOL    HW2 8742   6.939   6.543   6.499
 2615SOL     OW 8743   5.663   5.020   2.052
 2615SOL    HW1 8744   5.721   5.080   2.107
 2615SOL    HW2 8745   5.582   4.995   2.105
 2616SOL     OW 8746   3.716   2.925   2.630
 2616SOL    HW1 8747   3.745   2.843   2.581
 2616SOL    HW2 8748   3.638   2.903   2.688
 2617SOL     OW 8749   3.845   0.417   1.500
 2617SOL    HW1 8750   3.893   0.358   1.436
 2617SOL    HW2 8751   3.754   0.438   1.464
 2618SOL     OW 8752   1.032   0.405   1.017
 2618SOL    HW1 8753   0.953   0.344   1.008
 2618SOL    HW2 8754   1.028   0.475   0.946
 2619SOL     OW 8755   4.891   1.662   1.445
 2619SOL    HW1 8756   4.866   1.709   1.360
 2619SOL    HW2 8757   4.973   1.607   1.429
 2620SOL     OW 8758   1.625   4.182   3.874
 2620SOL    HW1 8759   1.574   4.239   3.939
 2620SOL    HW2 8760   1.717   4.221   3.861
 2621SOL     OW 8761   0.929   4.855   3.906
 2621SOL    HW1 8762   0.949   4.862   3.808
 2621SOL    HW2 8763   0.842   4.806   3.918
 2622SOL     OW 8764   3.023   3.292   6.188
 2622SOL    HW1 8765   2.934   3.302   6.232
 2622SOL    HW2 8766   3.013   3.303   6.090
 2623SOL     OW 8767   3.046   0.994   5.627
 2623SOL    HW1 8768   2.974   0.925   5.637
 2623SOL    HW2 8769   3.043   1.031   5.534
 2624SOL     OW 8770   6.775   2.380   4.064
 2624SOL    HW1 8771   6.687   2.424   4.046
 2624SOL    HW2 8772   6.778   2.291   4.019
 2625SOL     OW 8773   3.961   0.790   5.374
 2625SOL    HW1 8774   4.001   0.789   5.283
 2625SOL    HW2 8775   3.862   0.781   5.368
 2626SOL     OW 8776   2.099   6.624   2.554
 2626SOL    HW1 8777   2.180   6.646   2.608
 2626SOL    HW2 8778   2.034   6.699   2.559
 2627SOL     OW 8779   0.027   0.007   4.479
 2627SOL    HW1 8780   6.997   6.944   4.440
 2627SOL    HW2 8781   0.004   0.088   4.426
 2628SOL     OW 8782   3.941   5.292   5.627
 2628SOL    HW1 8783   3.878   5.223   5.664
 2628SOL    HW2 8784   3.889   5.359   5.573
 2629SOL     OW 8785   3.782   4.188   1.243
 2629SOL    HW1 8786   3.755   4.098   1.207
 2629SOL    HW2 8787   3.764   4.192   1.341
 2630SOL     OW 8788   2.749   2.331   2.274
 2630SOL    HW1 8789   2.778   2.391   2.200
 2630SOL    HW2 8790   2.687   2.261   2.237
 2631SOL     OW 8791   4.905   6.126   4.498
 2631SOL    HW1 8792   4.844   6.118   4.419
 2631SOL    HW2 8793   4.862   6.182   4.568
 2632SOL     OW 8794   5.015   1.978   0.549
 2632SOL    HW1 8795   5.002   2.075   0.568
 2632SOL    HW2 8796   5.002   1.961   0.451
 2633SOL     OW 8797   6.248   2.350   6.509
 2633SOL    HW1 8798   6.223   2.360   6.606
 2633SOL    HW2 8799   6.239   2.254   6.482
 2634SOL     OW 8800   2.535   5.406   1.312
 2634SOL    HW1 8801   2.603   5.401   1.385
 2634SOL    HW2 8802   2.443   5.397   1.351
 2635SOL     OW 8803   5.122   4.532   4.221
 2635SOL    HW1 8804   5.149   4.450   4.273
 2635SOL    HW2 8805   5.192   4.553   4.153
 2636SOL     OW 8806   5.984   0.410   5.080
 2636SOL    HW1 8807   6.005   0.344   5.152
 2636SOL    HW2 8808   5.885   0.421   5.073
 2637SOL     OW 8809   5.087   6.506   2.551
 2637SOL    HW1 8810   5.012   6.572   2.558
 2637SOL    HW2 8811   5.085   6.462   2.461
 2638SOL     OW 8812   5.705   6.123   1.021
 2638SOL    HW1 8813   5.668   6.144   1.111
 2638SOL    HW2 8814   5.697   6.204   0.963
 2639SOL     OW 8815   6.613   6.464   0.399
 2639SOL    HW1 8816   6.694   6.505   0.356
 2639SOL    HW2 8817   6.633   6.370   0.425
 2640SOL     OW 8818   6.962   6.989   5.978
 2640SOL    HW1 8819   6.993   0.049   5.922
 2640SOL    HW2 8820   0.023   6.930   6.000
 2641SOL     OW 8821   5.733   5.144   0.046
 2641SOL    HW1 8822   5.661   5.077   0.065
 2641SOL    HW2 8823   5.806   5.101   7.009
 2642SOL     OW 8824   6.336   6.916   3.704
 2642SOL    HW1 8825   6.399   6.839   3.719
 2642SOL    HW2 8826   6.387   6.996   3.674
 2643SOL     OW 8827   0.799   0.395   2.435
 2643SOL    HW1 8828   0.819   0.472   2.495
 2643SOL    HW2 8829   0.714   0.412   2.386
 2644SOL     OW 8830   0.098   4.802   6.037
 2644SOL    HW1 8831   0.174   4.828   6.098
 2644SOL    HW2 8832   0.112   4.708   6.006
 2645SOL     OW 8833   5.536   5.938   5.711
 2645SOL    HW1 8834   5.477   6.015   5.687
 2645SOL    HW2 8835   5.529   5.867   5.641
 2646SOL     OW 8836   6.366   6.375   7.009
 2646SOL    HW1 8837   6.447   6.413   0.037
 2646SOL    HW2 8838   6.288   6.380   0.054
 2647SOL     OW 8839   4.212   1.497   0.735
 2647SOL    HW1 8840   4.140   1.433   0.708
 2647SOL    HW2 8841   4.299   1.448   0.743
 2648SOL     OW 8842   4.458   0.457   2.285
 2648SOL    HW1 8843   4.514   0.522   2.235
 2648SOL    HW2 8844   4.455   0.484   2.382
 2649SOL     OW 8845   3.415   1.826   5.837
 2649SOL    HW1 8846   3.321   1.796   5.854
 2649SOL    HW2 8847   3.456   1.768   5.766
 2650SOL     OW 8848   0.345   6.010   2.076
 2650SOL    HW1 8849   0.364   6.035   1.982
 2650SOL    HW2 8850   0.425   6.029   2.133
 2651SOL     OW 8851   0.022   0.818   3.308
 2651SOL    HW1 8852   6.993   0.788   3.392
 2651SOL    HW2 8853   0.091   0.887   3.332
 2652SOL     OW 8854   2.997   3.383   2.438
 2652SOL    HW1 8855   2.960   3.464   2.392
 2652SOL    HW2 8856   3.097   3.384   2.432
 2653SOL     OW 8857   6.514   6.586   6.333
 2653SOL    HW1 8858   6.566   6.527   6.396
 2653SOL    HW2 8859   6.427   6.542   6.312
 2654SOL     OW 8860   5.851   2.938   6.012
 2654SOL    HW1 8861   5.854   3.021   6.067
 2654SOL    HW2 8862   5.886   2.861   6.065
 2655SOL     OW 8863   4.977   6.402   5.058
 2655SOL    HW1 8864   4.941   6.334   4.994
 2655SOL    HW2 8865   5.063   6.439   5.023
 2656SOL     OW 8866   5.807   3.127   4.050
 2656SOL    HW1 8867   5.710   3.119   4.025
 2656SOL    HW2 8868   5.852   3.039   4.038
 2657SOL     OW 8869   1.987   2.924   6.264
 2657SOL    HW1 8870   2.014   2.998   6.325
 2657SOL    HW2 8871   1.899   2.888   6.293
 2658SOL     OW 8872   6.005   4.012   6.013
 2658SOL    HW1 8873   5.983   3.919   5.987
 2658SOL    HW2 8874   5.929   4.073   5.989
 2659SOL     OW 8875   6.709   3.208   4.034
 2659SOL    HW1 8876   6.720   3.249   3.943
 2659SOL    HW2 8877   6.743   3.114   4.032
 2660SOL     OW 8878   0.090   2.461   3.169
 2660SOL    HW1 8879   0.114   2.365   3.155
 2660SOL    HW2 8880   0.018   2.467   3.239
 2661SOL     OW 8881   4.504   5.881   0.522
 2661SOL    HW1 8882   4.526   5.899   0.617
 2661SOL    HW2 8883   4.448   5.957   0.486
 2662SOL     OW 8884   3.093   6.849   3.775
 2662SOL    HW1 8885   3.152   6.885   3.703
 2662SOL    HW2 8886   3.131   6.762   3.808
 2663SOL     OW 8887   1.301   4.131   2.461
 2663SOL    HW1 8888   1.268   4.052   2.408
 2663SOL    HW2 8889   1.255   4.214   2.429
 2664SOL     OW 8890   4.071   3.637   2.010
 2664SOL    HW1 8891   4.108   3.667   2.098
 2664SOL    HW2 8892   3.979   3.599   2.023
 2665SOL     OW 8893   3.781   1.027   4.503
 2665SOL    HW1 8894   3.803   1.124   4.506
 2665SOL    HW2 8895   3.793   0.987   4.594
 2666SOL     OW 8896   5.459   5.751   1.408
 2666SOL    HW1 8897   5.541   5.694   1.421
 2666SOL    HW2 8898   5.436   5.754   1.311
 2667SOL     OW 8899   1.637   5.168   3.725
 2667SOL    HW1 8900   1.639   5.149   3.824
 2667SOL    HW2 8901   1.560   5.121   3.683
 2668SOL     OW 8902   0.118   2.938   5.684
 2668SOL    HW1 8903   0.111   2.961   5.781
 2668SOL    HW2 8904   0.127   3.022   5.630
 2669SOL     OW 8905   4.448   4.921   5.025
 2669SOL    HW1 8906   4.407   4.894   5.112
 2669SOL    HW2 8907   4.461   5.020   5.024
 2670SOL     OW 8908   1.582   1.068   6.763
 2670SOL    HW1 8909   1.634   1.139   6.717
 2670SOL    HW2 8910   1.557   0.997   6.697
 2671SOL     OW 8911   2.430   3.547   5.886
 2671SOL    HW1 8912   2.405   3.628   5.835
 2671SOL    HW2 8913   2.530   3.540   5.893
 2672SOL     OW 8914   1.294   5.027   1.310
 2672SOL    HW1 8915   1.300   5.040   1.409
 2672SOL    HW2 8916   1.201   4.996   1.287
 2673SOL     OW 8917   3.902   1.960   2.958
 2673SOL    HW1 8918   3.972   1.950   2.887
 2673SOL    HW2 8919   3.931   1.910   3.040
 2674SOL     OW 8920   5.435   5.319   5.474
 2674SOL    HW1 8921   5.391   5.237   5.437
 2674SOL    HW2 8922   5.489   5.293   5.555
 2675SOL     OW 8923   0.371   4.957   5.440
 2675SOL    HW1 8924   0.368   4.874   5.385
 2675SOL    HW2 8925   0.389   4.933   5.535
 2676SOL     OW 8926   4.458   1.073   2.022
 2676SOL    HW1 8927   4.463   0.980   2.057
 2676SOL    HW2 8928   4.531   1.087   1.954
 2677SOL     OW 8929   2.429   5.217   1.869
 2677SOL    HW1 8930   2.433   5.122   1.900
 2677SOL    HW2 8931   2.371   5.270   1.931
 2678SOL     OW 8932   0.444   4.934   5.692
 2678SOL    HW1 8933   0.445   4.869   5.768
 2678SOL    HW2 8934   0.426   5.026   5.727
 2679SOL     OW 8935   2.874   4.291   1.224
 2679SOL    HW1 8936   2.886   4.192   1.218
 2679SOL    HW2 8937   2.807   4.312   1.295
 2680SOL     OW 8938   1.145   2.142   1.634
 2680SOL    HW1 8939   1.099   2.065   1.590
 2680SOL    HW2 8940   1.077   2.209   1.665
 2681SOL     OW 8941   1.705   2.088   2.789
 2681SOL    HW1 8942   1.634   2.152   2.759
 2681SOL    HW2 8943   1.769   2.134   2.850
 2682SOL     OW 8944   5.892   2.078   3.130
 2682SOL    HW1 8945   5.842   1.993   3.137
 2682SOL    HW2 8946   5.867   2.138   3.206
 2683SOL     OW 8947   0.780   6.621   1.440
 2683SOL    HW1 8948   0.780   6.527   1.474
 2683SOL    HW2 8949   0.690   6.644   1.405
 2684SOL     OW 8950   2.509   6.478   2.797
 2684SOL    HW1 8951   2.577   6.546   2.767
 2684SOL    HW2 8952   2.522   6.459   2.894
 2685SOL     OW 8953   5.529   5.765   5.508
 2685SOL    HW1 8954   5.506   5.844   5.451
 2685SOL    HW2 8955   5.607   5.717   5.468
 2686SOL     OW 8956   1.948   2.798   4.372
 2686SOL    HW1 8957   1.903   2.860   4.436
 2686SOL    HW2 8958   1.941   2.835   4.279
 2687SOL     OW 8959   4.607   5.462   2.564
 2687SOL    HW1 8960   4.670   5.461   2.486
 2687SOL    HW2 8961   4.658   5.482   2.648
 2688SOL     OW 8962   3.752   4.696   5.984
 2688SOL    HW1 8963   3.798   4.611   6.008
 2688SOL    HW2 8964   3.720   4.741   6.067
 2689SOL     OW 8965   6.711   3.413   3.803
 2689SOL    HW1 8966   6.616   3.400   3.775
 2689SOL    HW2 8967   6.764   3.448   3.725
 2690SOL     OW 8968   3.829   3.558   3.384
 2690SOL    HW1 8969   3.926   3.534   3.380
 2690SOL    HW2 8970   3.775   3.476   3.364
 2691SOL     OW 8971   1.490   6.125   1.875
 2691SOL    HW1 8972   1.543   6.169   1.947
 2691SOL    HW2 8973   1.440   6.194   1.823
 2692SOL     OW 8974   0.203   6.650   3.539
 2692SOL    HW1 8975   0.205   6.552   3.557
 2692SOL    HW2 8976   0.271   6.673   3.469
 2693SOL     OW 8977   1.944   4.157   2.923
 2693SOL    HW1 8978   1.897   4.233   2.967
 2693SOL    HW2 8979   1.915   4.071   2.964
 2694SOL     OW 8980   2.027   6.882   3.233
 2694SOL    HW1 8981   1.981   6.797   3.258
 2694SOL    HW2 8982   1.964   6.941   3.183
 2695SOL     OW 8983   4.548   1.842   3.364
 2695SOL    HW1 8984   4.568   1.882   3.454
 2695SOL    HW2 8985   4.539   1.743   3.372
 2696SOL     OW 8986   3.889   3.882   5.521
 2696SOL    HW1 8987   3.935   3.966   5.550
 2696SOL    HW2 8988   3.903   3.811   5.590
 2697SOL     OW 8989   2.504   1.580   4.084
 2697SOL    HW1 8990   2.480   1.640   4.008
 2697SOL    HW2 8991   2.446   1.600   4.163
 2698SOL     OW 8992   2.704   3.671   0.670
 2698SOL    HW1 8993   2.803   3.669   0.683
 2698SOL    HW2 8994   2.679   3.745   0.607
 2699SOL     OW 8995   3.666   5.958   1.934
 2699SOL    HW1 8996   3.693   5.892   2.004
 2699SOL    HW2 8997   3.724   6.040   1.942
 2700SOL     OW 8998   2.109   3.439   2.807
 2700SOL    HW1 8999   2.119   3.345   2.839
 2700SOL    HW2 9000   2.105   3.439   2.707
 2701SOL     OW 9001   3.953   6.862   6.703
 2701SOL    HW1 9002   3.995   6.804   6.633
 2701SOL    HW2 9003   3.953   6.815   6.791
 2702SOL     OW 9004   6.825   0.199   3.694
 2702SOL    HW1 9005   6.880   0.148   3.627
 2702SOL    HW2 9006   6.744   0.145   3.718
 2703SOL     OW 9007   1.833   1.597   2.254
 2703SOL    HW1 9008   1.762   1.641   2.200
 2703SOL    HW2 9009   1.874   1.664   2.316
 2704SOL     OW 9010   2.571   4.738   1.309
 2704SOL    HW1 9011   2.600   4.787   1.391
 2704SOL    HW2 9012   2.549   4.644   1.332
 2705SOL     OW 9013   6.610   5.246   3.415
 2705SOL    HW1 9014   6.655   5.232   3.327
 2705SOL    HW2 9015   6.514   5.218   3.409
 2706SOL     OW 9016   0.047   1.441   2.112
 2706SOL    HW1 9017   7.016   1.520   2.150
 2706SOL    HW2 9018   0.026   1.359   2.166
 2707SOL     OW 9019   2.401   1.543   5.867
 2707SOL    HW1 9020   2.370   1.501   5.782
 2707SOL    HW2 9021   2.356   1.500   5.945
 2708SOL     OW 9022   1.860   2.480   1.282
 2708SOL    HW1 9023   1.938   2.489   1.220
 2708SOL    HW2 9024   1.835   2.384   1.291
 2709SOL     OW 9025   4.688   6.142   0.403
 2709SOL    HW1 9026   4.608   6.110   0.454
 2709SOL    HW2 9027   4.685   6.242   0.395
 2710SOL     OW 9028   6.242   3.771   3.055
 2710SOL    HW1 9029   6.234   3.768   3.155
 2710SOL    HW2 9030   6.300   3.848   3.029
 2711SOL     OW 9031   1.348   0.615   2.041
 2711SOL    HW1 9032   1.302   0.532   2.074
 2711SOL    HW2 9033   1.420   0.590   1.977
 2712SOL     OW 9034   2.861   3.920   0.321
 2712SOL    HW1 9035   2.848   3.861   0.242
 2712SOL    HW2 9036   2.958   3.943   0.331
 2713SOL     OW 9037   2.186   3.171   5.137
 2713SOL    HW1 9038   2.273   3.122   5.132
 2713SOL    HW2 9039   2.160   3.202   5.045
 2714SOL     OW 9040   5.197   6.800   5.609
 2714SOL    HW1 9041   5.271   6.768   5.549
 2714SOL    HW2 9042   5.116   6.743   5.594
 2715SOL     OW 9043   6.117   1.150   6.520
 2715SOL    HW1 9044   6.200   1.169   6.573
 2715SOL    HW2 9045   6.040   1.200   6.559
 2716SOL     OW 9046   0.600   0.188   2.179
 2716SOL    HW1 9047   0.587   0.236   2.266
 2716SOL    HW2 9048   0.665   0.239   2.123
 2717SOL     OW 9049   0.751   0.796   2.507
 2717SOL    HW1 9050   0.769   0.866   2.438
 2717SOL    HW2 9051   0.756   0.837   2.598
 2718SOL     OW 9052   1.761   4.782   3.773
 2718SOL    HW1 9053   1.841   4.755   3.719
 2718SOL    HW2 9054   1.790   4.841   3.848
 2719SOL     OW 9055   4.089   5.374   1.739
 2719SOL    HW1 9056   4.113   5.390   1.834
 2719SOL    HW2 9057   4.092   5.461   1.689
 2720SOL     OW 9058   1.217   6.026   3.775
 2720SOL    HW1 9059   1.304   6.016   3.824
 2720SOL    HW2 9060   1.173   6.112   3.802
 2721SOL     OW 9061   3.796   6.867   4.014
 2721SOL    HW1 9062   3.729   6.941   4.023
 2721SOL    HW2 9063   3.763   6.785   4.062
 2722SOL     OW 9064   1.329   5.958   2.141
 2722SOL    HW1 9065   1.315   6.055   2.163
 2722SOL    HW2 9066   1.427   5.941   2.127
 2723SOL     OW 9067   1.592   1.464   5.927
 2723SOL    HW1 9068   1.538   1.537   5.883
 2723SOL    HW2 9069   1.682   1.461   5.884
 2724SOL     OW 9070   4.127   5.426   6.439
 2724SOL    HW1 9071   4.060   5.500   6.430
 2724SOL    HW2 9072   4.178   5.437   6.524
 2725SOL     OW 9073   3.214   4.886   3.858
 2725SOL    HW1 9074   3.222   4.872   3.956
 2725SOL    HW2 9075   3.303   4.910   3.819
 2726SOL     OW 9076   4.648   5.419   1.820
 2726SOL    HW1 9077   4.619   5.431   1.725
 2726SOL    HW2 9078   4.586   5.355   1.866
 2727SOL     OW 9079   2.163   5.702   2.531
 2727SOL    HW1 9080   2.149   5.604   2.546
 2727SOL    HW2 9081   2.186   5.746   2.618
 2728SOL     OW 9082   3.342   6.883   5.749
 2728SOL    HW1 9083   3.315   6.804   5.803
 2728SOL    HW2 9084   3.260   6.930   5.715
 2729SOL     OW 9085   5.431   5.180   2.964
 2729SOL    HW1 9086   5.470   5.263   2.926
 2729SOL    HW2 9087   5.423   5.111   2.891
 2730SOL     OW 9088   1.984   5.721   1.367
 2730SOL    HW1 9089   1.990   5.627   1.334
 2730SOL    HW2 9090   2.076   5.758   1.377
 2731SOL     OW 9091   3.196   3.867   1.721
 2731SOL    HW1 9092   3.112   3.909   1.754
 2731SOL    HW2 9093   3.256   3.938   1.682
 2732SOL     OW 9094   6.060   2.137   2.436
 2732SOL    HW1 9095   6.135   2.107   2.495
 2732SOL    HW2 9096   6.097   2.186   2.357
 2733SOL     OW 9097   1.350   6.912   6.021
 2733SOL    HW1 9098   1.327   6.965   6.102
 2733SOL    HW2 9099   1.271   6.858   5.993
 2734SOL     OW 9100   1.937   5.489   3.875
 2734SOL    HW1 9101   2.011   5.496   3.809
 2734SOL    HW2 9102   1.850   5.477   3.826
 2735SOL     OW 9103   1.678   5.033   2.360
 2735SOL    HW1 9104   1.658   5.093   2.283
 2735SOL    HW2 9105   1.716   4.947   2.327
 2736SOL     OW 9106   4.290   0.321   5.477
 2736SOL    HW1 9107   4.297   0.287   5.571
 2736SOL    HW2 9108   4.275   0.420   5.479
 2737SOL     OW 9109   4.701   3.608   6.508
 2737SOL    HW1 9110   4.785   3.572   6.547
 2737SOL    HW2 9111   4.719   3.699   6.470
 2738SOL     OW 9112   5.753   5.149   4.292
 2738SOL    HW1 9113   5.744   5.240   4.252
 2738SOL    HW2 9114   5.836   5.106   4.258
 2739SOL     OW 9115   6.341   2.901   0.785
 2739SOL    HW1 9116   6.273   2.877   0.854
 2739SOL    HW2 9117   6.375   2.818   0.741
 2740SOL     OW 9118   6.126   2.157   3.386
 2740SOL    HW1 9119   6.197   2.176   3.318
 2740SOL    HW2 9120   6.135   2.062   3.417
 2741SOL     OW 9121   0.527   2.642   5.982
 2741SOL    HW1 9122   0.517   2.713   6.051
 2741SOL    HW2 9123   0.617   2.650   5.938
 2742SOL     OW 9124   1.901   6.538   6.494
 2742SOL    HW1 9125   1.819   6.581   6.458
 2742SOL    HW2 9126   1.979   6.600   6.484
 2743SOL     OW 9127   5.371   5.007   0.794
 2743SOL    HW1 9128   5.394   4.933   0.731
 2743SOL    HW2 9129   5.451   5.031   0.848
 2744SOL     OW 9130   4.138   1.659   6.326
 2744SOL    HW1 9131   4.205   1.621   6.262
 2744SOL    HW2 9132   4.046   1.651   6.286
 2745SOL     OW 9133   2.430   6.023   0.530
 2745SOL    HW1 9134   2.331   6.014   0.517
 2745SOL    HW2 9135   2.463   5.945   0.583
 2746SOL     OW 9136   1.437   2.483   6.035
 2746SOL    HW1 9137   1.504   2.533   6.090
 2746SOL    HW2 9138   1.425   2.391   6.071
 2747SOL     OW 9139   3.898   5.837   4.257
 2747SOL    HW1 9140   3.847   5.915   4.221
 2747SOL    HW2 9141   3.914   5.851   4.355
 2748SOL     OW 9142   3.820   1.162   3.884
 2748SOL    HW1 9143   3.825   1.262   3.874
 2748SOL    HW2 9144   3.785   1.123   3.799
 2749SOL     OW 9145   4.524   5.279   3.583
 2749SOL    HW1 9146   4.555   5.318   3.670
 2749SOL    HW2 9147   4.481   5.191   3.600
 2750SOL     OW 9148   0.279   6.011   2.619
 2750SOL    HW1 9149   0.379   6.000   2.620
 2750SOL    HW2 9150   0.251   6.041   2.528
 2751SOL     OW 9151   1.570   0.032   6.497
 2751SOL    HW1 9152   1.550   0.034   6.595
 2751SOL    HW2 9153   1.666   0.010   6.483
 2752SOL     OW 9154   5.755   6.410   5.646
 2752SOL    HW1 9155   5.746   6.340   5.575
 2752SOL    HW2 9156   5.737   6.368   5.736
 2753SOL     OW 9157   2.458   5.292   5.296
 2753SOL    HW1 9158   2.373   5.259   5.338
 2753SOL    HW2 9159   2.514   5.214   5.267
 2754SOL     OW 9160   1.385   6.726   4.032
 2754SOL    HW1 9161   1.289   6.750   4.018
 2754SOL    HW2 9162   1.392   6.650   4.096
 2755SOL     OW 9163   3.530   6.065   2.220
 2755SOL    HW1 9164   3.492   6.088   2.130
 2755SOL    HW2 9165   3.606   6.126   2.239
 2756SOL     OW 9166   0.605   2.936   5.689
 2756SOL    HW1 9167   0.619   2.957   5.592
 2756SOL    HW2 9168   0.607   3.021   5.742
 2757SOL     OW 9169   4.216   3.459   6.851
 2757SOL    HW1 9170   4.297   3.418   6.809
 2757SOL    HW2 9171   4.228   3.558   6.858
 2758SOL     OW 9172   6.574   6.159   2.483
 2758SOL    HW1 9173   6.623   6.081   2.446
 2758SOL    HW2 9174   6.481   6.162   2.445
 2759SOL     OW 9175   2.885   3.810   5.949
 2759SOL    HW1 9176   2.882   3.725   6.003
 2759SOL    HW2 9177   2.927   3.791   5.861
 2760SOL     OW 9178   5.139   6.445   3.082
 2760SOL    HW1 9179   5.090   6.487   3.159
 2760SOL    HW2 9180   5.083   6.451   3.000
 2761SOL     OW 9181   1.139   2.636   3.562
 2761SOL    HW1 9182   1.086   2.710   3.603
 2761SOL    HW2 9183   1.192   2.672   3.485
 2762SOL     OW 9184   2.516   2.330   0.353
 2762SOL    HW1 9185   2.564   2.418   0.349
 2762SOL    HW2 9186   2.526   2.292   0.445
 2763SOL     OW 9187   6.129   1.843   4.620
 2763SOL    HW1 9188   6.225   1.868   4.607
 2763SOL    HW2 9189   6.079   1.923   4.654
 2764SOL     OW 9190   0.836   3.593   2.260
 2764SOL    HW1 9191   0.886   3.569   2.176
 2764SOL    HW2 9192   0.851   3.522   2.329
 2765SOL     OW 9193   6.615   0.022   6.964
 2765SOL    HW1 9194   6.589   0.110   7.005
 2765SOL    HW2 9195   6.539   6.974   6.972
 2766SOL     OW 9196   4.885   0.996   6.484
 2766SOL    HW1 9197   4.808   1.003   6.548
 2766SOL    HW2 9198   4.968   0.972   6.534
 2767SOL     OW 9199   6.507   5.460   6.529
 2767SOL    HW1 9200   6.568   5.382   6.513
 2767SOL    HW2 9201   6.465   5.487   6.442
 2768SOL     OW 9202   4.177   6.824   1.272
 2768SOL    HW1 9203   4.241   6.887   1.315
 2768SOL    HW2 9204   4.136   6.867   1.192
 2769SOL     OW 9205   0.524   4.548   5.706
 2769SOL    HW1 9206   0.546   4.599   5.789
 2769SOL    HW2 9207   0.581   4.466   5.701
 2770SOL     OW 9208   3.310   6.523   0.295
 2770SOL    HW1 9209   3.251   6.603   0.284
 2770SOL    HW2 9210   3.341   6.518   0.390
 2771SOL     OW 9211   4.355   6.726   4.893
 2771SOL    HW1 9212   4.426   6.768   4.951
 2771SOL    HW2 9213   4.370   6.752   4.798
 2772SOL     OW 9214   4.545   0.332   3.329
 2772SOL    HW1 9215   4.576   0.243   3.297
 2772SOL    HW2 9216   4.571   0.343   3.425
 2773SOL     OW 9217   5.520   2.882   5.098
 2773SOL    HW1 9218   5.457   2.959   5.100
 2773SOL    HW2 9219   5.468   2.796   5.090
 2774SOL     OW 9220   6.558   1.909   4.238
 2774SOL    HW1 9221   6.570   2.008   4.228
 2774SOL    HW2 9222   6.647   1.867   4.255
 2775SOL     OW 9223   0.296   3.395   3.858
 2775SOL    HW1 9224   0.358   3.335   3.807
 2775SOL    HW2 9225   0.331   3.489   3.856
 2776SOL     OW 9226   4.886   4.357   6.326
 2776SOL    HW1 9227   4.850   4.432   6.382
 2776SOL    HW2 9228   4.823   4.339   6.250
 2777SOL     OW 9229   2.585   2.180   6.703
 2777SOL    HW1 9230   2.609   2.160   6.608
 2777SOL    HW2 9231   2.552   2.274   6.709
 2778SOL     OW 9232   2.782   0.138   6.038
 2778SOL    HW1 9233   2.836   0.201   6.093
 2778SOL    HW2 9234   2.833   0.053   6.025
 2779SOL     OW 9235   4.960   0.579   1.491
 2779SOL    HW1 9236   4.954   0.526   1.406
 2779SOL    HW2 9237   4.923   0.526   1.567
 2780SOL     OW 9238   6.956   2.157   4.729
 2780SOL    HW1 9239   6.994   2.172   4.638
 2780SOL    HW2 9240   6.925   2.062   4.738
 2781SOL     OW 9241   5.490   1.618   3.518
 2781SOL    HW1 9242   5.568   1.629   3.457
 2781SOL    HW2 9243   5.522   1.584   3.607
 2782SOL     OW 9244   5.131   0.483   5.756
 2782SOL    HW1 9245   5.187   0.426   5.696
 2782SOL    HW2 9246   5.188   0.519   5.830
 2783SOL     OW 9247   5.730   4.035   1.392
 2783SOL    HW1 9248   5.820   4.078   1.394
 2783SOL    HW2 9249   5.709   4.006   1.299
 2784SOL     OW 9250   0.789   2.198   1.425
 2784SOL    HW1 9251   0.770   2.105   1.455
 2784SOL    HW2 9252   0.798   2.258   1.504
 2785SOL     OW 9253   5.899   3.214   1.365
 2785SOL    HW1 9254   5.936   3.196   1.456
 2785SOL    HW2 9255   5.845   3.135   1.336
 2786SOL     OW 9256   0.385   6.099   6.956
 2786SOL    HW1 9257   0.463   6.132   7.009
 2786SOL    HW2 9258   0.400   6.117   6.859
 2787SOL     OW 9259   6.723   5.830   0.021
 2787SOL    HW1 9260   6.696   5.735   0.036
 2787SOL    HW2 9261   6.821   5.835   0.001
 2788SOL     OW 9262   3.205   6.530   6.135
 2788SOL    HW1 9263   3.296   6.491   6.120
 2788SOL    HW2 9264   3.139   6.456   6.151
 2789SOL     OW 9265   1.230   1.726   5.210
 2789SOL    HW1 9266   1.263   1.819   5.224
 2789SOL    HW2 9267   1.307   1.665   5.193
 2790SOL     OW 9268   1.243   5.630   2.126
 2790SOL    HW1 9269   1.191   5.597   2.204
 2790SOL    HW2 9270   1.321   5.684   2.158
 2791SOL     OW 9271   0.319   3.844   3.021
 2791SOL    HW1 9272   0.383   3.917   2.995
 2791SOL    HW2 9273   0.237   3.849   2.964
 2792SOL     OW 9274   3.787   1.086   5.935
 2792SOL    HW1 9275   3.777   1.186   5.941
 2792SOL    HW2 9276   3.731   1.052   5.859
 2793SOL     OW 9277   3.569   3.876   0.153
 2793SOL    HW1 9278   3.512   3.825   0.218
 2793SOL    HW2 9279   3.610   3.955   0.199
 2794SOL     OW 9280   0.855   2.611   0.280
 2794SOL    HW1 9281   0.821   2.524   0.314
 2794SOL    HW2 9282   0.787   2.652   0.219
 2795SOL     OW 9283   0.863   5.642   1.578
 2795SOL    HW1 9284   0.893   5.547   1.581
 2795SOL    HW2 9285   0.867   5.681   1.670
 2796SOL     OW 9286   2.160   5.267   6.163
 2796SOL    HW1 9287   2.099   5.217   6.101
 2796SOL    HW2 9288   2.133   5.363   6.167
 2797SOL     OW 9289   5.048   5.749   3.224
 2797SOL    HW1 9290   5.069   5.652   3.225
 2797SOL    HW2 9291   4.975   5.769   3.290
 2798SOL     OW 9292   4.632   0.494   1.637
 2798SOL    HW1 9293   4.651   0.591   1.646
 2798SOL    HW2 9294   4.555   0.470   1.697
 2799SOL     OW 9295   3.727   6.110   5.083
 2799SOL    HW1 9296   3.825   6.094   5.096
 2799SOL    HW2 9297   3.696   6.059   5.003
 2800SOL     OW 9298   5.853   0.209   6.272
 2800SOL    HW1 9299   5.822   0.243   6.183
 2800SOL    HW2 9300   5.903   0.123   6.259
 2801SOL     OW 9301   0.446   4.712   4.533
 2801SOL    HW1 9302   0.500   4.671   4.607
 2801SOL    HW2 9303   0.351   4.682   4.540
 2802SOL     OW 9304   1.769   5.052   5.350
 2802SOL    HW1 9305   1.692   5.107   5.317
 2802SOL    HW2 9306   1.802   5.089   5.437
 2803SOL     OW 9307   3.691   2.134   6.012
 2803SOL    HW1 9308   3.609   2.077   6.022
 2803SOL    HW2 9309   3.672   2.227   6.044
 2804SOL     OW 9310   0.217   2.483   4.068
 2804SOL    HW1 9311   0.130   2.526   4.094
 2804SOL    HW2 9312   0.221   2.473   3.968
 2805SOL     OW 9313   3.806   3.336   1.220
 2805SOL    HW1 9314   3.721   3.357   1.268
 2805SOL    HW2 9315   3.807   3.239   1.196
 2806SOL     OW 9316   0.367   4.106   6.142
 2806SOL    HW1 9317   0.367   4.102   6.242
 2806SOL    HW2 9318   0.421   4.185   6.112
 2807SOL     OW 9319   3.891   0.476   3.767
 2807SOL    HW1 9320   3.956   0.542   3.729
 2807SOL    HW2 9321   3.930   0.433   3.848
 2808SOL     OW 9322   0.454   5.256   5.473
 2808SOL    HW1 9323   0.400   5.248   5.557
 2808SOL    HW2 9324   0.473   5.164   5.437
 2809SOL     OW 9325   0.141   5.257   1.814
 2809SOL    HW1 9326   0.176   5.347   1.840
 2809SOL    HW2 9327   0.200   5.218   1.743
 2810SOL     OW 9328   2.465   6.938   2.937
 2810SOL    HW1 9329   2.410   6.856   2.955
 2810SOL    HW2 9330   2.458   7.000   3.014
 2811SOL     OW 9331   0.864   1.160   1.266
 2811SOL    HW1 9332   0.856   1.060   1.258
 2811SOL    HW2 9333   0.922   1.182   1.344
 2812SOL     OW 9334   0.624   1.586   1.032
 2812SOL    HW1 9335   0.674   1.669   1.054
 2812SOL    HW2 9336   0.677   1.506   1.059
 2813SOL     OW 9337   1.111   2.955   1.288
 2813SOL    HW1 9338   1.198   2.907   1.273
 2813SOL    HW2 9339   1.115   3.045   1.245
 2814SOL     OW 9340   2.681   4.475   0.415
 2814SOL    HW1 9341   2.651   4.416   0.341
 2814SOL    HW2 9342   2.740   4.547   0.379
 2815SOL     OW 9343   0.444   4.901   4.819
 2815SOL    HW1 9344   0.473   4.963   4.892
 2815SOL    HW2 9345   0.484   4.811   4.833
 2816SOL     OW 9346   0.904   6.066   5.627
 2816SOL    HW1 9347   0.981   6.123   5.656
 2816SOL    HW2 9348   0.822   6.122   5.618
 2817SOL     OW 9349   4.233   0.745   2.322
 2817SOL    HW1 9350   4.244   0.756   2.421
 2817SOL    HW2 9351   4.224   0.835   2.280
 2818SOL     OW 9352   1.806   0.523   0.443
 2818SOL    HW1 9353   1.800   0.426   0.421
 2818SOL    HW2 9354   1.788   0.537   0.540
 2819SOL     OW 9355   0.676   0.264   6.761
 2819SOL    HW1 9356   0.772   0.286   6.777
 2819SOL    HW2 9357   0.619   0.342   6.784
 2820SOL     OW 9358   1.648   2.580   0.150
 2820SOL    HW1 9359   1.714   2.655   0.144
 2820SOL    HW2 9360   1.595   2.590   0.234
 2821SOL     OW 9361   3.240   3.311   6.362
 2821SOL    HW1 9362   3.276   3.396   6.401
 2821SOL    HW2 9363   3.155   3.330   6.313
 2822SOL     OW 9364   4.586   2.722   0.635
 2822SOL    HW1 9365   4.535   2.668   0.568
 2822SOL    HW2 9366   4.659   2.772   0.589
 2823SOL     OW 9367   4.769   2.400   1.872
 2823SOL    HW1 9368   4.860   2.365   1.850
 2823SOL    HW2 9369   4.777   2.487   1.919
 2824SOL     OW 9370   1.473   3.812   4.408
 2824SOL    HW1 9371   1.449   3.793   4.313
 2824SOL    HW2 9372   1.392   3.802   4.466
 2825SOL     OW 9373   5.379   1.841   6.302
 2825SOL    HW1 9374   5.401   1.876   6.211
 2825SOL    HW2 9375   5.360   1.918   6.364
 2826SOL     OW 9376   2.327   2.349   6.689
 2826SOL    HW1 9377   2.354   2.400   6.608
 2826SOL    HW2 9378   2.362   2.395   6.771
 2827SOL     OW 9379   6.015   1.159   6.264
 2827SOL    HW1 9380   5.919   1.170   6.292
 2827SOL    HW2 9381   6.075   1.174   6.343
 2828SOL     OW 9382   2.086   4.120   1.059
 2828SOL    HW1 9383   2.050   4.209   1.084
 2828SOL    HW2 9384   2.036   4.048   1.108
 2829SOL     OW 9385   3.442   3.626   2.322
 2829SOL    HW1 9386   3.501   3.564   2.270
 2829SOL    HW2 9387   3.496   3.702   2.358
 2830SOL     OW 9388   3.436   6.014   5.534
 2830SOL    HW1 9389   3.369   5.940   5.527
 2830SOL    HW2 9390   3.513   5.995   5.473
 2831SOL     OW 9391   5.542   1.970   1.880
 2831SOL    HW1 9392   5.592   1.990   1.964
 2831SOL    HW2 9393   5.457   1.923   1.902
 2832SOL     OW 9394   0.739   3.905   1.903
 2832SOL    HW1 9395   0.808   3.941   1.840
 2832SOL    HW2 9396   0.781   3.886   1.991
 2833SOL     OW 9397   1.694   2.521   1.993
 2833SOL    HW1 9398   1.784   2.557   2.017
 2833SOL    HW2 9399   1.693   2.496   1.896
 2834SOL     OW 9400   3.635   6.338   4.746
 2834SOL    HW1 9401   3.554   6.292   4.783
 2834SOL    HW2 9402   3.608   6.424   4.703
 2835SOL     OW 9403   6.766   0.952   0.347
 2835SOL    HW1 9404   6.779   0.853   0.361
 2835SOL    HW2 9405   6.714   0.990   0.423
 2836SOL     OW 9406   3.675   5.732   2.439
 2836SOL    HW1 9407   3.644   5.801   2.504
 2836SOL    HW2 9408   3.717   5.655   2.488
 2837SOL     OW 9409   5.220   4.215   1.762
 2837SOL    HW1 9410   5.207   4.118   1.743
 2837SOL    HW2 9411   5.134   4.254   1.797
 2838SOL     OW 9412   5.957   4.642   6.446
 2838SOL    HW1 9413   6.031   4.656   6.512
 2838SOL    HW2 9414   5.964   4.551   6.405
 2839SOL     OW 9415   6.221   3.271   4.828
 2839SOL    HW1 9416   6.264   3.242   4.913
 2839SOL    HW2 9417   6.287   3.263   4.753
 2840SOL     OW 9418   0.093   6.462   4.081
 2840SOL    HW1 9419   0.103   6.414   4.168
 2840SOL    HW2 9420   0.183   6.494   4.050
 2841SOL     OW 9421   6.203   3.843   2.289
 2841SOL    HW1 9422   6.198   3.934   2.329
 2841SOL    HW2 9423   6.210   3.774   2.361
 2842SOL     OW 9424   1.366   0.388   3.722
 2842SOL    HW1 9425   1.322   0.421   3.639
 2842SOL    HW2 9426   1.457   0.430   3.731
 2843SOL     OW 9427   2.075   2.583   4.025
 2843SOL    HW1 9428   2.129   2.499   4.031
 2843SOL    HW2 9429   2.017   2.580   3.944
 2844SOL     OW 9430   5.041   3.787   0.107
 2844SOL    HW1 9431   4.993   3.873   0.090
 2844SOL    HW2 9432   5.068   3.746   0.020
 2845SOL     OW 9433   3.218   1.917   2.851
 2845SOL    HW1 9434   3.201   1.820   2.837
 2845SOL    HW2 9435   3.299   1.930   2.909
 2846SOL     OW 9436   6.501   0.299   6.773
 2846SOL    HW1 9437   6.547   0.274   6.859
 2846SOL    HW2 9438   6.425   0.237   6.757
 2847SOL     OW 9439   4.624   4.415   1.468
 2847SOL    HW1 9440   4.612   4.321   1.437
 2847SOL    HW2 9441   4.546   4.470   1.439
 2848SOL     OW 9442   0.794   4.162   5.203
 2848SOL    HW1 9443   0.793   4.199   5.296
 2848SOL    HW2 9444   0.827   4.232   5.141
 2849SOL     OW 9445   4.878   0.401   1.712
 2849SOL    HW1 9446   4.791   0.448   1.699
 2849SOL    HW2 9447   4.871   0.308   1.678
 2850SOL     OW 9448   1.806   0.616   2.133
 2850SOL    HW1 9449   1.826   0.555   2.210
 2850SOL    HW2 9450   1.741   0.686   2.163
 2851SOL     OW 9451   3.645   3.058   1.608
 2851SOL    HW1 9452   3.626   3.009   1.693
 2851SOL    HW2 9453   3.628   2.998   1.530
 2852SOL     OW 9454   6.404   4.682   6.809
 2852SOL    HW1 9455   6.403   4.624   6.728
 2852SOL    HW2 9456   6.328   4.657   6.869
 2853SOL     OW 9457   0.090   4.257   5.506
 2853SOL    HW1 9458   0.040   4.193   5.565
 2853SOL    HW2 9459   0.187   4.231   5.504
 2854SOL     OW 9460   4.238   0.586   5.567
 2854SOL    HW1 9461   4.280   0.672   5.535
 2854SOL    HW2 9462   4.139   0.596   5.566
 2855SOL     OW 9463   2.245   2.142   5.050
 2855SOL    HW1 9464   2.263   2.215   5.115
 2855SOL    HW2 9465   2.185   2.073   5.093
 2856SOL     OW 9466   1.049   5.452   3.973
 2856SOL    HW1 9467   1.141   5.411   3.973
 2856SOL    HW2 9468   1.016   5.459   3.879
 2857SOL     OW 9469   6.615   4.507   1.269
 2857SOL    HW1 9470   6.538   4.444   1.275
 2857SOL    HW2 9471   6.682   4.485   1.339
 2858SOL     OW 9472   4.228   4.670   2.281
 2858SOL    HW1 9473   4.212   4.733   2.205
 2858SOL    HW2 9474   4.300   4.605   2.257
 2859SOL     OW 9475   5.110   4.981   0.851
 2859SOL    HW1 9476   5.200   5.002   0.813
 2859SOL    HW2 9477   5.112   4.993   0.950
 2860SOL     OW 9478   0.879   0.112   2.432
 2860SOL    HW1 9479   0.827   0.196   2.448
 2860SOL    HW2 9480   0.970   0.121   2.471
 2861SOL     OW 9481   4.935   4.848   5.749
 2861SOL    HW1 9482   4.972   4.891   5.667
 2861SOL    HW2 9483   4.856   4.901   5.782
 2862SOL     OW 9484   4.413   2.866   0.154
 2862SOL    HW1 9485   4.384   2.908   0.067
 2862SOL    HW2 9486   4.350   2.792   0.177
 2863SOL     OW 9487   6.117   0.723   5.028
 2863SOL    HW1 9488   6.068   0.678   5.103
 2863SOL    HW2 9489   6.138   0.656   4.957
 2864SOL     OW 9490   3.571   4.777   0.279
 2864SOL    HW1 9491   3.497   4.842   0.262
 2864SOL    HW2 9492   3.642   4.788   0.209
 2865SOL     OW 9493   5.750   5.153   4.879
 2865SOL    HW1 9494   5.722   5.248   4.868
 2865SOL    HW2 9495   5.847   5.149   4.904
 2866SOL     OW 9496   4.322   4.050   0.617
 2866SOL    HW1 9497   4.383   4.029   0.541
 2866SOL    HW2 9498   4.240   4.097   0.582
 2867SOL     OW 9499   5.210   6.297   2.076
 2867SOL    HW1 9500   5.185   6.279   1.981
 2867SOL    HW2 9501   5.305   6.269   2.091
 2868SOL     OW 9502   1.246   0.536   5.222
 2868SOL    HW1 9503   1.152   0.561   5.247
 2868SOL    HW2 9504   1.250   0.439   5.200
 2869SOL     OW 9505   6.328   5.427   4.201
 2869SOL    HW1 9506   6.383   5.346   4.219
 2869SOL    HW2 9507   6.269   5.410   4.123
 2870SOL     OW 9508   6.707   2.361   2.158
 2870SOL    HW1 9509   6.784   2.406   2.113
 2870SOL    HW2 9510   6.678   2.415   2.237
 2871SOL     OW 9511   5.222   2.123   2.463
 2871SOL    HW1 9512   5.238   2.099   2.368
 2871SOL    HW2 9513   5.206   2.040   2.517
 2872SOL     OW 9514   2.937   2.136   2.302
 2872SOL    HW1 9515   2.897   2.227   2.286
 2872SOL    HW2 9516   2.866   2.074   2.334
 2873SOL     OW 9517   0.760   6.955   1.024
 2873SOL    HW1 9518   0.796   6.876   0.975
 2873SOL    HW2 9519   0.660   6.947   1.031
 2874SOL     OW 9520   2.545   1.292   2.989
 2874SOL    HW1 9521   2.472   1.345   2.948
 2874SOL    HW2 9522   2.532   1.195   2.968
 2875SOL     OW 9523   1.944   6.833   2.625
 2875SOL    HW1 9524   1.962   6.804   2.719
 2875SOL    HW2 9525   1.846   6.830   2.607
 2876SOL     OW 9526   1.796   0.203   2.115
 2876SOL    HW1 9527   1.741   0.286   2.108
 2876SOL    HW2 9528   1.746   0.126   2.075
 2877SOL     OW 9529   0.945   2.372   6.832
 2877SOL    HW1 9530   0.930   2.274   6.835
 2877SOL    HW2 9531   0.870   2.418   6.881
 2878SOL     OW 9532   3.948   3.054   3.857
 2878SOL    HW1 9533   3.976   3.135   3.805
 2878SOL    HW2 9534   4.029   2.999   3.879
 2879SOL     OW 9535   4.834   4.001   0.129
 2879SOL    HW1 9536   4.736   4.017   0.117
 2879SOL    HW2 9537   4.884   4.038   0.051
 2880SOL     OW 9538   2.398   1.179   3.460
 2880SOL    HW1 9539   2.404   1.278   3.477
 2880SOL    HW2 9540   2.318   1.142   3.506
 2881SOL     OW 9541   4.963   6.229   6.900
 2881SOL    HW1 9542   4.944   6.134   6.925
 2881SOL    HW2 9543   5.002   6.278   6.978
 2882SOL     OW 9544   4.624   6.051   0.136
 2882SOL    HW1 9545   4.630   5.961   0.179
 2882SOL    HW2 9546   4.647   6.121   0.203
 2883SOL     OW 9547   5.588   5.884   4.017
 2883SOL    HW1 9548   5.570   5.793   3.980
 2883SOL    HW2 9549   5.650   5.933   3.957
 2884SOL     OW 9550   6.357   5.083   4.390
 2884SOL    HW1 9551   6.423   5.136   4.337
 2884SOL    HW2 9552   6.405   5.020   4.450
 2885SOL     OW 9553   1.179   2.239   3.405
 2885SOL    HW1 9554   1.166   2.262   3.501
 2885SOL    HW2 9555   1.269   2.269   3.375
 2886SOL     OW 9556   2.028   4.629   5.501
 2886SOL    HW1 9557   2.061   4.669   5.416
 2886SOL    HW2 9558   1.949   4.680   5.534
 2887SOL     OW 9559   0.534   5.865   3.242
 2887SOL    HW1 9560   0.598   5.942   3.243
 2887SOL    HW2 9561   0.454   5.889   3.297
 2888SOL     OW 9562   6.148   6.730   6.773
 2888SOL    HW1 9563   6.212   6.655   6.755
 2888SOL    HW2 9564   6.078   6.731   6.701
 2889SOL     OW 9565   3.506   6.590   2.488
 2889SOL    HW1 9566   3.414   6.627   2.478
 2889SOL    HW2 9567   3.505   6.513   2.552
 2890SOL     OW 9568   1.134   1.431   1.464
 2890SOL    HW1 9569   1.150   1.519   1.418
 2890SOL    HW2 9570   1.207   1.415   1.531
 2891SOL     OW 9571   0.125   2.575   4.528
 2891SOL    HW1 9572   0.072   2.655   4.556
 2891SOL    HW2 9573   0.077   2.528   4.454
 2892SOL     OW 9574   6.160   3.747   2.545
 2892SOL    HW1 9575   6.160   3.663   2.600
 2892SOL    HW2 9576   6.068   3.787   2.545
 2893SOL     OW 9577   6.680   5.676   4.834
 2893SOL    HW1 9578   6.630   5.630   4.760
 2893SOL    HW2 9579   6.738   5.609   4.881
 2894SOL     OW 9580   2.216   6.088   2.444
 2894SOL    HW1 9581   2.226   6.182   2.476
 2894SOL    HW2 9582   2.303   6.040   2.454
 2895SOL     OW 9583   4.289   0.055   6.214
 2895SOL    HW1 9584   4.282   0.139   6.160
 2895SOL    HW2 9585   4.273   6.993   6.154
 2896SOL     OW 9586   5.970   6.561   4.723
 2896SOL    HW1 9587   5.878   6.600   4.715
 2896SOL    HW2 9588   5.964   6.462   4.731
 2897SOL     OW 9589   4.225   4.990   3.214
 2897SOL    HW1 9590   4.276   5.062   3.165
 2897SOL    HW2 9591   4.286   4.911   3.228
 2898SOL     OW 9592   5.488   2.744   2.569
 2898SOL    HW1 9593   5.543   2.761   2.651
 2898SOL    HW2 9594   5.533   2.785   2.489
 2899SOL     OW 9595   6.891   3.899   0.889
 2899SOL    HW1 9596   6.843   3.811   0.892
 2899SOL    HW2 9597   6.868   3.951   0.972
 2900SOL     OW 9598   2.513   3.211   5.813
 2900SOL    HW1 9599   2.589   3.221   5.749
 2900SOL    HW2 9600   2.550   3.198   5.906
 2901SOL     OW 9601   0.930   4.007   3.227
 2901SOL    HW1 9602   0.832   3.987   3.237
 2901SOL    HW2 9603   0.957   3.990   3.132
 2902SOL     OW 9604   6.944   6.125   3.494
 2902SOL    HW1 9605   0.027   6.136   3.487
 2902SOL    HW2 9606   6.904   6.127   3.402
 2903SOL     OW 9607   4.738   5.063   0.318
 2903SOL    HW1 9608   4.641   5.073   0.295
 2903SOL    HW2 9609   4.747   5.011   0.402
 2904SOL     OW 9610   2.660   4.110   5.314
 2904SOL    HW1 9611   2.644   4.203   5.348
 2904SOL    HW2 9612   2.576   4.074   5.275
 2905SOL     OW 9613   1.344   6.107   1.583
 2905SOL    HW1 9614   1.343   6.186   1.644
 2905SOL    HW2 9615   1.430   6.104   1.532
 2906SOL     OW 9616   6.678   6.277   4.136
 2906SOL    HW1 9617   6.716   6.272   4.044
 2906SOL    HW2 9618   6.588   6.234   4.138
 2907SOL     OW 9619   0.813   1.216   4.350
 2907SOL    HW1 9620   0.717   1.187   4.346
 2907SOL    HW2 9621   0.854   1.207   4.259
 2908SOL     OW 9622   4.254   6.640   2.872
 2908SOL    HW1 9623   4.327   6.578   2.845
 2908SOL    HW2 9624   4.192   6.654   2.795
 2909SOL     OW 9625   0.403   6.403   1.505
 2909SOL    HW1 9626   0.384   6.325   1.564
 2909SOL    HW2 9627   0.350   6.482   1.537
 2910SOL     OW 9628   0.174   0.841   4.097
 2910SOL    HW1 9629   0.263   0.875   4.068
 2910SOL    HW2 9630   0.102   0.887   4.044
 2911SOL     OW 9631   6.847   4.616   5.107
 2911SOL    HW1 9632   6.911   4.642   5.179
 2911SOL    HW2 9633   6.880   4.534   5.061
 2912SOL     OW 9634   0.615   1.151   1.872
 2912SOL    HW1 9635   0.592   1.222   1.806
 2912SOL    HW2 9636   0.677   1.085   1.830
 2913SOL     OW 9637   2.977   0.015   1.702
 2913SOL    HW1 9638   2.878   0.027   1.689
 2913SOL    HW2 9639   3.009   0.081   1.770
 2914SOL     OW 9640   4.173   5.289   0.873
 2914SOL    HW1 9641   4.269   5.317   0.871
 2914SOL    HW2 9642   4.121   5.352   0.931
 2915SOL     OW 9643   2.031   0.415   2.642
 2915SOL    HW1 9644   1.940   0.455   2.643
 2915SOL    HW2 9645   2.100   0.487   2.656
 2916SOL     OW 9646   1.571   6.373   0.020
 2916SOL    HW1 9647   1.561   6.276   7.013
 2916SOL    HW2 9648   1.583   6.427   6.953
 2917SOL     OW 9649   2.866   6.417   3.965
 2917SOL    HW1 9650   2.930   6.483   4.005
 2917SOL    HW2 9651   2.786   6.466   3.930
 2918SOL     OW 9652   4.863   2.603   2.054
 2918SOL    HW1 9653   4.928   2.551   2.110
 2918SOL    HW2 9654   4.817   2.670   2.112
 2919SOL     OW 9655   1.057   5.759   4.985
 2919SOL    HW1 9656   1.156   5.759   4.970
 2919SOL    HW2 9657   1.029   5.846   5.026
 2920SOL     OW 9658   1.621   2.328   2.603
 2920SOL    HW1 9659   1.571   2.320   2.516
 2920SOL    HW2 9660   1.658   2.421   2.611
 2921SOL     OW 9661   1.057   6.405   3.672
 2921SOL    HW1 9662   1.156   6.397   3.679
 2921SOL    HW2 9663   1.015   6.376   3.757
 2922SOL     OW 9664   3.371   6.741   3.595
 2922SOL    HW1 9665   3.448   6.685   3.628
 2922SOL    HW2 9666   3.367   6.826   3.648
 2923SOL     OW 9667   6.489   5.799   5.006
 2923SOL    HW1 9668   6.541   5.762   4.929
 2923SOL    HW2 9669   6.434   5.727   5.047
 2924SOL     OW 9670   6.048   1.908   5.016
 2924SOL    HW1 9671   6.041   2.004   5.043
 2924SOL    HW2 9672   6.043   1.850   5.098
 2925SOL     OW 9673   5.000   6.330   5.916
 2925SOL    HW1 9674   4.979   6.352   6.011
 2925SOL    HW2 9675   4.942   6.385   5.856
 2926SOL     OW 9676   6.621   3.060   4.453
 2926SOL    HW1 9677   6.587   3.148   4.421
 2926SOL    HW2 9678   6.602   2.990   4.384
 2927SOL     OW 9679   0.880   1.776   2.067
 2927SOL    HW1 9680   0.938   1.852   2.095
 2927SOL    HW2 9681   0.913   1.692   2.110
 2928SOL     OW 9682   6.749   3.299   6.914
 2928SOL    HW1 9683   6.694   3.253   6.984
 2928SOL    HW2 9684   6.842   3.310   6.948
 2929SOL     OW 9685   2.388   2.153   4.315
 2929SOL    HW1 9686   2.357   2.226   4.376
 2929SOL    HW2 9687   2.463   2.186   4.258
 2930SOL     OW 9688   0.619   4.196   4.262
 2930SOL    HW1 9689   0.682   4.239   4.198
 2930SOL    HW2 9690   0.559   4.133   4.213
 2931SOL     OW 9691   4.760   3.976   5.791
 2931SOL    HW1 9692   4.675   4.004   5.835
 2931SOL    HW2 9693   4.834   4.039   5.816
 2932SOL     OW 9694   6.073   5.398   0.847
 2932SOL    HW1 9695   6.110   5.421   0.757
 2932SOL    HW2 9696   6.126   5.443   0.918
 2933SOL     OW 9697   1.108   0.357   0.123
 2933SOL    HW1 9698   1.166   0.334   0.201
 2933SOL    HW2 9699   1.125   0.452   0.096
 2934SOL     OW 9700   3.462   4.530   0.343
 2934SOL    HW1 9701   3.516   4.613   0.329
 2934SOL    HW2 9702   3.400   4.517   0.266
 2935SOL     OW 9703   0.374   2.308   6.376
 2935SOL    HW1 9704   0.377   2.215   6.412
 2935SOL    HW2 9705   0.373   2.306   6.276
 2936SOL     OW 9706   4.568   6.248   0.822
 2936SOL    HW1 9707   4.475   6.222   0.849
 2936SOL    HW2 9708   4.564   6.305   0.740
 2937SOL     OW 9709   4.964   4.555   2.595
 2937SOL    HW1 9710   5.035   4.531   2.530
 2937SOL    HW2 9711   4.874   4.536   2.556
 2938SOL     OW 9712   6.907   5.363   6.292
 2938SOL    HW1 9713   6.849   5.443   6.309
 2938SOL    HW2 9714   6.992   5.391   6.248
 2939SOL     OW 9715   0.104   6.359   1.760
 2939SOL    HW1 9716   0.164   6.388   1.835
 2939SOL    HW2 9717   0.129   6.267   1.730
 2940SOL     OW 9718   3.924   6.479   3.629
 2940SOL    HW1 9719   3.849   6.443   3.573
 2940SOL    HW2 9720   3.950   6.411   3.697
 2941SOL     OW 9721   2.026   4.600   3.534
 2941SOL    HW1 9722   1.992   4.547   3.612
 2941SOL    HW2 9723   1.971   4.577   3.453
 2942SOL     OW 9724   3.648   1.608   0.827
 2942SOL    HW1 9725   3.693   1.563   0.905
 2942SOL    HW2 9726   3.551   1.585   0.827
 2943SOL     OW 9727   5.897   3.896   3.032
 2943SOL    HW1 9728   5.868   3.900   2.937
 2943SOL    HW2 9729   5.824   3.932   3.090
 2944SOL     OW 9730   2.203   6.366   2.430
 2944SOL    HW1 9731   2.253   6.389   2.347
 2944SOL    HW2 9732   2.117   6.416   2.433
 2945SOL     OW 9733   4.875   4.333   1.186
 2945SOL    HW1 9734   4.837   4.422   1.160
 2945SOL    HW2 9735   4.836   4.262   1.127
 2946SOL     OW 9736   3.779   3.614   5.225
 2946SOL    HW1 9737   3.756   3.607   5.128
 2946SOL    HW2 9738   3.696   3.610   5.280
 2947SOL     OW 9739   6.648   6.629   0.698
 2947SOL    HW1 9740   6.633   6.603   0.793
 2947SOL    HW2 9741   6.563   6.615   0.646
 2948SOL     OW 9742   6.703   3.883   1.752
 2948SOL    HW1 9743   6.792   3.920   1.779
 2948SOL    HW2 9744   6.643   3.958   1.722
 2949SOL     OW 9745   1.109   6.871   0.865
 2949SOL    HW1 9746   1.203   6.840   0.878
 2949SOL    HW2 9747   1.047   6.810   0.914
 2950SOL     OW 9748   5.923   4.999   3.138
 2950SOL    HW1 9749   5.985   5.054   3.193
 2950SOL    HW2 9750   5.851   5.057   3.100
 2951SOL     OW 9751   6.827   1.533   1.733
 2951SOL    HW1 9752   6.776   1.457   1.774
 2951SOL    HW2 9753   6.766   1.609   1.715
 2952SOL     OW 9754   6.274   2.015   4.926
 2952SOL    HW1 9755   6.284   2.082   5.000
 2952SOL    HW2 9756   6.190   1.963   4.938
 2953SOL     OW 9757   1.350   5.318   3.880
 2953SOL    HW1 9758   1.439   5.320   3.924
 2953SOL    HW2 9759   1.352   5.254   3.803
 2954SOL     OW 9760   0.142   4.522   5.963
 2954SOL    HW1 9761   0.220   4.505   5.903
 2954SOL    HW2 9762   0.064   4.467   5.933
 2955SOL     OW 9763   2.097   4.037   5.926
 2955SOL    HW1 9764   2.071   4.039   5.829
 2955SOL    HW2 9765   2.166   3.966   5.941
 2956SOL     OW 9766   5.592   4.656   4.242
 2956SOL    HW1 9767   5.553   4.565   4.230
 2956SOL    HW2 9768   5.673   4.651   4.300
 2957SOL     OW 9769   2.228   4.670   1.198
 2957SOL    HW1 9770   2.292   4.745   1.181
 2957SOL    HW2 9771   2.235   4.642   1.294
 2958SOL     OW 9772   1.953   5.231   2.670
 2958SOL    HW1 9773   1.982   5.190   2.584
 2958SOL    HW2 9774   1.962   5.164   2.744
 2959SOL     OW 9775   6.846   3.755   2.686
 2959SOL    HW1 9776   6.791   3.749   2.603
 2959SOL    HW2 9777   6.804   3.819   2.750
 2960SOL     OW 9778   5.415   0.119   0.730
 2960SOL    HW1 9779   5.367   0.062   0.797
 2960SOL    HW2 9780   5.510   0.133   0.760
 2961SOL     OW 9781   5.605   3.490   2.082
 2961SOL    HW1 9782   5.668   3.525   2.013
 2961SOL    HW2 9783   5.512   3.521   2.062
 2962SOL     OW 9784   6.779   0.221   3.269
 2962SOL    HW1 9785   6.682   0.214   3.248
 2962SOL    HW2 9786   6.799   0.313   3.305
 2963SOL     OW 9787   1.904   0.875   5.399
 2963SOL    HW1 9788   1.904   0.809   5.325
 2963SOL    HW2 9789   1.962   0.842   5.474
 2964SOL     OW 9790   1.239   1.416   6.664
 2964SOL    HW1 9791   1.316   1.402   6.726
 2964SOL    HW2 9792   1.160   1.449   6.715
 2965SOL     OW 9793   6.939   6.899   5.224
 2965SOL    HW1 9794   6.984   6.928   5.309
 2965SOL    HW2 9795   6.873   6.826   5.245
 2966SOL     OW 9796   3.357   5.587   2.242
 2966SOL    HW1 9797   3.357   5.682   2.273
 2966SOL    HW2 9798   3.388   5.528   2.317
 2967SOL     OW 9799   5.265   0.471   4.597
 2967SOL    HW1 9800   5.232   0.557   4.556
 2967SOL    HW2 9801   5.221   0.394   4.551
 2968SOL     OW 9802   1.463   3.691   1.463
 2968SOL    HW1 9803   1.453   3.604   1.415
 2968SOL    HW2 9804   1.503   3.759   1.402
 2969SOL     OW 9805   4.842   3.355   5.243
 2969SOL    HW1 9806   4.752   3.310   5.245
 2969SOL    HW2 9807   4.831   3.449   5.209
 2970SOL     OW 9808   2.908   1.875   4.425
 2970SOL    HW1 9809   2.994   1.889   4.376
 2970SOL    HW2 9810   2.897   1.778   4.446
 2971SOL     OW 9811   5.505   2.923   6.220
 2971SOL    HW1 9812   5.522   2.928   6.121
 2971SOL    HW2 9813   5.592   2.934   6.269
 2972SOL     OW 9814   6.156   5.625   6.943
 2972SOL    HW1 9815   6.252   5.600   6.930
 2972SOL    HW2 9816   6.114   5.565   7.011
 2973SOL     OW 9817   4.296   0.994   3.573
 2973SOL    HW1 9818   4.268   0.939   3.495
 2973SOL    HW2 9819   4.374   1.051   3.548
 2974SOL     OW 9820   4.803   6.665   2.130
 2974SOL    HW1 9821   4.740   6.735   2.099
 2974SOL    HW2 9822   4.892   6.707   2.150
 2975SOL     OW 9823   4.883   3.930   4.128
 2975SOL    HW1 9824   4.829   3.930   4.212
 2975SOL    HW2 9825   4.871   3.843   4.080
 2976SOL     OW 9826   4.306   1.383   2.211
 2976SOL    HW1 9827   4.318   1.347   2.118
 2976SOL    HW2 9828   4.392   1.373   2.262
 2977SOL     OW 9829   1.126   0.806   1.486
 2977SOL    HW1 9830   1.137   0.865   1.406
 2977SOL    HW2 9831   1.213   0.800   1.535
 2978SOL     OW 9832   4.424   5.367   6.502
 2978SOL    HW1 9833   4.443   5.397   6.409
 2978SOL    HW2 9834   4.463   5.432   6.567
 2979SOL     OW 9835   2.910   0.915   3.894
 2979SOL    HW1 9836   2.976   0.942   3.824
 2979SOL    HW2 9837   2.818   0.939   3.863
 2980SOL     OW 9838   3.712   3.603   4.964
 2980SOL    HW1 9839   3.756   3.693   4.958
 2980SOL    HW2 9840   3.618   3.609   4.930
 2981SOL     OW 9841   2.037   1.070   1.602
 2981SOL    HW1 9842   2.008   1.128   1.678
 2981SOL    HW2 9843   2.063   0.980   1.637
 2982SOL     OW 9844   1.799   0.075   0.814
 2982SOL    HW1 9845   1.840   0.067   0.905
 2982SOL    HW2 9846   1.745   0.159   0.809
 2983SOL     OW 9847   6.175   3.269   5.473
 2983SOL    HW1 9848   6.088   3.224   5.490
 2983SOL    HW2 9849   6.221   3.225   5.396
 2984SOL     OW 9850   0.566   5.189   1.491
 2984SOL    HW1 9851   0.652   5.161   1.450
 2984SOL    HW2 9852   0.578   5.206   1.589
 2985SOL     OW 9853   0.122   0.186   5.827
 2985SOL    HW1 9854   0.033   0.215   5.792
 2985SOL    HW2 9855   0.194   0.228   5.772
 2986SOL     OW 9856   3.661   3.485   2.250
 2986SOL    HW1 9857   3.709   3.540   2.319
 2986SOL    HW2 9858   3.727   3.441   2.190
 2987SOL     OW 9859   1.910   6.228   5.468
 2987SOL    HW1 9860   1.824   6.249   5.422
 2987SOL    HW2 9861   1.950   6.312   5.504
 2988SOL     OW 9862   0.179   1.451   6.442
 2988SOL    HW1 9863   0.119   1.487   6.371
 2988SOL    HW2 9864   0.185   1.351   6.434
 2989SOL     OW 9865   4.829   2.913   4.615
 2989SOL    HW1 9866   4.786   2.839   4.564
 2989SOL    HW2 9867   4.855   2.986   4.551
 2990SOL     OW 9868   5.608   1.530   4.330
 2990SOL    HW1 9869   5.650   1.616   4.302
 2990SOL    HW2 9870   5.653   1.454   4.282
 2991SOL     OW 9871   0.544   3.861   0.678
 2991SOL    HW1 9872   0.525   3.882   0.582
 2991SOL    HW2 9873   0.642   3.875   0.696
 2992SOL     OW 9874   0.412   3.776   5.559
 2992SOL    HW1 9875   0.490   3.725   5.524
 2992SOL    HW2 9876   0.384   3.844   5.491
 2993SOL     OW 9877   2.535   3.397   1.216
 2993SOL    HW1 9878   2.629   3.363   1.222
 2993SOL    HW2 9879   2.531   3.477   1.158
 2994SOL     OW 9880   3.790   5.526   5.877
 2994SOL    HW1 9881   3.839   5.493   5.958
 2994SOL    HW2 9882   3.818   5.620   5.857
 2995SOL     OW 9883   4.546   0.870   0.867
 2995SOL    HW1 9884   4.554   0.960   0.911
 2995SOL    HW2 9885   4.610   0.865   0.790
 2996SOL     OW 9886   6.958   0.547   4.497
 2996SOL    HW1 9887   6.913   0.562   4.585
 2996SOL    HW2 9888   6.956   0.632   4.445
 2997SOL     OW 9889   5.144   6.230   4.389
 2997SOL    HW1 9890   5.099   6.315   4.361
 2997SOL    HW2 9891   5.076   6.168   4.428
 2998SOL     OW 9892   2.597   1.571   2.486
 2998SOL    HW1 9893   2.674   1.585   2.422
 2998SOL    HW2 9894   2.597   1.645   2.553
 2999SOL     OW 9895   3.277   3.854   1.151
 2999SOL    HW1 9896   3.223   3.770   1.144
 2999SOL    HW2 9897   3.366   3.833   1.190
 3000SOL     OW 9898   3.100   4.176   5.185
 3000SOL    HW1 9899   3.075   4.263   5.226
 3000SOL    HW2 9900   3.018   4.125   5.160
 3001SOL     OW 9901   5.542   0.620   5.595
 3001SOL    HW1 9902   5.494   0.545   5.642
 3001SOL    HW2 9903   5.622   0.646   5.648
 3002SOL     OW 9904   1.596   1.967   2.053
 3002SOL    HW1 9905   1.649   2.016   1.984
 3002SOL    HW2 9906   1.518   2.023   2.082
 3003SOL     OW 9907   1.881   6.374   0.031
 3003SOL    HW1 9908   1.893   6.401   6.952
 3003SOL    HW2 9909   1.784   6.381   0.055
 3004SOL     OW 9910   2.433   6.628   3.541
 3004SOL    HW1 9911   2.476   6.667   3.623
 3004SOL    HW2 9912   2.491   6.644   3.462
 3005SOL     OW 9913   1.006   1.906   0.113
 3005SOL    HW1 9914   1.087   1.853   0.137
 3005SOL    HW2 9915   1.011   1.996   0.156
 3006SOL     OW 9916   4.881   1.695   5.901
 3006SOL    HW1 9917   4.835   1.781   5.925
 3006SOL    HW2 9918   4.817   1.619   5.911
 3007SOL     OW 9919   5.512   5.538   6.979
 3007SOL    HW1 9920   5.477   5.452   7.015
 3007SOL    HW2 9921   5.534   5.600   0.038
 3008SOL     OW 9922   4.777   3.705   5.846
 3008SOL    HW1 9923   4.864   3.682   5.889
 3008SOL    HW2 9924   4.775   3.803   5.826
 3009SOL     OW 9925   0.348   3.309   1.718
 3009SOL    HW1 9926   0.360   3.271   1.626
 3009SOL    HW2 9927   0.254   3.291   1.749
 3010SOL     OW 9928   3.992   5.808   0.971
 3010SOL    HW1 9929   3.928   5.807   0.893
 3010SOL    HW2 9930   4.086   5.814   0.936
 3011SOL     OW 9931   6.624   0.465   1.210
 3011SOL    HW1 9932   6.715   0.478   1.249
 3011SOL    HW2 9933   6.632   0.437   1.114
 3012SOL     OW 9934   2.277   2.365   5.226
 3012SOL    HW1 9935   2.210   2.419   5.276
 3012SOL    HW2 9936   2.359   2.420   5.210
 3013SOL     OW 9937   0.697   4.836   4.683
 3013SOL    HW1 9938   0.792   4.847   4.655
 3013SOL    HW2 9939   0.644   4.915   4.652
 3014SOL     OW 9940   5.508   0.284   6.041
 3014SOL    HW1 9941   5.502   0.185   6.053
 3014SOL    HW2 9942   5.470   0.330   6.121
 3015SOL     OW 9943   0.955   1.013   6.589
 3015SOL    HW1 9944   1.003   0.938   6.634
 3015SOL    HW2 9945   1.003   1.038   6.505
 3016SOL     OW 9946   1.934   6.126   4.099
 3016SOL    HW1 9947   2.008   6.093   4.157
 3016SOL    HW2 9948   1.972   6.183   4.026
 3017SOL     OW 9949   1.101   5.182   0.376
 3017SOL    HW1 9950   1.079   5.279   0.361
 3017SOL    HW2 9951   1.135   5.170   0.470
 3018SOL     OW 9952   3.630   0.058   1.320
 3018SOL    HW1 9953   3.619   0.134   1.385
 3018SOL    HW2 9954   3.562   0.065   1.248
 3019SOL     OW 9955   1.797   0.760   6.077
 3019SOL    HW1 9956   1.847   0.700   6.139
 3019SOL    HW2 9957   1.850   0.774   5.994
 3020SOL     OW 9958   6.430   4.028   6.662
 3020SOL    HW1 9959   6.407   3.984   6.575
 3020SOL    HW2 9960   6.355   4.086   6.691
 3021SOL     OW 9961   4.195   0.355   4.941
 3021SOL    HW1 9962   4.267   0.342   5.010
 3021SOL    HW2 9963   4.188   0.452   4.917
 3022SOL     OW 9964   3.806   5.680   3.471
 3022SOL    HW1 9965   3.850   5.710   3.387
 3022SOL    HW2 9966   3.750   5.754   3.508
 3023SOL     OW 9967   5.292   5.587   4.540
 3023SOL    HW1 9968   5.331   5.504   4.502
 3023SOL    HW2 9969   5.342   5.667   4.507
 3024SOL     OW 9970   0.476   6.978   0.317
 3024SOL    HW1 9971   0.410   7.014   0.383
 3024SOL    HW2 9972   0.443   6.890   0.282
 3025SOL     OW 9973   3.953   5.416   0.352
 3025SOL    HW1 9974   4.049   5.418   0.381
 3025SOL    HW2 9975   3.910   5.332   0.385
 3026SOL     OW 9976   6.809   0.740   2.097
 3026SOL    HW1 9977   6.745   0.809   2.133
 3026SOL    HW2 9978   6.902   0.778   2.096
 3027SOL     OW 9979   4.329   0.604   0.699
 3027SOL    HW1 9980   4.271   0.587   0.779
 3027SOL    HW2 9981   4.421   0.569   0.717
 3028SOL     OW 9982   3.018   2.978   5.670
 3028SOL    HW1 9983   3.093   2.923   5.706
 3028SOL    HW2 9984   3.005   2.958   5.573
 3029SOL     OW 9985   0.057   3.163   4.532
 3029SOL    HW1 9986   0.106   3.155   4.619
 3029SOL    HW2 9987   6.977   3.145   4.546
 3030SOL     OW 9988   2.289   2.739   6.688
 3030SOL    HW1 9989   2.313   2.835   6.673
 3030SOL    HW2 9990   2.189   2.730   6.692
 3031SOL     OW 9991   0.978   5.886   0.524
 3031SOL    HW1 9992   0.892   5.934   0.543
 3031SOL    HW2 9993   1.053   5.951   0.523
 3032SOL     OW 9994   2.610   0.511   2.959
 3032SOL    HW1 9995   2.652   0.505   3.049
 3032SOL    HW2 9996   2.681   0.524   2.889
 3033SOL     OW 9997   0.513   1.551   5.366
 3033SOL    HW1 9998   0.609   1.563   5.341
 3033SOL    HW2 9999   0.460   1.630   5.334
 3034SOL     OW10000   6.386   4.576   3.174
 3034SOL    HW110001   6.315   4.613   3.114
 3034SOL    HW210002   6.368   4.606   3.268
 3035SOL     OW10003   0.546   2.976   0.704
 3035SOL    HW110004   0.522   3.069   0.676
 3035SOL    HW210005   0.638   2.976   0.743
 3036SOL     OW10006   2.963   2.347   5.384
 3036SOL    HW110007   3.050   2.356   5.335
 3036SOL    HW210008   2.938   2.251   5.392
 3037SOL     OW10009   0.883   5.550   6.795
 3037SOL    HW110010   0.940   5.494   6.735
 3037SOL    HW210011   0.939   5.617   6.843
 3038SOL     OW10012   5.803   4.337   6.108
 3038SOL    HW110013   5.767   4.307   6.020
 3038SOL    HW210014   5.894   4.376   6.095
 3039SOL     OW10015   6.881   3.602   5.988
 3039SOL    HW110016   6.955   3.541   6.018
 3039SOL    HW210017   6.920   3.677   5.935
 3040SOL     OW10018   5.195   4.849   6.085
 3040SOL    HW110019   5.185   4.855   5.985
 3040SOL    HW210020   5.219   4.755   6.110
 3041SOL     OW10021   1.464   4.482   5.555
 3041SOL    HW110022   1.377   4.452   5.595
 3041SOL    HW210023   1.524   4.514   5.628
 3042SOL     OW10024   0.300   5.044   4.132
 3042SOL    HW110025   0.250   5.005   4.055
 3042SOL    HW210026   0.393   5.066   4.103
 3043SOL     OW10027   2.573   5.371   0.698
 3043SOL    HW110028   2.666   5.407   0.712
 3043SOL    HW210029   2.561   5.288   0.753
 3044SOL     OW10030   3.755   3.506   4.470
 3044SOL    HW110031   3.661   3.513   4.437
 3044SOL    HW210032   3.815   3.565   4.415
 3045SOL     OW10033   4.035   1.888   2.167
 3045SOL    HW110034   4.009   1.945   2.089
 3045SOL    HW210035   4.008   1.933   2.252
 3046SOL     OW10036   5.136   6.173   0.762
 3046SOL    HW110037   5.228   6.145   0.734
 3046SOL    HW210038   5.141   6.224   0.847
 3047SOL     OW10039   6.057   1.262   4.987
 3047SOL    HW110040   6.004   1.190   4.942
 3047SOL    HW210041   6.033   1.264   5.084
 3048SOL     OW10042   3.758   4.579   0.879
 3048SOL    HW110043   3.843   4.554   0.834
 3048SOL    HW210044   3.725   4.666   0.842
 3049SOL     OW10045   1.085   1.519   2.871
 3049SOL    HW110046   1.061   1.482   2.960
 3049SOL    HW210047   1.013   1.580   2.839
 3050SOL     OW10048   3.759   2.246   0.385
 3050SOL    HW110049   3.672   2.292   0.369
 3050SOL    HW210050   3.787   2.198   0.302
 3051SOL     OW10051   2.293   5.085   5.497
 3051SOL    HW110052   2.224   5.052   5.433
 3051SOL    HW210053   2.383   5.084   5.453
 3052SOL     OW10054   0.061   6.971   2.325
 3052SOL    HW110055   0.152   7.009   2.344
 3052SOL    HW210056   0.066   6.871   2.323
 3053SOL     OW10057   1.089   4.064   0.672
 3053SOL    HW110058   1.152   4.142   0.668
 3053SOL    HW210059   1.127   3.995   0.734
 3054SOL     OW10060   5.404   0.515   2.548
 3054SOL    HW110061   5.466   0.438   2.534
 3054SOL    HW210062   5.402   0.571   2.465
 3055SOL     OW10063   5.782   6.345   6.565
 3055SOL    HW110064   5.766   6.255   6.605
 3055SOL    HW210065   5.695   6.382   6.530
 3056SOL     OW10066   4.997   1.127   5.827
 3056SOL    HW110067   4.909   1.127   5.875
 3056SOL    HW210068   4.984   1.100   5.732
 3057SOL     OW10069   5.114   3.953   3.086
 3057SOL    HW110070   5.167   3.899   3.021
 3057SOL    HW210071   5.093   4.042   3.047
 3058SOL     OW10072   0.012   4.251   6.395
 3058SOL    HW110073   0.064   4.244   6.310
 3058SOL    HW210074   7.008   4.347   6.414
 3059SOL     OW10075   1.804   1.734   3.377
 3059SOL    HW110076   1.788   1.736   3.475
 3059SOL    HW210077   1.893   1.692   3.358
 3060SOL     OW10078   5.708   4.895   4.625
 3060SOL    HW110079   5.723   4.896   4.526
 3060SOL    HW210080   5.620   4.938   4.646
 3061SOL     OW10081   6.053   6.755   4.384
 3061SOL    HW110082   5.976   6.737   4.323
 3061SOL    HW210083   6.100   6.669   4.404
 3062SOL     OW10084   4.164   4.433   0.784
 3062SOL    HW110085   4.215   4.375   0.847
 3062SOL    HW210086   4.228   4.474   0.718
 3063SOL     OW10087   0.694   4.823   2.806
 3063SOL    HW110088   0.679   4.889   2.733
 3063SOL    HW210089   0.622   4.754   2.805
 3064SOL     OW10090   4.658   2.093   6.781
 3064SOL    HW110091   4.674   2.057   6.873
 3064SOL    HW210092   4.606   2.179   6.787
 3065SOL     OW10093   6.089   1.681   0.152
 3065SOL    HW110094   6.188   1.675   0.166
 3065SOL    HW210095   6.069   1.759   0.092
 3066SOL     OW10096   5.057   6.815   4.956
 3066SOL    HW110097   5.139   6.866   4.980
 3066SOL    HW210098   5.009   6.786   5.039
 3067SOL     OW10099   1.113   2.602   5.668
 3067SOL    HW110100   1.175   2.603   5.746
 3067SOL    HW210101   1.086   2.695   5.645
 3068SOL     OW10102   0.139   0.770   0.803
 3068SOL    HW110103   0.077   0.722   0.740
 3068SOL    HW210104   0.169   0.856   0.761
 3069SOL     OW10105   5.334   6.733   3.327
 3069SOL    HW110106   5.371   6.666   3.263
 3069SOL    HW210107   5.398   6.747   3.403
 3070SOL     OW10108   2.017   0.898   0.487
 3070SOL    HW110109   2.050   0.838   0.560
 3070SOL    HW210110   2.004   0.990   0.524
 3071SOL     OW10111   5.730   4.536   5.371
 3071SOL    HW110112   5.789   4.523   5.291
 3071SOL    HW210113   5.669   4.614   5.356
 3072SOL     OW10114   1.969   6.851   6.185
 3072SOL    HW110115   1.956   6.760   6.144
 3072SOL    HW210116   1.991   6.917   6.114
 3073SOL     OW10117   0.043   4.795   2.060
 3073SOL    HW110118   0.106   4.764   2.130
 3073SOL    HW210119   0.050   4.734   1.980
 3074SOL     OW10120   3.424   2.628   1.591
 3074SOL    HW110121   3.415   2.674   1.503
 3074SOL    HW210122   3.517   2.639   1.625
 3075SOL     OW10123   3.341   5.304   1.997
 3075SOL    HW110124   3.265   5.252   1.958
 3075SOL    HW210125   3.309   5.395   2.023
 3076SOL     OW10126   0.876   0.660   4.745
 3076SOL    HW110127   0.860   0.757   4.727
 3076SOL    HW210128   0.968   0.647   4.781
 3077SOL     OW10129   7.015   4.124   2.452
 3077SOL    HW110130   0.090   4.087   2.461
 3077SOL    HW210131   6.948   4.050   2.458
 3078SOL     OW10132   0.092   3.279   1.843
 3078SOL    HW110133   0.129   3.327   1.922
 3078SOL    HW210134   7.015   3.309   1.826
 3079SOL     OW10135   2.178   3.812   5.496
 3079SOL    HW110136   2.080   3.793   5.488
 3079SOL    HW210137   2.226   3.776   5.416
 3080SOL     OW10138   3.585   4.382   0.713
 3080SOL    HW110139   3.631   4.400   0.625
 3080SOL    HW210140   3.488   4.402   0.704
 3081SOL     OW10141   1.206   3.475   0.402
 3081SOL    HW110142   1.261   3.448   0.480
 3081SOL    HW210143   1.179   3.394   0.350
 3082SOL     OW10144   4.502   5.651   4.121
 3082SOL    HW110145   4.573   5.587   4.150
 3082SOL    HW210146   4.414   5.602   4.114
 3083SOL     OW10147   3.760   5.594   1.610
 3083SOL    HW110148   3.848   5.628   1.643
 3083SOL    HW210149   3.732   5.646   1.529
 3084SOL     OW10150   6.733   4.282   4.606
 3084SOL    HW110151   6.826   4.306   4.636
 3084SOL    HW210152   6.667   4.336   4.658
 3085SOL     OW10153   6.170   5.397   0.124
 3085SOL    HW110154   6.210   5.456   0.194
 3085SOL    HW210155   6.190   5.301   0.144
 3086SOL     OW10156   6.296   6.791   6.418
 3086SOL    HW110157   6.339   6.879   6.441
 3086SOL    HW210158   6.349   6.746   6.346
 3087SOL     OW10159   3.203   6.990   2.076
 3087SOL    HW110160   3.142   6.922   2.117
 3087SOL    HW210161   3.156   0.019   2.001
 3088SOL     OW10162   1.963   3.164   5.721
 3088SOL    HW110163   2.003   3.126   5.804
 3088SOL    HW210164   2.012   3.247   5.695
 3089SOL     OW10165   4.466   5.458   5.695
 3089SOL    HW110166   4.525   5.443   5.775
 3089SOL    HW210167   4.376   5.418   5.712
 3090SOL     OW10168   0.444   2.928   2.443
 3090SOL    HW110169   0.396   2.919   2.356
 3090SOL    HW210170   0.536   2.890   2.435
 3091SOL     OW10171   0.818   2.527   1.408
 3091SOL    HW110172   0.867   2.559   1.489
 3091SOL    HW210173   0.722   2.512   1.431
 3092SOL     OW10174   5.720   1.386   2.529
 3092SOL    HW110175   5.675   1.391   2.440
 3092SOL    HW210176   5.763   1.296   2.539
 3093SOL     OW10177   6.055   5.972   0.467
 3093SOL    HW110178   6.017   5.883   0.491
 3093SOL    HW210179   6.025   5.998   0.375
 3094SOL     OW10180   2.255   2.135   6.843
 3094SOL    HW110181   2.330   2.128   6.909
 3094SOL    HW210182   2.273   2.211   6.780
 3095SOL     OW10183   1.860   3.768   5.576
 3095SOL    HW110184   1.839   3.688   5.632
 3095SOL    HW210185   1.775   3.806   5.540
 3096SOL     OW10186   0.430   3.244   3.639
 3096SOL    HW110187   0.372   3.258   3.559
 3096SOL    HW210188   0.523   3.275   3.620
 3097SOL     OW10189   5.465   2.626   5.287
 3097SOL    HW110190   5.427   2.606   5.197
 3097SOL    HW210191   5.423   2.710   5.323
 3098SOL     OW10192   1.777   3.253   2.948
 3098SOL    HW110193   1.766   3.305   3.033
 3098SOL    HW210194   1.708   3.180   2.945
 3099SOL     OW10195   0.386   6.369   5.039
 3099SOL    HW110196   0.325   6.430   4.988
 3099SOL    HW210197   0.362   6.274   5.018
 3100SOL     OW10198   5.515   5.077   1.537
 3100SOL    HW110199   5.435   5.118   1.580
 3100SOL    HW210200   5.491   5.043   1.446
 3101SOL     OW10201   4.353   6.954   5.523
 3101SOL    HW110202   4.378   6.984   5.431
 3101SOL    HW210203   4.400   7.011   5.590
 3102SOL     OW10204   6.793   4.713   1.726
 3102SOL    HW110205   6.743   4.798   1.716
 3102SOL    HW210206   6.756   4.662   1.804
 3103SOL     OW10207   3.332   1.267   1.806
 3103SOL    HW110208   3.390   1.349   1.804
 3103SOL    HW210209   3.259   1.280   1.874
 3104SOL     OW10210   4.737   1.570   5.309
 3104SOL    HW110211   4.814   1.634   5.310
 3104SOL    HW210212   4.659   1.613   5.355
 3105SOL     OW10213   5.980   3.575   0.110
 3105SOL    HW110214   5.912   3.619   0.169
 3105SOL    HW210215   6.068   3.574   0.157
 3106SOL     OW10216   5.885   0.915   5.777
 3106SOL    HW110217   5.869   0.943   5.872
 3106SOL    HW210218   5.883   0.995   5.717
 3107SOL     OW10219   3.459   1.907   5.032
 3107SOL    HW110220   3.449   1.896   5.131
 3107SOL    HW210221   3.379   1.868   4.987
 3108SOL     OW10222   2.275   4.269   3.795
 3108SOL    HW110223   2.290   4.210   3.874
 3108SOL    HW210224   2.347   4.337   3.789
 3109SOL     OW10225   6.841   6.341   4.360
 3109SOL    HW110226   6.825   6.311   4.454
 3109SOL    HW210227   6.781   6.291   4.298
 3110SOL     OW10228   0.951   4.759   2.821
 3110SOL    HW110229   0.921   4.670   2.857
 3110SOL    HW210230   0.876   4.824   2.826
 3111SOL     OW10231   5.759   4.574   3.999
 3111SOL    HW110232   5.760   4.522   4.084
 3111SOL    HW210233   5.788   4.668   4.016
 3112SOL     OW10234   3.630   1.334   5.934
 3112SOL    HW110235   3.639   1.432   5.953
 3112SOL    HW210236   3.544   1.317   5.887
 3113SOL     OW10237   1.853   6.299   3.247
 3113SOL    HW110238   1.767   6.296   3.298
 3113SOL    HW210239   1.835   6.286   3.149
 3114SOL     OW10240   4.794   1.296   5.643
 3114SOL    HW110241   4.869   1.361   5.657
 3114SOL    HW210242   4.764   1.299   5.548
 3115SOL     OW10243   4.649   5.468   5.188
 3115SOL    HW110244   4.714   5.468   5.264
 3115SOL    HW210245   4.608   5.377   5.180
 3116SOL     OW10246   0.522   0.743   0.129
 3116SOL    HW110247   0.424   0.721   0.131
 3116SOL    HW210248   0.570   0.679   0.070
 3117SOL     OW10249   4.712   0.688   6.324
 3117SOL    HW110250   4.790   0.671   6.384
 3117SOL    HW210251   4.740   0.676   6.229
 3118SOL     OW10252   1.300   1.480   3.734
 3118SOL    HW110253   1.383   1.481   3.679
 3118SOL    HW210254   1.246   1.561   3.715
 3119SOL     OW10255   4.462   5.566   5.009
 3119SOL    HW110256   4.544   5.543   5.061
 3119SOL    HW210257   4.384   5.516   5.045
 3120SOL     OW10258   1.999   5.514   5.597
 3120SOL    HW110259   1.948   5.455   5.535
 3120SOL    HW210260   2.013   5.604   5.554
 3121SOL     OW10261   3.764   1.767   4.516
 3121SOL    HW110262   3.716   1.739   4.432
 3121SOL    HW210263   3.799   1.860   4.504
 3122SOL     OW10264   4.943   5.203   4.403
 3122SOL    HW110265   4.857   5.251   4.420
 3122SOL    HW210266   4.929   5.133   4.334
 3123SOL     OW10267   2.395   1.493   3.514
 3123SOL    HW110268   2.325   1.554   3.552
 3123SOL    HW210269   2.486   1.530   3.536
 3124SOL     OW10270   4.931   0.053   4.400
 3124SOL    HW110271   4.838   0.067   4.367
 3124SOL    HW210272   4.932   0.059   4.500
 3125SOL     OW10273   1.479   1.060   4.938
 3125SOL    HW110274   1.427   1.002   4.875
 3125SOL    HW210275   1.429   1.070   5.023
 3126SOL     OW10276   5.721   5.583   5.436
 3126SOL    HW110277   5.809   5.620   5.466
 3126SOL    HW210278   5.729   5.484   5.425
 3127SOL     OW10279   0.411   1.146   5.250
 3127SOL    HW110280   0.343   1.213   5.280
 3127SOL    HW210281   0.371   1.089   5.178
 3128SOL     OW10282   4.038   0.362   0.578
 3128SOL    HW110283   4.002   0.305   0.504
 3128SOL    HW210284   3.992   0.450   0.578
 3129SOL     OW10285   4.416   3.775   0.242
 3129SOL    HW110286   4.331   3.734   0.275
 3129SOL    HW210287   4.462   3.711   0.180
 3130SOL     OW10288   6.882   4.701   2.527
 3130SOL    HW110289   6.868   4.604   2.506
 3130SOL    HW210290   6.857   4.756   2.447
 3131SOL     OW10291   5.986   4.242   2.802
 3131SOL    HW110292   5.985   4.212   2.897
 3131SOL    HW210293   6.058   4.195   2.752
 3132SOL     OW10294   4.294   4.496   7.013
 3132SOL    HW110295   4.217   4.553   0.022
 3132SOL    HW210296   4.321   4.439   0.075
 3133SOL     OW10297   4.102   0.030   4.419
 3133SOL    HW110298   4.198   0.037   4.447
 3133SOL    HW210299   4.057   6.975   4.473
 3134SOL     OW10300   5.013   4.712   2.261
 3134SOL    HW110301   5.035   4.694   2.357
 3134SOL    HW210302   5.077   4.663   2.203
 3135SOL     OW10303   4.557   5.583   6.661
 3135SOL    HW110304   4.591   5.627   6.578
 3135SOL    HW210305   4.620   5.601   6.737
 3136SOL     OW10306   6.777   1.550   3.232
 3136SOL    HW110307   6.744   1.456   3.232
 3136SOL    HW210308   6.767   1.589   3.324
 3137SOL     OW10309   6.093   6.639   6.450
 3137SOL    HW110310   6.150   6.714   6.416
 3137SOL    HW210311   6.151   6.572   6.496
 3138SOL     OW10312   5.955   6.351   4.124
 3138SOL    HW110313   6.041   6.398   4.145
 3138SOL    HW210314   5.889   6.367   4.198
 3139SOL     OW10315   2.601   4.910   1.532
 3139SOL    HW110316   2.666   4.938   1.603
 3139SOL    HW210317   2.511   4.895   1.574
 3140SOL     OW10318   6.660   6.750   6.155
 3140SOL    HW110319   6.609   6.685   6.212
 3140SOL    HW210320   6.635   6.844   6.182
 3141SOL     OW10321   6.757   1.548   6.118
 3141SOL    HW110322   6.678   1.564   6.177
 3141SOL    HW210323   6.744   1.597   6.031
 3142SOL     OW10324   4.260   0.711   3.914
 3142SOL    HW110325   4.274   0.638   3.981
 3142SOL    HW210326   4.262   0.799   3.960
 3143SOL     OW10327   6.257   1.091   0.694
 3143SOL    HW110328   6.292   1.081   0.787
 3143SOL    HW210329   6.271   1.006   0.644
 3144SOL     OW10330   3.673   4.129   0.613
 3144SOL    HW110331   3.694   4.209   0.670
 3144SOL    HW210332   3.623   4.062   0.667
 3145SOL     OW10333   0.109   6.581   0.496
 3145SOL    HW110334   0.020   6.548   0.526
 3145SOL    HW210335   0.181   6.520   0.530
 3146SOL     OW10336   0.236   0.557   4.795
 3146SOL    HW110337   0.197   0.507   4.872
 3146SOL    HW210338   0.241   0.497   4.715
 3147SOL     OW10339   3.854   5.333   0.789
 3147SOL    HW110340   3.891   5.409   0.841
 3147SOL    HW210341   3.887   5.247   0.827
 3148SOL     OW10342   6.887   5.365   2.213
 3148SOL    HW110343   6.880   5.340   2.116
 3148SOL    HW210344   6.869   5.284   2.270
 3149SOL     OW10345   2.868   1.705   6.811
 3149SOL    HW110346   2.834   1.749   6.894
 3149SOL    HW210347   2.867   1.770   6.735
 3150SOL     OW10348   6.378   5.647   5.229
 3150SOL    HW110349   6.409   5.555   5.204
 3150SOL    HW210350   6.333   5.644   5.318
 3151SOL     OW10351   6.977   0.793   5.758
 3151SOL    HW110352   6.947   0.770   5.851
 3151SOL    HW210353   6.971   0.892   5.744
 3152SOL     OW10354   1.299   3.395   6.314
 3152SOL    HW110355   1.301   3.328   6.240
 3152SOL    HW210356   1.363   3.470   6.294
 3153SOL     OW10357   6.280   4.873   0.797
 3153SOL    HW110358   6.312   4.963   0.828
 3153SOL    HW210359   6.293   4.806   0.870
 3154SOL     OW10360   4.700   1.280   0.160
 3154SOL    HW110361   4.602   1.281   0.140
 3154SOL    HW210362   4.747   1.346   0.101
 3155SOL     OW10363   1.275   4.594   0.723
 3155SOL    HW110364   1.286   4.669   0.789
 3155SOL    HW210365   1.331   4.612   0.643
 3156SOL     OW10366   3.600   4.243   1.886
 3156SOL    HW110367   3.560   4.304   1.955
 3156SOL    HW210368   3.685   4.204   1.921
 3157SOL     OW10369   0.512   1.155   5.915
 3157SOL    HW110370   0.550   1.207   5.839
 3157SOL    HW210371   0.581   1.090   5.948
 3158SOL     OW10372   1.548   1.205   5.766
 3158SOL    HW110373   1.473   1.202   5.700
 3158SOL    HW210374   1.551   1.295   5.809
 3159SOL     OW10375   5.970   0.313   0.118
 3159SOL    HW110376   5.924   0.311   0.029
 3159SOL    HW210377   5.949   0.228   0.167
 3160SOL     OW10378   1.817   6.945   6.395
 3160SOL    HW110379   1.880   7.003   6.446
 3160SOL    HW210380   1.852   6.932   6.302
 3161SOL     OW10381   2.282   2.229   2.139
 3161SOL    HW110382   2.363   2.287   2.139
 3161SOL    HW210383   2.215   2.264   2.205
 3162SOL     OW10384   2.156   5.221   0.956
 3162SOL    HW110385   2.171   5.318   0.936
 3162SOL    HW210386   2.063   5.209   0.990
 3163SOL     OW10387   4.331   4.212   0.080
 3163SOL    HW110388   4.240   4.193   0.044
 3163SOL    HW210389   4.325   4.273   0.159
 3164SOL     OW10390   2.754   6.903   2.911
 3164SOL    HW110391   2.654   6.906   2.916
 3164SOL    HW210392   2.784   6.810   2.891
 3165SOL     OW10393   0.780   6.742   6.852
 3165SOL    HW110394   0.873   6.722   6.820
 3165SOL    HW210395   0.782   6.761   6.950
 3166SOL     OW10396   4.970   0.392   4.790
 3166SOL    HW110397   4.890   0.425   4.841
 3166SOL    HW210398   4.961   0.420   4.694
 3167SOL     OW10399   5.784   2.763   0.558
 3167SOL    HW110400   5.831   2.770   0.646
 3167SOL    HW210401   5.847   2.787   0.485
 3168SOL     OW10402   5.302   2.065   0.428
 3168SOL    HW110403   5.374   2.133   0.433
 3168SOL    HW210404   5.214   2.108   0.450
 3169SOL     OW10405   2.484   4.739   2.166
 3169SOL    HW110406   2.582   4.753   2.178
 3169SOL    HW210407   2.468   4.664   2.102
 3170SOL     OW10408   2.482   4.492   3.419
 3170SOL    HW110409   2.405   4.537   3.465
 3170SOL    HW210410   2.447   4.418   3.361
 3171SOL     OW10411   5.066   2.158   3.940
 3171SOL    HW110412   5.108   2.098   4.008
 3171SOL    HW210413   5.114   2.149   3.853
 3172SOL     OW10414   6.152   4.457   1.634
 3172SOL    HW110415   6.121   4.524   1.701
 3172SOL    HW210416   6.075   4.399   1.607
 3173SOL     OW10417   4.538   3.192   0.513
 3173SOL    HW110418   4.548   3.187   0.613
 3173SOL    HW210419   4.466   3.128   0.484
 3174SOL     OW10420   2.992   3.484   6.489
 3174SOL    HW110421   2.931   3.538   6.432
 3174SOL    HW210422   3.082   3.526   6.492
 3175SOL     OW10423   5.646   0.920   4.553
 3175SOL    HW110424   5.580   0.886   4.619
 3175SOL    HW210425   5.675   0.846   4.492
 3176SOL     OW10426   0.863   4.797   4.988
 3176SOL    HW110427   0.803   4.873   5.015
 3176SOL    HW210428   0.901   4.816   4.897
 3177SOL     OW10429   5.428   3.676   3.697
 3177SOL    HW110430   5.357   3.657   3.765
 3177SOL    HW210431   5.486   3.751   3.729
 3178SOL     OW10432   6.504   0.967   1.595
 3178SOL    HW110433   6.574   0.959   1.666
 3178SOL    HW210434   6.471   0.876   1.570
 3179SOL     OW10435   1.030   1.692   1.815
 3179SOL    HW110436   0.933   1.668   1.805
 3179SOL    HW210437   1.038   1.770   1.878
 3180SOL     OW10438   6.980   6.329   0.340
 3180SOL    HW110439   6.944   6.290   0.424
 3180SOL    HW210440   6.957   6.269   0.263
 3181SOL     OW10441   1.731   6.997   4.645
 3181SOL    HW110442   1.727   6.898   4.642
 3181SOL    HW210443   1.685   0.019   4.565
 3182SOL     OW10444   2.853   1.420   0.585
 3182SOL    HW110445   2.820   1.345   0.642
 3182SOL    HW210446   2.948   1.402   0.559
 3183SOL     OW10447   4.311   3.779   1.307
 3183SOL    HW110448   4.249   3.749   1.235
 3183SOL    HW210449   4.267   3.853   1.359
 3184SOL     OW10450   0.524   2.580   5.195
 3184SOL    HW110451   0.511   2.665   5.143
 3184SOL    HW210452   0.443   2.523   5.186
 3185SOL     OW10453   0.390   5.425   5.838
 3185SOL    HW110454   0.376   5.373   5.922
 3185SOL    HW210455   0.460   5.495   5.854
 3186SOL     OW10456   0.481   1.876   6.396
 3186SOL    HW110457   0.512   1.892   6.302
 3186SOL    HW210458   0.528   1.941   6.457
 3187SOL     OW10459   4.283   5.911   2.214
 3187SOL    HW110460   4.210   5.887   2.278
 3187SOL    HW210461   4.270   6.005   2.182
 3188SOL     OW10462   2.368   5.127   5.853
 3188SOL    HW110463   2.379   5.056   5.923
 3188SOL    HW210464   2.296   5.100   5.789
 3189SOL     OW10465   3.413   1.856   5.289
 3189SOL    HW110466   3.377   1.931   5.344
 3189SOL    HW210467   3.362   1.772   5.310
 3190SOL     OW10468   5.763   6.092   5.052
 3190SOL    HW110469   5.704   6.033   4.997
 3190SOL    HW210470   5.771   6.055   5.144
 3191SOL     OW10471   4.279   5.593   1.538
 3191SOL    HW110472   4.307   5.566   1.630
 3191SOL    HW210473   4.352   5.645   1.494
 3192SOL     OW10474   5.659   2.142   2.570
 3192SOL    HW110475   5.741   2.135   2.628
 3192SOL    HW210476   5.603   2.218   2.602
 3193SOL     OW10477   3.364   0.102   5.229
 3193SOL    HW110478   3.352   0.046   5.311
 3193SOL    HW210479   3.461   0.125   5.218
 3194SOL     OW10480   1.666   0.436   6.440
 3194SOL    HW110481   1.683   0.534   6.447
 3194SOL    HW210482   1.642   0.400   6.530
 3195SOL     OW10483   6.857   1.868   1.321
 3195SOL    HW110484   6.882   1.776   1.351
 3195SOL    HW210485   6.841   1.925   1.401
 3196SOL     OW10486   6.208   0.380   3.873
 3196SOL    HW110487   6.286   0.401   3.932
 3196SOL    HW210488   6.144   0.320   3.923
 3197SOL     OW10489   1.910   0.875   6.643
 3197SOL    HW110490   1.919   0.859   6.741
 3197SOL    HW210491   1.873   0.966   6.627
 3198SOL     OW10492   5.687   2.770   3.088
 3198SOL    HW110493   5.772   2.819   3.107
 3198SOL    HW210494   5.609   2.824   3.119
 3199SOL     OW10495   5.674   3.944   3.534
 3199SOL    HW110496   5.645   3.856   3.496
 3199SOL    HW210497   5.662   3.943   3.633
 3200SOL     OW10498   5.441   2.975   3.564
 3200SOL    HW110499   5.350   2.987   3.523
 3200SOL    HW210500   5.439   2.896   3.625
 3201SOL     OW10501   5.711   4.261   2.712
 3201SOL    HW110502   5.647   4.206   2.766
 3201SOL    HW210503   5.804   4.232   2.731
 3202SOL     OW10504   1.801   3.859   6.881
 3202SOL    HW110505   1.756   3.773   6.861
 3202SOL    HW210506   1.871   3.877   6.812
 3203SOL     OW10507   3.304   0.129   1.521
 3203SOL    HW110508   3.226   0.168   1.571
 3203SOL    HW210509   3.280   0.039   1.486
 3204SOL     OW10510   2.847   1.455   3.093
 3204SOL    HW110511   2.935   1.417   3.121
 3204SOL    HW210512   2.773   1.405   3.139
 3205SOL     OW10513   4.989   3.342   5.488
 3205SOL    HW110514   4.978   3.436   5.519
 3205SOL    HW210515   4.924   3.323   5.415
 3206SOL     OW10516   3.256   3.347   1.169
 3206SOL    HW110517   3.265   3.368   1.266
 3206SOL    HW210518   3.162   3.319   1.149
 3207SOL     OW10519   1.522   5.508   5.638
 3207SOL    HW110520   1.445   5.572   5.643
 3207SOL    HW210521   1.488   5.415   5.626
 3208SOL     OW10522   6.199   4.975   6.203
 3208SOL    HW110523   6.248   4.987   6.289
 3208SOL    HW210524   6.252   4.918   6.141
 3209SOL     OW10525   5.310   5.993   6.930
 3209SOL    HW110526   5.235   5.941   6.971
 3209SOL    HW210527   5.390   5.934   6.921
 3210SOL     OW10528   6.016   5.168   1.932
 3210SOL    HW110529   5.994   5.262   1.909
 3210SOL    HW210530   5.970   5.106   1.867
 3211SOL     OW10531   0.790   4.950   6.233
 3211SOL    HW110532   0.833   4.906   6.312
 3211SOL    HW210533   0.860   4.991   6.175
 3212SOL     OW10534   2.226   0.421   3.144
 3212SOL    HW110535   2.315   0.378   3.157
 3212SOL    HW210536   2.156   0.350   3.131
 3213SOL     OW10537   1.320   0.609   6.536
 3213SOL    HW110538   1.294   0.583   6.443
 3213SOL    HW210539   1.306   0.531   6.597
 3214SOL     OW10540   3.171   1.051   2.833
 3214SOL    HW110541   3.079   1.081   2.857
 3214SOL    HW210542   3.236   1.087   2.900
 3215SOL     OW10543   2.069   2.938   0.661
 3215SOL    HW110544   2.086   2.877   0.738
 3215SOL    HW210545   2.154   2.987   0.639
 3216SOL     OW10546   5.987   4.372   0.322
 3216SOL    HW110547   6.085   4.391   0.325
 3216SOL    HW210548   5.956   4.343   0.412
 3217SOL     OW10549   0.563   5.953   2.514
 3217SOL    HW110550   0.542   5.963   2.417
 3217SOL    HW210551   0.625   6.025   2.543
 3218SOL     OW10552   5.579   0.836   2.917
 3218SOL    HW110553   5.609   0.825   2.822
 3218SOL    HW210554   5.655   0.873   2.972
 3219SOL     OW10555   5.977   1.169   5.463
 3219SOL    HW110556   6.027   1.209   5.539
 3219SOL    HW210557   5.881   1.157   5.488
 3220SOL     OW10558   0.111   4.475   6.717
 3220SOL    HW110559   0.134   4.569   6.741
 3220SOL    HW210560   0.055   4.475   6.634
 3221SOL     OW10561   3.463   0.661   1.464
 3221SOL    HW110562   3.513   0.744   1.442
 3221SOL    HW210563   3.448   0.656   1.563
 3222SOL     OW10564   3.643   1.738   2.996
 3222SOL    HW110565   3.586   1.819   2.981
 3222SOL    HW210566   3.723   1.742   2.935
 3223SOL     OW10567   1.117   6.460   1.194
 3223SOL    HW110568   1.150   6.554   1.202
 3223SOL    HW210569   1.024   6.461   1.159
 3224SOL     OW10570   3.627   1.896   4.037
 3224SOL    HW110571   3.652   1.962   4.107
 3224SOL    HW210572   3.685   1.908   3.957
 3225SOL     OW10573   4.086   0.679   3.669
 3225SOL    HW110574   4.034   0.757   3.632
 3225SOL    HW210575   4.129   0.705   3.755
 3226SOL     OW10576   0.087   0.119   1.102
 3226SOL    HW110577   0.161   0.173   1.142
 3226SOL    HW210578   7.016   0.157   1.131
 3227SOL     OW10579   4.874   3.985   5.266
 3227SOL    HW110580   4.939   4.035   5.324
 3227SOL    HW210581   4.805   4.048   5.231
 3228SOL     OW10582   2.558   3.817   0.229
 3228SOL    HW110583   2.494   3.871   0.175
 3228SOL    HW210584   2.613   3.879   0.287
 3229SOL     OW10585   1.423   1.560   0.780
 3229SOL    HW110586   1.355   1.624   0.744
 3229SOL    HW210587   1.441   1.581   0.876
 3230SOL     OW10588   2.744   5.945   5.660
 3230SOL    HW110589   2.725   5.863   5.606
 3230SOL    HW210590   2.735   5.924   5.757
 3231SOL     OW10591   2.497   1.937   2.010
 3231SOL    HW110592   2.497   2.034   2.035
 3231SOL    HW210593   2.543   1.925   1.922
 3232SOL     OW10594   4.109   5.401   3.965
 3232SOL    HW110595   4.177   5.426   4.033
 3232SOL    HW210596   4.033   5.353   4.010
 3233SOL     OW10597   0.079   1.923   0.802
 3233SOL    HW110598   0.131   1.994   0.849
 3233SOL    HW210599   0.006   1.965   0.748
 3234SOL     OW10600   2.173   2.565   0.423
 3234SOL    HW110601   2.133   2.517   0.345
 3234SOL    HW210602   2.139   2.659   0.426
 3235SOL     OW10603   0.754   6.877   2.385
 3235SOL    HW110604   0.791   6.969   2.393
 3235SOL    HW210605   0.661   6.876   2.422
 3236SOL     OW10606   3.609   2.432   0.071
 3236SOL    HW110607   3.612   2.461   0.166
 3236SOL    HW210608   3.514   2.418   0.043
 3237SOL     OW10609   5.885   1.161   4.805
 3237SOL    HW110610   5.891   1.061   4.810
 3237SOL    HW210611   5.790   1.188   4.790
 3238SOL     OW10612   6.739   5.029   1.419
 3238SOL    HW110613   6.717   5.013   1.515
 3238SOL    HW210614   6.768   4.943   1.377
 3239SOL     OW10615   6.679   6.961   4.493
 3239SOL    HW110616   6.582   6.962   4.517
 3239SOL    HW210617   6.711   6.866   4.489
 3240SOL     OW10618   0.364   1.014   6.891
 3240SOL    HW110619   0.360   1.040   6.795
 3240SOL    HW210620   0.288   0.953   6.913
 3241SOL     OW10621   6.015   1.941   5.823
 3241SOL    HW110622   5.967   2.006   5.764
 3241SOL    HW210623   6.102   1.915   5.781
 3242SOL     OW10624   5.532   3.948   4.768
 3242SOL    HW110625   5.452   3.992   4.726
 3242SOL    HW210626   5.607   4.013   4.774
 3243SOL     OW10627   5.724   5.287   5.399
 3243SOL    HW110628   5.686   5.274   5.490
 3243SOL    HW210629   5.746   5.199   5.359
 3244SOL     OW10630   5.149   0.072   6.727
 3244SOL    HW110631   5.050   0.069   6.741
 3244SOL    HW210632   5.182   0.164   6.750
 3245SOL     OW10633   3.891   0.980   5.119
 3245SOL    HW110634   3.964   1.047   5.135
 3245SOL    HW210635   3.928   0.900   5.072
 3246SOL     OW10636   6.753   0.367   2.877
 3246SOL    HW110637   6.749   0.465   2.897
 3246SOL    HW210638   6.688   0.319   2.936
 3247SOL     OW10639   0.602   4.550   2.999
 3247SOL    HW110640   0.554   4.464   3.016
 3247SOL    HW210641   0.539   4.615   2.958
 3248SOL     OW10642   5.207   1.922   4.069
 3248SOL    HW110643   5.303   1.933   4.093
 3248SOL    HW210644   5.189   1.827   4.044
 3249SOL     OW10645   3.185   3.932   3.867
 3249SOL    HW110646   3.225   3.959   3.779
 3249SOL    HW210647   3.222   3.990   3.940
 3250SOL     OW10648   4.891   5.109   2.256
 3250SOL    HW110649   4.868   5.088   2.161
 3250SOL    HW210650   4.834   5.054   2.317
 3251SOL     OW10651   2.298   1.347   2.878
 3251SOL    HW110652   2.338   1.401   2.804
 3251SOL    HW210653   2.228   1.285   2.841
 3252SOL     OW10654   2.225   1.167   3.096
 3252SOL    HW110655   2.258   1.226   3.023
 3252SOL    HW210656   2.154   1.215   3.149
 3253SOL     OW10657   6.558   3.493   0.571
 3253SOL    HW110658   6.653   3.514   0.591
 3253SOL    HW210659   6.553   3.437   0.489
 3254SOL     OW10660   6.117   0.337   0.914
 3254SOL    HW110661   6.019   0.352   0.900
 3254SOL    HW210662   6.136   0.331   1.012
 3255SOL     OW10663   4.905   5.618   1.235
 3255SOL    HW110664   4.978   5.668   1.189
 3255SOL    HW210665   4.837   5.589   1.168
 3256SOL     OW10666   5.068   1.917   1.133
 3256SOL    HW110667   5.129   1.840   1.152
 3256SOL    HW210668   5.099   1.964   1.050
 3257SOL     OW10669   2.702   1.960   3.099
 3257SOL    HW110670   2.712   2.022   3.021
 3257SOL    HW210671   2.689   2.012   3.183
 3258SOL     OW10672   1.966   5.907   3.488
 3258SOL    HW110673   2.049   5.864   3.451
 3258SOL    HW210674   1.903   5.835   3.518
 3259SOL     OW10675   4.615   4.363   3.512
 3259SOL    HW110676   4.694   4.425   3.519
 3259SOL    HW210677   4.557   4.375   3.593
 3260SOL     OW10678   0.819   4.655   2.585
 3260SOL    HW110679   0.858   4.714   2.514
 3260SOL    HW210680   0.849   4.687   2.675
 3261SOL     OW10681   5.335   6.611   3.889
 3261SOL    HW110682   5.279   6.678   3.937
 3261SOL    HW210683   5.380   6.655   3.811
 3262SOL     OW10684   3.162   2.072   2.461
 3262SOL    HW110685   3.086   2.106   2.406
 3262SOL    HW210686   3.180   1.977   2.437
 3263SOL     OW10687   0.378   1.484   2.247
 3263SOL    HW110688   0.368   1.573   2.290
 3263SOL    HW210689   0.377   1.494   2.148
 3264SOL     OW10690   1.475   5.271   0.707
 3264SOL    HW110691   1.492   5.315   0.796
 3264SOL    HW210692   1.443   5.340   0.642
 3265SOL     OW10693   5.570   4.997   6.374
 3265SOL    HW110694   5.551   4.917   6.317
 3265SOL    HW210695   5.661   4.987   6.415
 3266SOL     OW10696   3.018   5.102   6.727
 3266SOL    HW110697   3.112   5.080   6.753
 3266SOL    HW210698   3.019   5.167   6.651
 3267SOL     OW10699   4.285   6.839   0.880
 3267SOL    HW110700   4.310   6.936   0.874
 3267SOL    HW210701   4.352   6.790   0.935
 3268SOL     OW10702   6.497   5.328   1.811
 3268SOL    HW110703   6.488   5.235   1.774
 3268SOL    HW210704   6.447   5.391   1.752
 3269SOL     OW10705   1.513   4.808   2.161
 3269SOL    HW110706   1.457   4.745   2.107
 3269SOL    HW210707   1.606   4.807   2.126
 3270SOL     OW10708   0.528   3.021   5.130
 3270SOL    HW110709   0.528   2.923   5.107
 3270SOL    HW210710   0.574   3.072   5.057
 3271SOL     OW10711   0.559   3.144   2.877
 3271SOL    HW110712   0.512   3.220   2.922
 3271SOL    HW210713   0.519   3.057   2.906
 3272SOL     OW10714   4.297   6.162   0.740
 3272SOL    HW110715   4.366   6.177   0.669
 3272SOL    HW210716   4.215   6.215   0.718
 3273SOL     OW10717   4.989   2.429   6.258
 3273SOL    HW110718   4.931   2.347   6.256
 3273SOL    HW210719   4.934   2.509   6.283
 3274SOL     OW10720   5.750   0.531   0.462
 3274SOL    HW110721   5.783   0.438   0.449
 3274SOL    HW210722   5.818   0.596   0.428
 3275SOL     OW10723   4.694   0.233   1.005
 3275SOL    HW110724   4.780   0.201   1.043
 3275SOL    HW210725   4.643   0.156   0.968
 3276SOL     OW10726   5.036   0.216   0.359
 3276SOL    HW110727   5.071   0.150   0.292
 3276SOL    HW210728   4.944   0.189   0.387
 3277SOL     OW10729   3.964   1.841   1.648
 3277SOL    HW110730   4.033   1.772   1.628
 3277SOL    HW210731   3.908   1.811   1.726
 3278SOL     OW10732   6.987   0.397   0.235
 3278SOL    HW110733   0.048   0.336   0.250
 3278SOL    HW210734   0.002   0.492   0.236
 3279SOL     OW10735   3.516   0.278   1.477
 3279SOL    HW110736   3.434   0.221   1.486
 3279SOL    HW210737   3.565   0.280   1.563
 3280SOL     OW10738   5.783   4.085   4.346
 3280SOL    HW110739   5.759   4.166   4.400
 3280SOL    HW210740   5.701   4.029   4.334
 3281SOL     OW10741   6.123   3.453   1.409
 3281SOL    HW110742   6.097   3.483   1.501
 3281SOL    HW210743   6.049   3.399   1.370
 3282SOL     OW10744   0.552   5.111   4.085
 3282SOL    HW110745   0.572   5.209   4.081
 3282SOL    HW210746   0.562   5.071   3.993
 3283SOL     OW10747   3.741   1.813   0.473
 3283SOL    HW110748   3.644   1.805   0.450
 3283SOL    HW210749   3.797   1.791   0.392
 3284SOL     OW10750   1.732   6.139   4.285
 3284SOL    HW110751   1.667   6.064   4.275
 3284SOL    HW210752   1.800   6.133   4.212
 3285SOL     OW10753   4.602   1.771   4.688
 3285SOL    HW110754   4.615   1.729   4.778
 3285SOL    HW210755   4.568   1.865   4.700
 3286SOL     OW10756   3.262   1.531   1.251
 3286SOL    HW110757   3.339   1.590   1.276
 3286SOL    HW210758   3.207   1.576   1.180
 3287SOL     OW10759   2.154   0.352   6.637
 3287SOL    HW110760   2.108   0.441   6.630
 3287SOL    HW210761   2.136   0.313   6.727
 3288SOL     OW10762   1.977   6.597   1.778
 3288SOL    HW110763   2.025   6.587   1.691
 3288SOL    HW210764   2.043   6.597   1.853
 3289SOL     OW10765   4.199   1.554   6.774
 3289SOL    HW110766   4.109   1.511   6.785
 3289SOL    HW210767   4.230   1.590   6.862
 3290SOL     OW10768   0.558   5.230   0.359
 3290SOL    HW110769   0.552   5.264   0.265
 3290SOL    HW210770   0.502   5.287   0.418
 3291SOL     OW10771   4.918   6.451   5.343
 3291SOL    HW110772   4.871   6.383   5.399
 3291SOL    HW210773   4.925   6.417   5.249
 3292SOL     OW10774   6.752   2.259   1.475
 3292SOL    HW110775   6.834   2.296   1.432
 3292SOL    HW210776   6.672   2.282   1.420
 3293SOL     OW10777   5.716   5.151   3.042
 3293SOL    HW110778   5.756   5.209   2.971
 3293SOL    HW210779   5.616   5.154   3.035
 3294SOL     OW10780   5.080   2.077   5.082
 3294SOL    HW110781   5.082   1.993   5.026
 3294SOL    HW210782   5.133   2.148   5.036
 3295SOL     OW10783   1.552   2.925   2.447
 3295SOL    HW110784   1.532   3.003   2.388
 3295SOL    HW210785   1.470   2.868   2.456
 3296SOL     OW10786   1.490   0.039   5.762
 3296SOL    HW110787   1.445   7.001   5.832
 3296SOL    HW210788   1.505   6.999   5.680
 3297SOL     OW10789   2.971   1.259   4.947
 3297SOL    HW110790   2.921   1.314   4.880
 3297SOL    HW210791   3.024   1.189   4.899
 3298SOL     OW10792   5.788   4.168   5.862
 3298SOL    HW110793   5.769   4.073   5.836
 3298SOL    HW210794   5.870   4.199   5.814
 3299SOL     OW10795   3.054   4.826   4.404
 3299SOL    HW110796   2.978   4.764   4.424
 3299SOL    HW210797   3.066   4.889   4.481
 3300SOL     OW10798   1.669   0.144   4.021
 3300SOL    HW110799   1.574   0.165   4.048
 3300SOL    HW210800   1.723   0.126   4.103
 3301SOL     OW10801   1.500   1.221   2.786
 3301SOL    HW110802   1.520   1.207   2.689
 3301SOL    HW210803   1.518   1.316   2.809
 3302SOL     OW10804   2.390   5.035   6.466
 3302SOL    HW110805   2.383   4.943   6.426
 3302SOL    HW210806   2.476   5.077   6.439
 3303SOL     OW10807   3.898   2.927   0.229
 3303SOL    HW110808   3.814   2.973   0.258
 3303SOL    HW210809   3.879   2.832   0.205
 3304SOL     OW10810   2.694   5.200   6.500
 3304SOL    HW110811   2.740   5.288   6.513
 3304SOL    HW210812   2.679   5.157   6.589
 3305SOL     OW10813   2.985   2.249   0.893
 3305SOL    HW110814   2.924   2.177   0.925
 3305SOL    HW210815   3.037   2.285   0.971
 3306SOL     OW10816   2.279   0.647   6.945
 3306SOL    HW110817   2.193   0.697   6.937
 3306SOL    HW210818   2.330   0.681   0.007
 3307SOL     OW10819   2.047   6.912   4.896
 3307SOL    HW110820   2.052   6.940   4.991
 3307SOL    HW210821   2.003   6.822   4.890
 3308SOL     OW10822   3.876   4.312   1.015
 3308SOL    HW110823   3.851   4.256   1.094
 3308SOL    HW210824   3.971   4.342   1.024
 3309SOL     OW10825   5.971   3.102   3.670
 3309SOL    HW110826   5.874   3.121   3.653
 3309SOL    HW210827   6.027   3.171   3.624
 3310SOL     OW10828   6.489   5.281   6.069
 3310SOL    HW110829   6.581   5.306   6.037
 3310SOL    HW210830   6.443   5.226   5.999
 3311SOL     OW10831   3.474   3.255   0.532
 3311SOL    HW110832   3.564   3.257   0.575
 3311SOL    HW210833   3.404   3.276   0.601
 3312SOL     OW10834   4.346   2.572   5.888
 3312SOL    HW110835   4.332   2.578   5.986
 3312SOL    HW210836   4.400   2.651   5.857
 3313SOL     OW10837   0.924   1.093   3.114
 3313SOL    HW110838   0.958   0.999   3.121
 3313SOL    HW210839   0.876   1.105   3.027
 3314SOL     OW10840   2.669   5.203   2.877
 3314SOL    HW110841   2.729   5.235   2.950
 3314SOL    HW210842   2.696   5.245   2.791
 3315SOL     OW10843   0.110   5.490   5.203
 3315SOL    HW110844   0.099   5.585   5.174
 3315SOL    HW210845   0.179   5.446   5.146
 3316SOL     OW10846   3.432   2.084   5.772
 3316SOL    HW110847   3.399   2.145   5.843
 3316SOL    HW210848   3.436   1.990   5.808
 3317SOL     OW10849   4.752   2.618   3.044
 3317SOL    HW110850   4.724   2.615   2.948
 3317SOL    HW210851   4.729   2.531   3.088
 3318SOL     OW10852   3.099   2.198   0.632
 3318SOL    HW110853   3.114   2.247   0.718
 3318SOL    HW210854   3.009   2.155   0.633
 3319SOL     OW10855   6.849   6.088   3.254
 3319SOL    HW110856   6.841   6.184   3.228
 3319SOL    HW210857   6.858   6.032   3.171
 3320SOL     OW10858   6.132   0.045   1.164
 3320SOL    HW110859   6.224   0.007   1.164
 3320SOL    HW210860   6.079   0.005   1.239
 3321SOL     OW10861   4.880   1.332   0.402
 3321SOL    HW110862   4.976   1.309   0.394
 3321SOL    HW210863   4.836   1.323   0.313
 3322SOL     OW10864   6.581   3.811   1.042
 3322SOL    HW110865   6.610   3.904   1.066
 3322SOL    HW210866   6.655   3.747   1.062
 3323SOL     OW10867   1.322   2.012   1.811
 3323SOL    HW110868   1.282   2.092   1.765
 3323SOL    HW210869   1.359   2.041   1.900
 3324SOL     OW10870   5.034   5.574   5.997
 3324SOL    HW110871   5.009   5.581   5.900
 3324SOL    HW210872   5.120   5.623   6.012
 3325SOL     OW10873   1.877   3.834   6.507
 3325SOL    HW110874   1.835   3.756   6.461
 3325SOL    HW210875   1.806   3.898   6.536
 3326SOL     OW10876   4.418   0.925   2.931
 3326SOL    HW110877   4.514   0.930   2.903
 3326SOL    HW210878   4.376   1.014   2.921
 3327SOL     OW10879   1.349   5.126   1.039
 3327SOL    HW110880   1.316   5.091   1.126
 3327SOL    HW210881   1.281   5.189   1.000
 3328SOL     OW10882   4.829   2.246   0.091
 3328SOL    HW110883   4.871   2.320   0.038
 3328SOL    HW210884   4.732   2.239   0.069
 3329SOL     OW10885   6.573   5.245   5.695
 3329SOL    HW110886   6.645   5.252   5.625
 3329SOL    HW210887   6.507   5.318   5.682
 3330SOL     OW10888   6.566   3.545   2.187
 3330SOL    HW110889   6.582   3.484   2.265
 3330SOL    HW210890   6.522   3.494   2.114
 3331SOL     OW10891   2.103   2.785   0.874
 3331SOL    HW110892   2.190   2.741   0.898
 3331SOL    HW210893   2.040   2.779   0.951
 3332SOL     OW10894   6.020   4.855   0.872
 3332SOL    HW110895   6.116   4.850   0.847
 3332SOL    HW210896   5.996   4.950   0.895
 3333SOL     OW10897   4.384   4.881   5.812
 3333SOL    HW110898   4.292   4.843   5.825
 3333SOL    HW210899   4.452   4.816   5.846
 3334SOL     OW10900   2.501   4.300   1.767
 3334SOL    HW110901   2.445   4.382   1.769
 3334SOL    HW210902   2.456   4.230   1.710
 3335SOL     OW10903   5.025   4.492   5.236
 3335SOL    HW110904   4.929   4.500   5.265
 3335SOL    HW210905   5.055   4.397   5.248
 3336SOL     OW10906   3.423   5.116   6.153
 3336SOL    HW110907   3.326   5.092   6.146
 3336SOL    HW210908   3.451   5.112   6.249
 3337SOL     OW10909   3.492   2.077   0.869
 3337SOL    HW110910   3.552   2.093   0.791
 3337SOL    HW210911   3.398   2.064   0.837
 3338SOL     OW10912   6.809   4.581   1.074
 3338SOL    HW110913   6.785   4.552   0.981
 3338SOL    HW210914   6.731   4.564   1.135
 3339SOL     OW10915   6.975   5.695   6.740
 3339SOL    HW110916   6.944   5.720   6.831
 3339SOL    HW210917   6.961   5.771   6.677
 3340SOL     OW10918   3.476   6.504   1.330
 3340SOL    HW110919   3.523   6.581   1.372
 3340SOL    HW210920   3.392   6.536   1.286
 3341SOL     OW10921   0.790   1.010   2.311
 3341SOL    HW110922   0.826   0.961   2.232
 3341SOL    HW210923   0.694   1.033   2.295
 3342SOL     OW10924   2.369   6.457   4.365
 3342SOL    HW110925   2.461   6.436   4.399
 3342SOL    HW210926   2.317   6.503   4.436
 3343SOL     OW10927   5.735   2.907   0.979
 3343SOL    HW110928   5.668   2.861   1.037
 3343SOL    HW210929   5.689   2.979   0.927
 3344SOL     OW10930   6.996   3.781   5.813
 3344SOL    HW110931   6.977   3.716   5.739
 3344SOL    HW210932   6.956   3.870   5.791
 3345SOL     OW10933   3.199   3.186   5.722
 3345SOL    HW110934   3.151   3.100   5.704
 3345SOL    HW210935   3.298   3.170   5.718
 3346SOL     OW10936   1.012   0.343   1.940
 3346SOL    HW110937   1.014   0.282   1.862
 3346SOL    HW210938   0.919   0.345   1.979
 3347SOL     OW10939   5.822   4.130   5.205
 3347SOL    HW110940   5.852   4.175   5.289
 3347SOL    HW210941   5.728   4.098   5.216
 3348SOL     OW10942   3.825   3.028   4.111
 3348SOL    HW110943   3.831   3.041   4.012
 3348SOL    HW210944   3.825   2.930   4.131
 3349SOL     OW10945   5.912   3.680   4.861
 3349SOL    HW110946   5.923   3.743   4.938
 3349SOL    HW210947   5.852   3.720   4.792
 3350SOL     OW10948   1.266   1.168   1.042
 3350SOL    HW110949   1.241   1.073   1.027
 3350SOL    HW210950   1.288   1.182   1.139
 3351SOL     OW10951   5.102   1.642   1.708
 3351SOL    HW110952   5.141   1.732   1.729
 3351SOL    HW210953   5.078   1.638   1.611
 3352SOL     OW10954   0.336   3.717   1.194
 3352SOL    HW110955   0.432   3.742   1.206
 3352SOL    HW210956   0.298   3.769   1.117
 3353SOL     OW10957   2.370   0.011   5.913
 3353SOL    HW110958   2.303   0.067   5.961
 3353SOL    HW210959   2.447   7.009   5.974
 3354SOL     OW10960   0.968   2.093   3.013
 3354SOL    HW110961   0.947   2.188   3.036
 3354SOL    HW210962   0.887   2.050   2.972
 3355SOL     OW10963   6.660   1.154   2.730
 3355SOL    HW110964   6.595   1.218   2.771
 3355SOL    HW210965   6.699   1.096   2.802
 3356SOL     OW10966   2.574   3.224   6.973
 3356SOL    HW110967   2.528   3.248   0.042
 3356SOL    HW210968   2.673   3.235   6.983
 3357SOL     OW10969   2.693   5.179   1.698
 3357SOL    HW110970   2.727   5.086   1.711
 3357SOL    HW210971   2.620   5.197   1.765
 3358SOL     OW10972   5.208   4.838   2.452
 3358SOL    HW110973   5.247   4.917   2.405
 3358SOL    HW210974   5.116   4.861   2.484
 3359SOL     OW10975   1.785   1.499   2.693
 3359SOL    HW110976   1.685   1.509   2.697
 3359SOL    HW210977   1.827   1.590   2.695
 3360SOL     OW10978   1.189   0.594   0.033
 3360SOL    HW110979   1.123   0.611   6.976
 3360SOL    HW210980   1.199   0.676   0.089
 3361SOL     OW10981   5.618   6.805   2.761
 3361SOL    HW110982   5.639   6.723   2.814
 3361SOL    HW210983   5.531   6.844   2.794
 3362SOL     OW10984   1.764   1.097   5.895
 3362SOL    HW110985   1.718   1.022   5.941
 3362SOL    HW210986   1.696   1.154   5.848
 3363SOL     OW10987   0.319   1.163   6.677
 3363SOL    HW110988   0.325   1.182   6.579
 3363SOL    HW210989   0.224   1.144   6.702
 3364SOL     OW10990   1.806   4.790   6.315
 3364SOL    HW110991   1.903   4.771   6.299
 3364SOL    HW210992   1.765   4.828   6.232
 3365SOL     OW10993   6.173   1.953   5.365
 3365SOL    HW110994   6.272   1.937   5.367
 3365SOL    HW210995   6.129   1.878   5.315
 3366SOL     OW10996   5.549   1.232   5.743
 3366SOL    HW110997   5.457   1.194   5.758
 3366SOL    HW210998   5.543   1.331   5.732
 3367SOL     OW10999   1.036   0.760   2.276
 3367SOL    HW111000   1.015   0.666   2.248
 3367SOL    HW211001   0.974   0.823   2.229
 3368SOL     OW11002   6.517   5.858   5.893
 3368SOL    HW111003   6.564   5.773   5.869
 3368SOL    HW211004   6.529   5.924   5.819
 3369SOL     OW11005   4.338   6.935   6.591
 3369SOL    HW111006   4.336   6.965   6.687
 3369SOL    HW211007   4.249   6.952   6.549
 3370SOL     OW11008   6.149   6.587   5.576
 3370SOL    HW111009   6.140   6.684   5.595
 3370SOL    HW211010   6.231   6.571   5.520
 3371SOL     OW11011   0.642   5.312   1.728
 3371SOL    HW111012   0.645   5.239   1.796
 3371SOL    HW211013   0.634   5.401   1.774
 3372SOL     OW11014   0.803   1.148   2.890
 3372SOL    HW111015   0.704   1.146   2.873
 3372SOL    HW211016   0.851   1.142   2.803
 3373SOL     OW11017   6.208   2.169   5.173
 3373SOL    HW111018   6.180   2.099   5.240
 3373SOL    HW211019   6.277   2.228   5.214
 3374SOL     OW11020   2.891   4.951   5.493
 3374SOL    HW111021   2.886   5.026   5.427
 3374SOL    HW211022   2.815   4.958   5.558
 3375SOL     OW11023   4.415   4.815   5.291
 3375SOL    HW111024   4.468   4.856   5.366
 3375SOL    HW211025   4.321   4.800   5.322
 3376SOL     OW11026   3.239   3.786   1.996
 3376SOL    HW111027   3.265   3.764   1.902
 3376SOL    HW211028   3.254   3.706   2.054
 3377SOL     OW11029   1.653   6.249   5.383
 3377SOL    HW111030   1.592   6.304   5.326
 3377SOL    HW211031   1.623   6.256   5.479
 3378SOL     OW11032   6.519   1.817   1.195
 3378SOL    HW111033   6.592   1.804   1.128
 3378SOL    HW211034   6.502   1.915   1.207
 3379SOL     OW11035   0.742   4.440   5.374
 3379SOL    HW111036   0.719   4.527   5.418
 3379SOL    HW211037   0.661   4.404   5.328
 3380SOL     OW11038   6.939   4.021   6.505
 3380SOL    HW111039   6.971   4.030   6.599
 3380SOL    HW211040   6.989   4.085   6.446
 3381SOL     OW11041   3.218   2.138   0.125
 3381SOL    HW111042   3.197   2.096   0.214
 3381SOL    HW211043   3.159   2.098   0.055
 3382SOL     OW11044   6.857   1.159   1.147
 3382SOL    HW111045   6.795   1.230   1.114
 3382SOL    HW211046   6.808   1.073   1.158
 3383SOL     OW11047   5.997   4.964   2.725
 3383SOL    HW111048   5.927   5.020   2.678
 3383SOL    HW211049   6.074   4.949   2.663
 3384SOL     OW11050   3.990   3.291   4.118
 3384SOL    HW111051   4.025   3.307   4.211
 3384SOL    HW211052   3.915   3.225   4.121
 3385SOL     OW11053   6.251   3.742   3.335
 3385SOL    HW111054   6.315   3.780   3.401
 3385SOL    HW211055   6.259   3.642   3.335
 3386SOL     OW11056   5.891   4.189   5.497
 3386SOL    HW111057   5.972   4.157   5.545
 3386SOL    HW211058   5.840   4.252   5.555
 3387SOL     OW11059   2.340   2.070   2.793
 3387SOL    HW111060   2.310   1.985   2.838
 3387SOL    HW211061   2.261   2.131   2.782
 3388SOL     OW11062   5.910   2.224   1.443
 3388SOL    HW111063   5.863   2.251   1.359
 3388SOL    HW211064   5.849   2.237   1.521
 3389SOL     OW11065   5.666   4.251   3.468
 3389SOL    HW111066   5.674   4.154   3.489
 3389SOL    HW211067   5.571   4.274   3.450
 3390SOL     OW11068   4.791   2.828   5.604
 3390SOL    HW111069   4.711   2.827   5.542
 3390SOL    HW211070   4.767   2.783   5.690
 3391SOL     OW11071   4.044   2.024   4.786
 3391SOL    HW111072   4.097   1.940   4.770
 3391SOL    HW211073   3.947   2.002   4.789
 3392SOL     OW11074   3.675   0.309   4.070
 3392SOL    HW111075   3.665   0.408   4.081
 3392SOL    HW211076   3.762   0.289   4.025
 3393SOL     OW11077   6.770   7.008   0.201
 3393SOL    HW111078   6.723   6.928   0.239
 3393SOL    HW211079   6.738   0.008   0.108
 3394SOL     OW11080   5.974   2.644   1.305
 3394SOL    HW111081   6.066   2.649   1.265
 3394SOL    HW211082   5.971   2.568   1.370
 3395SOL     OW11083   1.293   3.496   5.317
 3395SOL    HW111084   1.205   3.500   5.364
 3395SOL    HW211085   1.304   3.577   5.260
 3396SOL     OW11086   0.167   4.166   3.759
 3396SOL    HW111087   0.243   4.206   3.809
 3396SOL    HW211088   0.083   4.174   3.813
 3397SOL     OW11089   3.831   6.372   5.847
 3397SOL    HW111090   3.841   6.361   5.946
 3397SOL    HW211091   3.755   6.315   5.815
 3398SOL     OW11092   1.005   6.593   4.492
 3398SOL    HW111093   1.017   6.579   4.393
 3398SOL    HW211094   1.036   6.685   4.516
 3399SOL     OW11095   5.449   4.824   4.051
 3399SOL    HW111096   5.509   4.764   4.104
 3399SOL    HW211097   5.447   4.793   3.955
 3400SOL     OW11098   5.205   2.325   0.321
 3400SOL    HW111099   5.194   2.257   0.248
 3400SOL    HW211100   5.226   2.414   0.281
 3401SOL     OW11101   5.734   4.033   0.216
 3401SOL    HW111102   5.829   4.063   0.202
 3401SOL    HW211103   5.704   4.062   0.307
 3402SOL     OW11104   5.725   5.501   1.611
 3402SOL    HW111105   5.652   5.514   1.544
 3402SOL    HW211106   5.787   5.580   1.609
 3403SOL     OW11107   3.510   0.953   5.401
 3403SOL    HW111108   3.447   0.900   5.344
 3403SOL    HW211109   3.541   1.033   5.349
 3404SOL     OW11110   4.496   1.101   0.601
 3404SOL    HW111111   4.560   1.049   0.546
 3404SOL    HW211112   4.414   1.046   0.617
 3405SOL     OW11113   6.703   3.601   6.420
 3405SOL    HW111114   6.754   3.687   6.421
 3405SOL    HW211115   6.654   3.591   6.507
 3406SOL     OW11116   1.675   3.885   2.586
 3406SOL    HW111117   1.670   3.832   2.670
 3406SOL    HW211118   1.595   3.945   2.579
 3407SOL     OW11119   1.057   5.700   2.474
 3407SOL    HW111120   1.096   5.778   2.424
 3407SOL    HW211121   1.075   5.615   2.423
 3408SOL     OW11122   5.239   4.105   2.294
 3408SOL    HW111123   5.273   4.015   2.268
 3408SOL    HW211124   5.221   4.159   2.211
 3409SOL     OW11125   3.622   0.471   5.764
 3409SOL    HW111126   3.533   0.511   5.788
 3409SOL    HW211127   3.616   0.425   5.676
 3410SOL     OW11128   6.660   6.996   0.715
 3410SOL    HW111129   6.667   6.898   0.731
 3410SOL    HW211130   6.680   0.029   0.799
 3411SOL     OW11131   4.961   2.289   3.084
 3411SOL    HW111132   4.887   2.317   3.145
 3411SOL    HW211133   4.926   2.284   2.990
 3412SOL     OW11134   3.769   4.564   0.114
 3412SOL    HW111135   3.697   4.496   0.131
 3412SOL    HW211136   3.855   4.530   0.150
 3413SOL     OW11137   3.724   1.821   3.484
 3413SOL    HW111138   3.737   1.917   3.458
 3413SOL    HW211139   3.630   1.807   3.514
 3414SOL     OW11140   2.785   2.409   5.146
 3414SOL    HW111141   2.820   2.429   5.055
 3414SOL    HW211142   2.862   2.399   5.210
 3415SOL     OW11143   0.657   4.638   3.858
 3415SOL    HW111144   0.721   4.584   3.803
 3415SOL    HW211145   0.563   4.614   3.832
 3416SOL     OW11146   1.014   5.471   4.991
 3416SOL    HW111147   1.029   5.570   4.996
 3416SOL    HW211148   0.917   5.451   4.997
 3417SOL     OW11149   6.891   6.807   2.499
 3417SOL    HW111150   6.892   6.710   2.525
 3417SOL    HW211151   6.844   6.818   2.412
 3418SOL     OW11152   3.054   1.673   5.702
 3418SOL    HW111153   2.984   1.725   5.653
 3418SOL    HW211154   3.095   1.731   5.773
 3419SOL     OW11155   4.078   4.654   0.039
 3419SOL    HW111156   4.098   4.743   0.079
 3419SOL    HW211157   3.997   4.660   6.998
 3420SOL     OW11158   4.053   2.147   3.779
 3420SOL    HW111159   4.090   2.055   3.793
 3420SOL    HW211160   3.990   2.169   3.855
 3421SOL     OW11161   0.300   5.919   5.589
 3421SOL    HW111162   0.388   5.965   5.578
 3421SOL    HW211163   0.231   5.987   5.615
 3422SOL     OW11164   3.527   0.935   1.369
 3422SOL    HW111165   3.440   0.984   1.367
 3422SOL    HW211166   3.562   0.924   1.276
 3423SOL     OW11167   2.327   0.376   0.862
 3423SOL    HW111168   2.281   0.323   0.791
 3423SOL    HW211169   2.360   0.462   0.823
 3424SOL     OW11170   4.112   0.917   3.057
 3424SOL    HW111171   4.183   0.943   2.992
 3424SOL    HW211172   4.027   0.964   3.034
 3425SOL     OW11173   4.632   4.386   1.761
 3425SOL    HW111174   4.558   4.320   1.772
 3425SOL    HW211175   4.656   4.393   1.664
 3426SOL     OW11176   4.211   3.626   0.359
 3426SOL    HW111177   4.216   3.644   0.458
 3426SOL    HW211178   4.246   3.534   0.341
 3427SOL     OW11179   0.176   1.206   0.519
 3427SOL    HW111180   0.151   1.296   0.554
 3427SOL    HW211181   0.118   1.184   0.440
 3428SOL     OW11182   4.188   4.804   2.036
 3428SOL    HW111183   4.195   4.864   1.956
 3428SOL    HW211184   4.096   4.808   2.073
 3429SOL     OW11185   1.454   3.349   0.462
 3429SOL    HW111186   1.415   3.257   0.449
 3429SOL    HW211187   1.506   3.352   0.547
 3430SOL     OW11188   1.583   6.862   0.054
 3430SOL    HW111189   1.660   6.800   0.070
 3430SOL    HW211190   1.594   6.944   0.109
 3431SOL     OW11191   1.022   5.804   0.803
 3431SOL    HW111192   0.950   5.844   0.859
 3431SOL    HW211193   1.000   5.817   0.706
 3432SOL     OW11194   3.265   1.460   6.095
 3432SOL    HW111195   3.186   1.450   6.156
 3432SOL    HW211196   3.339   1.506   6.144
 3433SOL     OW11197   3.524   0.664   5.128
 3433SOL    HW111198   3.539   0.593   5.059
 3433SOL    HW211199   3.560   0.633   5.216
 3434SOL     OW11200   4.697   2.765   2.191
 3434SOL    HW111201   4.709   2.856   2.153
 3434SOL    HW211202   4.712   2.768   2.290
 3435SOL     OW11203   0.076   2.021   2.143
 3435SOL    HW111204   7.005   2.065   2.161
 3435SOL    HW211205   0.120   2.065   2.065
 3436SOL     OW11206   4.043   6.544   4.496
 3436SOL    HW111207   4.017   6.544   4.592
 3436SOL    HW211208   4.094   6.460   4.476
 3437SOL     OW11209   4.016   6.931   5.330
 3437SOL    HW111210   4.035   0.012   5.338
 3437SOL    HW211211   3.956   6.916   5.251
 3438SOL     OW11212   0.801   2.681   6.468
 3438SOL    HW111213   0.893   2.645   6.450
 3438SOL    HW211214   0.743   2.609   6.505
 3439SOL     OW11215   2.780   6.538   4.361
 3439SOL    HW111216   2.739   6.464   4.414
 3439SOL    HW211217   2.721   6.560   4.283
 3440SOL     OW11218   4.872   3.238   0.886
 3440SOL    HW111219   4.793   3.182   0.911
 3440SOL    HW211220   4.938   3.238   0.961
 3441SOL     OW11221   2.919   0.288   3.669
 3441SOL    HW111222   3.007   0.244   3.654
 3441SOL    HW211223   2.914   0.321   3.764
 3442SOL     OW11224   1.958   5.088   3.753
 3442SOL    HW111225   1.884   5.067   3.816
 3442SOL    HW211226   1.999   5.177   3.777
 3443SOL     OW11227   6.242   1.662   2.911
 3443SOL    HW111228   6.154   1.669   2.864
 3443SOL    HW211229   6.250   1.735   2.978
 3444SOL     OW11230   5.028   5.615   0.211
 3444SOL    HW111231   5.060   5.623   0.306
 3444SOL    HW211232   4.930   5.632   0.207
 3445SOL     OW11233   6.542   4.710   4.197
 3445SOL    HW111234   6.544   4.653   4.115
 3445SOL    HW211235   6.604   4.673   4.265
 3446SOL     OW11236   3.958   0.115   2.618
 3446SOL    HW111237   3.863   0.104   2.589
 3446SOL    HW211238   3.998   0.195   2.572
 3447SOL     OW11239   5.507   6.560   0.190
 3447SOL    HW111240   5.515   6.566   0.090
 3447SOL    HW211241   5.476   6.468   0.215
 3448SOL     OW11242   3.622   1.141   1.872
 3448SOL    HW111243   3.581   1.059   1.912
 3448SOL    HW211244   3.610   1.139   1.773
 3449SOL     OW11245   6.613   6.797   2.748
 3449SOL    HW111246   6.518   6.774   2.724
 3449SOL    HW211247   6.673   6.721   2.724
 3450SOL     OW11248   0.770   1.648   1.750
 3450SOL    HW111249   0.692   1.626   1.810
 3450SOL    HW211250   0.821   1.564   1.730
 3451SOL     OW11251   1.161   5.933   4.049
 3451SOL    HW111252   1.190   6.023   4.079
 3451SOL    HW211253   1.152   5.932   3.949
 3452SOL     OW11254   5.998   1.209   0.679
 3452SOL    HW111255   6.083   1.158   0.685
 3452SOL    HW211256   5.929   1.153   0.633
 3453SOL     OW11257   5.634   5.697   4.657
 3453SOL    HW111258   5.658   5.700   4.754
 3453SOL    HW211259   5.626   5.791   4.622
 3454SOL     OW11260   1.101   1.139   0.795
 3454SOL    HW111261   1.101   1.064   0.729
 3454SOL    HW211262   1.007   1.155   0.827
 3455SOL     OW11263   1.580   2.582   4.528
 3455SOL    HW111264   1.530   2.546   4.449
 3455SOL    HW211265   1.556   2.530   4.610
 3456SOL     OW11266   5.661   6.815   1.551
 3456SOL    HW111267   5.685   6.741   1.488
 3456SOL    HW211268   5.699   6.901   1.517
 3457SOL     OW11269   2.854   4.807   3.820
 3457SOL    HW111270   2.928   4.782   3.758
 3457SOL    HW211271   2.789   4.867   3.773
 3458SOL     OW11272   5.857   6.920   1.137
 3458SOL    HW111273   5.841   6.986   1.064
 3458SOL    HW211274   5.938   6.865   1.115
 3459SOL     OW11275   0.239   4.876   3.686
 3459SOL    HW111276   0.319   4.933   3.665
 3459SOL    HW211277   0.170   4.887   3.614
 3460SOL     OW11278   4.571   2.574   6.999
 3460SOL    HW111279   4.546   2.481   6.973
 3460SOL    HW211280   4.545   2.590   0.078
 3461SOL     OW11281   3.679   6.270   4.048
 3461SOL    HW111282   3.611   6.325   4.000
 3461SOL    HW211283   3.757   6.328   4.073
 3462SOL     OW11284   4.903   3.790   3.072
 3462SOL    HW111285   4.859   3.779   3.161
 3462SOL    HW211286   4.980   3.853   3.080
 3463SOL     OW11287   2.271   2.819   1.350
 3463SOL    HW111288   2.306   2.733   1.313
 3463SOL    HW211289   2.310   2.896   1.300
 3464SOL     OW11290   5.214   3.059   6.204
 3464SOL    HW111291   5.276   2.983   6.189
 3464SOL    HW211292   5.210   3.081   6.301
 3465SOL     OW11293   2.069   3.712   2.001
 3465SOL    HW111294   2.117   3.625   1.998
 3465SOL    HW211295   2.129   3.782   2.040
 3466SOL     OW11296   5.612   4.955   5.017
 3466SOL    HW111297   5.521   4.997   5.019
 3466SOL    HW211298   5.675   5.015   4.969
 3467SOL     OW11299   2.614   2.764   1.045
 3467SOL    HW111300   2.612   2.800   1.138
 3467SOL    HW211301   2.695   2.707   1.033
 3468SOL     OW11302   4.479   1.406   1.211
 3468SOL    HW111303   4.555   1.350   1.243
 3468SOL    HW211304   4.488   1.499   1.249
 3469SOL     OW11305   4.564   6.793   5.822
 3469SOL    HW111306   4.509   6.869   5.855
 3469SOL    HW211307   4.504   6.719   5.792
 3470SOL     OW11308   0.056   2.638   2.200
 3470SOL    HW111309   0.072   2.733   2.175
 3470SOL    HW211310   0.054   2.628   2.299
 3471SOL     OW11311   4.637   4.226   2.930
 3471SOL    HW111312   4.589   4.288   2.993
 3471SOL    HW211313   4.699   4.279   2.872
 3472SOL     OW11314   4.779   1.883   3.219
 3472SOL    HW111315   4.700   1.850   3.271
 3472SOL    HW211316   4.842   1.931   3.280
 3473SOL     OW11317   7.007   4.027   3.345
 3473SOL    HW111318   7.003   4.077   3.431
 3473SOL    HW211319   6.957   3.941   3.353
 3474SOL     OW11320   6.366   5.185   4.678
 3474SOL    HW111321   6.323   5.274   4.666
 3474SOL    HW211322   6.443   5.176   4.616
 3475SOL     OW11323   6.953   4.248   4.171
 3475SOL    HW111324   6.873   4.307   4.163
 3475SOL    HW211325   0.002   4.291   4.233
 3476SOL     OW11326   1.499   1.648   3.339
 3476SOL    HW111327   1.476   1.736   3.296
 3476SOL    HW211328   1.598   1.640   3.346
 3477SOL     OW11329   0.361   3.919   1.654
 3477SOL    HW111330   0.421   3.928   1.575
 3477SOL    HW211331   0.376   3.830   1.698
 3478SOL     OW11332   2.357   0.005   0.098
 3478SOL    HW111333   2.283   0.028   0.160
 3478SOL    HW211334   2.338   0.043   0.008
 3479SOL     OW11335   0.714   3.279   3.553
 3479SOL    HW111336   0.807   3.288   3.517
 3479SOL    HW211337   0.717   3.230   3.640
 3480SOL     OW11338   1.097   5.626   0.003
 3480SOL    HW111339   1.055   5.555   0.059
 3480SOL    HW211340   1.139   5.694   0.063
 3481SOL     OW11341   6.394   0.672   6.644
 3481SOL    HW111342   6.371   0.744   6.579
 3481SOL    HW211343   6.313   0.617   6.664
 3482SOL     OW11344   5.728   3.732   4.417
 3482SOL    HW111345   5.794   3.751   4.344
 3482SOL    HW211346   5.759   3.776   4.501
 3483SOL     OW11347   4.572   1.971   3.586
 3483SOL    HW111348   4.668   1.956   3.613
 3483SOL    HW211349   4.519   1.994   3.668
 3484SOL     OW11350   2.002   3.622   6.272
 3484SOL    HW111351   1.905   3.623   6.299
 3484SOL    HW211352   2.010   3.596   6.176
 3485SOL     OW11353   0.189   1.680   5.523
 3485SOL    HW111354   0.198   1.603   5.586
 3485SOL    HW211355   0.093   1.692   5.499
 3486SOL     OW11356   2.111   0.259   4.533
 3486SOL    HW111357   2.085   0.200   4.610
 3486SOL    HW211358   2.171   0.209   4.472
 3487SOL     OW11359   6.014   1.673   6.729
 3487SOL    HW111360   5.973   1.619   6.802
 3487SOL    HW211361   5.942   1.713   6.672
 3488SOL     OW11362   5.805   0.773   4.230
 3488SOL    HW111363   5.761   0.717   4.160
 3488SOL    HW211364   5.788   0.734   4.320
 3489SOL     OW11365   3.264   0.276   0.798
 3489SOL    HW111366   3.259   0.370   0.832
 3489SOL    HW211367   3.180   0.253   0.749
 3490SOL     OW11368   4.488   5.173   0.711
 3490SOL    HW111369   4.425   5.097   0.727
 3490SOL    HW211370   4.517   5.172   0.615
 3491SOL     OW11371   5.104   4.301   0.254
 3491SOL    HW111372   5.078   4.320   0.348
 3491SOL    HW211373   5.108   4.387   0.202
 3492SOL     OW11374   5.594   4.289   2.457
 3492SOL    HW111375   5.633   4.231   2.385
 3492SOL    HW211376   5.626   4.258   2.546
 3493SOL     OW11377   6.297   3.451   4.595
 3493SOL    HW111378   6.244   3.380   4.550
 3493SOL    HW211379   6.387   3.459   4.551
 3494SOL     OW11380   3.468   1.726   2.440
 3494SOL    HW111381   3.372   1.738   2.417
 3494SOL    HW211382   3.520   1.707   2.356
 3495SOL     OW11383   1.221   3.372   2.016
 3495SOL    HW111384   1.183   3.464   2.006
 3495SOL    HW211385   1.164   3.319   2.078
 3496SOL     OW11386   6.626   5.012   0.652
 3496SOL    HW111387   6.684   5.092   0.670
 3496SOL    HW211388   6.639   4.982   0.558
 3497SOL     OW11389   4.343   0.827   2.576
 3497SOL    HW111390   4.344   0.797   2.671
 3497SOL    HW211391   4.314   0.923   2.572
 3498SOL     OW11392   2.170   1.926   1.346
 3498SOL    HW111393   2.156   1.958   1.439
 3498SOL    HW211394   2.083   1.924   1.297
 3499SOL     OW11395   5.841   5.600   5.742
 3499SOL    HW111396   5.890   5.658   5.677
 3499SOL    HW211397   5.818   5.652   5.824
 3500SOL     OW11398   1.124   1.685   3.683
 3500SOL    HW111399   1.073   1.696   3.598
 3500SOL    HW211400   1.159   1.774   3.713
 3501SOL     OW11401   2.100   6.965   6.545
 3501SOL    HW111402   2.073   0.019   6.480
 3501SOL    HW211403   2.130   7.008   6.630
 3502SOL     OW11404   5.236   3.447   1.716
 3502SOL    HW111405   5.141   3.457   1.687
 3502SOL    HW211406   5.246   3.362   1.768
 3503SOL     OW11407   6.590   6.029   6.157
 3503SOL    HW111408   6.549   6.020   6.066
 3503SOL    HW211409   6.520   6.016   6.227
 3504SOL     OW11410   1.240   0.988   2.197
 3504SOL    HW111411   1.157   1.043   2.206
 3504SOL    HW211412   1.218   0.891   2.210
 3505SOL     OW11413   5.872   5.002   5.609
 3505SOL    HW111414   5.869   5.011   5.709
 3505SOL    HW211415   5.788   4.957   5.577
 3506SOL     OW11416   5.207   4.603   4.578
 3506SOL    HW111417   5.295   4.596   4.531
 3506SOL    HW211418   5.155   4.679   4.539
 3507SOL     OW11419   2.409   0.109   0.612
 3507SOL    HW111420   2.350   0.184   0.582
 3507SOL    HW211421   2.487   0.147   0.662
 3508SOL     OW11422   3.154   2.637   5.297
 3508SOL    HW111423   3.160   2.540   5.273
 3508SOL    HW211424   3.062   2.657   5.330
 3509SOL     OW11425   4.320   5.848   0.078
 3509SOL    HW111426   4.393   5.845   0.010
 3509SOL    HW211427   4.320   5.936   0.125
 3510SOL     OW11428   1.955   0.664   1.240
 3510SOL    HW111429   1.994   0.756   1.248
 3510SOL    HW211430   2.001   0.615   1.166
 3511SOL     OW11431   2.460   4.516   1.432
 3511SOL    HW111432   2.396   4.462   1.378
 3511SOL    HW211433   2.436   4.509   1.529
 3512SOL     OW11434   1.099   3.999   0.161
 3512SOL    HW111435   1.073   4.084   0.114
 3512SOL    HW211436   1.120   4.019   0.256
 3513SOL     OW11437   6.015   2.250   0.644
 3513SOL    HW111438   6.046   2.207   0.728
 3513SOL    HW211439   5.990   2.180   0.577
 3514SOL     OW11440   5.298   0.944   2.719
 3514SOL    HW111441   5.225   0.877   2.705
 3514SOL    HW211442   5.258   1.036   2.724
 3515SOL     OW11443   5.641   5.942   4.536
 3515SOL    HW111444   5.613   6.010   4.604
 3515SOL    HW211445   5.695   5.986   4.465
 3516SOL     OW11446   5.201   0.388   1.196
 3516SOL    HW111447   5.274   0.422   1.255
 3516SOL    HW211448   5.207   0.289   1.189
 3517SOL     OW11449   6.559   1.561   0.645
 3517SOL    HW111450   6.621   1.639   0.641
 3517SOL    HW211451   6.565   1.510   0.559
 3518SOL     OW11452   6.053   1.681   4.862
 3518SOL    HW111453   6.057   1.701   4.764
 3518SOL    HW211454   6.044   1.766   4.913
 3519SOL     OW11455   3.181   0.759   0.197
 3519SOL    HW111456   3.135   0.686   0.249
 3519SOL    HW211457   3.121   0.838   0.189
 3520SOL     OW11458   3.043   5.475   5.442
 3520SOL    HW111459   3.052   5.410   5.517
 3520SOL    HW211460   3.019   5.565   5.479
 3521SOL     OW11461   2.953   3.085   6.939
 3521SOL    HW111462   2.962   3.133   0.009
 3521SOL    HW211463   2.858   3.088   6.908
 3522SOL     OW11464   6.683   5.655   6.594
 3522SOL    HW111465   6.757   5.611   6.646
 3522SOL    HW211466   6.611   5.588   6.576
 3523SOL     OW11467   1.300   5.124   5.876
 3523SOL    HW111468   1.361   5.047   5.861
 3523SOL    HW211469   1.208   5.100   5.845
 3524SOL     OW11470   6.394   1.853   3.257
 3524SOL    HW111471   6.419   1.808   3.171
 3524SOL    HW211472   6.295   1.848   3.269
 3525SOL     OW11473   6.077   4.719   4.081
 3525SOL    HW111474   5.996   4.776   4.071
 3525SOL    HW211475   6.141   4.763   4.144
 3526SOL     OW11476   1.215   5.846   3.160
 3526SOL    HW111477   1.205   5.858   3.259
 3526SOL    HW211478   1.276   5.916   3.123
 3527SOL     OW11479   6.495   2.572   5.929
 3527SOL    HW111480   6.444   2.650   5.894
 3527SOL    HW211481   6.441   2.489   5.916
 3528SOL     OW11482   2.561   6.507   5.622
 3528SOL    HW111483   2.584   6.599   5.652
 3528SOL    HW211484   2.588   6.494   5.527
 3529SOL     OW11485   5.103   5.810   7.015
 3529SOL    HW111486   5.101   5.767   0.089
 3529SOL    HW211487   5.154   5.752   6.952
 3530SOL     OW11488   6.995   6.037   2.386
 3530SOL    HW111489   6.944   5.961   2.426
 3530SOL    HW211490   6.940   6.081   2.315
 3531SOL     OW11491   4.641   1.331   1.683
 3531SOL    HW111492   4.657   1.352   1.587
 3531SOL    HW211493   4.643   1.416   1.736
 3532SOL     OW11494   2.161   1.201   2.265
 3532SOL    HW111495   2.154   1.122   2.325
 3532SOL    HW211496   2.097   1.190   2.188
 3533SOL     OW11497   6.489   1.586   2.305
 3533SOL    HW111498   6.549   1.518   2.262
 3533SOL    HW211499   6.437   1.543   2.379
 3534SOL     OW11500   0.489   2.064   2.108
 3534SOL    HW111501   0.567   2.017   2.151
 3534SOL    HW211502   0.442   2.119   2.176
 3535SOL     OW11503   2.827   5.160   5.109
 3535SOL    HW111504   2.812   5.062   5.096
 3535SOL    HW211505   2.856   5.177   5.203
 3536SOL     OW11506   3.009   1.862   3.121
 3536SOL    HW111507   2.940   1.819   3.063
 3536SOL    HW211508   3.024   1.956   3.091
 3537SOL     OW11509   1.626   5.873   2.913
 3537SOL    HW111510   1.628   5.820   2.828
 3537SOL    HW211511   1.711   5.925   2.922
 3538SOL     OW11512   3.106   5.523   5.149
 3538SOL    HW111513   3.021   5.571   5.125
 3538SOL    HW211514   3.118   5.525   5.248
 3539SOL     OW11515   3.554   4.163   4.527
 3539SOL    HW111516   3.645   4.203   4.537
 3539SOL    HW211517   3.561   4.063   4.531
 3540SOL     OW11518   1.668   1.851   4.266
 3540SOL    HW111519   1.687   1.794   4.186
 3540SOL    HW211520   1.595   1.916   4.244
 3541SOL     OW11521   3.189   3.282   5.214
 3541SOL    HW111522   3.266   3.231   5.253
 3541SOL    HW211523   3.222   3.343   5.142
 3542SOL     OW11524   1.525   4.803   2.675
 3542SOL    HW111525   1.617   4.822   2.641
 3542SOL    HW211526   1.532   4.751   2.761
 3543SOL     OW11527   5.138   2.393   4.225
 3543SOL    HW111528   5.050   2.365   4.264
 3543SOL    HW211529   5.211   2.376   4.291
 3544SOL     OW11530   2.020   3.931   6.729
 3544SOL    HW111531   1.975   3.918   6.640
 3544SOL    HW211532   2.118   3.947   6.715
 3545SOL     OW11533   4.326   5.566   6.103
 3545SOL    HW111534   4.300   5.644   6.160
 3545SOL    HW211535   4.244   5.529   6.058
 3546SOL     OW11536   6.951   5.529   3.404
 3546SOL    HW111537   0.028   5.534   3.368
 3546SOL    HW211538   6.923   5.619   3.436
 3547SOL     OW11539   4.377   5.104   4.114
 3547SOL    HW111540   4.477   5.113   4.109
 3547SOL    HW211541   4.335   5.164   4.045
 3548SOL     OW11542   4.920   2.454   5.614
 3548SOL    HW111543   4.957   2.472   5.522
 3548SOL    HW211544   4.821   2.439   5.607
 3549SOL     OW11545   6.353   4.666   3.429
 3549SOL    HW111546   6.254   4.679   3.438
 3549SOL    HW211547   6.401   4.749   3.460
 3550SOL     OW11548   5.457   2.002   3.131
 3550SOL    HW111549   5.516   2.052   3.195
 3550SOL    HW211550   5.378   2.058   3.107
 3551SOL     OW11551   3.355   6.189   2.476
 3551SOL    HW111552   3.404   6.105   2.497
 3551SOL    HW211553   3.408   6.268   2.509
 3552SOL     OW11554   5.194   6.103   2.636
 3552SOL    HW111555   5.251   6.163   2.580
 3552SOL    HW211556   5.224   6.107   2.731
 3553SOL     OW11557   5.266   2.544   2.472
 3553SOL    HW111558   5.307   2.624   2.516
 3553SOL    HW211559   5.224   2.486   2.541
 3554SOL     OW11560   4.214   4.665   6.594
 3554SOL    HW111561   4.140   4.654   6.527
 3554SOL    HW211562   4.190   4.617   6.678
 3555SOL     OW11563   0.895   3.510   2.990
 3555SOL    HW111564   0.904   3.529   2.892
 3555SOL    HW211565   0.853   3.421   3.004
 3556SOL     OW11566   2.920   0.308   5.189
 3556SOL    HW111567   2.937   0.407   5.190
 3556SOL    HW211568   2.840   0.289   5.133
 3557SOL     OW11569   1.808   0.379   4.684
 3557SOL    HW111570   1.867   0.302   4.711
 3557SOL    HW211571   1.829   0.406   4.590
 3558SOL     OW11572   7.000   6.002   1.708
 3558SOL    HW111573   0.059   6.001   1.772
 3558SOL    HW211574   0.015   6.033   1.618
 3559SOL     OW11575   0.779   0.886   4.444
 3559SOL    HW111576   0.848   0.953   4.470
 3559SOL    HW211577   0.708   0.881   4.515
 3560SOL     OW11578   0.869   5.686   1.204
 3560SOL    HW111579   0.783   5.688   1.254
 3560SOL    HW211580   0.938   5.738   1.254
 3561SOL     OW11581   4.767   4.333   5.711
 3561SOL    HW111582   4.729   4.327   5.619
 3561SOL    HW211583   4.699   4.301   5.777
 3562SOL     OW11584   5.805   0.455   3.747
 3562SOL    HW111585   5.821   0.411   3.658
 3562SOL    HW211586   5.786   0.386   3.816
 3563SOL     OW11587   5.477   1.242   1.139
 3563SOL    HW111588   5.510   1.169   1.199
 3563SOL    HW211589   5.480   1.330   1.188
 3564SOL     OW11590   0.416   4.448   4.348
 3564SOL    HW111591   0.438   4.537   4.388
 3564SOL    HW211592   0.463   4.376   4.400
 3565SOL     OW11593   2.616   0.797   4.518
 3565SOL    HW111594   2.618   0.782   4.419
 3565SOL    HW211595   2.707   0.778   4.556
 3566SOL     OW11596   0.170   3.286   5.921
 3566SOL    HW111597   0.170   3.190   5.948
 3566SOL    HW211598   0.088   3.305   5.866
 3567SOL     OW11599   0.344   3.276   0.805
 3567SOL    HW111600   0.273   3.207   0.820
 3567SOL    HW211601   0.378   3.309   0.892
 3568SOL     OW11602   4.300   4.690   3.239
 3568SOL    HW111603   4.373   4.629   3.270
 3568SOL    HW211604   4.216   4.667   3.288
 3569SOL     OW11605   2.928   3.712   4.605
 3569SOL    HW111606   2.871   3.676   4.679
 3569SOL    HW211607   2.887   3.689   4.517
 3570SOL     OW11608   6.572   1.720   5.652
 3570SOL    HW111609   6.655   1.683   5.694
 3570SOL    HW211610   6.537   1.655   5.584
 3571SOL     OW11611   1.678   6.669   5.234
 3571SOL    HW111612   1.613   6.721   5.179
 3571SOL    HW211613   1.646   6.575   5.244
 3572SOL     OW11614   5.108   4.463   1.272
 3572SOL    HW111615   5.178   4.392   1.279
 3572SOL    HW211616   5.018   4.421   1.283
 3573SOL     OW11617   6.478   3.739   1.823
 3573SOL    HW111618   6.512   3.719   1.915
 3573SOL    HW211619   6.534   3.812   1.783
 3574SOL     OW11620   2.655   3.184   6.053
 3574SOL    HW111621   2.703   3.128   5.985
 3574SOL    HW211622   2.721   3.238   6.105
 3575SOL     OW11623   5.160   6.845   0.517
 3575SOL    HW111624   5.218   6.786   0.461
 3575SOL    HW211625   5.117   6.914   0.460
 3576SOL     OW11626   0.667   3.182   6.986
 3576SOL    HW111627   0.743   3.245   6.973
 3576SOL    HW211628   0.589   3.231   0.009
 3577SOL     OW11629   2.350   2.670   5.445
 3577SOL    HW111630   2.418   2.615   5.396
 3577SOL    HW211631   2.342   2.759   5.401
 3578SOL     OW11632   3.520   2.821   6.582
 3578SOL    HW111633   3.512   2.731   6.540
 3578SOL    HW211634   3.430   2.856   6.606
 3579SOL     OW11635   0.277   3.278   2.356
 3579SOL    HW111636   0.321   3.312   2.273
 3579SOL    HW211637   0.333   3.302   2.436
 3580SOL     OW11638   0.596   3.542   1.484
 3580SOL    HW111639   0.690   3.524   1.514
 3580SOL    HW211640   0.541   3.572   1.561
 3581SOL     OW11641   0.537   0.452   2.390
 3581SOL    HW111642   0.465   0.479   2.454
 3581SOL    HW211643   0.540   0.517   2.314
 3582SOL     OW11644   3.552   3.999   5.797
 3582SOL    HW111645   3.579   3.917   5.748
 3582SOL    HW211646   3.453   4.000   5.808
 3583SOL     OW11647   0.309   4.662   1.236
 3583SOL    HW111648   0.216   4.662   1.200
 3583SOL    HW211649   0.320   4.584   1.299
 3584SOL     OW11650   5.454   4.501   5.130
 3584SOL    HW111651   5.487   4.499   5.036
 3584SOL    HW211652   5.397   4.421   5.147
 3585SOL     OW11653   2.718   1.851   3.951
 3585SOL    HW111654   2.745   1.764   3.992
 3585SOL    HW211655   2.797   1.912   3.945
 3586SOL     OW11656   6.480   2.953   4.069
 3586SOL    HW111657   6.445   3.035   4.116
 3586SOL    HW211658   6.520   2.891   4.136
 3587SOL     OW11659   3.740   6.820   6.413
 3587SOL    HW111660   3.792   6.893   6.457
 3587SOL    HW211661   3.750   6.735   6.465
 3588SOL     OW11662   6.692   4.336   4.339
 3588SOL    HW111663   6.715   4.325   4.435
 3588SOL    HW211664   6.607   4.287   4.319
 3589SOL     OW11665   0.406   6.856   6.275
 3589SOL    HW111666   0.378   6.800   6.352
 3589SOL    HW211667   0.379   6.951   6.291
 3590SOL     OW11668   0.024   4.825   0.812
 3590SOL    HW111669   0.106   4.780   0.847
 3590SOL    HW211670   0.007   4.796   0.718
 3591SOL     OW11671   5.578   2.132   6.595
 3591SOL    HW111672   5.499   2.077   6.570
 3591SOL    HW211673   5.554   2.229   6.588
 3592SOL     OW11674   1.631   6.831   1.775
 3592SOL    HW111675   1.729   6.836   1.797
 3592SOL    HW211676   1.617   6.860   1.680
 3593SOL     OW11677   5.024   3.280   6.020
 3593SOL    HW111678   4.932   3.246   5.999
 3593SOL    HW211679   5.057   3.238   6.104
 3594SOL     OW11680   4.165   4.908   4.221
 3594SOL    HW111681   4.217   4.969   4.161
 3594SOL    HW211682   4.227   4.843   4.265
 3595SOL     OW11683   5.472   6.092   6.191
 3595SOL    HW111684   5.483   6.020   6.122
 3595SOL    HW211685   5.375   6.106   6.209
 3596SOL     OW11686   3.419   1.514   3.405
 3596SOL    HW111687   3.363   1.433   3.392
 3596SOL    HW211688   3.466   1.537   3.320
 3597SOL     OW11689   2.272   3.410   5.295
 3597SOL    HW111690   2.238   3.320   5.266
 3597SOL    HW211691   2.195   3.474   5.303
 3598SOL     OW11692   1.655   5.507   4.698
 3598SOL    HW111693   1.658   5.569   4.620
 3598SOL    HW211694   1.562   5.504   4.734
 3599SOL     OW11695   4.882   1.805   5.123
 3599SOL    HW111696   4.868   1.858   5.207
 3599SOL    HW211697   4.831   1.848   5.048
 3600SOL     OW11698   3.520   3.493   0.777
 3600SOL    HW111699   3.506   3.422   0.845
 3600SOL    HW211700   3.499   3.582   0.816
 3601SOL     OW11701   4.960   0.953   5.191
 3601SOL    HW111702   5.001   1.044   5.191
 3601SOL    HW211703   4.978   0.908   5.104
 3602SOL     OW11704   2.484   2.092   1.313
 3602SOL    HW111705   2.487   2.115   1.411
 3602SOL    HW211706   2.396   2.118   1.275
 3603SOL     OW11707   2.959   1.181   6.047
 3603SOL    HW111708   2.991   1.272   6.073
 3603SOL    HW211709   2.862   1.171   6.069
 3604SOL     OW11710   6.597   0.359   3.578
 3604SOL    HW111711   6.689   0.321   3.572
 3604SOL    HW211712   6.571   0.369   3.674
 3605SOL     OW11713   0.899   5.844   3.426
 3605SOL    HW111714   0.997   5.863   3.430
 3605SOL    HW211715   0.885   5.750   3.394
 3606SOL     OW11716   2.402   6.748   1.712
 3606SOL    HW111717   2.436   6.689   1.785
 3606SOL    HW211718   2.477   6.771   1.650
 3607SOL     OW11719   5.366   2.707   2.892
 3607SOL    HW111720   5.302   2.783   2.900
 3607SOL    HW211721   5.328   2.637   2.832
 3608SOL     OW11722   3.130   2.091   4.743
 3608SOL    HW111723   3.050   2.115   4.797
 3608SOL    HW211724   3.213   2.127   4.787
 3609SOL     OW11725   2.300   6.805   4.367
 3609SOL    HW111726   2.390   6.833   4.401
 3609SOL    HW211727   2.279   6.857   4.284
 3610SOL     OW11728   2.472   6.401   5.116
 3610SOL    HW111729   2.553   6.347   5.094
 3610SOL    HW211730   2.439   6.446   5.033
 3611SOL     OW11731   5.184   4.787   3.169
 3611SOL    HW111732   5.150   4.881   3.165
 3611SOL    HW211733   5.248   4.771   3.094
 3612SOL     OW11734   5.687   1.130   6.620
 3612SOL    HW111735   5.623   1.057   6.643
 3612SOL    HW211736   5.748   1.148   6.697
 3613SOL     OW11737   3.708   5.134   1.103
 3613SOL    HW111738   3.772   5.209   1.116
 3613SOL    HW211739   3.651   5.124   1.185
 3614SOL     OW11740   3.879   4.202   6.413
 3614SOL    HW111741   3.973   4.236   6.424
 3614SOL    HW211742   3.847   4.222   6.320
 3615SOL     OW11743   6.077   2.487   5.645
 3615SOL    HW111744   6.166   2.523   5.617
 3615SOL    HW211745   6.004   2.547   5.612
 3616SOL     OW11746   1.508   1.968   6.760
 3616SOL    HW111747   1.443   1.975   6.685
 3616SOL    HW211748   1.597   1.936   6.725
 3617SOL     OW11749   3.837   6.352   6.464
 3617SOL    HW111750   3.844   6.252   6.458
 3617SOL    HW211751   3.916   6.387   6.516
 3618SOL     OW11752   1.802   4.196   4.751
 3618SOL    HW111753   1.860   4.153   4.820
 3618SOL    HW211754   1.845   4.187   4.661
 3619SOL     OW11755   5.856   2.916   1.463
 3619SOL    HW111756   5.911   2.844   1.422
 3619SOL    HW211757   5.763   2.911   1.428
 3620SOL     OW11758   6.168   6.311   5.080
 3620SOL    HW111759   6.155   6.253   5.160
 3620SOL    HW211760   6.240   6.378   5.099
 3621SOL     OW11761   2.968   3.299   3.732
 3621SOL    HW111762   3.033   3.224   3.738
 3621SOL    HW211763   2.933   3.305   3.638
 3622SOL     OW11764   0.854   6.755   0.134
 3622SOL    HW111765   0.873   6.658   0.149
 3622SOL    HW211766   0.924   6.810   0.180
 3623SOL     OW11767   0.887   4.514   5.947
 3623SOL    HW111768   0.913   4.525   5.852
 3623SOL    HW211769   0.969   4.517   6.005
 3624SOL     OW11770   3.302   0.976   2.260
 3624SOL    HW111771   3.401   0.966   2.260
 3624SOL    HW211772   3.269   0.979   2.355
 3625SOL     OW11773   7.004   2.389   0.514
 3625SOL    HW111774   0.065   2.329   0.492
 3625SOL    HW211775   0.008   2.439   0.598
 3626SOL     OW11776   1.155   2.484   5.045
 3626SOL    HW111777   1.166   2.544   4.965
 3626SOL    HW211778   1.184   2.392   5.021
 3627SOL     OW11779   3.977   2.270   1.496
 3627SOL    HW111780   3.943   2.333   1.564
 3627SOL    HW211781   3.920   2.187   1.495
 3628SOL     OW11782   6.802   1.910   1.946
 3628SOL    HW111783   6.870   1.925   1.874
 3628SOL    HW211784   6.771   1.815   1.943
 3629SOL     OW11785   1.584   1.395   4.303
 3629SOL    HW111786   1.668   1.431   4.263
 3629SOL    HW211787   1.534   1.342   4.234
 3630SOL     OW11788   6.829   2.562   3.569
 3630SOL    HW111789   6.875   2.572   3.658
 3630SOL    HW211790   6.737   2.525   3.583
 3631SOL     OW11791   1.780   6.590   2.224
 3631SOL    HW111792   1.776   6.609   2.125
 3631SOL    HW211793   1.702   6.534   2.251
 3632SOL     OW11794   4.945   3.941   1.181
 3632SOL    HW111795   4.859   3.992   1.182
 3632SOL    HW211796   5.011   3.985   1.242
 3633SOL     OW11797   3.898   3.059   6.185
 3633SOL    HW111798   3.856   2.972   6.159
 3633SOL    HW211799   3.862   3.088   6.274
 3634SOL     OW11800   3.052   5.347   6.605
 3634SOL    HW111801   3.111   5.383   6.676
 3634SOL    HW211802   2.964   5.394   6.608
 3635SOL     OW11803   2.609   0.294   1.300
 3635SOL    HW111804   2.546   0.303   1.223
 3635SOL    HW211805   2.558   0.300   1.385
 3636SOL     OW11806   1.092   4.650   7.001
 3636SOL    HW111807   1.081   4.585   0.060
 3636SOL    HW211808   1.120   4.600   6.918
 3637SOL     OW11809   6.847   3.006   6.375
 3637SOL    HW111810   6.937   2.986   6.412
 3637SOL    HW211811   6.784   3.028   6.449
 3638SOL     OW11812   5.681   4.530   2.756
 3638SOL    HW111813   5.641   4.578   2.678
 3638SOL    HW211814   5.672   4.432   2.743
 3639SOL     OW11815   3.527   3.899   4.585
 3639SOL    HW111816   3.623   3.874   4.598
 3639SOL    HW211817   3.475   3.873   4.666
 3640SOL     OW11818   5.458   2.248   0.777
 3640SOL    HW111819   5.375   2.303   0.769
 3640SOL    HW211820   5.461   2.181   0.703
 3641SOL     OW11821   5.850   3.661   2.224
 3641SOL    HW111822   5.884   3.603   2.299
 3641SOL    HW211823   5.765   3.622   2.189
 3642SOL     OW11824   6.280   3.130   6.076
 3642SOL    HW111825   6.199   3.138   6.019
 3642SOL    HW211826   6.252   3.123   6.172
 3643SOL     OW11827   3.986   5.425   5.313
 3643SOL    HW111828   3.913   5.449   5.377
 3643SOL    HW211829   4.009   5.328   5.323
 3644SOL     OW11830   2.821   0.722   1.784
 3644SOL    HW111831   2.799   0.717   1.881
 3644SOL    HW211832   2.888   0.795   1.769
 3645SOL     OW11833   1.823   4.291   3.728
 3645SOL    HW111834   1.753   4.354   3.695
 3645SOL    HW211835   1.912   4.338   3.729
 3646SOL     OW11836   2.193   4.206   4.587
 3646SOL    HW111837   2.095   4.217   4.569
 3646SOL    HW211838   2.206   4.157   4.673
 3647SOL     OW11839   3.391   6.891   0.158
 3647SOL    HW111840   3.368   6.988   0.146
 3647SOL    HW211841   3.335   6.835   0.097
 3648SOL     OW11842   4.176   5.440   3.288
 3648SOL    HW111843   4.185   5.539   3.301
 3648SOL    HW211844   4.258   5.404   3.244
 3649SOL     OW11845   5.838   2.807   0.070
 3649SOL    HW111846   5.758   2.752   0.046
 3649SOL    HW211847   5.844   2.816   0.169
 3650SOL     OW11848   5.793   5.652   0.327
 3650SOL    HW111849   5.724   5.605   0.273
 3650SOL    HW211850   5.769   5.749   0.333
 3651SOL     OW11851   0.743   2.283   5.775
 3651SOL    HW111852   0.769   2.341   5.698
 3651SOL    HW211853   0.672   2.219   5.746
 3652SOL     OW11854   4.543   1.454   2.019
 3652SOL    HW111855   4.636   1.422   2.041
 3652SOL    HW211856   4.490   1.378   1.983
 3653SOL     OW11857   0.718   1.581   1.340
 3653SOL    HW111858   0.648   1.515   1.312
 3653SOL    HW211859   0.677   1.648   1.403
 3654SOL     OW11860   5.373   0.433   0.915
 3654SOL    HW111861   5.307   0.499   0.951
 3654SOL    HW211862   5.369   0.433   0.815
 3655SOL     OW11863   1.579   2.269   4.251
 3655SOL    HW111864   1.649   2.260   4.322
 3655SOL    HW211865   1.528   2.354   4.265
 3656SOL     OW11866   6.880   6.833   1.729
 3656SOL    HW111867   6.825   6.753   1.753
 3656SOL    HW211868   6.952   6.846   1.797
 3657SOL     OW11869   4.970   6.184   4.874
 3657SOL    HW111870   4.973   6.150   4.968
 3657SOL    HW211871   5.000   6.112   4.812
 3658SOL     OW11872   1.627   4.642   6.126
 3658SOL    HW111873   1.696   4.583   6.084
 3658SOL    HW211874   1.634   4.734   6.088
 3659SOL     OW11875   6.899   1.341   6.520
 3659SOL    HW111876   6.800   1.346   6.511
 3659SOL    HW211877   6.942   1.371   6.435
 3660SOL     OW11878   5.759   5.431   6.362
 3660SOL    HW111879   5.736   5.362   6.294
 3660SOL    HW211880   5.750   5.392   6.454
 3661SOL     OW11881   0.220   2.212   4.818
 3661SOL    HW111882   0.121   2.197   4.818
 3661SOL    HW211883   0.241   2.305   4.788
 3662SOL     OW11884   2.654   1.485   5.706
 3662SOL    HW111885   2.647   1.542   5.788
 3662SOL    HW211886   2.565   1.480   5.661
 3663SOL     OW11887   2.673   2.102   6.433
 3663SOL    HW111888   2.629   2.137   6.350
 3663SOL    HW211889   2.762   2.064   6.409
 3664SOL     OW11890   3.967   1.143   2.133
 3664SOL    HW111891   3.947   1.198   2.052
 3664SOL    HW211892   3.944   1.196   2.215
 3665SOL     OW11893   0.994   5.915   6.014
 3665SOL    HW111894   1.002   5.894   5.917
 3665SOL    HW211895   1.061   5.985   6.039
 3666SOL     OW11896   2.159   2.699   4.669
 3666SOL    HW111897   2.141   2.655   4.757
 3666SOL    HW211898   2.078   2.751   4.641
 3667SOL     OW11899   1.439   0.675   2.291
 3667SOL    HW111900   1.387   0.634   2.216
 3667SOL    HW211901   1.481   0.760   2.261
 3668SOL     OW11902   0.385   0.968   1.805
 3668SOL    HW111903   0.355   1.011   1.719
 3668SOL    HW211904   0.443   1.032   1.855
 3669SOL     OW11905   0.180   1.208   3.738
 3669SOL    HW111906   0.155   1.252   3.825
 3669SOL    HW211907   0.101   1.162   3.699
 3670SOL     OW11908   3.167   5.512   1.853
 3670SOL    HW111909   3.071   5.510   1.825
 3670SOL    HW211910   3.173   5.541   1.949
 3671SOL     OW11911   6.364   0.201   3.590
 3671SOL    HW111912   6.321   0.235   3.674
 3671SOL    HW211913   6.458   0.235   3.585
 3672SOL     OW11914   3.934   6.883   2.709
 3672SOL    HW111915   3.924   6.872   2.808
 3672SOL    HW211916   3.950   6.979   2.687
 3673SOL     OW11917   3.952   5.780   1.233
 3673SOL    HW111918   3.911   5.863   1.270
 3673SOL    HW211919   3.966   5.791   1.135
 3674SOL     OW11920   1.125   4.578   6.102
 3674SOL    HW111921   1.206   4.525   6.077
 3674SOL    HW211922   1.127   4.666   6.055
 3675SOL     OW11923   1.258   0.917   3.994
 3675SOL    HW111924   1.221   1.009   4.009
 3675SOL    HW211925   1.291   0.880   4.081
 3676SOL     OW11926   3.933   1.728   3.943
 3676SOL    HW111927   4.011   1.710   3.883
 3676SOL    HW211928   3.897   1.819   3.926
 3677SOL     OW11929   2.350   0.408   4.060
 3677SOL    HW111930   2.391   0.396   4.150
 3677SOL    HW211931   2.420   0.433   3.994
 3678SOL     OW11932   1.236   0.523   3.522
 3678SOL    HW111933   1.150   0.564   3.494
 3678SOL    HW211934   1.311   0.564   3.470
 3679SOL     OW11935   4.563   0.675   2.531
 3679SOL    HW111936   4.484   0.737   2.535
 3679SOL    HW211937   4.546   0.595   2.589
 3680SOL     OW11938   3.822   1.283   4.516
 3680SOL    HW111939   3.882   1.287   4.436
 3680SOL    HW211940   3.768   1.367   4.522
 3681SOL     OW11941   1.857   6.031   4.593
 3681SOL    HW111942   1.888   6.119   4.556
 3681SOL    HW211943   1.852   5.963   4.520
 3682SOL     OW11944   5.583   1.660   1.581
 3682SOL    HW111945   5.528   1.741   1.604
 3682SOL    HW211946   5.679   1.687   1.571
 3683SOL     OW11947   5.869   1.442   5.833
 3683SOL    HW111948   5.835   1.445   5.739
 3683SOL    HW211949   5.945   1.507   5.843
 3684SOL     OW11950   2.175   6.656   5.677
 3684SOL    HW111951   2.203   6.730   5.617
 3684SOL    HW211952   2.222   6.664   5.765
 3685SOL     OW11953   1.997   6.468   5.563
 3685SOL    HW111954   2.075   6.516   5.602
 3685SOL    HW211955   1.949   6.528   5.500
 3686SOL     OW11956   0.894   3.915   3.500
 3686SOL    HW111957   0.906   3.947   3.406
 3686SOL    HW211958   0.976   3.866   3.529
 3687SOL     OW11959   5.784   5.518   4.535
 3687SOL    HW111960   5.707   5.577   4.560
 3687SOL    HW211961   5.786   5.439   4.595
 3688SOL     OW11962   6.455   2.691   0.643
 3688SOL    HW111963   6.378   2.666   0.584
 3688SOL    HW211964   6.456   2.632   0.724
 3689SOL     OW11965   1.703   6.673   5.755
 3689SOL    HW111966   1.773   6.731   5.796
 3689SOL    HW211967   1.736   6.636   5.669
 3690SOL     OW11968   5.090   5.376   1.241
 3690SOL    HW111969   5.042   5.461   1.259
 3690SOL    HW211970   5.157   5.358   1.313
 3691SOL     OW11971   1.731   2.504   0.573
 3691SOL    HW111972   1.808   2.534   0.629
 3691SOL    HW211973   1.696   2.582   0.521
 3692SOL     OW11974   0.985   3.570   5.824
 3692SOL    HW111975   1.005   3.492   5.883
 3692SOL    HW211976   0.888   3.568   5.798
 3693SOL     OW11977   6.617   1.348   2.295
 3693SOL    HW111978   6.662   1.291   2.225
 3693SOL    HW211979   6.673   1.349   2.378
 3694SOL     OW11980   6.390   0.910   1.954
 3694SOL    HW111981   6.395   0.935   2.050
 3694SOL    HW211982   6.298   0.928   1.919
 3695SOL     OW11983   6.183   3.283   2.703
 3695SOL    HW111984   6.244   3.213   2.743
 3695SOL    HW211985   6.093   3.275   2.745
 3696SOL     OW11986   4.325   0.770   4.482
 3696SOL    HW111987   4.348   0.808   4.571
 3696SOL    HW211988   4.298   0.843   4.420
 3697SOL     OW11989   0.405   6.335   3.138
 3697SOL    HW111990   0.402   6.235   3.137
 3697SOL    HW211991   0.336   6.371   3.074
 3698SOL     OW11992   1.459   0.361   3.047
 3698SOL    HW111993   1.388   0.291   3.057
 3698SOL    HW211994   1.546   0.325   3.080
 3699SOL     OW11995   2.449   2.490   3.703
 3699SOL    HW111996   2.422   2.437   3.783
 3699SOL    HW211997   2.549   2.495   3.698
 3700SOL     OW11998   1.071   4.900   4.139
 3700SOL    HW111999   1.094   4.997   4.133
 3700SOL    HW212000   1.018   4.873   4.058
 3701SOL     OW12001   1.570   0.623   2.515
 3701SOL    HW112002   1.537   0.639   2.422
 3701SOL    HW212003   1.491   0.609   2.576
 3702SOL     OW12004   5.376   4.249   3.450
 3702SOL    HW112005   5.355   4.233   3.354
 3702SOL    HW212006   5.329   4.182   3.506
 3703SOL     OW12007   1.222   1.538   4.443
 3703SOL    HW112008   1.159   1.461   4.431
 3703SOL    HW212009   1.258   1.537   4.537
 3704SOL     OW12010   6.680   2.241   0.790
 3704SOL    HW112011   6.688   2.317   0.725
 3704SOL    HW212012   6.741   2.167   0.763
 3705SOL     OW12013   5.013   4.713   2.848
 3705SOL    HW112014   4.967   4.661   2.776
 3705SOL    HW212015   4.977   4.686   2.937
 3706SOL     OW12016   0.560   3.645   0.298
 3706SOL    HW112017   0.472   3.646   0.251
 3706SOL    HW212018   0.547   3.665   0.395
 3707SOL     OW12019   1.403   5.088   3.643
 3707SOL    HW112020   1.334   5.018   3.660
 3707SOL    HW212021   1.438   5.078   3.549
 3708SOL     OW12022   3.172   6.539   0.868
 3708SOL    HW112023   3.180   6.638   0.855
 3708SOL    HW212024   3.251   6.506   0.920
 3709SOL     OW12025   1.555   1.657   2.384
 3709SOL    HW112026   1.552   1.746   2.428
 3709SOL    HW212027   1.568   1.668   2.286
 3710SOL     OW12028   0.009   4.712   5.266
 3710SOL    HW112029   0.016   4.717   5.366
 3710SOL    HW212030   6.980   4.794   5.232
 3711SOL     OW12031   1.513   5.971   4.240
 3711SOL    HW112032   1.544   5.950   4.148
 3711SOL    HW212033   1.550   5.905   4.305
 3712SOL     OW12034   2.011   5.169   4.612
 3712SOL    HW112035   1.968   5.174   4.522
 3712SOL    HW212036   1.982   5.085   4.658
 3713SOL     OW12037   5.746   7.010   4.301
 3713SOL    HW112038   5.742   6.965   4.212
 3713SOL    HW212039   5.747   6.941   4.373
 3714SOL     OW12040   0.751   4.392   0.615
 3714SOL    HW112041   0.805   4.319   0.658
 3714SOL    HW212042   0.745   4.375   0.517
 3715SOL     OW12043   5.638   5.429   3.430
 3715SOL    HW112044   5.665   5.341   3.391
 3715SOL    HW212045   5.676   5.503   3.374
 3716SOL     OW12046   4.917   5.750   4.061
 3716SOL    HW112047   5.008   5.773   4.096
 3716SOL    HW212048   4.925   5.675   3.996
 3717SOL     OW12049   4.285   1.368   1.025
 3717SOL    HW112050   4.352   1.398   1.093
 3717SOL    HW212051   4.316   1.281   0.984
 3718SOL     OW12052   6.979   0.335   5.599
 3718SOL    HW112053   6.954   0.430   5.617
 3718SOL    HW212054   6.917   0.275   5.649
 3719SOL     OW12055   3.543   4.222   6.947
 3719SOL    HW112056   3.630   4.182   6.918
 3719SOL    HW212057   3.468   4.169   6.908
 3720SOL     OW12058   0.073   2.944   1.403
 3720SOL    HW112059   0.025   2.866   1.363
 3720SOL    HW212060   0.157   2.913   1.447
 3721SOL     OW12061   6.281   5.525   6.010
 3721SOL    HW112062   6.292   5.618   6.047
 3721SOL    HW212063   6.196   5.486   6.046
 3722SOL     OW12064   4.788   6.138   3.343
 3722SOL    HW112065   4.787   6.235   3.317
 3722SOL    HW212066   4.882   6.104   3.339
 3723SOL     OW12067   4.687   3.475   0.409
 3723SOL    HW112068   4.724   3.389   0.445
 3723SOL    HW212069   4.756   3.519   0.352
 3724SOL     OW12070   1.309   4.794   4.753
 3724SOL    HW112071   1.274   4.869   4.810
 3724SOL    HW212072   1.370   4.737   4.808
 3725SOL     OW12073   0.668   5.463   6.970
 3725SOL    HW112074   0.608   5.452   6.891
 3725SOL    HW212075   0.747   5.518   6.945
 3726SOL     OW12076   6.214   3.615   4.801
 3726SOL    HW112077   6.184   3.554   4.875
 3726SOL    HW212078   6.233   3.560   4.719
 3727SOL     OW12079   6.446   3.814   3.741
 3727SOL    HW112080   6.412   3.874   3.669
 3727SOL    HW212081   6.374   3.752   3.771
 3728SOL     OW12082   3.508   2.792   0.107
 3728SOL    HW112083   3.417   2.762   0.134
 3728SOL    HW212084   3.577   2.732   0.148
 3729SOL     OW12085   0.557   0.401   5.365
 3729SOL    HW112086   0.545   0.388   5.267
 3729SOL    HW212087   0.575   0.312   5.408
 3730SOL     OW12088   3.725   6.069   4.221
 3730SOL    HW112089   3.776   6.117   4.293
 3730SOL    HW212090   3.697   6.135   4.151
 3731SOL     OW12091   0.531   2.126   6.920
 3731SOL    HW112092   0.570   2.051   6.973
 3731SOL    HW212093   0.524   2.208   6.977
 3732SOL     OW12094   3.196   2.147   6.303
 3732SOL    HW112095   3.296   2.147   6.304
 3732SOL    HW212096   3.162   2.146   6.396
 3733SOL     OW12097   2.172   1.624   3.653
 3733SOL    HW112098   2.088   1.585   3.614
 3733SOL    HW212099   2.158   1.640   3.751
 3734SOL     OW12100   4.328   6.622   0.713
 3734SOL    HW112101   4.325   6.663   0.804
 3734SOL    HW212102   4.380   6.681   0.651
 3735SOL     OW12103   4.225   0.119   2.277
 3735SOL    HW112104   4.196   0.213   2.297
 3735SOL    HW212105   4.145   0.059   2.278
 3736SOL     OW12106   6.751   0.884   1.235
 3736SOL    HW112107   6.794   0.831   1.308
 3736SOL    HW212108   6.725   0.822   1.160
 3737SOL     OW12109   0.043   2.587   2.915
 3737SOL    HW112110   0.056   2.558   3.010
 3737SOL    HW212111   0.131   2.614   2.876
 3738SOL     OW12112   6.918   6.747   1.249
 3738SOL    HW112113   7.016   6.731   1.255
 3738SOL    HW212114   6.892   6.822   1.310
 3739SOL     OW12115   3.101   3.748   0.646
 3739SOL    HW112116   3.057   3.672   0.694
 3739SOL    HW212117   3.046   3.775   0.567
 3740SOL     OW12118   5.148   5.455   6.446
 3740SOL    HW112119   5.180   5.402   6.367
 3740SOL    HW212120   5.142   5.552   6.422
 3741SOL     OW12121   5.237   3.565   0.375
 3741SOL    HW112122   5.324   3.587   0.418
 3741SOL    HW212123   5.248   3.483   0.319
 3742SOL     OW12124   3.725   5.579   6.918
 3742SOL    HW112125   3.661   5.516   6.874
 3742SOL    HW212126   3.786   5.528   6.978
 3743SOL     OW12127   4.256   3.220   1.607
 3743SOL    HW112128   4.189   3.273   1.556
 3743SOL    HW212129   4.312   3.282   1.663
 3744SOL     OW12130   0.747   0.340   2.020
 3744SOL    HW112131   0.731   0.288   1.937
 3744SOL    HW212132   0.718   0.435   2.006
 3745SOL     OW12133   5.063   3.620   2.474
 3745SOL    HW112134   5.073   3.692   2.405
 3745SOL    HW212135   5.130   3.548   2.457
 3746SOL     OW12136   6.358   0.472   4.708
 3746SOL    HW112137   6.301   0.424   4.775
 3746SOL    HW212138   6.316   0.559   4.684
 3747SOL     OW12139   3.417   6.624   5.497
 3747SOL    HW112140   3.508   6.585   5.483
 3747SOL    HW212141   3.422   6.724   5.492
 3748SOL     OW12142   5.225   1.826   2.788
 3748SOL    HW112143   5.303   1.886   2.770
 3748SOL    HW212144   5.203   1.829   2.885
 3749SOL     OW12145   0.191   6.481   2.504
 3749SOL    HW112146   0.238   6.414   2.446
 3749SOL    HW212147   0.193   6.570   2.460
 3750SOL     OW12148   5.853   4.081   0.478
 3750SOL    HW112149   5.950   4.066   0.459
 3750SOL    HW212150   5.840   4.170   0.520
 3751SOL     OW12151   2.125   3.776   2.417
 3751SOL    HW112152   2.052   3.730   2.366
 3751SOL    HW212153   2.186   3.708   2.458
 3752SOL     OW12154   0.740   6.256   6.780
 3752SOL    HW112155   0.794   6.315   6.720
 3752SOL    HW212156   0.660   6.222   6.731
 3753SOL     OW12157   6.484   6.488   4.644
 3753SOL    HW112158   6.482   6.464   4.547
 3753SOL    HW212159   6.504   6.407   4.698
 3754SOL     OW12160   6.833   6.500   1.264
 3754SOL    HW112161   6.918   6.449   1.274
 3754SOL    HW212162   6.852   6.598   1.273
 3755SOL     OW12163   5.231   3.856   3.361
 3755SOL    HW112164   5.243   3.757   3.355
 3755SOL    HW212165   5.169   3.887   3.288
 3756SOL     OW12166   3.099   0.470   0.037
 3756SOL    HW112167   3.184   0.517   0.014
 3756SOL    HW212168   3.095   0.383   7.005
 3757SOL     OW12169   2.809   5.448   6.588
 3757SOL    HW112170   2.799   5.519   6.519
 3757SOL    HW212171   2.792   5.486   6.678
 3758SOL     OW12172   2.065   1.526   3.914
 3758SOL    HW112173   2.051   1.597   3.984
 3758SOL    HW212174   1.990   1.460   3.919
 3759SOL     OW12175   4.637   4.701   6.084
 3759SOL    HW112176   4.732   4.689   6.053
 3759SOL    HW212177   4.622   4.796   6.109
 3760SOL     OW12178   1.516   2.640   4.842
 3760SOL    HW112179   1.552   2.731   4.824
 3760SOL    HW212180   1.537   2.614   4.936
 3761SOL     OW12181   0.225   6.128   4.150
 3761SOL    HW112182   0.198   6.192   4.222
 3761SOL    HW212183   0.246   6.039   4.190
 3762SOL     OW12184   0.164   4.008   0.232
 3762SOL    HW112185   0.207   3.937   0.176
 3762SOL    HW212186   0.101   3.965   0.297
 3763SOL     OW12187   6.914   3.403   6.361
 3763SOL    HW112188   6.905   3.362   6.270
 3763SOL    HW212189   6.829   3.450   6.385
 3764SOL     OW12190   2.555   6.700   3.296
 3764SOL    HW112191   2.504   6.786   3.289
 3764SOL    HW212192   2.649   6.715   3.265
 3765SOL     OW12193   5.987   0.698   4.597
 3765SOL    HW112194   5.980   0.639   4.517
 3765SOL    HW212195   5.900   0.699   4.646
 3766SOL     OW12196   1.481   0.682   4.803
 3766SOL    HW112197   1.445   0.655   4.892
 3766SOL    HW212198   1.579   0.663   4.800
 3767SOL     OW12199   1.602   5.211   1.111
 3767SOL    HW112200   1.512   5.209   1.069
 3767SOL    HW212201   1.593   5.214   1.211
 3768SOL     OW12202   4.614   6.828   0.291
 3768SOL    HW112203   4.595   6.926   0.292
 3768SOL    HW212204   4.528   6.777   0.298
 3769SOL     OW12205   4.596   6.502   5.243
 3769SOL    HW112206   4.632   6.409   5.244
 3769SOL    HW212207   4.620   6.548   5.329
 3770SOL     OW12208   1.887   1.812   6.822
 3770SOL    HW112209   1.846   1.839   6.735
 3770SOL    HW212210   1.982   1.786   6.807
 3771SOL     OW12211   5.424   2.408   6.272
 3771SOL    HW112212   5.390   2.455   6.191
 3771SOL    HW212213   5.521   2.387   6.260
 3772SOL     OW12214   5.483   1.207   2.156
 3772SOL    HW112215   5.383   1.210   2.162
 3772SOL    HW212216   5.513   1.246   2.069
 3773SOL     OW12217   6.482   2.995   6.461
 3773SOL    HW112218   6.480   3.032   6.554
 3773SOL    HW212219   6.484   3.070   6.395
 3774SOL     OW12220   0.324   0.838   1.502
 3774SOL    HW112221   0.284   0.927   1.522
 3774SOL    HW212222   0.283   0.769   1.563
 3775SOL     OW12223   5.920   3.849   3.912
 3775SOL    HW112224   5.869   3.931   3.887
 3775SOL    HW212225   5.860   3.787   3.963
 3776SOL     OW12226   2.516   3.718   1.085
 3776SOL    HW112227   2.422   3.751   1.092
 3776SOL    HW212228   2.526   3.659   1.005
 3777SOL     OW12229   2.136   4.452   4.144
 3777SOL    HW112230   2.233   4.426   4.145
 3777SOL    HW212231   2.123   4.530   4.083
 3778SOL     OW12232   2.932   5.952   1.864
 3778SOL    HW112233   3.020   5.930   1.907
 3778SOL    HW212234   2.868   5.985   1.933
 3779SOL     OW12235   2.579   5.138   6.255
 3779SOL    HW112236   2.624   5.191   6.327
 3779SOL    HW212237   2.496   5.185   6.226
 3780SOL     OW12238   3.075   6.564   5.183
 3780SOL    HW112239   3.155   6.505   5.193
 3780SOL    HW212240   3.079   6.611   5.095
 3781SOL     OW12241   2.788   5.633   4.797
 3781SOL    HW112242   2.740   5.559   4.750
 3781SOL    HW212243   2.883   5.635   4.767
 3782SOL     OW12244   2.251   1.939   3.597
 3782SOL    HW112245   2.184   1.970   3.529
 3782SOL    HW212246   2.232   1.844   3.621
 3783SOL     OW12247   5.198   6.233   5.390
 3783SOL    HW112248   5.146   6.164   5.442
 3783SOL    HW212249   5.240   6.190   5.311
 3784SOL     OW12250   5.307   1.443   3.410
 3784SOL    HW112251   5.389   1.499   3.419
 3784SOL    HW212252   5.306   1.373   3.482
 3785SOL     OW12253   2.071   1.658   1.170
 3785SOL    HW112254   2.101   1.652   1.265
 3785SOL    HW212255   2.111   1.740   1.127
 3786SOL     OW12256   3.207   5.096   3.011
 3786SOL    HW112257   3.118   5.120   3.049
 3786SOL    HW212258   3.225   5.153   2.931
 3787SOL     OW12259   3.846   1.422   3.886
 3787SOL    HW112260   3.807   1.462   3.969
 3787SOL    HW212261   3.851   1.492   3.815
 3788SOL     OW12262   5.336   3.147   2.363
 3788SOL    HW112263   5.349   3.053   2.332
 3788SOL    HW212264   5.293   3.148   2.453
 3789SOL     OW12265   1.807   5.113   3.498
 3789SOL    HW112266   1.754   5.114   3.583
 3789SOL    HW212267   1.896   5.071   3.515
 3790SOL     OW12268   1.698   3.247   3.583
 3790SOL    HW112269   1.666   3.267   3.676
 3790SOL    HW212270   1.789   3.286   3.570
 3791SOL     OW12271   4.634   0.125   1.367
 3791SOL    HW112272   4.711   0.083   1.320
 3791SOL    HW212273   4.572   0.054   1.400
 3792SOL     OW12274   6.275   6.565   5.257
 3792SOL    HW112275   6.193   6.621   5.242
 3792SOL    HW212276   6.254   6.493   5.323
 3793SOL     OW12277   1.859   1.029   2.756
 3793SOL    HW112278   1.796   0.995   2.687
 3793SOL    HW212279   1.813   1.035   2.844
 3794SOL     OW12280   4.484   6.065   1.610
 3794SOL    HW112281   4.399   6.049   1.660
 3794SOL    HW212282   4.466   6.124   1.531
 3795SOL     OW12283   5.620   0.016   6.303
 3795SOL    HW112284   5.665   6.943   6.306
 3795SOL    HW212285   5.689   0.088   6.310
 3796SOL     OW12286   1.445   2.843   1.947
 3796SOL    HW112287   1.432   2.933   1.989
 3796SOL    HW212288   1.539   2.834   1.916
 3797SOL     OW12289   0.373   5.077   2.938
 3797SOL    HW112290   0.428   5.099   2.858
 3797SOL    HW212291   0.349   4.980   2.937
 3798SOL     OW12292   1.863   4.758   2.318
 3798SOL    HW112293   1.843   4.720   2.228
 3798SOL    HW212294   1.939   4.708   2.359
 3799SOL     OW12295   2.161   0.671   5.456
 3799SOL    HW112296   2.211   0.587   5.479
 3799SOL    HW212297   2.221   0.732   5.404
 3800SOL     OW12298   4.596   2.563   4.555
 3800SOL    HW112299   4.683   2.602   4.522
 3800SOL    HW212300   4.596   2.562   4.655
 3801SOL     OW12301   0.110   6.777   6.002
 3801SOL    HW112302   0.210   6.775   5.990
 3801SOL    HW212303   0.079   6.688   6.035
 3802SOL     OW12304   1.540   1.502   5.367
 3802SOL    HW112305   1.488   1.446   5.302
 3802SOL    HW212306   1.620   1.450   5.398
 3803SOL     OW12307   3.540   1.115   1.617
 3803SOL    HW112308   3.555   1.072   1.528
 3803SOL    HW212309   3.447   1.150   1.621
 3804SOL     OW12310   4.626   2.056   4.182
 3804SOL    HW112311   4.691   2.118   4.138
 3804SOL    HW212312   4.671   2.010   4.258
 3805SOL     OW12313   2.754   4.292   1.680
 3805SOL    HW112314   2.817   4.322   1.751
 3805SOL    HW212315   2.662   4.285   1.719
 3806SOL     OW12316   2.791   1.877   0.148
 3806SOL    HW112317   2.763   1.783   0.130
 3806SOL    HW212318   2.848   1.880   0.230
 3807SOL     OW12319   1.514   6.506   3.331
 3807SOL    HW112320   1.495   6.517   3.233
 3807SOL    HW212321   1.508   6.410   3.356
 3808SOL     OW12322   3.035   0.278   1.525
 3808SOL    HW112323   2.936   0.278   1.509
 3808SOL    HW212324   3.082   0.310   1.443
 3809SOL     OW12325   5.287   1.270   6.625
 3809SOL    HW112326   5.311   1.206   6.698
 3809SOL    HW212327   5.284   1.221   6.538
 3810SOL     OW12328   3.064   2.951   5.200
 3810SOL    HW112329   3.095   2.861   5.170
 3810SOL    HW212330   3.076   3.017   5.127
 3811SOL     OW12331   0.740   5.431   4.983
 3811SOL    HW112332   0.712   5.407   5.076
 3811SOL    HW212333   0.695   5.516   4.956
 3812SOL     OW12334   5.590   1.550   5.257
 3812SOL    HW112335   5.556   1.459   5.231
 3812SOL    HW212336   5.513   1.607   5.284
 3813SOL     OW12337   3.332   4.990   0.664
 3813SOL    HW112338   3.363   5.027   0.752
 3813SOL    HW212339   3.297   4.897   0.679
 3814SOL     OW12340   0.242   6.077   2.357
 3814SOL    HW112341   0.143   6.064   2.366
 3814SOL    HW212342   0.270   6.058   2.263
 3815SOL     OW12343   5.134   2.228   1.858
 3815SOL    HW112344   5.088   2.224   1.947
 3815SOL    HW212345   5.139   2.136   1.819
 3816SOL     OW12346   1.518   0.177   0.977
 3816SOL    HW112347   1.576   0.229   0.914
 3816SOL    HW212348   1.575   0.129   1.043
 3817SOL     OW12349   5.425   2.154   5.383
 3817SOL    HW112350   5.471   2.124   5.466
 3817SOL    HW212351   5.332   2.118   5.381
 3818SOL     OW12352   4.599   5.463   1.543
 3818SOL    HW112353   4.584   5.502   1.452
 3818SOL    HW212354   4.697   5.456   1.560
 3819SOL     OW12355   5.493   4.908   0.338
 3819SOL    HW112356   5.427   4.838   0.366
 3819SOL    HW212357   5.580   4.891   0.385
 3820SOL     OW12358   5.282   6.410   4.621
 3820SOL    HW112359   5.221   6.349   4.570
 3820SOL    HW212360   5.303   6.370   4.710
 3821SOL     OW12361   1.198   4.063   2.084
 3821SOL    HW112362   1.205   4.028   2.177
 3821SOL    HW212363   1.192   3.987   2.020
 3822SOL     OW12364   2.418   5.624   1.172
 3822SOL    HW112365   2.430   5.548   1.237
 3822SOL    HW212366   2.483   5.615   1.097
 3823SOL     OW12367   3.271   2.741   5.554
 3823SOL    HW112368   3.292   2.704   5.464
 3823SOL    HW212369   3.198   2.687   5.596
 3824SOL     OW12370   0.029   2.269   5.865
 3824SOL    HW112371   0.084   2.296   5.786
 3824SOL    HW212372   7.009   2.350   5.910
 3825SOL     OW12373   6.837   6.747   6.708
 3825SOL    HW112374   6.888   6.816   6.656
 3825SOL    HW212375   6.847   6.658   6.664
 3826SOL     OW12376   6.767   2.806   1.751
 3826SOL    HW112377   6.714   2.753   1.817
 3826SOL    HW212378   6.850   2.840   1.795
 3827SOL     OW12379   4.297   3.317   1.176
 3827SOL    HW112380   4.211   3.360   1.204
 3827SOL    HW212381   4.357   3.386   1.136
 3828SOL     OW12382   4.818   1.117   2.778
 3828SOL    HW112383   4.768   1.031   2.788
 3828SOL    HW212384   4.890   1.123   2.847
 3829SOL     OW12385   2.200   4.919   4.255
 3829SOL    HW112386   2.288   4.872   4.251
 3829SOL    HW212387   2.179   4.958   4.166
 3830SOL     OW12388   2.650   0.920   5.376
 3830SOL    HW112389   2.691   0.829   5.363
 3830SOL    HW212390   2.622   0.956   5.287
 3831SOL     OW12391   3.654   1.384   1.992
 3831SOL    HW112392   3.611   1.296   1.975
 3831SOL    HW212393   3.645   1.441   1.910
 3832SOL     OW12394   6.477   0.537   2.126
 3832SOL    HW112395   6.470   0.607   2.055
 3832SOL    HW212396   6.562   0.550   2.178
 3833SOL     OW12397   1.557   4.521   0.147
 3833SOL    HW112398   1.480   4.467   0.113
 3833SOL    HW212399   1.636   4.461   0.161
 3834SOL     OW12400   2.549   1.830   6.822
 3834SOL    HW112401   2.594   1.767   6.885
 3834SOL    HW212402   2.533   1.917   6.869
 3835SOL     OW12403   3.808   5.301   5.094
 3835SOL    HW112404   3.844   5.390   5.066
 3835SOL    HW212405   3.753   5.262   5.019
 3836SOL     OW12406   0.938   3.909   6.093
 3836SOL    HW112407   0.920   3.922   5.996
 3836SOL    HW212408   0.996   3.983   6.127
 3837SOL     OW12409   3.544   2.923   0.652
 3837SOL    HW112410   3.509   2.909   0.559
 3837SOL    HW212411   3.635   2.884   0.660
 3838SOL     OW12412   5.894   3.077   5.443
 3838SOL    HW112413   5.874   3.161   5.392
 3838SOL    HW212414   5.864   2.998   5.391
 3839SOL     OW12415   6.124   6.627   6.058
 3839SOL    HW112416   6.155   6.576   6.138
 3839SOL    HW212417   6.164   6.586   5.976
 3840SOL     OW12418   1.885   1.031   4.250
 3840SOL    HW112419   1.960   0.998   4.307
 3840SOL    HW212420   1.798   1.014   4.296
 3841SOL     OW12421   0.616   3.751   4.589
 3841SOL    HW112422   0.651   3.813   4.519
 3841SOL    HW212423   0.544   3.694   4.549
 3842SOL     OW12424   0.528   5.265   6.591
 3842SOL    HW112425   0.445   5.263   6.534
 3842SOL    HW212426   0.517   5.335   6.661
 3843SOL     OW12427   5.616   2.923   1.301
 3843SOL    HW112428   5.521   2.926   1.330
 3843SOL    HW212429   5.636   3.004   1.246
 3844SOL     OW12430   2.085   4.796   6.349
 3844SOL    HW112431   2.143   4.732   6.400
 3844SOL    HW212432   2.129   4.820   6.263
 3845SOL     OW12433   3.624   3.983   3.911
 3845SOL    HW112434   3.607   3.895   3.955
 3845SOL    HW212435   3.537   4.032   3.901
 3846SOL     OW12436   0.043   4.659   4.330
 3846SOL    HW112437   0.119   4.703   4.282
 3846SOL    HW212438   6.978   4.716   4.322
 3847SOL     OW12439   0.836   0.247   0.738
 3847SOL    HW112440   0.924   0.218   0.699
 3847SOL    HW212441   0.846   0.260   0.837
 3848SOL     OW12442   2.857   5.509   1.136
 3848SOL    HW112443   2.765   5.473   1.153
 3848SOL    HW212444   2.920   5.433   1.120
 3849SOL     OW12445   1.125   2.312   5.963
 3849SOL    HW112446   1.084   2.401   5.982
 3849SOL    HW212447   1.194   2.322   5.891
 3850SOL     OW12448   2.732   3.797   1.688
 3850SOL    HW112449   2.773   3.753   1.768
 3850SOL    HW212450   2.782   3.881   1.666
 3851SOL     OW12451   2.254   2.530   1.927
 3851SOL    HW112452   2.288   2.622   1.945
 3851SOL    HW212453   2.237   2.483   2.014
 3852SOL     OW12454   3.730   0.871   4.758
 3852SOL    HW112455   3.639   0.903   4.784
 3852SOL    HW212456   3.726   0.774   4.736
 3853SOL     OW12457   1.550   3.095   1.737
 3853SOL    HW112458   1.638   3.048   1.729
 3853SOL    HW212459   1.484   3.052   1.674
 3854SOL     OW12460   1.031   3.077   3.901
 3854SOL    HW112461   1.131   3.082   3.901
 3854SOL    HW212462   0.997   3.088   3.995
 3855SOL     OW12463   6.805   2.103   5.559
 3855SOL    HW112464   6.899   2.096   5.524
 3855SOL    HW212465   6.768   2.193   5.536
 3856SOL     OW12466   0.599   6.579   5.952
 3856SOL    HW112467   0.678   6.527   5.981
 3856SOL    HW212468   0.529   6.578   6.024
 3857SOL     OW12469   0.415   6.859   5.796
 3857SOL    HW112470   0.359   6.862   5.713
 3857SOL    HW212471   0.382   6.927   5.861
 3858SOL     OW12472   2.315   5.548   7.006
 3858SOL    HW112473   2.353   5.480   0.052
 3858SOL    HW212474   2.386   5.577   6.942
 3859SOL     OW12475   6.973   2.445   2.061
 3859SOL    HW112476   0.006   2.364   2.092
 3859SOL    HW212477   7.005   2.525   2.112
 3860SOL     OW12478   2.256   6.320   5.533
 3860SOL    HW112479   2.245   6.328   5.434
 3860SOL    HW212480   2.179   6.268   5.571
 3861SOL     OW12481   4.224   4.619   0.374
 3861SOL    HW112482   4.148   4.681   0.396
 3861SOL    HW212483   4.278   4.659   0.299
 3862SOL     OW12484   1.323   5.575   5.956
 3862SOL    HW112485   1.367   5.586   5.867
 3862SOL    HW212486   1.332   5.661   6.008
 3863SOL     OW12487   3.401   2.965   1.115
 3863SOL    HW112488   3.315   2.992   1.158
 3863SOL    HW212489   3.477   3.002   1.167
 3864SOL     OW12490   3.745   2.075   0.135
 3864SOL    HW112491   3.763   2.147   0.067
 3864SOL    HW212492   3.665   2.022   0.107
 3865SOL     OW12493   4.562   0.429   2.690
 3865SOL    HW112494   4.484   0.375   2.721
 3865SOL    HW212495   4.616   0.376   2.625
 3866SOL     OW12496   4.099   6.318   6.616
 3866SOL    HW112497   4.155   6.245   6.578
 3866SOL    HW212498   4.060   6.288   6.703
 3867SOL     OW12499   1.909   2.904   3.842
 3867SOL    HW112500   1.950   2.813   3.832
 3867SOL    HW212501   1.963   2.971   3.791
 3868SOL     OW12502   1.381   5.968   2.474
 3868SOL    HW112503   1.428   5.880   2.461
 3868SOL    HW212504   1.316   5.960   2.550
 3869SOL     OW12505   1.429   2.312   3.310
 3869SOL    HW112506   1.462   2.300   3.217
 3869SOL    HW212507   1.469   2.395   3.350
 3870SOL     OW12508   3.020   4.942   0.498
 3870SOL    HW112509   3.048   4.848   0.478
 3870SOL    HW212510   3.095   4.990   0.544
 3871SOL     OW12511   2.510   0.965   4.011
 3871SOL    HW112512   2.567   1.005   3.938
 3871SOL    HW212513   2.426   1.019   4.021
 3872SOL     OW12514   4.273   3.260   0.035
 3872SOL    HW112515   4.244   3.338   6.995
 3872SOL    HW212516   4.366   3.276   0.068
 3873SOL     OW12517   5.017   4.917   2.025
 3873SOL    HW112518   4.979   4.838   1.978
 3873SOL    HW212519   5.023   4.898   2.123
 3874SOL     OW12520   4.200   6.713   5.914
 3874SOL    HW112521   4.246   6.748   5.832
 3874SOL    HW212522   4.227   6.618   5.929
 3875SOL     OW12523   2.514   4.436   0.628
 3875SOL    HW112524   2.567   4.454   0.545
 3875SOL    HW212525   2.428   4.392   0.603
 3876SOL     OW12526   5.245   3.806   2.911
 3876SOL    HW112527   5.282   3.732   2.967
 3876SOL    HW212528   5.285   3.802   2.819
 3877SOL     OW12529   5.173   1.155   2.277
 3877SOL    HW112530   5.171   1.191   2.183
 3877SOL    HW212531   5.136   1.224   2.339
 3878SOL     OW12532   3.260   5.913   4.973
 3878SOL    HW112533   3.247   5.816   4.948
 3878SOL    HW212534   3.276   5.966   4.890
 3879SOL     OW12535   3.618   6.243   0.857
 3879SOL    HW112536   3.653   6.219   0.767
 3879SOL    HW212537   3.618   6.342   0.867
 3880SOL     OW12538   5.336   2.852   4.029
 3880SOL    HW112539   5.368   2.773   4.082
 3880SOL    HW212540   5.250   2.830   3.983
 3881SOL     OW12541   0.734   4.735   0.905
 3881SOL    HW112542   0.650   4.692   0.871
 3881SOL    HW212543   0.718   4.770   0.997
 3882SOL     OW12544   0.155   0.098   6.548
 3882SOL    HW112545   0.226   0.046   6.594
 3882SOL    HW212546   0.195   0.148   6.471
 3883SOL     OW12547   3.117   0.971   5.897
 3883SOL    HW112548   3.052   1.032   5.944
 3883SOL    HW212549   3.118   0.993   5.799
 3884SOL     OW12550   1.475   4.898   5.776
 3884SOL    HW112551   1.415   4.818   5.772
 3884SOL    HW212552   1.522   4.908   5.688
 3885SOL     OW12553   0.381   1.849   4.846
 3885SOL    HW112554   0.358   1.896   4.761
 3885SOL    HW212555   0.398   1.752   4.828
 3886SOL     OW12556   0.002   5.837   4.780
 3886SOL    HW112557   7.000   5.784   4.697
 3886SOL    HW212558   6.935   5.846   4.834
 3887SOL     OW12559   5.208   2.311   5.020
 3887SOL    HW112560   5.307   2.312   5.002
 3887SOL    HW212561   5.190   2.360   5.106
 3888SOL     OW12562   5.781   1.976   1.675
 3888SOL    HW112563   5.731   1.964   1.761
 3888SOL    HW212564   5.782   2.073   1.651
 3889SOL     OW12565   0.210   5.531   0.025
 3889SOL    HW112566   0.248   5.441   0.009
 3889SOL    HW212567   0.284   5.597   0.038
 3890SOL     OW12568   6.352   3.556   1.277
 3890SOL    HW112569   6.330   3.653   1.276
 3890SOL    HW212570   6.289   3.508   1.338
 3891SOL     OW12571   5.798   5.130   5.855
 3891SOL    HW112572   5.802   5.069   5.934
 3891SOL    HW212573   5.811   5.224   5.885
 3892SOL     OW12574   5.263   6.363   3.765
 3892SOL    HW112575   5.300   6.450   3.796
 3892SOL    HW212576   5.337   6.307   3.727
 3893SOL     OW12577   3.073   6.121   4.156
 3893SOL    HW112578   3.133   6.103   4.079
 3893SOL    HW212579   3.040   6.215   4.152
 3894SOL     OW12580   5.182   5.014   6.672
 3894SOL    HW112581   5.101   4.991   6.618
 3894SOL    HW212582   5.250   5.056   6.612
 3895SOL     OW12583   1.702   1.730   6.049
 3895SOL    HW112584   1.755   1.667   6.107
 3895SOL    HW212585   1.740   1.729   5.956
 3896SOL     OW12586   6.595   2.563   5.635
 3896SOL    HW112587   6.640   2.647   5.606
 3896SOL    HW212588   6.595   2.558   5.735
 3897SOL     OW12589   3.548   6.807   2.721
 3897SOL    HW112590   3.456   6.830   2.689
 3897SOL    HW212591   3.614   6.831   2.650
 3898SOL     OW12592   3.465   4.192   4.808
 3898SOL    HW112593   3.373   4.175   4.842
 3898SOL    HW212594   3.461   4.205   4.708
 3899SOL     OW12595   5.247   1.488   5.003
 3899SOL    HW112596   5.319   1.526   5.061
 3899SOL    HW212597   5.171   1.553   4.997
 3900SOL     OW12598   6.973   2.552   4.160
 3900SOL    HW112599   6.917   2.512   4.087
 3900SOL    HW212600   6.979   2.487   4.236
 3901SOL     OW12601   2.423   5.686   4.635
 3901SOL    HW112602   2.336   5.636   4.639
 3901SOL    HW212603   2.497   5.622   4.618
 3902SOL     OW12604   3.840   4.913   1.915
 3902SOL    HW112605   3.766   4.846   1.919
 3902SOL    HW212606   3.887   4.905   1.827
 3903SOL     OW12607   4.119   2.493   6.117
 3903SOL    HW112608   4.099   2.492   6.215
 3903SOL    HW212609   4.171   2.412   6.092
 3904SOL     OW12610   2.525   5.832   0.731
 3904SOL    HW112611   2.440   5.810   0.778
 3904SOL    HW212612   2.570   5.747   0.703
 3905SOL     OW12613   0.582   0.347   5.940
 3905SOL    HW112614   0.633   0.308   5.865
 3905SOL    HW212615   0.496   0.386   5.906
 3906SOL     OW12616   0.938   6.019   5.123
 3906SOL    HW112617   0.935   5.982   5.216
 3906SOL    HW212618   0.887   6.104   5.119
 3907SOL     OW12619   1.162   1.299   4.739
 3907SOL    HW112620   1.220   1.379   4.753
 3907SOL    HW212621   1.177   1.263   4.647
 3908SOL     OW12622   2.491   1.141   4.498
 3908SOL    HW112623   2.430   1.116   4.424
 3908SOL    HW212624   2.487   1.072   4.570
 3909SOL     OW12625   5.146   2.544   1.596
 3909SOL    HW112626   5.170   2.459   1.643
 3909SOL    HW212627   5.206   2.556   1.517
 3910SOL     OW12628   3.577   2.270   1.242
 3910SOL    HW112629   3.662   2.268   1.189
 3910SOL    HW212630   3.502   2.301   1.183
 3911SOL     OW12631   6.710   1.110   1.412
 3911SOL    HW112632   6.738   1.036   1.351
 3911SOL    HW212633   6.644   1.075   1.479
 3912SOL     OW12634   4.083   3.225   6.753
 3912SOL    HW112635   4.068   3.185   6.843
 3912SOL    HW212636   4.151   3.298   6.760
 3913SOL     OW12637   4.004   5.699   1.586
 3913SOL    HW112638   3.999   5.776   1.523
 3913SOL    HW212639   4.096   5.659   1.582
 3914SOL     OW12640   6.604   1.322   6.993
 3914SOL    HW112641   6.640   1.398   6.938
 3914SOL    HW212642   6.651   1.321   0.065
 3915SOL     OW12643   5.323   6.443   5.205
 3915SOL    HW112644   5.277   6.522   5.245
 3915SOL    HW212645   5.379   6.472   5.128
 3916SOL     OW12646   2.253   1.816   2.475
 3916SOL    HW112647   2.310   1.781   2.401
 3916SOL    HW212648   2.287   1.781   2.563
 3917SOL     OW12649   3.459   4.644   1.253
 3917SOL    HW112650   3.395   4.592   1.310
 3917SOL    HW212651   3.508   4.710   1.309
 3918SOL     OW12652   4.654   1.081   6.620
 3918SOL    HW112653   4.660   1.179   6.603
 3918SOL    HW212654   4.560   1.058   6.648
 3919SOL     OW12655   4.414   6.199   2.564
 3919SOL    HW112656   4.472   6.214   2.484
 3919SOL    HW212657   4.410   6.102   2.585
 3920SOL     OW12658   3.190   1.663   5.382
 3920SOL    HW112659   3.098   1.672   5.343
 3920SOL    HW212660   3.183   1.659   5.482
 3921SOL     OW12661   0.197   2.932   6.622
 3921SOL    HW112662   0.207   2.975   6.712
 3921SOL    HW212663   0.158   2.840   6.633
 3922SOL     OW12664   5.250   4.197   3.209
 3922SOL    HW112665   5.198   4.187   3.124
 3922SOL    HW212666   5.186   4.213   3.285
 3923SOL     OW12667   4.869   1.530   1.810
 3923SOL    HW112668   4.795   1.595   1.826
 3923SOL    HW212669   4.921   1.558   1.730
 3924SOL     OW12670   5.611   5.337   3.885
 3924SOL    HW112671   5.546   5.328   3.809
 3924SOL    HW212672   5.607   5.254   3.941
 3925SOL     OW12673   5.363   5.553   1.177
 3925SOL    HW112674   5.416   5.561   1.261
 3925SOL    HW212675   5.414   5.498   1.111
 3926SOL     OW12676   0.894   5.603   4.443
 3926SOL    HW112677   0.960   5.646   4.505
 3926SOL    HW212678   0.808   5.653   4.447
 3927SOL     OW12679   6.034   1.655   5.923
 3927SOL    HW112680   5.984   1.741   5.929
 3927SOL    HW212681   6.030   1.607   6.011
 3928SOL     OW12682   3.525   5.579   2.024
 3928SOL    HW112683   3.609   5.633   2.028
 3928SOL    HW212684   3.484   5.575   2.115
 3929SOL     OW12685   0.687   1.713   5.653
 3929SOL    HW112686   0.677   1.708   5.554
 3929SOL    HW212687   0.774   1.671   5.680
 3930SOL     OW12688   2.027   4.631   3.920
 3930SOL    HW112689   1.972   4.665   3.996
 3930SOL    HW212690   2.033   4.701   3.849
 3931SOL     OW12691   1.466   2.067   0.454
 3931SOL    HW112692   1.519   2.033   0.532
 3931SOL    HW212693   1.484   2.164   0.441
 3932SOL     OW12694   2.441   4.482   3.739
 3932SOL    HW112695   2.529   4.527   3.728
 3932SOL    HW212696   2.390   4.486   3.653
 3933SOL     OW12697   1.486   6.311   1.432
 3933SOL    HW112698   1.529   6.248   1.368
 3933SOL    HW212699   1.483   6.403   1.393
 3934SOL     OW12700   1.290   0.026   1.021
 3934SOL    HW112701   1.335   0.113   1.037
 3934SOL    HW212702   1.238   0.030   0.935
 3935SOL     OW12703   0.249   3.972   5.404
 3935SOL    HW112704   0.186   3.905   5.445
 3935SOL    HW212705   0.231   3.979   5.306
 3936SOL     OW12706   0.271   4.122   4.891
 3936SOL    HW112707   0.340   4.123   4.963
 3936SOL    HW212708   0.232   4.030   4.883
 3937SOL     OW12709   0.424   5.997   1.194
 3937SOL    HW112710   0.521   5.973   1.202
 3937SOL    HW212711   0.411   6.093   1.221
 3938SOL     OW12712   0.830   3.176   1.529
 3938SOL    HW112713   0.825   3.089   1.479
 3938SOL    HW212714   0.845   3.157   1.626
 3939SOL     OW12715   0.402   0.665   3.145
 3939SOL    HW112716   0.334   0.606   3.101
 3939SOL    HW212717   0.456   0.612   3.209
 3940SOL     OW12718   2.752   6.194   0.084
 3940SOL    HW112719   2.845   6.162   0.068
 3940SOL    HW212720   2.754   6.275   0.143
 3941SOL     OW12721   4.994   5.742   2.329
 3941SOL    HW112722   5.026   5.775   2.418
 3941SOL    HW212723   4.900   5.771   2.314
 3942SOL     OW12724   6.947   6.126   5.835
 3942SOL    HW112725   0.027   6.143   5.817
 3942SOL    HW212726   6.929   6.028   5.831
 3943SOL     OW12727   1.990   3.138   0.334
 3943SOL    HW112728   2.063   3.205   0.319
 3943SOL    HW212729   1.912   3.161   0.276
 3944SOL     OW12730   4.790   2.619   6.830
 3944SOL    HW112731   4.709   2.615   6.889
 3944SOL    HW212732   4.823   2.713   6.825
 3945SOL     OW12733   5.696   0.504   4.163
 3945SOL    HW112734   5.722   0.418   4.208
 3945SOL    HW212735   5.597   0.510   4.158
 3946SOL     OW12736   0.070   3.941   0.701
 3946SOL    HW112737   0.141   4.007   0.723
 3946SOL    HW212738   0.002   3.938   0.775
 3947SOL     OW12739   6.236   5.880   1.989
 3947SOL    HW112740   6.164   5.930   2.038
 3947SOL    HW212741   6.242   5.787   2.025
 3948SOL     OW12742   1.398   2.900   5.943
 3948SOL    HW112743   1.455   2.894   5.861
 3948SOL    HW212744   1.336   2.822   5.947
 3949SOL     OW12745   5.853   0.431   2.383
 3949SOL    HW112746   5.931   0.441   2.322
 3949SOL    HW212747   5.812   0.341   2.371
 3950SOL     OW12748   2.891   4.611   1.584
 3950SOL    HW112749   2.851   4.702   1.596
 3950SOL    HW212750   2.907   4.569   1.673
 3951SOL     OW12751   0.561   2.792   4.944
 3951SOL    HW112752   0.477   2.746   4.915
 3951SOL    HW212753   0.611   2.824   4.864
 3952SOL     OW12754   5.462   4.173   0.452
 3952SOL    HW112755   5.511   4.220   0.378
 3952SOL    HW212756   5.393   4.112   0.413
 3953SOL     OW12757   3.194   3.685   6.679
 3953SOL    HW112758   3.287   3.704   6.710
 3953SOL    HW212759   3.172   3.590   6.697
 3954SOL     OW12760   0.666   3.486   5.268
 3954SOL    HW112761   0.657   3.400   5.319
 3954SOL    HW212762   0.742   3.479   5.203
 3955SOL     OW12763   6.404   3.895   0.638
 3955SOL    HW112764   6.409   3.847   0.726
 3955SOL    HW212765   6.433   3.833   0.565
 3956SOL     OW12766   6.694   2.812   5.709
 3956SOL    HW112767   6.741   2.827   5.796
 3956SOL    HW212768   6.741   2.861   5.636
 3957SOL     OW12769   0.842   1.628   2.786
 3957SOL    HW112770   0.761   1.684   2.768
 3957SOL    HW212771   0.836   1.543   2.735
 3958SOL     OW12772   5.152   7.007   0.216
 3958SOL    HW112773   5.192   6.935   0.159
 3958SOL    HW212774   5.224   0.053   0.247
 3959SOL     OW12775   2.214   6.394   1.221
 3959SOL    HW112776   2.185   6.301   1.243
 3959SOL    HW212777   2.314   6.398   1.216
 3960SOL     OW12778   5.354   3.373   1.286
 3960SOL    HW112779   5.287   3.429   1.334
 3960SOL    HW212780   5.361   3.403   1.191
 3961SOL     OW12781   5.596   0.598   0.967
 3961SOL    HW112782   5.566   0.666   1.034
 3961SOL    HW212783   5.535   0.518   0.972
 3962SOL     OW12784   0.613   6.509   5.682
 3962SOL    HW112785   0.583   6.572   5.610
 3962SOL    HW212786   0.602   6.553   5.771
 3963SOL     OW12787   4.474   4.700   2.725
 3963SOL    HW112788   4.532   4.770   2.682
 3963SOL    HW212789   4.418   4.744   2.796
 3964SOL     OW12790   5.966   6.061   6.732
 3964SOL    HW112791   5.909   5.993   6.686
 3964SOL    HW212792   5.923   6.086   6.819
 3965SOL     OW12793   3.784   3.639   0.960
 3965SOL    HW112794   3.707   3.609   1.017
 3965SOL    HW212795   3.761   3.726   0.916
 3966SOL     OW12796   6.422   3.703   5.550
 3966SOL    HW112797   6.353   3.630   5.549
 3966SOL    HW212798   6.389   3.781   5.497
 3967SOL     OW12799   1.782   0.070   6.744
 3967SOL    HW112800   1.683   0.083   6.744
 3967SOL    HW212801   1.809   0.020   6.826
 3968SOL     OW12802   4.929   1.050   1.415
 3968SOL    HW112803   4.883   1.117   1.357
 3968SOL    HW212804   4.891   1.054   1.507
 3969SOL     OW12805   0.631   6.051   1.444
 3969SOL    HW112806   0.642   6.040   1.543
 3969SOL    HW212807   0.639   5.962   1.399
 3970SOL     OW12808   4.837   3.887   4.429
 3970SOL    HW112809   4.841   3.802   4.483
 3970SOL    HW212810   4.928   3.907   4.393
 3971SOL     OW12811   0.841   5.994   3.659
 3971SOL    HW112812   0.825   6.075   3.604
 3971SOL    HW212813   0.868   5.918   3.600
 3972SOL     OW12814   1.015   0.688   6.856
 3972SOL    HW112815   0.943   0.747   6.893
 3972SOL    HW212816   1.068   0.738   6.788
 3973SOL     OW12817   3.131   3.076   4.020
 3973SOL    HW112818   3.082   3.151   4.066
 3973SOL    HW212819   3.112   3.079   3.922
 3974SOL     OW12820   5.411   0.456   6.620
 3974SOL    HW112821   5.429   0.368   6.576
 3974SOL    HW212822   5.485   0.479   6.683
 3975SOL     OW12823   6.874   6.181   5.378
 3975SOL    HW112824   6.807   6.216   5.443
 3975SOL    HW212825   6.919   6.257   5.331
 3976SOL     OW12826   0.842   3.046   0.124
 3976SOL    HW112827   0.763   3.091   0.081
 3976SOL    HW212828   0.897   3.000   0.054
 3977SOL     OW12829   3.516   5.263   5.634
 3977SOL    HW112830   3.596   5.242   5.579
 3977SOL    HW212831   3.490   5.182   5.687
 3978SOL     OW12832   6.347   4.200   6.296
 3978SOL    HW112833   6.429   4.247   6.329
 3978SOL    HW212834   6.359   4.101   6.307
 3979SOL     OW12835   1.197   6.562   3.141
 3979SOL    HW112836   1.136   6.633   3.105
 3979SOL    HW212837   1.175   6.545   3.237
 3980SOL     OW12838   5.049   3.573   4.902
 3980SOL    HW112839   5.095   3.541   4.985
 3980SOL    HW212840   4.954   3.595   4.923
 3981SOL     OW12841   6.442   1.916   5.350
 3981SOL    HW112842   6.522   1.861   5.372
 3981SOL    HW212843   6.457   2.010   5.379
 3982SOL     OW12844   2.191   2.830   4.078
 3982SOL    HW112845   2.202   2.836   4.177
 3982SOL    HW212846   2.141   2.746   4.055
 3983SOL     OW12847   3.660   0.313   3.387
 3983SOL    HW112848   3.664   0.407   3.352
 3983SOL    HW212849   3.640   0.315   3.485
 3984SOL     OW12850   1.883   6.829   1.849
 3984SOL    HW112851   1.921   6.862   1.936
 3984SOL    HW212852   1.913   6.735   1.833
 3985SOL     OW12853   1.884   3.490   1.617
 3985SOL    HW112854   1.815   3.419   1.606
 3985SOL    HW212855   1.938   3.472   1.699
 3986SOL     OW12856   1.721   2.121   1.868
 3986SOL    HW112857   1.718   2.040   1.810
 3986SOL    HW212858   1.702   2.202   1.813
 3987SOL     OW12859   1.525   4.197   5.187
 3987SOL    HW112860   1.492   4.285   5.221
 3987SOL    HW212861   1.498   4.187   5.091
 3988SOL     OW12862   4.818   1.041   0.196
 3988SOL    HW112863   4.900   1.062   0.142
 3988SOL    HW212864   4.768   1.126   0.213
 3989SOL     OW12865   4.214   0.717   5.854
 3989SOL    HW112866   4.304   0.696   5.815
 3989SOL    HW212867   4.193   0.814   5.841
 3990SOL     OW12868   0.947   2.491   3.904
 3990SOL    HW112869   0.917   2.417   3.964
 3990SOL    HW212870   0.946   2.577   3.954
 3991SOL     OW12871   0.650   1.097   3.899
 3991SOL    HW112872   0.577   1.099   3.832
 3991SOL    HW212873   0.633   1.165   3.970
 3992SOL     OW12874   5.986   3.729   6.302
 3992SOL    HW112875   5.945   3.813   6.268
 3992SOL    HW212876   5.937   3.699   6.384
 3993SOL     OW12877   1.487   0.672   4.425
 3993SOL    HW112878   1.585   0.665   4.442
 3993SOL    HW212879   1.445   0.732   4.492
 3994SOL     OW12880   2.801   2.139   2.907
 3994SOL    HW112881   2.853   2.131   2.822
 3994SOL    HW212882   2.707   2.165   2.887
 3995SOL     OW12883   1.241   3.436   2.501
 3995SOL    HW112884   1.232   3.381   2.418
 3995SOL    HW212885   1.150   3.456   2.537
 3996SOL     OW12886   5.841   6.665   4.238
 3996SOL    HW112887   5.806   6.600   4.305
 3996SOL    HW212888   5.765   6.700   4.182
 3997SOL     OW12889   4.907   3.516   2.969
 3997SOL    HW112890   4.977   3.524   2.898
 3997SOL    HW212891   4.885   3.606   3.006
 3998SOL     OW12892   5.249   2.429   3.051
 3998SOL    HW112893   5.272   2.525   3.032
 3998SOL    HW212894   5.150   2.420   3.059
 3999SOL     OW12895   4.672   2.877   1.243
 3999SOL    HW112896   4.599   2.941   1.266
 3999SOL    HW212897   4.715   2.845   1.328
 4000SOL     OW12898   2.641   5.247   2.583
 4000SOL    HW112899   2.577   5.323   2.578
 4000SOL    HW212900   2.604   5.169   2.533
 4001SOL     OW12901   1.355   5.029   4.248
 4001SOL    HW112902   1.305   5.019   4.162
 4001SOL    HW212903   1.290   5.039   4.323
 4002SOL     OW12904   3.409   4.150   3.792
 4002SOL    HW112905   3.479   4.208   3.750
 4002SOL    HW212906   3.335   4.135   3.727
 4003SOL     OW12907   2.007   0.687   5.659
 4003SOL    HW112908   1.979   0.596   5.688
 4003SOL    HW212909   2.061   0.681   5.576
 4004SOL     OW12910   0.917   3.528   3.633
 4004SOL    HW112911   0.831   3.551   3.679
 4004SOL    HW212912   0.956   3.446   3.673
 4005SOL     OW12913   4.905   3.034   0.166
 4005SOL    HW112914   4.986   3.016   0.110
 4005SOL    HW212915   4.894   3.133   0.179
 4006SOL     OW12916   5.514   5.437   2.854
 4006SOL    HW112917   5.613   5.450   2.852
 4006SOL    HW212918   5.477   5.452   2.762
 4007SOL     OW12919   6.977   0.671   2.791
 4007SOL    HW112920   0.011   0.704   2.872
 4007SOL    HW212921   6.990   0.735   2.716
 4008SOL     OW12922   3.431   0.806   0.450
 4008SOL    HW112923   3.458   0.710   0.461
 4008SOL    HW212924   3.350   0.824   0.506
 4009SOL     OW12925   4.874   2.003   0.866
 4009SOL    HW112926   4.890   1.909   0.898
 4009SOL    HW212927   4.952   2.060   0.891
 4010SOL     OW12928   2.794   4.943   1.740
 4010SOL    HW112929   2.722   4.920   1.806
 4010SOL    HW212930   2.880   4.903   1.770
 4011SOL     OW12931   5.081   6.301   6.673
 4011SOL    HW112932   5.144   6.377   6.686
 4011SOL    HW212933   5.024   6.291   6.754
 4012SOL     OW12934   4.892   6.923   2.940
 4012SOL    HW112935   4.862   7.009   2.982
 4012SOL    HW212936   4.815   6.880   2.892
 4013SOL     OW12937   6.973   1.118   5.496
 4013SOL    HW112938   6.910   1.054   5.539
 4013SOL    HW212939   6.980   1.200   5.553
 4014SOL     OW12940   3.391   4.894   2.680
 4014SOL    HW112941   3.383   4.968   2.612
 4014SOL    HW212942   3.308   4.839   2.679
 4015SOL     OW12943   4.148   4.699   6.011
 4015SOL    HW112944   4.065   4.744   5.978
 4015SOL    HW212945   4.130   4.601   6.021
 4016SOL     OW12946   4.314   5.182   5.288
 4016SOL    HW112947   4.358   5.143   5.369
 4016SOL    HW212948   4.218   5.201   5.308
 4017SOL     OW12949   0.683   4.685   5.506
 4017SOL    HW112950   0.653   4.772   5.466
 4017SOL    HW212951   0.612   4.651   5.568
 4018SOL     OW12952   4.244   5.701   1.234
 4018SOL    HW112953   4.263   5.798   1.253
 4018SOL    HW212954   4.148   5.682   1.256
 4019SOL     OW12955   5.569   3.709   2.812
 4019SOL    HW112956   5.644   3.645   2.832
 4019SOL    HW212957   5.537   3.695   2.719
 4020SOL     OW12958   6.980   5.464   4.607
 4020SOL    HW112959   7.013   5.452   4.700
 4020SOL    HW212960   0.037   5.500   4.549
 4021SOL     OW12961   4.089   3.716   6.668
 4021SOL    HW112962   4.052   3.717   6.575
 4021SOL    HW212963   4.124   3.624   6.688
 4022SOL     OW12964   2.131   0.277   1.245
 4022SOL    HW112965   2.115   0.324   1.332
 4022SOL    HW212966   2.157   0.182   1.263
 4023SOL     OW12967   0.474   1.145   4.615
 4023SOL    HW112968   0.557   1.173   4.663
 4023SOL    HW212969   0.498   1.097   4.531
 4024SOL     OW12970   0.838   6.397   4.266
 4024SOL    HW112971   0.846   6.302   4.235
 4024SOL    HW212972   0.926   6.444   4.255
 4025SOL     OW12973   6.912   5.401   3.685
 4025SOL    HW112974   6.840   5.470   3.680
 4025SOL    HW212975   6.948   5.382   3.594
 4026SOL     OW12976   6.953   0.120   4.056
 4026SOL    HW112977   6.874   0.131   4.115
 4026SOL    HW212978   0.020   0.132   4.109
 4027SOL     OW12979   2.895   4.243   5.893
 4027SOL    HW112980   2.814   4.201   5.851
 4027SOL    HW212981   2.954   4.172   5.930
 4028SOL     OW12982   4.707   1.565   3.375
 4028SOL    HW112983   4.656   1.595   3.455
 4028SOL    HW212984   4.799   1.538   3.402
 4029SOL     OW12985   1.681   5.519   0.089
 4029SOL    HW112986   1.639   5.583   0.025
 4029SOL    HW212987   1.771   5.553   0.116
 4030SOL     OW12988   6.991   1.083   2.621
 4030SOL    HW112989   0.001   1.067   2.716
 4030SOL    HW212990   6.965   1.179   2.610
 4031SOL     OW12991   6.157   6.460   0.609
 4031SOL    HW112992   6.118   6.508   0.531
 4031SOL    HW212993   6.225   6.394   0.578
 4032SOL     OW12994   5.433   0.696   2.311
 4032SOL    HW112995   5.383   0.651   2.237
 4032SOL    HW212996   5.495   0.764   2.273
 4033SOL     OW12997   1.961   2.822   2.599
 4033SOL    HW112998   1.953   2.732   2.557
 4033SOL    HW212999   2.032   2.875   2.553
 4034SOL     OW13000   0.153   3.080   5.267
 4034SOL    HW113001   0.181   3.124   5.182
 4034SOL    HW213002   0.076   3.019   5.249
 4035SOL     OW13003   4.592   1.587   1.738
 4035SOL    HW113004   4.633   1.677   1.722
 4035SOL    HW213005   4.564   1.580   1.834
 4036SOL     OW13006   2.780   5.776   2.789
 4036SOL    HW113007   2.851   5.774   2.859
 4036SOL    HW213008   2.691   5.789   2.832
 4037SOL     OW13009   2.915   1.714   5.945
 4037SOL    HW113010   2.820   1.687   5.931
 4037SOL    HW213011   2.976   1.643   5.907
 4038SOL     OW13012   3.299   3.781   6.014
 4038SOL    HW113013   3.258   3.698   5.977
 4038SOL    HW213014   3.258   3.862   5.971
 4039SOL     OW13015   6.232   5.049   1.578
 4039SOL    HW113016   6.224   4.983   1.503
 4039SOL    HW213017   6.160   5.117   1.571
 4040SOL     OW13018   3.010   6.377   4.900
 4040SOL    HW113019   3.039   6.331   4.984
 4040SOL    HW213020   3.060   6.340   4.822
 4041SOL     OW13021   2.322   6.420   0.804
 4041SOL    HW113022   2.237   6.439   0.755
 4041SOL    HW213023   2.363   6.336   0.769
 4042SOL     OW13024   6.547   0.865   3.225
 4042SOL    HW113025   6.524   0.844   3.320
 4042SOL    HW213026   6.502   0.800   3.164
 4043SOL     OW13027   5.581   3.526   0.121
 4043SOL    HW113028   5.636   3.567   0.193
 4043SOL    HW213029   5.612   3.433   0.104
 4044SOL     OW13030   4.849   5.347   3.261
 4044SOL    HW113031   4.866   5.261   3.213
 4044SOL    HW213032   4.795   5.408   3.203
 4045SOL     OW13033   4.898   0.745   5.350
 4045SOL    HW113034   4.980   0.694   5.324
 4045SOL    HW213035   4.897   0.833   5.304
 4046SOL     OW13036   6.185   1.904   2.619
 4046SOL    HW113037   6.122   1.851   2.562
 4046SOL    HW213038   6.273   1.857   2.624
 4047SOL     OW13039   2.938   3.230   0.145
 4047SOL    HW113040   2.857   3.281   0.118
 4047SOL    HW213041   2.994   3.286   0.206
 4048SOL     OW13042   4.473   1.671   2.264
 4048SOL    HW113043   4.428   1.730   2.196
 4048SOL    HW213044   4.520   1.596   2.217
 4049SOL     OW13045   3.854   4.671   6.874
 4049SOL    HW113046   3.786   4.636   6.939
 4049SOL    HW213047   3.813   4.676   6.783
 4050SOL     OW13048   0.360   5.487   2.121
 4050SOL    HW113049   0.430   5.418   2.138
 4050SOL    HW213050   0.391   5.575   2.158
 4051SOL     OW13051   5.344   0.975   5.081
 4051SOL    HW113052   5.427   1.007   5.127
 4051SOL    HW213053   5.345   1.007   4.986
 4052SOL     OW13054   6.273   2.161   3.902
 4052SOL    HW113055   6.280   2.062   3.913
 4052SOL    HW213056   6.228   2.200   3.983
 4053SOL     OW13057   1.441   5.313   4.372
 4053SOL    HW113058   1.408   5.382   4.437
 4053SOL    HW213059   1.382   5.232   4.379
 4054SOL     OW13060   4.107   3.652   0.633
 4054SOL    HW113061   4.147   3.645   0.724
 4054SOL    HW213062   4.057   3.568   0.611
 4055SOL     OW13063   0.442   4.862   1.415
 4055SOL    HW113064   0.394   4.805   1.349
 4055SOL    HW213065   0.527   4.818   1.443
 4056SOL     OW13066   5.318   3.458   1.033
 4056SOL    HW113067   5.305   3.557   1.021
 4056SOL    HW213068   5.379   3.424   0.961
 4057SOL     OW13069   6.995   3.322   7.013
 4057SOL    HW113070   0.023   3.363   0.076
 4057SOL    HW213071   0.036   3.338   6.932
 4058SOL     OW13072   3.209   6.709   5.939
 4058SOL    HW113073   3.124   6.728   5.890
 4058SOL    HW213074   3.188   6.656   6.022
 4059SOL     OW13075   0.456   1.613   3.669
 4059SOL    HW113076   0.364   1.649   3.657
 4059SOL    HW213077   0.523   1.683   3.645
 4060SOL     OW13078   5.978   5.690   5.506
 4060SOL    HW113079   6.007   5.774   5.554
 4060SOL    HW213080   5.993   5.701   5.408
 4061SOL     OW13081   1.915   5.652   0.958
 4061SOL    HW113082   1.992   5.687   1.011
 4061SOL    HW213083   1.944   5.570   0.908
 4062SOL     OW13084   1.411   2.395   1.572
 4062SOL    HW113085   1.487   2.334   1.548
 4062SOL    HW213086   1.365   2.360   1.653
 4063SOL     OW13087   4.643   0.964   0.405
 4063SOL    HW113088   4.567   0.911   0.369
 4063SOL    HW213089   4.708   0.983   0.332
 4064SOL     OW13090   2.137   1.785   5.337
 4064SOL    HW113091   2.125   1.883   5.349
 4064SOL    HW213092   2.146   1.741   5.427
 4065SOL     OW13093   2.556   6.727   1.117
 4065SOL    HW113094   2.538   6.801   1.182
 4065SOL    HW213095   2.469   6.685   1.091
 4066SOL     OW13096   0.263   4.306   3.564
 4066SOL    HW113097   0.250   4.400   3.597
 4066SOL    HW213098   0.208   4.244   3.620
 4067SOL     OW13099   4.565   4.807   0.989
 4067SOL    HW113100   4.524   4.752   0.916
 4067SOL    HW213101   4.652   4.844   0.957
 4068SOL     OW13102   2.127   2.534   5.397
 4068SOL    HW113103   2.210   2.580   5.429
 4068SOL    HW213104   2.064   2.603   5.360
 4069SOL     OW13105   4.167   0.284   6.591
 4069SOL    HW113106   4.177   0.193   6.632
 4069SOL    HW213107   4.228   0.348   6.637
 4070SOL     OW13108   1.301   3.080   3.959
 4070SOL    HW113109   1.331   3.146   3.889
 4070SOL    HW213110   1.381   3.039   4.002
 4071SOL     OW13111   0.896   0.380   3.859
 4071SOL    HW113112   0.829   0.415   3.924
 4071SOL    HW213113   0.977   0.438   3.859
 4072SOL     OW13114   2.443   5.857   3.217
 4072SOL    HW113115   2.391   5.897   3.142
 4072SOL    HW213116   2.384   5.848   3.298
 4073SOL     OW13117   2.763   5.010   0.358
 4073SOL    HW113118   2.851   4.978   0.394
 4073SOL    HW213119   2.760   4.994   0.259
 4074SOL     OW13120   1.658   5.731   2.690
 4074SOL    HW113121   1.628   5.693   2.602
 4074SOL    HW213122   1.727   5.671   2.730
 4075SOL     OW13123   5.827   0.654   0.844
 4075SOL    HW113124   5.878   0.716   0.902
 4075SOL    HW213125   5.730   0.655   0.870
 4076SOL     OW13126   2.872   4.017   5.162
 4076SOL    HW113127   2.788   4.071   5.166
 4076SOL    HW213128   2.850   3.921   5.183
 4077SOL     OW13129   2.624   1.137   1.737
 4077SOL    HW113130   2.722   1.120   1.723
 4077SOL    HW213131   2.607   1.235   1.739
 4078SOL     OW13132   2.683   4.744   3.005
 4078SOL    HW113133   2.643   4.659   3.038
 4078SOL    HW213134   2.760   4.769   3.064
 4079SOL     OW13135   0.932   2.340   4.875
 4079SOL    HW113136   0.894   2.393   4.799
 4079SOL    HW213137   0.961   2.403   4.947
 4080SOL     OW13138   6.205   1.505   4.982
 4080SOL    HW113139   6.156   1.574   4.929
 4080SOL    HW213140   6.160   1.417   4.973
 4081SOL     OW13141   1.982   3.376   3.593
 4081SOL    HW113142   2.055   3.383   3.525
 4081SOL    HW213143   1.995   3.445   3.664
 4082SOL     OW13144   1.311   3.340   1.044
 4082SOL    HW113145   1.361   3.281   1.107
 4082SOL    HW213146   1.221   3.301   1.026
 4083SOL     OW13147   5.338   2.616   5.035
 4083SOL    HW113148   5.340   2.558   4.953
 4083SOL    HW213149   5.246   2.652   5.049
 4084SOL     OW13150   0.903   1.003   3.908
 4084SOL    HW113151   0.811   1.039   3.916
 4084SOL    HW213152   0.936   0.977   3.999
 4085SOL     OW13153   3.554   6.478   0.186
 4085SOL    HW113154   3.467   6.493   0.232
 4085SOL    HW213155   3.629   6.495   0.250
 4086SOL     OW13156   1.622   4.667   0.941
 4086SOL    HW113157   1.695   4.721   0.982
 4086SOL    HW213158   1.536   4.685   0.988
 4087SOL     OW13159   1.618   1.380   3.139
 4087SOL    HW113160   1.600   1.463   3.086
 4087SOL    HW213161   1.531   1.337   3.164
 4088SOL     OW13162   6.628   1.684   1.408
 4088SOL    HW113163   6.634   1.722   1.500
 4088SOL    HW213164   6.559   1.735   1.355
 4089SOL     OW13165   1.166   0.646   4.166
 4089SOL    HW113166   1.094   0.659   4.097
 4089SOL    HW213167   1.212   0.732   4.183
 4090SOL     OW13168   1.933   4.184   5.449
 4090SOL    HW113169   1.894   4.276   5.449
 4090SOL    HW213170   1.932   4.147   5.542
 4091SOL     OW13171   4.384   5.699   0.350
 4091SOL    HW113172   4.425   5.766   0.411
 4091SOL    HW213173   4.391   5.732   0.256
 4092SOL     OW13174   6.995   2.945   4.976
 4092SOL    HW113175   6.906   2.959   4.933
 4092SOL    HW213176   0.013   3.033   5.010
 4093SOL     OW13177   5.420   0.504   4.117
 4093SOL    HW113178   5.422   0.507   4.017
 4093SOL    HW213179   5.388   0.415   4.147
 4094SOL     OW13180   2.287   4.264   5.121
 4094SOL    HW113181   2.297   4.169   5.092
 4094SOL    HW213182   2.264   4.268   5.218
 4095SOL     OW13183   1.022   3.690   6.323
 4095SOL    HW113184   0.923   3.695   6.336
 4095SOL    HW213185   1.057   3.780   6.297
 4096SOL     OW13186   3.627   4.086   0.338
 4096SOL    HW113187   3.656   4.107   0.432
 4096SOL    HW213188   3.692   4.126   0.274
 4097SOL     OW13189   3.410   3.457   5.814
 4097SOL    HW113190   3.439   3.362   5.802
 4097SOL    HW213191   3.473   3.518   5.765
 4098SOL     OW13192   0.644   1.959   3.145
 4098SOL    HW113193   0.641   1.968   3.245
 4098SOL    HW213194   0.674   1.866   3.121
 4099SOL     OW13195   4.077   5.695   1.848
 4099SOL    HW113196   4.090   5.784   1.892
 4099SOL    HW213197   4.018   5.706   1.768
 4100SOL     OW13198   3.736   5.896   3.639
 4100SOL    HW113199   3.728   5.887   3.738
 4100SOL    HW213200   3.646   5.887   3.596
 4101SOL     OW13201   5.953   1.514   6.381
 4101SOL    HW113202   6.047   1.519   6.413
 4101SOL    HW213203   5.891   1.540   6.455
 4102SOL     OW13204   6.189   1.207   0.302
 4102SOL    HW113205   6.276   1.255   0.293
 4102SOL    HW213206   6.113   1.271   0.288
 4103SOL     OW13207   0.680   0.620   1.975
 4103SOL    HW113208   0.609   0.661   1.918
 4103SOL    HW213209   0.667   0.649   2.070
 4104SOL     OW13210   1.224   4.805   2.731
 4104SOL    HW113211   1.134   4.762   2.720
 4104SOL    HW213212   1.260   4.782   2.821
 4105SOL     OW13213   4.051   4.917   0.118
 4105SOL    HW113214   4.070   4.983   0.045
 4105SOL    HW213215   4.059   4.962   0.207
 4106SOL     OW13216   0.035   3.606   4.657
 4106SOL    HW113217   0.010   3.702   4.640
 4106SOL    HW213218   0.097   3.601   4.735
 4107SOL     OW13219   6.882   0.535   1.635
 4107SOL    HW113220   6.830   0.453   1.611
 4107SOL    HW213221   6.961   0.510   1.691
 4108SOL     OW13222   6.412   3.543   6.030
 4108SOL    HW113223   6.337   3.581   6.084
 4108SOL    HW213224   6.499   3.582   6.061
 4109SOL     OW13225   3.076   6.376   3.760
 4109SOL    HW113226   3.001   6.398   3.823
 4109SOL    HW213227   3.042   6.377   3.666
 4110SOL     OW13228   4.807   3.525   6.092
 4110SOL    HW113229   4.718   3.571   6.102
 4110SOL    HW213230   4.795   3.441   6.040
 4111SOL     OW13231   4.502   2.835   6.799
 4111SOL    HW113232   4.450   2.898   6.858
 4111SOL    HW213233   4.501   2.744   6.838
 4112SOL     OW13234   3.211   1.251   3.854
 4112SOL    HW113235   3.236   1.347   3.868
 4112SOL    HW213236   3.127   1.230   3.903
 4113SOL     OW13237   3.354   4.925   5.073
 4113SOL    HW113238   3.275   4.979   5.045
 4113SOL    HW213239   3.428   4.936   5.007
 4114SOL     OW13240   2.827   1.706   2.916
 4114SOL    HW113241   2.734   1.740   2.929
 4114SOL    HW213242   2.832   1.611   2.947
 4115SOL     OW13243   5.047   4.985   1.381
 4115SOL    HW113244   4.987   5.056   1.345
 4115SOL    HW213245   5.023   4.897   1.340
 4116SOL     OW13246   3.541   1.624   1.238
 4116SOL    HW113247   3.634   1.593   1.218
 4116SOL    HW213248   3.542   1.682   1.320
 4117SOL     OW13249   1.166   5.516   1.457
 4117SOL    HW113250   1.211   5.437   1.498
 4117SOL    HW213251   1.121   5.489   1.372
 4118SOL     OW13252   1.402   6.202   0.555
 4118SOL    HW113253   1.434   6.296   0.541
 4118SOL    HW213254   1.449   6.163   0.635
 4119SOL     OW13255   3.335   0.675   4.208
 4119SOL    HW113256   3.242   0.654   4.176
 4119SOL    HW213257   3.340   0.770   4.236
 4120SOL     OW13258   3.134   0.737   1.572
 4120SOL    HW113259   3.209   0.732   1.638
 4120SOL    HW213260   3.138   0.659   1.510
 4121SOL     OW13261   6.833   3.103   4.607
 4121SOL    HW113262   6.761   3.077   4.543
 4121SOL    HW213263   6.814   3.195   4.641
 4122SOL     OW13264   1.726   5.667   5.746
 4122SOL    HW113265   1.664   5.601   5.705
 4122SOL    HW213266   1.711   5.671   5.844
 4123SOL     OW13267   4.726   4.084   6.481
 4123SOL    HW113268   4.812   4.124   6.513
 4123SOL    HW213269   4.653   4.105   6.545
 4124SOL     OW13270   5.702   6.892   4.048
 4124SOL    HW113271   5.659   6.926   3.965
 4124SOL    HW213272   5.663   6.802   4.070
 4125SOL     OW13273   4.290   0.967   0.943
 4125SOL    HW113274   4.359   1.031   0.975
 4125SOL    HW213275   4.334   0.893   0.892
 4126SOL     OW13276   2.175   4.044   4.826
 4126SOL    HW113277   2.242   4.023   4.897
 4126SOL    HW213278   2.090   4.075   4.869
 4127SOL     OW13279   5.510   3.555   5.432
 4127SOL    HW113280   5.436   3.491   5.413
 4127SOL    HW213281   5.594   3.504   5.448
 4128SOL     OW13282   1.196   2.986   2.081
 4128SOL    HW113283   1.189   2.907   2.020
 4128SOL    HW213284   1.261   3.051   2.043
 4129SOL     OW13285   5.660   2.556   6.035
 4129SOL    HW113286   5.676   2.560   6.134
 4129SOL    HW213287   5.746   2.537   5.988
 4130SOL     OW13288   6.364   3.789   0.110
 4130SOL    HW113289   6.316   3.703   0.130
 4130SOL    HW213290   6.314   3.865   0.152
 4131SOL     OW13291   6.266   4.817   4.234
 4131SOL    HW113292   6.268   4.907   4.190
 4131SOL    HW213293   6.358   4.779   4.237
 4132SOL     OW13294   5.100   2.687   3.231
 4132SOL    HW113295   5.038   2.670   3.155
 4132SOL    HW213296   5.139   2.778   3.223
 4133SOL     OW13297   3.037   1.110   0.987
 4133SOL    HW113298   3.074   1.032   1.038
 4133SOL    HW213299   3.102   1.185   0.989
 4134SOL     OW13300   1.699   1.847   0.210
 4134SOL    HW113301   1.762   1.920   0.181
 4134SOL    HW213302   1.708   1.832   0.308
 4135SOL     OW13303   2.012   1.522   1.764
 4135SOL    HW113304   2.006   1.542   1.862
 4135SOL    HW213305   2.090   1.569   1.725
 4136SOL     OW13306   0.236   1.907   4.143
 4136SOL    HW113307   0.161   1.841   4.146
 4136SOL    HW213308   0.213   1.980   4.079
 4137SOL     OW13309   3.144   3.906   6.523
 4137SOL    HW113310   3.156   3.822   6.576
 4137SOL    HW213311   3.213   3.972   6.550
 4138SOL     OW13312   4.186   4.750   3.627
 4138SOL    HW113313   4.139   4.725   3.711
 4138SOL    HW213314   4.123   4.795   3.564
 4139SOL     OW13315   1.699   2.191   6.184
 4139SOL    HW113316   1.774   2.132   6.152
 4139SOL    HW213317   1.728   2.287   6.177
 4140SOL     OW13318   4.351   1.132   4.876
 4140SOL    HW113319   4.431   1.166   4.826
 4140SOL    HW213320   4.310   1.208   4.928
 4141SOL     OW13321   5.502   6.058   0.501
 4141SOL    HW113322   5.448   5.974   0.511
 4141SOL    HW213323   5.597   6.039   0.526
 4142SOL     OW13324   0.075   4.395   1.405
 4142SOL    HW113325   0.105   4.400   1.500
 4142SOL    HW213326   0.009   4.320   1.396
 4143SOL     OW13327   0.008   2.761   0.742
 4143SOL    HW113328   0.048   2.817   0.670
 4143SOL    HW213329   6.984   2.820   0.812
 4144SOL     OW13330   5.085   1.349   2.436
 4144SOL    HW113331   5.126   1.438   2.413
 4144SOL    HW213332   5.033   1.358   2.521
 4145SOL     OW13333   2.181   6.730   1.571
 4145SOL    HW113334   2.130   6.816   1.563
 4145SOL    HW213335   2.266   6.747   1.620
 4146SOL     OW13336   4.617   0.036   6.967
 4146SOL    HW113337   4.702   0.051   0.001
 4146SOL    HW213338   4.604   0.110   6.901
 4147SOL     OW13339   3.368   1.397   4.977
 4147SOL    HW113340   3.372   1.421   5.074
 4147SOL    HW213341   3.315   1.466   4.928
 4148SOL     OW13342   6.628   0.518   3.343
 4148SOL    HW113343   6.655   0.482   3.433
 4148SOL    HW213344   6.707   0.560   3.299
 4149SOL     OW13345   5.831   4.069   1.981
 4149SOL    HW113346   5.894   4.146   1.975
 4149SOL    HW213347   5.860   4.008   2.056
 4150SOL     OW13348   5.590   0.195   6.770
 4150SOL    HW113349   5.543   0.129   6.828
 4150SOL    HW213350   5.543   0.202   6.682
 4151SOL     OW13351   0.213   5.563   0.687
 4151SOL    HW113352   0.119   5.529   0.696
 4151SOL    HW213353   0.210   5.658   0.655
 4152SOL     OW13354   4.130   4.678   1.606
 4152SOL    HW113355   4.053   4.614   1.596
 4152SOL    HW213356   4.215   4.627   1.613
 4153SOL     OW13357   6.333   4.601   6.293
 4153SOL    HW113358   6.271   4.527   6.266
 4153SOL    HW213359   6.410   4.605   6.228
 4154SOL     OW13360   5.896   3.216   5.740
 4154SOL    HW113361   5.893   3.189   5.644
 4154SOL    HW213362   5.813   3.266   5.763
 4155SOL     OW13363   1.244   3.368   1.727
 4155SOL    HW113364   1.335   3.363   1.688
 4155SOL    HW213365   1.249   3.356   1.826
 4156SOL     OW13366   5.759   0.063   5.599
 4156SOL    HW113367   5.819   0.095   5.672
 4156SOL    HW213368   5.668   0.044   5.636
 4157SOL     OW13369   4.003   0.375   4.662
 4157SOL    HW113370   4.049   0.286   4.668
 4157SOL    HW213371   4.051   0.442   4.718
 4158SOL     OW13372   0.813   6.191   3.424
 4158SOL    HW113373   0.906   6.227   3.413
 4158SOL    HW213374   0.750   6.266   3.441
 4159SOL     OW13375   1.215   2.594   4.789
 4159SOL    HW113376   1.144   2.535   4.751
 4159SOL    HW213377   1.191   2.689   4.772
 4160SOL     OW13378   0.416   0.504   1.481
 4160SOL    HW113379   0.333   0.527   1.532
 4160SOL    HW213380   0.423   0.563   1.400
 4161SOL     OW13381   0.037   1.680   0.469
 4161SOL    HW113382   6.968   1.733   0.465
 4161SOL    HW213383   0.109   1.730   0.422
 4162SOL     OW13384   5.997   6.913   5.190
 4162SOL    HW113385   6.095   6.922   5.172
 4162SOL    HW213386   5.973   6.961   5.274
 4163SOL     OW13387   5.795   1.367   4.227
 4163SOL    HW113388   5.842   1.360   4.316
 4163SOL    HW213389   5.864   1.375   4.155
 4164SOL     OW13390   1.843   0.610   6.859
 4164SOL    HW113391   1.759   0.561   6.837
 4164SOL    HW213392   1.822   0.707   6.875
 4165SOL     OW13393   3.865   6.508   1.397
 4165SOL    HW113394   3.808   6.586   1.421
 4165SOL    HW213395   3.853   6.487   1.300
 4166SOL     OW13396   5.099   3.100   0.778
 4166SOL    HW113397   5.038   3.177   0.797
 4166SOL    HW213398   5.146   3.074   0.861
 4167SOL     OW13399   2.599   2.800   1.472
 4167SOL    HW113400   2.527   2.738   1.443
 4167SOL    HW213401   2.658   2.821   1.394
 4168SOL     OW13402   1.243   5.651   1.685
 4168SOL    HW113403   1.212   5.615   1.597
 4168SOL    HW213404   1.298   5.582   1.733
 4169SOL     OW13405   5.546   3.201   4.147
 4169SOL    HW113406   5.449   3.214   4.127
 4169SOL    HW213407   5.583   3.284   4.188
 4170SOL     OW13408   3.737   2.771   5.695
 4170SOL    HW113409   3.743   2.709   5.773
 4170SOL    HW213410   3.761   2.864   5.725
 4171SOL     OW13411   5.160   3.559   1.408
 4171SOL    HW113412   5.091   3.521   1.469
 4171SOL    HW213413   5.115   3.607   1.332
 4172SOL     OW13414   0.878   2.098   0.905
 4172SOL    HW113415   0.834   2.015   0.871
 4172SOL    HW213416   0.880   2.097   1.005
 4173SOL     OW13417   5.117   3.127   5.345
 4173SOL    HW113418   5.189   3.066   5.379
 4173SOL    HW213419   5.087   3.187   5.418
 4174SOL     OW13420   4.740   0.669   4.273
 4174SOL    HW113421   4.694   0.653   4.186
 4174SOL    HW213422   4.831   0.629   4.270
 4175SOL     OW13423   2.967   0.560   3.064
 4175SOL    HW113424   2.973   0.595   2.971
 4175SOL    HW213425   2.876   0.577   3.100
 4176SOL     OW13426   4.748   6.398   3.280
 4176SOL    HW113427   4.814   6.447   3.337
 4176SOL    HW213428   4.673   6.459   3.254
 4177SOL     OW13429   0.409   6.358   2.731
 4177SOL    HW113430   0.416   6.405   2.819
 4177SOL    HW213431   0.312   6.348   2.706
 4178SOL     OW13432   3.676   2.199   5.717
 4178SOL    HW113433   3.694   2.191   5.815
 4178SOL    HW213434   3.588   2.156   5.695
 4179SOL     OW13435   5.395   3.936   5.615
 4179SOL    HW113436   5.405   3.891   5.526
 4179SOL    HW213437   5.454   4.017   5.618
 4180SOL     OW13438   4.701   4.063   1.496
 4180SOL    HW113439   4.620   4.053   1.438
 4180SOL    HW213440   4.693   4.002   1.575
 4181SOL     OW13441   1.063   1.318   0.601
 4181SOL    HW113442   1.093   1.248   0.666
 4181SOL    HW213443   0.989   1.371   0.642
 4182SOL     OW13444   5.595   0.379   2.721
 4182SOL    HW113445   5.684   0.420   2.701
 4182SOL    HW213446   5.526   0.451   2.727
 4183SOL     OW13447   1.572   1.997   1.647
 4183SOL    HW113448   1.492   2.007   1.706
 4183SOL    HW213449   1.576   1.903   1.612
 4184SOL     OW13450   4.187   5.246   0.569
 4184SOL    HW113451   4.241   5.310   0.515
 4184SOL    HW213452   4.226   5.238   0.660
 4185SOL     OW13453   0.172   0.028   3.797
 4185SOL    HW113454   0.169   0.053   3.700
 4185SOL    HW213455   0.134   0.104   3.852
 4186SOL     OW13456   2.734   3.978   1.110
 4186SOL    HW113457   2.698   3.983   1.017
 4186SOL    HW213458   2.693   3.901   1.158
 4187SOL     OW13459   3.909   3.414   6.636
 4187SOL    HW113460   4.006   3.400   6.650
 4187SOL    HW213461   3.872   3.471   6.710
 4188SOL     OW13462   4.708   7.000   4.591
 4188SOL    HW113463   4.685   0.047   4.517
 4188SOL    HW213464   4.747   6.916   4.552
 4189SOL     OW13465   2.453   1.899   4.348
 4189SOL    HW113466   2.463   1.889   4.447
 4189SOL    HW213467   2.428   1.993   4.327
 4190SOL     OW13468   3.251   0.999   0.371
 4190SOL    HW113469   3.306   0.923   0.337
 4190SOL    HW213470   3.155   0.982   0.350
 4191SOL     OW13471   6.400   2.036   2.419
 4191SOL    HW113472   6.329   1.976   2.383
 4191SOL    HW213473   6.489   2.008   2.382
 4192SOL     OW13474   6.412   1.156   3.353
 4192SOL    HW113475   6.484   1.216   3.388
 4192SOL    HW213476   6.422   1.146   3.254
 4193SOL     OW13477   2.069   0.048   1.992
 4193SOL    HW113478   2.050   7.007   2.072
 4193SOL    HW213479   2.084   0.142   2.022
 4194SOL     OW13480   0.388   0.762   3.774
 4194SOL    HW113481   0.457   0.744   3.704
 4194SOL    HW213482   0.314   0.695   3.766
 4195SOL     OW13483   5.096   0.118   1.674
 4195SOL    HW113484   5.173   0.179   1.694
 4195SOL    HW213485   5.011   0.163   1.702
 4196SOL     OW13486   4.971   2.464   3.643
 4196SOL    HW113487   5.069   2.446   3.645
 4196SOL    HW213488   4.952   2.539   3.579
 4197SOL     OW13489   4.903   4.296   4.322
 4197SOL    HW113490   4.857   4.373   4.367
 4197SOL    HW213491   5.002   4.306   4.332
 4198SOL     OW13492   6.715   3.480   6.711
 4198SOL    HW113493   6.754   3.439   6.793
 4198SOL    HW213494   6.668   3.409   6.658
 4199SOL     OW13495   2.921   3.459   5.578
 4199SOL    HW113496   2.940   3.545   5.531
 4199SOL    HW213497   2.970   3.385   5.533
 4200SOL     OW13498   2.032   0.210   6.855
 4200SOL    HW113499   1.987   0.295   6.881
 4200SOL    HW213500   1.966   0.135   6.859
 4201SOL     OW13501   5.479   5.909   3.545
 4201SOL    HW113502   5.559   5.850   3.559
 4201SOL    HW213503   5.397   5.859   3.572
 4202SOL     OW13504   5.456   4.950   4.730
 4202SOL    HW113505   5.393   4.962   4.653
 4202SOL    HW213506   5.415   4.986   4.813
 4203SOL     OW13507   5.335   5.702   3.378
 4203SOL    HW113508   5.394   5.765   3.428
 4203SOL    HW213509   5.342   5.720   3.280
 4204SOL     OW13510   3.282   3.254   1.556
 4204SOL    HW113511   3.182   3.255   1.560
 4204SOL    HW213512   3.315   3.338   1.513
 4205SOL     OW13513   2.717   5.043   3.746
 4205SOL    HW113514   2.803   5.093   3.732
 4205SOL    HW213515   2.672   5.029   3.657
 4206SOL     OW13516   5.142   0.267   4.477
 4206SOL    HW113517   5.113   0.182   4.432
 4206SOL    HW213518   5.062   0.322   4.500
 4207SOL     OW13519   0.903   1.404   1.723
 4207SOL    HW113520   0.842   1.361   1.657
 4207SOL    HW213521   0.985   1.436   1.677
 4208SOL     OW13522   0.742   3.536   1.169
 4208SOL    HW113523   0.670   3.542   1.100
 4208SOL    HW213524   0.738   3.617   1.228
 4209SOL     OW13525   2.901   0.402   4.780
 4209SOL    HW113526   2.914   0.356   4.691
 4209SOL    HW213527   2.822   0.462   4.775
 4210SOL     OW13528   5.261   3.094   0.533
 4210SOL    HW113529   5.227   3.009   0.493
 4210SOL    HW213530   5.191   3.133   0.593
 4211SOL     OW13531   4.573   4.960   3.477
 4211SOL    HW113532   4.659   4.949   3.427
 4211SOL    HW213533   4.528   4.871   3.485
 4212SOL     OW13534   6.116   1.000   2.788
 4212SOL    HW113535   6.047   0.928   2.797
 4212SOL    HW213536   6.188   0.985   2.856
 4213SOL     OW13537   1.157   1.181   2.478
 4213SOL    HW113538   1.120   1.181   2.385
 4213SOL    HW213539   1.081   1.175   2.543
 4214SOL     OW13540   1.173   2.869   4.404
 4214SOL    HW113541   1.205   2.788   4.355
 4214SOL    HW213542   1.239   2.943   4.392
 4215SOL     OW13543   1.011   5.181   4.078
 4215SOL    HW113544   0.932   5.174   4.140
 4215SOL    HW213545   1.020   5.275   4.047
 4216SOL     OW13546   1.507   3.208   5.145
 4216SOL    HW113547   1.432   3.236   5.084
 4216SOL    HW213548   1.470   3.185   5.235
 4217SOL     OW13549   7.015   0.322   3.132
 4217SOL    HW113550   0.023   0.335   3.036
 4217SOL    HW213551   6.935   0.263   3.138
 4218SOL     OW13552   4.637   6.913   2.063
 4218SOL    HW113553   4.550   6.896   2.017
 4218SOL    HW213554   4.693   6.974   2.007
 4219SOL     OW13555   4.318   6.234   3.156
 4219SOL    HW113556   4.235   6.281   3.187
 4219SOL    HW213557   4.340   6.160   3.219
 4220SOL     OW13558   6.090   2.663   3.439
 4220SOL    HW113559   6.004   2.612   3.451
 4220SOL    HW213560   6.160   2.602   3.403
 4221SOL     OW13561   5.596   5.510   6.045
 4221SOL    HW113562   5.558   5.431   6.093
 4221SOL    HW213563   5.638   5.572   6.111
 4222SOL     OW13564   4.466   2.069   0.976
 4222SOL    HW113565   4.488   1.986   0.925
 4222SOL    HW213566   4.540   2.090   1.040
 4223SOL     OW13567   3.904   4.006   2.476
 4223SOL    HW113568   3.964   4.086   2.476
 4223SOL    HW213569   3.825   4.023   2.535
 4224SOL     OW13570   4.462   2.459   5.022
 4224SOL    HW113571   4.482   2.459   5.120
 4224SOL    HW213572   4.366   2.439   5.007
 4225SOL     OW13573   5.637   0.261   4.668
 4225SOL    HW113574   5.727   0.297   4.690
 4225SOL    HW213575   5.634   0.163   4.688
 4226SOL     OW13576   1.209   1.186   4.076
 4226SOL    HW113577   1.261   1.264   4.041
 4226SOL    HW213578   1.115   1.215   4.095
 4227SOL     OW13579   5.513   4.082   0.028
 4227SOL    HW113580   5.444   4.015   0.056
 4227SOL    HW213581   5.588   4.081   0.094
 4228SOL     OW13582   5.925   5.440   2.407
 4228SOL    HW113583   6.023   5.450   2.420
 4228SOL    HW213584   5.905   5.425   2.310
 4229SOL     OW13585   5.369   4.665   5.593
 4229SOL    HW113586   5.346   4.622   5.505
 4229SOL    HW213587   5.417   4.599   5.651
 4230SOL     OW13588   3.079   6.734   4.640
 4230SOL    HW113589   3.033   6.683   4.712
 4230SOL    HW213590   3.111   6.822   4.675
 4231SOL     OW13591   4.301   6.750   5.674
 4231SOL    HW113592   4.318   6.839   5.631
 4231SOL    HW213593   4.228   6.703   5.624
 4232SOL     OW13594   2.218   4.508   2.151
 4232SOL    HW113595   2.156   4.444   2.196
 4232SOL    HW213596   2.310   4.497   2.189
 4233SOL     OW13597   6.472   6.694   1.059
 4233SOL    HW113598   6.445   6.631   0.986
 4233SOL    HW213599   6.495   6.642   1.142
 4234SOL     OW13600   2.810   4.381   5.594
 4234SOL    HW113601   2.806   4.440   5.514
 4234SOL    HW213602   2.892   4.324   5.589
 4235SOL     OW13603   6.384   3.866   5.870
 4235SOL    HW113604   6.328   3.947   5.850
 4235SOL    HW213605   6.353   3.789   5.814
 4236SOL     OW13606   1.295   3.357   4.268
 4236SOL    HW113607   1.231   3.344   4.192
 4236SOL    HW213608   1.384   3.385   4.232
 4237SOL     OW13609   5.354   3.375   4.932
 4237SOL    HW113610   5.329   3.283   4.900
 4237SOL    HW213611   5.281   3.409   4.992
 4238SOL     OW13612   4.422   5.261   4.351
 4238SOL    HW113613   4.341   5.274   4.409
 4238SOL    HW213614   4.402   5.189   4.283
 4239SOL     OW13615   4.810   5.465   5.696
 4239SOL    HW113616   4.825   5.367   5.687
 4239SOL    HW213617   4.898   5.512   5.704
 4240SOL     OW13618   2.295   4.698   6.679
 4240SOL    HW113619   2.275   4.640   6.600
 4240SOL    HW213620   2.384   4.743   6.665
 4241SOL     OW13621   3.956   0.616   6.415
 4241SOL    HW113622   4.009   0.643   6.334
 4241SOL    HW213623   3.867   0.660   6.413
 4242SOL     OW13624   1.799   0.587   2.663
 4242SOL    HW113625   1.763   0.637   2.741
 4242SOL    HW213626   1.723   0.559   2.604
 4243SOL     OW13627   1.575   2.772   3.367
 4243SOL    HW113628   1.603   2.851   3.422
 4243SOL    HW213629   1.594   2.790   3.271
 4244SOL     OW13630   3.592   6.548   1.685
 4244SOL    HW113631   3.534   6.595   1.618
 4244SOL    HW213632   3.682   6.593   1.688
 4245SOL     OW13633   6.161   3.727   1.036
 4245SOL    HW113634   6.236   3.780   1.076
 4245SOL    HW213635   6.128   3.774   0.955
 4246SOL     OW13636   4.846   1.596   3.652
 4246SOL    HW113637   4.916   1.607   3.581
 4246SOL    HW213638   4.889   1.600   3.742
 4247SOL     OW13639   1.429   5.325   5.995
 4247SOL    HW113640   1.359   5.266   5.954
 4247SOL    HW213641   1.402   5.421   5.985
 4248SOL     OW13642   1.708   0.738   3.504
 4248SOL    HW113643   1.620   0.785   3.499
 4248SOL    HW213644   1.694   0.644   3.535
 4249SOL     OW13645   6.509   6.706   4.938
 4249SOL    HW113646   6.598   6.716   4.894
 4249SOL    HW213647   6.442   6.677   4.869
 4250SOL     OW13648   6.885   5.433   4.005
 4250SOL    HW113649   6.969   5.455   4.053
 4250SOL    HW213650   6.903   5.427   3.907
 4251SOL     OW13651   6.421   2.183   5.733
 4251SOL    HW113652   6.358   2.222   5.665
 4251SOL    HW213653   6.515   2.195   5.702
 4252SOL     OW13654   0.018   6.693   0.110
 4252SOL    HW113655   0.079   6.616   0.092
 4252SOL    HW213656   0.060   6.754   0.177
 4253SOL     OW13657   4.803   5.559   2.759
 4253SOL    HW113658   4.832   5.650   2.729
 4253SOL    HW213659   4.883   5.498   2.764
 4254SOL     OW13660   1.767   3.209   0.161
 4254SOL    HW113661   1.794   3.140   0.095
 4254SOL    HW213662   1.667   3.215   0.165
 4255SOL     OW13663   1.209   3.333   3.240
 4255SOL    HW113664   1.233   3.397   3.167
 4255SOL    HW213665   1.278   3.338   3.313
 4256SOL     OW13666   0.772   5.915   1.676
 4256SOL    HW113667   0.771   5.941   1.772
 4256SOL    HW213668   0.867   5.901   1.646
 4257SOL     OW13669   6.460   0.240   4.605
 4257SOL    HW113670   6.556   0.267   4.597
 4257SOL    HW213671   6.409   0.315   4.647
 4258SOL     OW13672   3.273   6.291   0.536
 4258SOL    HW113673   3.357   6.344   0.549
 4258SOL    HW213674   3.288   6.222   0.466
 4259SOL     OW13675   1.395   0.305   1.655
 4259SOL    HW113676   1.480   0.252   1.653
 4259SOL    HW213677   1.408   0.390   1.604
 4260SOL     OW13678   5.654   1.283   4.683
 4260SOL    HW113679   5.655   1.238   4.594
 4260SOL    HW213680   5.662   1.382   4.670
 4261SOL     OW13681   2.109   6.407   4.111
 4261SOL    HW113682   2.043   6.405   4.187
 4261SOL    HW213683   2.193   6.361   4.139
 4262SOL     OW13684   2.100   4.203   6.617
 4262SOL    HW113685   2.150   4.148   6.683
 4262SOL    HW213686   2.025   4.149   6.578
 4263SOL     OW13687   2.293   1.693   4.269
 4263SOL    HW113688   2.223   1.681   4.339
 4263SOL    HW213689   2.337   1.781   4.281
 4264SOL     OW13690   4.989   1.542   5.133
 4264SOL    HW113691   5.052   1.554   5.210
 4264SOL    HW213692   4.926   1.620   5.130
 4265SOL     OW13693   3.143   0.229   6.867
 4265SOL    HW113694   3.103   0.156   6.812
 4265SOL    HW213695   3.202   0.285   6.810
 4266SOL     OW13696   0.940   5.269   1.204
 4266SOL    HW113697   1.016   5.332   1.191
 4266SOL    HW213698   0.854   5.319   1.195
 4267SOL     OW13699   1.723   4.631   4.782
 4267SOL    HW113700   1.708   4.718   4.735
 4267SOL    HW213701   1.819   4.626   4.813
 4268SOL     OW13702   1.222   4.062   0.390
 4268SOL    HW113703   1.260   3.970   0.399
 4268SOL    HW213704   1.203   4.099   0.481
 4269SOL     OW13705   2.784   1.347   5.131
 4269SOL    HW113706   2.851   1.310   5.067
 4269SOL    HW213707   2.808   1.320   5.224
 4270SOL     OW13708   3.964   2.895   0.955
 4270SOL    HW113709   4.056   2.859   0.939
 4270SOL    HW213710   3.901   2.820   0.974
 4271SOL     OW13711   0.051   0.957   1.531
 4271SOL    HW113712   6.989   0.899   1.510
 4271SOL    HW213713   0.026   1.023   1.602
 4272SOL     OW13714   0.055   1.110   6.748
 4272SOL    HW113715   0.024   1.016   6.738
 4272SOL    HW213716   7.015   1.156   6.817
 4273SOL     OW13717   3.104   5.960   4.618
 4273SOL    HW113718   3.037   6.022   4.659
 4273SOL    HW213719   3.133   5.997   4.530
 4274SOL     OW13720   6.682   1.630   2.005
 4274SOL    HW113721   6.682   1.540   1.960
 4274SOL    HW213722   6.589   1.667   2.004
 4275SOL     OW13723   6.798   3.122   3.510
 4275SOL    HW113724   6.705   3.097   3.534
 4275SOL    HW213725   6.805   3.222   3.503
 4276SOL     OW13726   2.219   5.802   3.460
 4276SOL    HW113727   2.270   5.816   3.545
 4276SOL    HW213728   2.248   5.716   3.417
 4277SOL     OW13729   5.768   5.941   2.623
 4277SOL    HW113730   5.741   5.847   2.604
 4277SOL    HW213731   5.735   5.967   2.714
 4278SOL     OW13732   1.438   6.774   1.995
 4278SOL    HW113733   1.432   6.692   2.052
 4278SOL    HW213734   1.519   6.767   1.936
 4279SOL     OW13735   1.078   1.333   3.348
 4279SOL    HW113736   1.162   1.386   3.357
 4279SOL    HW213737   1.099   1.235   3.354
 4280SOL     OW13738   0.974   7.002   6.463
 4280SOL    HW113739   1.026   6.930   6.418
 4280SOL    HW213740   0.879   6.973   6.476
 4281SOL     OW13741   5.321   5.697   3.091
 4281SOL    HW113742   5.325   5.604   3.054
 4281SOL    HW213743   5.226   5.724   3.104
 4282SOL     OW13744   3.574   4.144   0.929
 4282SOL    HW113745   3.478   4.115   0.936
 4282SOL    HW213746   3.631   4.065   0.908
 4283SOL     OW13747   5.081   1.068   4.729
 4283SOL    HW113748   5.145   1.133   4.770
 4283SOL    HW213749   5.051   1.103   4.640
 4284SOL     OW13750   4.580   5.770   6.209
 4284SOL    HW113751   4.486   5.770   6.245
 4284SOL    HW213752   4.580   5.804   6.116
 4285SOL     OW13753   3.705   0.743   5.517
 4285SOL    HW113754   3.705   0.750   5.616
 4285SOL    HW213755   3.645   0.812   5.478
 4286SOL     OW13756   5.850   0.485   6.656
 4286SOL    HW113757   5.776   0.436   6.610
 4286SOL    HW213758   5.916   0.515   6.587
 4287SOL     OW13759   4.288   0.228   0.550
 4287SOL    HW113760   4.196   0.262   0.535
 4287SOL    HW213761   4.285   0.130   0.569
 4288SOL     OW13762   6.752   6.543   2.726
 4288SOL    HW113763   6.848   6.516   2.721
 4288SOL    HW213764   6.696   6.477   2.676
 4289SOL     OW13765   0.484   3.979   4.133
 4289SOL    HW113766   0.427   3.989   4.051
 4289SOL    HW213767   0.545   3.901   4.122
 4290SOL     OW13768   0.705   0.939   3.489
 4290SOL    HW113769   0.678   0.876   3.562
 4290SOL    HW213770   0.779   0.998   3.522
 4291SOL     OW13771   4.968   3.509   6.434
 4291SOL    HW113772   5.067   3.523   6.433
 4291SOL    HW213773   4.928   3.547   6.351
 4292SOL     OW13774   6.531   2.517   1.513
 4292SOL    HW113775   6.590   2.579   1.462
 4292SOL    HW213776   6.523   2.431   1.463
 4293SOL     OW13777   4.038   3.987   0.126
 4293SOL    HW113778   4.063   4.050   0.053
 4293SOL    HW213779   4.003   4.038   0.204
 4294SOL     OW13780   1.743   2.068   6.443
 4294SOL    HW113781   1.675   2.109   6.382
 4294SOL    HW213782   1.828   2.121   6.438
 4295SOL     OW13783   4.061   6.038   3.100
 4295SOL    HW113784   4.105   6.121   3.066
 4295SOL    HW213785   4.109   6.007   3.183
 4296SOL     OW13786   2.813   6.350   2.954
 4296SOL    HW113787   2.874   6.277   2.922
 4296SOL    HW213788   2.868   6.425   2.992
 4297SOL     OW13789   5.671   5.170   0.500
 4297SOL    HW113790   5.575   5.177   0.525
 4297SOL    HW213791   5.696   5.247   0.440
 4298SOL     OW13792   1.933   6.593   0.913
 4298SOL    HW113793   1.965   6.656   0.842
 4298SOL    HW213794   2.009   6.569   0.973
 4299SOL     OW13795   0.573   2.931   6.921
 4299SOL    HW113796   0.626   3.015   6.908
 4299SOL    HW213797   0.626   2.867   6.977
 4300SOL     OW13798   2.649   0.870   1.024
 4300SOL    HW113799   2.680   0.953   1.070
 4300SOL    HW213800   2.642   0.795   1.091
 4301SOL     OW13801   2.620   6.418   0.810
 4301SOL    HW113802   2.547   6.423   0.877
 4301SOL    HW213803   2.586   6.446   0.720
 4302SOL     OW13804   2.282   5.831   6.115
 4302SOL    HW113805   2.275   5.913   6.060
 4302SOL    HW213806   2.319   5.756   6.060
 4303SOL     OW13807   5.839   5.307   2.833
 4303SOL    HW113808   5.841   5.285   2.736
 4303SOL    HW213809   5.916   5.263   2.879
 4304SOL     OW13810   3.829   3.734   1.389
 4304SOL    HW113811   3.824   3.818   1.335
 4304SOL    HW213812   3.918   3.727   1.432
 4305SOL     OW13813   1.437   6.548   5.439
 4305SOL    HW113814   1.397   6.515   5.525
 4305SOL    HW213815   1.372   6.533   5.365
 4306SOL     OW13816   5.982   3.908   5.081
 4306SOL    HW113817   5.938   3.996   5.102
 4306SOL    HW213818   5.947   3.838   5.143
 4307SOL     OW13819   0.373   1.573   5.994
 4307SOL    HW113820   0.434   1.596   6.070
 4307SOL    HW213821   0.427   1.563   5.910
 4308SOL     OW13822   4.896   5.973   0.019
 4308SOL    HW113823   4.809   5.925   0.014
 4308SOL    HW213824   4.971   5.907   0.014
 4309SOL     OW13825   1.130   2.011   0.807
 4309SOL    HW113826   1.043   2.048   0.839
 4309SOL    HW213827   1.139   2.025   0.709
 4310SOL     OW13828   6.995   1.809   2.939
 4310SOL    HW113829   0.050   1.784   2.874
 4310SOL    HW213830   0.015   1.806   3.032
 4311SOL     OW13831   0.401   0.444   1.877
 4311SOL    HW113832   0.469   0.516   1.889
 4311SOL    HW213833   0.395   0.418   1.781
 4312SOL     OW13834   0.253   4.543   2.517
 4312SOL    HW113835   0.211   4.621   2.471
 4312SOL    HW213836   0.353   4.551   2.511
 4313SOL     OW13837   6.868   2.738   6.778
 4313SOL    HW113838   6.792   2.790   6.818
 4313SOL    HW213839   6.834   2.650   6.746
 4314SOL     OW13840   0.252   1.421   5.645
 4314SOL    HW113841   0.213   1.335   5.680
 4314SOL    HW213842   0.351   1.421   5.662
 4315SOL     OW13843   2.828   1.218   4.697
 4315SOL    HW113844   2.797   1.178   4.611
 4315SOL    HW213845   2.900   1.161   4.737
 4316SOL     OW13846   5.144   6.483   1.663
 4316SOL    HW113847   5.145   6.429   1.579
 4316SOL    HW213848   5.115   6.576   1.643
 4317SOL     OW13849   4.725   0.892   5.747
 4317SOL    HW113850   4.756   0.913   5.839
 4317SOL    HW213851   4.762   0.803   5.719
 4318SOL     OW13852   0.844   0.240   4.441
 4318SOL    HW113853   0.789   0.301   4.497
 4318SOL    HW213854   0.938   0.275   4.435
 4319SOL     OW13855   1.636   5.059   2.836
 4319SOL    HW113856   1.731   5.055   2.867
 4319SOL    HW213857   1.633   5.091   2.741
 4320SOL     OW13858   2.885   6.780   1.067
 4320SOL    HW113859   2.787   6.793   1.081
 4320SOL    HW213860   2.928   6.755   1.154
 4321SOL     OW13861   6.210   6.618   2.873
 4321SOL    HW113862   6.126   6.621   2.819
 4321SOL    HW213863   6.190   6.580   2.963
 4322SOL     OW13864   1.269   3.278   4.998
 4322SOL    HW113865   1.271   3.370   5.038
 4322SOL    HW213866   1.174   3.253   4.978
 4323SOL     OW13867   3.677   5.051   7.013
 4323SOL    HW113868   3.703   5.067   6.918
 4323SOL    HW213869   3.711   4.961   0.026
 4324SOL     OW13870   0.271   4.477   5.694
 4324SOL    HW113871   0.366   4.507   5.700
 4324SOL    HW213872   0.268   4.377   5.687
 4325SOL     OW13873   2.228   0.818   2.611
 4325SOL    HW113874   2.262   0.724   2.610
 4325SOL    HW213875   2.154   0.826   2.678
 4326SOL     OW13876   5.241   2.428   2.725
 4326SOL    HW113877   5.160   2.486   2.733
 4326SOL    HW213878   5.220   2.335   2.756
 4327SOL     OW13879   2.947   6.384   3.517
 4327SOL    HW113880   2.975   6.378   3.422
 4327SOL    HW213881   2.872   6.450   3.525
 4328SOL     OW13882   6.118   7.013   4.479
 4328SOL    HW113883   6.090   6.929   4.432
 4328SOL    HW213884   6.149   6.990   4.571
 4329SOL     OW13885   0.184   1.621   6.174
 4329SOL    HW113886   0.160   1.717   6.190
 4329SOL    HW213887   0.260   1.616   6.108
 4330SOL     OW13888   2.917   4.846   4.843
 4330SOL    HW113889   2.985   4.908   4.883
 4330SOL    HW213890   2.896   4.773   4.908
 4331SOL     OW13891   5.908   1.359   2.015
 4331SOL    HW113892   5.956   1.274   2.034
 4331SOL    HW213893   5.891   1.368   1.917
 4332SOL     OW13894   0.406   5.129   2.506
 4332SOL    HW113895   0.379   5.131   2.410
 4332SOL    HW213896   0.388   5.038   2.544
 4333SOL     OW13897   3.741   2.515   5.850
 4333SOL    HW113898   3.649   2.508   5.811
 4333SOL    HW213899   3.736   2.511   5.950
 4334SOL     OW13900   0.258   3.107   4.339
 4334SOL    HW113901   0.346   3.141   4.372
 4334SOL    HW213902   0.188   3.122   4.410
 4335SOL     OW13903   2.557   3.679   1.537
 4335SOL    HW113904   2.470   3.668   1.585
 4335SOL    HW213905   2.622   3.726   1.596
 4336SOL     OW13906   2.655   5.274   5.766
 4336SOL    HW113907   2.560   5.282   5.795
 4336SOL    HW213908   2.713   5.259   5.847
 4337SOL     OW13909   1.420   4.958   3.931
 4337SOL    HW113910   1.354   4.993   3.865
 4337SOL    HW213911   1.381   4.878   3.977
 4338SOL     OW13912   3.689   1.313   5.579
 4338SOL    HW113913   3.726   1.223   5.603
 4338SOL    HW213914   3.589   1.309   5.579
 4339SOL     OW13915   4.003   3.749   6.415
 4339SOL    HW113916   3.922   3.690   6.412
 4339SOL    HW213917   4.008   3.804   6.331
 4340SOL     OW13918   6.492   4.182   0.854
 4340SOL    HW113919   6.535   4.122   0.786
 4340SOL    HW213920   6.439   4.127   0.918
 4341SOL     OW13921   6.943   0.154   2.523
 4341SOL    HW113922   7.005   0.221   2.482
 4341SOL    HW213923   6.977   0.062   2.508
 4342SOL     OW13924   5.017   3.637   2.738
 4342SOL    HW113925   5.104   3.681   2.759
 4342SOL    HW213926   5.003   3.636   2.639
 4343SOL     OW13927   3.934   6.908   5.826
 4343SOL    HW113928   3.845   6.920   5.870
 4343SOL    HW213929   3.962   6.812   5.833
 4344SOL     OW13930   0.045   3.422   3.776
 4344SOL    HW113931   0.139   3.409   3.807
 4344SOL    HW213932   0.004   3.332   3.758
 4345SOL     OW13933   3.030   3.100   2.475
 4345SOL    HW113934   3.037   3.065   2.381
 4345SOL    HW213935   2.989   3.192   2.472
 4346SOL     OW13936   0.908   3.365   2.413
 4346SOL    HW113937   0.943   3.321   2.496
 4346SOL    HW213938   0.890   3.296   2.343
 4347SOL     OW13939   6.248   6.149   0.491
 4347SOL    HW113940   6.190   6.071   0.518
 4347SOL    HW213941   6.275   6.138   0.395
 4348SOL     OW13942   5.900   5.409   3.901
 4348SOL    HW113943   5.802   5.402   3.916
 4348SOL    HW213944   5.920   5.409   3.803
 4349SOL     OW13945   6.887   3.898   4.106
 4349SOL    HW113946   6.872   3.800   4.122
 4349SOL    HW213947   6.862   3.950   4.188
 4350SOL     OW13948   4.235   1.381   4.908
 4350SOL    HW113949   4.326   1.423   4.905
 4350SOL    HW213950   4.177   1.421   4.837
 4351SOL     OW13951   1.349   6.545   0.338
 4351SOL    HW113952   1.308   6.520   0.426
 4351SOL    HW213953   1.343   6.467   0.275
 4352SOL     OW13954   3.736   3.914   0.862
 4352SOL    HW113955   3.680   3.880   0.786
 4352SOL    HW213956   3.816   3.961   0.825
 4353SOL     OW13957   3.011   2.887   1.401
 4353SOL    HW113958   2.993   2.793   1.429
 4353SOL    HW213959   2.961   2.949   1.462
 4354SOL     OW13960   5.819   0.274   3.505
 4354SOL    HW113961   5.769   0.188   3.508
 4354SOL    HW213962   5.910   0.261   3.544
 4355SOL     OW13963   1.651   6.038   2.613
 4355SOL    HW113964   1.641   5.961   2.676
 4355SOL    HW213965   1.571   6.097   2.619
 4356SOL     OW13966   5.353   2.495   6.039
 4356SOL    HW113967   5.412   2.558   5.988
 4356SOL    HW213968   5.258   2.524   6.030
 4357SOL     OW13969   5.740   0.677   2.438
 4357SOL    HW113970   5.649   0.686   2.396
 4357SOL    HW213971   5.784   0.595   2.402
 4358SOL     OW13972   2.309   0.115   6.855
 4358SOL    HW113973   2.209   0.120   6.856
 4358SOL    HW213974   2.345   0.185   6.793
 4359SOL     OW13975   2.509   2.090   6.969
 4359SOL    HW113976   2.536   2.107   6.875
 4359SOL    HW213977   2.530   2.170   0.008
 4360SOL     OW13978   1.738   3.795   3.740
 4360SOL    HW113979   1.723   3.880   3.691
 4360SOL    HW213980   1.653   3.744   3.746
 4361SOL     OW13981   6.410   2.111   0.734
 4361SOL    HW113982   6.480   2.182   0.744
 4361SOL    HW213983   6.384   2.077   0.824
 4362SOL     OW13984   1.158   5.583   3.199
 4362SOL    HW113985   1.110   5.653   3.146
 4362SOL    HW213986   1.224   5.627   3.261
 4363SOL     OW13987   4.562   1.285   2.878
 4363SOL    HW113988   4.610   1.297   2.964
 4363SOL    HW213989   4.609   1.217   2.822
 4364SOL     OW13990   4.149   3.523   2.455
 4364SOL    HW113991   4.159   3.473   2.541
 4364SOL    HW213992   4.205   3.479   2.385
 4365SOL     OW13993   2.467   2.139   1.579
 4365SOL    HW113994   2.538   2.127   1.649
 4365SOL    HW213995   2.400   2.066   1.587
 4366SOL     OW13996   4.553   5.925   4.626
 4366SOL    HW113997   4.605   5.908   4.542
 4366SOL    HW213998   4.519   5.838   4.662
 4367SOL     OW13999   2.775   5.488   3.184
 4367SOL    HW114000   2.726   5.405   3.211
 4367SOL    HW214001   2.873   5.476   3.199
 4368SOL     OW14002   4.723   4.144   3.330
 4368SOL    HW114003   4.691   4.217   3.390
 4368SOL    HW214004   4.664   4.139   3.249
 4369SOL     OW14005   4.501   4.530   3.323
 4369SOL    HW114006   4.516   4.455   3.387
 4369SOL    HW214007   4.576   4.596   3.330
 4370SOL     OW14008   3.840   4.527   1.658
 4370SOL    HW114009   3.771   4.520   1.587
 4370SOL    HW214010   3.804   4.582   1.734
 4371SOL     OW14011   2.863   2.025   0.672
 4371SOL    HW114012   2.833   1.947   0.616
 4371SOL    HW214013   2.825   2.017   0.764
 4372SOL     OW14014   1.865   3.249   4.496
 4372SOL    HW114015   1.959   3.257   4.528
 4372SOL    HW214016   1.820   3.338   4.502
 4373SOL     OW14017   4.066   1.302   5.901
 4373SOL    HW114018   4.014   1.248   5.835
 4373SOL    HW214019   4.075   1.251   5.986
 4374SOL     OW14020   2.055   0.798   1.661
 4374SOL    HW114021   2.002   0.735   1.718
 4374SOL    HW214022   2.122   0.746   1.608
 4375SOL     OW14023   4.533   1.364   4.123
 4375SOL    HW114024   4.506   1.315   4.206
 4375SOL    HW214025   4.546   1.299   4.049
 4376SOL     OW14026   1.861   6.068   6.894
 4376SOL    HW114027   1.867   6.119   6.979
 4376SOL    HW214028   1.814   6.123   6.825
 4377SOL     OW14029   6.049   0.112   6.558
 4377SOL    HW114030   5.989   0.032   6.555
 4377SOL    HW214031   6.068   0.142   6.464
 4378SOL     OW14032   2.714   5.636   2.486
 4378SOL    HW114033   2.617   5.661   2.488
 4378SOL    HW214034   2.750   5.635   2.579
 4379SOL     OW14035   1.249   0.766   1.843
 4379SOL    HW114036   1.150   0.766   1.857
 4379SOL    HW214037   1.293   0.712   1.915
 4380SOL     OW14038   2.142   5.392   4.726
 4380SOL    HW114039   2.140   5.474   4.670
 4380SOL    HW214040   2.069   5.330   4.697
 4381SOL     OW14041   4.117   6.137   5.771
 4381SOL    HW114042   4.130   6.093   5.682
 4381SOL    HW214043   4.138   6.235   5.764
 4382SOL     OW14044   4.806   3.749   3.345
 4382SOL    HW114045   4.860   3.826   3.380
 4382SOL    HW214046   4.725   3.736   3.403
 4383SOL     OW14047   1.063   2.695   6.879
 4383SOL    HW114048   1.149   2.718   6.926
 4383SOL    HW214049   1.081   2.623   6.811
 4384SOL     OW14050   3.758   5.986   1.355
 4384SOL    HW114051   3.778   6.071   1.307
 4384SOL    HW214052   3.715   6.007   1.443
 4385SOL     OW14053   6.869   1.660   2.688
 4385SOL    HW114054   6.921   1.744   2.700
 4385SOL    HW214055   6.863   1.611   2.775
 4386SOL     OW14056   1.037   3.475   0.063
 4386SOL    HW114057   0.969   3.518   0.123
 4386SOL    HW214058   1.127   3.517   0.079
 4387SOL     OW14059   6.853   3.375   1.830
 4387SOL    HW114060   6.853   3.469   1.864
 4387SOL    HW214061   6.793   3.369   1.750
 4388SOL     OW14062   3.406   1.487   5.225
 4388SOL    HW114063   3.467   1.474   5.303
 4388SOL    HW214064   3.327   1.542   5.252
 4389SOL     OW14065   4.699   2.597   2.753
 4389SOL    HW114066   4.686   2.500   2.735
 4389SOL    HW214067   4.690   2.649   2.668
 4390SOL     OW14068   4.537   2.538   2.126
 4390SOL    HW114069   4.590   2.621   2.139
 4390SOL    HW214070   4.442   2.554   2.153
 4391SOL     OW14071   0.738   5.950   0.864
 4391SOL    HW114072   0.785   5.997   0.788
 4391SOL    HW214073   0.682   5.876   0.828
 4392SOL     OW14074   5.581   3.447   4.262
 4392SOL    HW114075   5.650   3.496   4.314
 4392SOL    HW214076   5.514   3.407   4.324
 4393SOL     OW14077   4.533   6.573   3.299
 4393SOL    HW114078   4.576   6.662   3.279
 4393SOL    HW214079   4.435   6.585   3.311
 4394SOL     OW14080   4.918   0.766   2.264
 4394SOL    HW114081   5.014   0.782   2.285
 4394SOL    HW214082   4.892   0.820   2.184
 4395SOL     OW14083   5.070   1.823   2.041
 4395SOL    HW114084   4.972   1.815   2.056
 4395SOL    HW214085   5.115   1.736   2.063
 4396SOL     OW14086   1.566   0.628   3.927
 4396SOL    HW114087   1.605   0.540   3.899
 4396SOL    HW214088   1.507   0.615   4.007
 4397SOL     OW14089   6.746   0.421   5.930
 4397SOL    HW114090   6.695   0.451   6.011
 4397SOL    HW214091   6.743   0.494   5.861
 4398SOL     OW14092   6.546   4.807   4.607
 4398SOL    HW114093   6.570   4.718   4.647
 4398SOL    HW214094   6.447   4.813   4.598
 4399SOL     OW14095   2.187   1.653   1.593
 4399SOL    HW114096   2.223   1.579   1.537
 4399SOL    HW214097   2.260   1.717   1.617
 4400SOL     OW14098   3.426   6.230   4.861
 4400SOL    HW114099   3.332   6.215   4.829
 4400SOL    HW214100   3.461   6.146   4.903
 4401SOL     OW14101   5.357   6.303   4.842
 4401SOL    HW114102   5.442   6.350   4.866
 4401SOL    HW214103   5.306   6.283   4.926
 4402SOL     OW14104   6.924   0.048   3.126
 4402SOL    HW114105   6.874   0.077   3.208
 4402SOL    HW214106   6.869   0.068   3.045
 4403SOL     OW14107   0.749   0.087   2.753
 4403SOL    HW114108   0.651   0.071   2.763
 4403SOL    HW214109   0.765   0.147   2.675
 4404SOL     OW14110   1.603   4.084   3.356
 4404SOL    HW114111   1.511   4.054   3.381
 4404SOL    HW214112   1.597   4.166   3.299
 4405SOL     OW14113   3.538   4.267   5.762
 4405SOL    HW114114   3.570   4.173   5.759
 4405SOL    HW214115   3.479   4.279   5.842
 4406SOL     OW14116   5.300   3.880   1.250
 4406SOL    HW114117   5.228   3.937   1.290
 4406SOL    HW214118   5.326   3.809   1.315
 4407SOL     OW14119   6.548   6.759   0.022
 4407SOL    HW114120   6.558   6.661   0.040
 4407SOL    HW214121   6.583   6.780   6.947
 4408SOL     OW14122   4.836   5.777   6.833
 4408SOL    HW114123   4.826   5.677   6.826
 4408SOL    HW214124   4.911   5.807   6.774
 4409SOL     OW14125   3.437   1.611   2.089
 4409SOL    HW114126   3.353   1.658   2.115
 4409SOL    HW214127   3.432   1.516   2.119
 4410SOL     OW14128   2.571   5.576   1.621
 4410SOL    HW114129   2.550   5.674   1.626
 4410SOL    HW214130   2.643   5.562   1.552
 4411SOL     OW14131   3.624   3.136   2.442
 4411SOL    HW114132   3.586   3.092   2.361
 4411SOL    HW214133   3.665   3.067   2.502
 4412SOL     OW14134   3.786   2.262   6.560
 4412SOL    HW114135   3.844   2.185   6.586
 4412SOL    HW214136   3.816   2.344   6.609
 4413SOL     OW14137   3.893   5.845   4.529
 4413SOL    HW114138   3.856   5.917   4.588
 4413SOL    HW214139   3.978   5.811   4.568
 4414SOL     OW14140   3.562   5.001   1.864
 4414SOL    HW114141   3.656   5.036   1.855
 4414SOL    HW214142   3.564   4.910   1.906
 4415SOL     OW14143   5.248   2.504   0.094
 4415SOL    HW114144   5.222   2.418   0.052
 4415SOL    HW214145   5.315   2.551   0.036
 4416SOL     OW14146   3.793   0.706   3.477
 4416SOL    HW114147   3.835   0.616   3.487
 4416SOL    HW214148   3.849   0.774   3.525
 4417SOL     OW14149   0.141   0.162   1.672
 4417SOL    HW114150   0.155   0.142   1.769
 4417SOL    HW214151   0.225   0.198   1.633
 4418SOL     OW14152   4.009   6.795   3.322
 4418SOL    HW114153   4.038   6.763   3.232
 4418SOL    HW214154   4.090   6.815   3.377
 4419SOL     OW14155   0.338   5.118   6.288
 4419SOL    HW114156   0.433   5.134   6.316
 4419SOL    HW214157   0.277   5.168   6.350
 4420SOL     OW14158   5.384   1.528   6.739
 4420SOL    HW114159   5.339   1.444   6.707
 4420SOL    HW214160   5.358   1.604   6.679
 4421SOL     OW14161   1.947   1.875   3.706
 4421SOL    HW114162   2.032   1.846   3.749
 4421SOL    HW214163   1.893   1.795   3.680
 4422SOL     OW14164   2.804   3.591   6.075
 4422SOL    HW114165   2.707   3.613   6.092
 4422SOL    HW214166   2.835   3.525   6.143
 4423SOL     OW14167   0.863   2.172   6.552
 4423SOL    HW114168   0.827   2.199   6.463
 4423SOL    HW214169   0.963   2.168   6.548
 4424SOL     OW14170   0.145   6.926   3.136
 4424SOL    HW114171   0.118   6.831   3.154
 4424SOL    HW214172   0.068   6.987   3.160
 4425SOL     OW14173   4.567   4.223   6.665
 4425SOL    HW114174   4.500   4.203   6.737
 4425SOL    HW214175   4.537   4.302   6.613
 4426SOL     OW14176   1.073   0.369   5.599
 4426SOL    HW114177   1.069   0.367   5.499
 4426SOL    HW214178   1.167   0.390   5.628
 4427SOL     OW14179   0.973   6.735   3.744
 4427SOL    HW114180   1.032   6.799   3.694
 4427SOL    HW214181   0.916   6.685   3.679
 4428SOL     OW14182   2.709   5.756   3.117
 4428SOL    HW114183   2.732   5.663   3.148
 4428SOL    HW214184   2.619   5.782   3.152
 4429SOL     OW14185   4.242   0.065   3.007
 4429SOL    HW114186   4.286   6.992   3.000
 4429SOL    HW214187   4.147   0.057   2.976
 4430SOL     OW14188   1.569   1.231   1.526
 4430SOL    HW114189   1.588   1.310   1.467
 4430SOL    HW214190   1.582   1.147   1.474
 4431SOL     OW14191   1.910   2.092   2.973
 4431SOL    HW114192   1.980   2.117   3.040
 4431SOL    HW214193   1.894   1.993   2.977
 4432SOL     OW14194   2.923   3.711   2.775
 4432SOL    HW114195   2.922   3.745   2.869
 4432SOL    HW214196   2.889   3.617   2.774
 4433SOL     OW14197   6.342   0.280   3.065
 4433SOL    HW114198   6.328   0.222   2.985
 4433SOL    HW214199   6.346   0.223   3.147
 4434SOL     OW14200   5.555   2.039   4.488
 4434SOL    HW114201   5.609   2.115   4.523
 4434SOL    HW214202   5.513   1.989   4.564
 4435SOL     OW14203   3.706   2.640   1.752
 4435SOL    HW114204   3.685   2.734   1.779
 4435SOL    HW214205   3.673   2.578   1.823
 4436SOL     OW14206   4.980   1.106   6.957
 4436SOL    HW114207   5.080   1.107   6.959
 4436SOL    HW214208   4.946   1.200   6.966
 4437SOL     OW14209   3.305   0.095   4.576
 4437SOL    HW114210   3.401   0.071   4.567
 4437SOL    HW214211   3.295   0.164   4.648
 4438SOL     OW14212   4.237   3.328   6.172
 4438SOL    HW114213   4.304   3.297   6.105
 4438SOL    HW214214   4.194   3.249   6.215
 4439SOL     OW14215   2.533   5.586   1.968
 4439SOL    HW114216   2.508   5.592   1.871
 4439SOL    HW214217   2.468   5.639   2.023
 4440SOL     OW14218   0.121   0.734   6.205
 4440SOL    HW114219   0.207   0.778   6.180
 4440SOL    HW214220   0.138   0.665   6.275
 4441SOL     OW14221   6.224   2.603   2.918
 4441SOL    HW114222   6.217   2.515   2.964
 4441SOL    HW214223   6.154   2.609   2.847
 4442SOL     OW14224   3.050   6.722   2.699
 4442SOL    HW114225   2.961   6.759   2.673
 4442SOL    HW214226   3.062   6.730   2.798
 4443SOL     OW14227   2.620   1.869   5.215
 4443SOL    HW114228   2.661   1.953   5.180
 4443SOL    HW214229   2.521   1.879   5.219
 4444SOL     OW14230   5.262   0.557   2.151
 4444SOL    HW114231   5.216   0.563   2.240
 4444SOL    HW214232   5.194   0.541   2.079
 4445SOL     OW14233   1.607   0.968   6.130
 4445SOL    HW114234   1.685   0.906   6.122
 4445SOL    HW214235   1.627   1.037   6.200
 4446SOL     OW14236   6.702   6.146   3.601
 4446SOL    HW114237   6.786   6.103   3.568
 4446SOL    HW214238   6.699   6.241   3.567
 4447SOL     OW14239   5.244   2.927   5.478
 4447SOL    HW114240   5.287   2.896   5.563
 4447SOL    HW214241   5.167   2.867   5.456
 4448SOL     OW14242   2.667   2.901   6.405
 4448SOL    HW114243   2.707   2.978   6.454
 4448SOL    HW214244   2.625   2.934   6.320
 4449SOL     OW14245   0.964   1.366   5.083
 4449SOL    HW114246   0.986   1.460   5.058
 4449SOL    HW214247   0.866   1.359   5.100
 4450SOL     OW14248   3.816   4.074   3.602
 4450SOL    HW114249   3.730   4.059   3.554
 4450SOL    HW214250   3.892   4.068   3.538
 4451SOL     OW14251   6.188   4.224   1.899
 4451SOL    HW114252   6.253   4.273   1.842
 4451SOL    HW214253   6.115   4.285   1.928
 4452SOL     OW14254   6.315   6.001   6.263
 4452SOL    HW114255   6.300   6.100   6.272
 4452SOL    HW214256   6.230   5.952   6.283
 4453SOL     OW14257   5.650   2.038   1.382
 4453SOL    HW114258   5.747   2.051   1.405
 4453SOL    HW214259   5.596   2.112   1.423
 4454SOL     OW14260   5.025   3.187   1.640
 4454SOL    HW114261   4.991   3.167   1.732
 4454SOL    HW214262   5.002   3.113   1.578
 4455SOL     OW14263   4.327   1.298   1.948
 4455SOL    HW114264   4.361   1.209   1.978
 4455SOL    HW214265   4.237   1.287   1.905
 4456SOL     OW14266   0.738   6.049   3.216
 4456SOL    HW114267   0.815   5.990   3.193
 4456SOL    HW214268   0.756   6.095   3.304
 4457SOL     OW14269   5.323   2.046   6.481
 4457SOL    HW114270   5.251   2.111   6.458
 4457SOL    HW214271   5.290   1.982   6.550
 4458SOL     OW14272   3.938   2.008   5.913
 4458SOL    HW114273   3.869   2.066   5.954
 4458SOL    HW214274   3.893   1.938   5.856
 4459SOL     OW14275   4.798   5.802   4.876
 4459SOL    HW114276   4.890   5.793   4.839
 4459SOL    HW214277   4.772   5.898   4.880
 4460SOL     OW14278   1.839   1.596   6.249
 4460SOL    HW114279   1.910   1.590   6.179
 4460SOL    HW214280   1.880   1.628   6.335
 4461SOL     OW14281   2.516   0.198   1.910
 4461SOL    HW114282   2.464   0.264   1.856
 4461SOL    HW214283   2.595   0.244   1.952
 4462SOL     OW14284   6.791   5.524   1.774
 4462SOL    HW114285   6.779   5.530   1.675
 4462SOL    HW214286   6.701   5.518   1.818
 4463SOL     OW14287   1.201   3.677   6.056
 4463SOL    HW114288   1.147   3.685   5.973
 4463SOL    HW214289   1.146   3.633   6.127
 4464SOL     OW14290   5.952   3.386   6.692
 4464SOL    HW114291   5.888   3.320   6.653
 4464SOL    HW214292   5.902   3.462   6.733
 4465SOL     OW14293   1.279   6.235   2.156
 4465SOL    HW114294   1.233   6.319   2.184
 4465SOL    HW214295   1.369   6.231   2.200
 4466SOL     OW14296   0.771   2.144   3.753
 4466SOL    HW114297   0.694   2.080   3.759
 4466SOL    HW214298   0.751   2.214   3.684
 4467SOL     OW14299   0.986   6.717   3.106
 4467SOL    HW114300   1.010   6.744   3.199
 4467SOL    HW214301   0.897   6.755   3.082
 4468SOL     OW14302   1.405   2.347   0.401
 4468SOL    HW114303   1.464   2.428   0.408
 4468SOL    HW214304   1.364   2.328   0.490
 4469SOL     OW14305   4.286   0.392   0.168
 4469SOL    HW114306   4.208   0.378   0.108
 4469SOL    HW214307   4.260   0.451   0.244
 4470SOL     OW14308   4.407   4.542   1.427
 4470SOL    HW114309   4.359   4.498   1.502
 4470SOL    HW214310   4.458   4.621   1.462
 4471SOL     OW14311   6.546   3.387   0.849
 4471SOL    HW114312   6.533   3.404   0.751
 4471SOL    HW214313   6.509   3.298   0.872
 4472SOL     OW14314   1.934   4.546   2.097
 4472SOL    HW114315   1.914   4.453   2.129
 4472SOL    HW214316   2.033   4.562   2.102
 4473SOL     OW14317   0.347   6.744   5.244
 4473SOL    HW114318   0.281   6.819   5.238
 4473SOL    HW214319   0.381   6.721   5.153
 4474SOL     OW14320   4.750   0.590   3.817
 4474SOL    HW114321   4.828   0.642   3.783
 4474SOL    HW214322   4.671   0.604   3.757
 4475SOL     OW14323   1.874   4.000   0.419
 4475SOL    HW114324   1.861   3.973   0.324
 4475SOL    HW214325   1.793   4.049   0.452
 4476SOL     OW14326   4.591   6.409   1.903
 4476SOL    HW114327   4.546   6.458   1.829
 4476SOL    HW214328   4.680   6.374   1.872
 4477SOL     OW14329   1.217   1.775   0.746
 4477SOL    HW114330   1.185   1.859   0.790
 4477SOL    HW214331   1.161   1.756   0.666
 4478SOL     OW14332   1.924   5.899   1.713
 4478SOL    HW114333   2.000   5.834   1.726
 4478SOL    HW214334   1.899   5.938   1.802
 4479SOL     OW14335   0.635   0.013   5.157
 4479SOL    HW114336   0.599   6.999   5.068
 4479SOL    HW214337   0.567   0.069   5.203
 4480SOL     OW14338   0.750   4.566   3.509
 4480SOL    HW114339   0.679   4.542   3.443
 4480SOL    HW214340   0.840   4.543   3.472
 4481SOL     OW14341   1.073   6.871   4.540
 4481SOL    HW114342   1.061   6.905   4.447
 4481SOL    HW214343   1.131   6.934   4.591
 4482SOL     OW14344   6.963   4.136   3.914
 4482SOL    HW114345   6.926   4.052   3.955
 4482SOL    HW214346   6.979   4.204   3.987
 4483SOL     OW14347   5.698   2.781   2.188
 4483SOL    HW114348   5.648   2.695   2.198
 4483SOL    HW214349   5.693   2.834   2.273
 4484SOL     OW14350   4.023   2.658   5.624
 4484SOL    HW114351   4.015   2.677   5.526
 4484SOL    HW214352   4.038   2.744   5.673
 4485SOL     OW14353   5.202   1.447   6.302
 4485SOL    HW114354   5.171   1.352   6.294
 4485SOL    HW214355   5.274   1.464   6.234
 4486SOL     OW14356   6.257   2.781   3.995
 4486SOL    HW114357   6.347   2.823   4.006
 4486SOL    HW214358   6.237   2.769   3.897
 4487SOL     OW14359   3.243   3.040   6.404
 4487SOL    HW114360   3.255   3.042   6.504
 4487SOL    HW214361   3.233   3.134   6.370
 4488SOL     OW14362   0.263   1.503   5.116
 4488SOL    HW114363   0.273   1.449   5.032
 4488SOL    HW214364   0.270   1.442   5.195
 4489SOL     OW14365   6.180   0.098   4.157
 4489SOL    HW114366   6.195   0.017   4.100
 4489SOL    HW214367   6.238   0.092   4.239
 4490SOL     OW14368   6.840   2.075   3.598
 4490SOL    HW114369   6.883   2.122   3.675
 4490SOL    HW214370   6.829   1.978   3.620
 4491SOL     OW14371   1.116   3.133   2.836
 4491SOL    HW114372   1.214   3.123   2.852
 4491SOL    HW214373   1.072   3.170   2.918
 4492SOL     OW14374   4.452   3.325   6.740
 4492SOL    HW114375   4.518   3.377   6.794
 4492SOL    HW214376   4.484   3.231   6.728
 4493SOL     OW14377   6.013   5.046   4.185
 4493SOL    HW114378   6.100   5.041   4.136
 4493SOL    HW214379   6.029   5.083   4.277
 4494SOL     OW14380   6.370   3.986   4.162
 4494SOL    HW114381   6.310   3.968   4.085
 4494SOL    HW214382   6.317   3.985   4.247
 4495SOL     OW14383   5.079   6.546   1.115
 4495SOL    HW114384   5.123   6.514   1.031
 4495SOL    HW214385   4.983   6.517   1.116
 4496SOL     OW14386   4.995   4.050   5.543
 4496SOL    HW114387   5.028   3.957   5.527
 4496SOL    HW214388   4.981   4.063   5.642
 4497SOL     OW14389   6.103   4.756   0.248
 4497SOL    HW114390   6.061   4.845   0.262
 4497SOL    HW214391   6.033   4.685   0.252
 4498SOL     OW14392   0.313   3.863   0.043
 4498SOL    HW114393   0.373   3.784   0.037
 4498SOL    HW214394   0.335   3.928   6.987
 4499SOL     OW14395   0.077   2.978   5.925
 4499SOL    HW114396   0.112   2.904   5.983
 4499SOL    HW214397   7.004   3.007   5.959
 4500SOL     OW14398   3.265   4.129   4.546
 4500SOL    HW114399   3.208   4.110   4.465
 4500SOL    HW214400   3.355   4.161   4.517
 4501SOL     OW14401   0.663   4.114   4.827
 4501SOL    HW114402   0.594   4.060   4.778
 4501SOL    HW214403   0.715   4.169   4.762
 4502SOL     OW14404   0.336   3.250   0.318
 4502SOL    HW114405   0.368   3.300   0.398
 4502SOL    HW214406   0.390   3.277   0.238
 4503SOL     OW14407   1.721   1.703   3.648
 4503SOL    HW114408   1.660   1.624   3.648
 4503SOL    HW214409   1.667   1.787   3.652
 4504SOL     OW14410   5.087   1.829   4.960
 4504SOL    HW114411   5.053   1.834   4.866
 4504SOL    HW214412   5.013   1.798   5.020
 4505SOL     OW14413   1.910   5.428   5.866
 4505SOL    HW114414   1.924   5.479   5.781
 4505SOL    HW214415   1.899   5.492   5.942
 4506SOL     OW14416   4.051   0.183   5.365
 4506SOL    HW114417   3.986   0.235   5.419
 4506SOL    HW214418   4.140   0.227   5.368
 4507SOL     OW14419   6.244   4.437   0.316
 4507SOL    HW114420   6.337   4.403   0.302
 4507SOL    HW214421   6.247   4.530   0.350
 4508SOL     OW14422   1.445   3.665   0.711
 4508SOL    HW114423   1.464   3.570   0.736
 4508SOL    HW214424   1.518   3.699   0.652
 4509SOL     OW14425   2.053   1.689   4.125
 4509SOL    HW114426   2.032   1.782   4.155
 4509SOL    HW214427   2.134   1.656   4.174
 4510SOL     OW14428   3.882   6.349   5.384
 4510SOL    HW114429   3.948   6.377   5.314
 4510SOL    HW214430   3.821   6.426   5.404
 4511SOL     OW14431   6.050   2.434   0.430
 4511SOL    HW114432   6.046   2.357   0.494
 4511SOL    HW214433   6.060   2.519   0.482
 4512SOL     OW14434   2.547   5.256   0.052
 4512SOL    HW114435   2.503   5.237   6.981
 4512SOL    HW214436   2.492   5.321   0.104
 4513SOL     OW14437   4.961   0.754   1.936
 4513SOL    HW114438   5.052   0.793   1.949
 4513SOL    HW214439   4.891   0.824   1.952
 4514SOL     OW14440   3.661   1.508   4.869
 4514SOL    HW114441   3.643   1.422   4.917
 4514SOL    HW214442   3.712   1.570   4.929
 4515SOL     OW14443   0.497   5.016   1.191
 4515SOL    HW114444   0.439   4.977   1.119
 4515SOL    HW214445   0.485   4.963   1.275
 4516SOL     OW14446   1.120   0.720   5.024
 4516SOL    HW114447   1.109   0.814   5.055
 4516SOL    HW214448   1.175   0.669   5.091
 4517SOL     OW14449   3.395   6.863   5.296
 4517SOL    HW114450   3.486   6.822   5.289
 4517SOL    HW214451   3.350   6.861   5.206
 4518SOL     OW14452   1.100   1.948   4.654
 4518SOL    HW114453   1.162   1.992   4.589
 4518SOL    HW214454   1.040   1.885   4.605
 4519SOL     OW14455   6.424   3.115   3.786
 4519SOL    HW114456   6.418   3.086   3.881
 4519SOL    HW214457   6.376   3.202   3.774
 4520SOL     OW14458   6.682   3.909   2.854
 4520SOL    HW114459   6.657   3.938   2.946
 4520SOL    HW214460   6.640   3.970   2.787
 4521SOL     OW14461   6.113   2.104   6.533
 4521SOL    HW114462   6.173   2.073   6.607
 4521SOL    HW214463   6.020   2.074   6.550
 4522SOL     OW14464   5.998   0.580   3.930
 4522SOL    HW114465   5.935   0.538   3.865
 4522SOL    HW214466   6.056   0.509   3.971
 4523SOL     OW14467   3.966   3.416   6.992
 4523SOL    HW114468   4.035   3.452   6.929
 4523SOL    HW214469   4.008   3.403   0.066
 4524SOL     OW14470   5.998   6.843   4.926
 4524SOL    HW114471   6.085   6.852   4.876
 4524SOL    HW214472   6.002   6.899   5.009
 4525SOL     OW14473   6.747   1.638   4.975
 4525SOL    HW114474   6.651   1.620   4.994
 4525SOL    HW214475   6.759   1.732   4.945
 4526SOL     OW14476   4.650   0.411   0.795
 4526SOL    HW114477   4.625   0.360   0.877
 4526SOL    HW214478   4.683   0.501   0.821
 4527SOL     OW14479   5.097   0.758   2.659
 4527SOL    HW114480   5.027   0.694   2.691
 4527SOL    HW214481   5.058   0.817   2.588
 4528SOL     OW14482   6.258   0.121   6.736
 4528SOL    HW114483   6.219   0.187   6.800
 4528SOL    HW214484   6.207   0.124   6.650
 4529SOL     OW14485   3.964   6.106   2.787
 4529SOL    HW114486   4.037   6.169   2.760
 4529SOL    HW214487   3.899   6.154   2.847
 4530SOL     OW14488   0.347   3.409   5.433
 4530SOL    HW114489   0.352   3.493   5.379
 4530SOL    HW214490   0.436   3.363   5.432
 4531SOL     OW14491   0.174   3.855   4.107
 4531SOL    HW114492   0.228   3.918   4.163
 4531SOL    HW214493   0.082   3.892   4.094
 4532SOL     OW14494   6.108   1.688   0.763
 4532SOL    HW114495   6.018   1.723   0.788
 4532SOL    HW214496   6.161   1.760   0.719
 4533SOL     OW14497   2.731   5.968   2.616
 4533SOL    HW114498   2.691   6.043   2.668
 4533SOL    HW214499   2.770   5.901   2.679
 4534SOL     OW14500   6.230   3.866   5.204
 4534SOL    HW114501   6.133   3.864   5.180
 4534SOL    HW214502   6.278   3.793   5.156
 4535SOL     OW14503   4.868   2.834   1.907
 4535SOL    HW114504   4.830   2.908   1.963
 4535SOL    HW214505   4.877   2.751   1.962
 4536SOL     OW14506   6.553   0.931   4.418
 4536SOL    HW114507   6.593   0.989   4.347
 4536SOL    HW214508   6.459   0.961   4.436
 4537SOL     OW14509   3.434   2.851   6.281
 4537SOL    HW114510   3.363   2.878   6.346
 4537SOL    HW214511   3.481   2.770   6.316
 4538SOL     OW14512   2.899   1.103   2.915
 4538SOL    HW114513   2.813   1.069   2.953
 4538SOL    HW214514   2.917   1.195   2.952
 4539SOL     OW14515   1.900   1.308   2.881
 4539SOL    HW114516   1.981   1.258   2.851
 4539SOL    HW214517   1.902   1.401   2.843
 4540SOL     OW14518   3.626   2.881   4.434
 4540SOL    HW114519   3.545   2.907   4.486
 4540SOL    HW214520   3.605   2.882   4.336
 4541SOL     OW14521   5.090   1.467   1.446
 4541SOL    HW114522   5.174   1.513   1.473
 4541SOL    HW214523   5.104   1.368   1.445
 4542SOL     OW14524   4.689   0.380   2.939
 4542SOL    HW114525   4.641   0.451   2.990
 4542SOL    HW214526   4.681   0.399   2.841
 4543SOL     OW14527   5.646   1.386   1.574
 4543SOL    HW114528   5.668   1.362   1.479
 4543SOL    HW214529   5.606   1.478   1.576
 4544SOL     OW14530   3.633   4.868   6.260
 4544SOL    HW114531   3.691   4.948   6.277
 4544SOL    HW214532   3.539   4.897   6.244
 4545SOL     OW14533   3.911   2.093   5.514
 4545SOL    HW114534   3.917   2.046   5.602
 4545SOL    HW214535   3.994   2.147   5.500
 4546SOL     OW14536   1.222   6.510   6.368
 4546SOL    HW114537   1.318   6.485   6.359
 4546SOL    HW214538   1.167   6.427   6.377
 4547SOL     OW14539   4.827   1.756   2.094
 4547SOL    HW114540   4.778   1.770   2.008
 4547SOL    HW214541   4.780   1.805   2.167
 4548SOL     OW14542   1.234   3.634   3.618
 4548SOL    HW114543   1.233   3.534   3.613
 4548SOL    HW214544   1.174   3.671   3.546
 4549SOL     OW14545   6.371   3.057   2.730
 4549SOL    HW114546   6.400   3.004   2.810
 4549SOL    HW214547   6.339   2.994   2.658
 4550SOL     OW14548   1.325   6.159   4.217
 4550SOL    HW114549   1.292   6.184   4.308
 4550SOL    HW214550   1.397   6.091   4.226
 4551SOL     OW14551   0.952   2.829   5.577
 4551SOL    HW114552   0.867   2.777   5.575
 4551SOL    HW214553   0.962   2.874   5.666
 4552SOL     OW14554   0.297   3.660   4.818
 4552SOL    HW114555   0.268   3.621   4.906
 4552SOL    HW214556   0.368   3.728   4.834
 4553SOL     OW14557   5.019   4.925   0.299
 4553SOL    HW114558   5.047   4.886   0.387
 4553SOL    HW214559   5.048   5.020   0.295
 4554SOL     OW14560   5.267   6.727   2.676
 4554SOL    HW114561   5.226   6.800   2.620
 4554SOL    HW214562   5.235   6.638   2.643
 4555SOL     OW14563   5.438   1.810   6.833
 4555SOL    HW114564   5.489   1.871   6.894
 4555SOL    HW214565   5.401   1.734   6.887
 4556SOL     OW14566   4.746   1.122   4.128
 4556SOL    HW114567   4.664   1.073   4.098
 4556SOL    HW214568   4.807   1.136   4.050
 4557SOL     OW14569   5.169   0.038   5.674
 4557SOL    HW114570   5.097   0.048   5.743
 4557SOL    HW214571   5.178   6.958   5.650
 4558SOL     OW14572   6.571   3.277   6.585
 4558SOL    HW114573   6.560   3.311   6.492
 4558SOL    HW214574   6.482   3.246   6.620
 4559SOL     OW14575   0.954   6.729   1.253
 4559SOL    HW114576   0.945   6.828   1.248
 4559SOL    HW214577   0.903   6.695   1.333
 4560SOL     OW14578   5.036   3.408   3.197
 4560SOL    HW114579   5.009   3.312   3.194
 4560SOL    HW214580   4.986   3.460   3.127
 4561SOL     OW14581   3.232   0.321   6.581
 4561SOL    HW114582   3.285   0.284   6.505
 4561SOL    HW214583   3.149   0.266   6.594
 4562SOL     OW14584   2.581   4.819   6.715
 4562SOL    HW114585   2.611   4.799   6.622
 4562SOL    HW214586   2.595   4.916   6.735
 4563SOL     OW14587   6.456   2.559   6.685
 4563SOL    HW114588   6.521   2.520   6.750
 4563SOL    HW214589   6.505   2.620   6.623
 4564SOL     OW14590   1.780   5.863   0.222
 4564SOL    HW114591   1.877   5.888   0.222
 4564SOL    HW214592   1.771   5.765   0.207
 4565SOL     OW14593   2.396   0.535   5.235
 4565SOL    HW114594   2.424   0.626   5.264
 4565SOL    HW214595   2.475   0.474   5.234
 4566SOL     OW14596   0.279   1.788   6.809
 4566SOL    HW114597   0.274   1.770   6.710
 4566SOL    HW214598   0.374   1.784   6.839
 4567SOL     OW14599   0.283   1.168   0.972
 4567SOL    HW114600   0.251   1.113   0.895
 4567SOL    HW214601   0.339   1.243   0.937
 4568SOL     OW14602   3.798   4.494   5.354
 4568SOL    HW114603   3.777   4.418   5.292
 4568SOL    HW214604   3.741   4.573   5.331
 4569SOL     OW14605   0.506   2.231   4.705
 4569SOL    HW114606   0.455   2.155   4.744
 4569SOL    HW214607   0.604   2.216   4.720
 4570SOL     OW14608   0.926   5.181   3.822
 4570SOL    HW114609   0.833   5.217   3.821
 4570SOL    HW214610   0.948   5.147   3.913
 4571SOL     OW14611   3.689   2.932   4.833
 4571SOL    HW114612   3.694   2.856   4.897
 4571SOL    HW214613   3.649   3.012   4.878
 4572SOL     OW14614   1.642   6.280   1.147
 4572SOL    HW114615   1.565   6.342   1.134
 4572SOL    HW214616   1.611   6.199   1.197
 4573SOL     OW14617   5.231   6.988   0.865
 4573SOL    HW114618   5.240   6.890   0.884
 4573SOL    HW214619   5.163   0.011   0.927
 4574SOL     OW14620   0.451   4.694   2.195
 4574SOL    HW114621   0.516   4.770   2.185
 4574SOL    HW214622   0.492   4.623   2.252
 4575SOL     OW14623   6.126   0.258   2.652
 4575SOL    HW114624   6.041   0.245   2.704
 4575SOL    HW214625   6.112   0.229   2.557
 4576SOL     OW14626   3.024   5.999   5.654
 4576SOL    HW114627   3.078   5.931   5.703
 4576SOL    HW214628   2.929   5.968   5.648
 4577SOL     OW14629   0.938   2.931   3.356
 4577SOL    HW114630   0.936   2.952   3.454
 4577SOL    HW214631   0.982   2.842   3.342
 4578SOL     OW14632   6.698   4.294   3.944
 4578SOL    HW114633   6.787   4.280   3.902
 4578SOL    HW214634   6.669   4.210   3.989
 4579SOL     OW14635   6.026   1.803   3.631
 4579SOL    HW114636   6.009   1.709   3.660
 4579SOL    HW214637   6.018   1.864   3.711
 4580SOL     OW14638   6.806   5.816   0.550
 4580SOL    HW114639   6.816   5.766   0.636
 4580SOL    HW214640   6.890   5.808   0.497
 4581SOL     OW14641   3.325   6.052   2.859
 4581SOL    HW114642   3.265   5.998   2.801
 4581SOL    HW214643   3.308   6.029   2.955
 4582SOL     OW14644   4.853   6.244   2.271
 4582SOL    HW114645   4.850   6.166   2.333
 4582SOL    HW214646   4.796   6.318   2.307
 4583SOL     OW14647   4.468   1.643   5.812
 4583SOL    HW114648   4.450   1.729   5.859
 4583SOL    HW214649   4.408   1.571   5.848
 4584SOL     OW14650   0.620   5.711   5.527
 4584SOL    HW114651   0.527   5.678   5.542
 4584SOL    HW214652   0.654   5.755   5.610
 4585SOL     OW14653   3.822   6.503   2.545
 4585SOL    HW114654   3.740   6.543   2.503
 4585SOL    HW214655   3.865   6.441   2.479
 4586SOL     OW14656   3.606   5.331   2.343
 4586SOL    HW114657   3.559   5.269   2.280
 4586SOL    HW214658   3.643   5.279   2.420
 4587SOL     OW14659   2.157   4.108   1.774
 4587SOL    HW114660   2.214   4.147   1.846
 4587SOL    HW214661   2.186   4.144   1.685
 4588SOL     OW14662   4.296   3.616   5.221
 4588SOL    HW114663   4.251   3.598   5.134
 4588SOL    HW214664   4.261   3.701   5.261
 4589SOL     OW14665   6.607   2.365   4.648
 4589SOL    HW114666   6.537   2.305   4.610
 4589SOL    HW214667   6.598   2.367   4.748
 4590SOL     OW14668   4.738   5.557   2.328
 4590SOL    HW114669   4.748   5.645   2.284
 4590SOL    HW214670   4.704   5.490   2.262
 4591SOL     OW14671   5.415   6.167   5.633
 4591SOL    HW114672   5.365   6.226   5.697
 4591SOL    HW214673   5.403   6.202   5.540
 4592SOL     OW14674   3.592   2.037   6.534
 4592SOL    HW114675   3.658   1.981   6.485
 4592SOL    HW214676   3.639   2.112   6.581
 4593SOL     OW14677   4.019   5.990   2.460
 4593SOL    HW114678   3.954   5.966   2.531
 4593SOL    HW214679   4.049   6.085   2.472
 4594SOL     OW14680   2.519   1.478   1.669
 4594SOL    HW114681   2.447   1.472   1.599
 4594SOL    HW214682   2.607   1.453   1.628
 4595SOL     OW14683   3.754   2.837   6.078
 4595SOL    HW114684   3.674   2.897   6.069
 4595SOL    HW214685   3.802   2.831   5.991
 4596SOL     OW14686   5.575   7.003   1.848
 4596SOL    HW114687   5.518   0.067   1.844
 4596SOL    HW214688   5.671   0.013   1.851
 4597SOL     OW14689   6.085   4.808   6.652
 4597SOL    HW114690   6.097   4.876   6.725
 4597SOL    HW214691   6.127   4.722   6.680
 4598SOL     OW14692   2.670   4.727   6.968
 4598SOL    HW114693   2.606   4.734   6.891
 4598SOL    HW214694   2.656   4.641   7.016
 4599SOL     OW14695   1.532   4.569   0.491
 4599SOL    HW114696   1.499   4.487   0.442
 4599SOL    HW214697   1.512   4.650   0.436
 4600SOL     OW14698   3.288   5.830   1.256
 4600SOL    HW114699   3.318   5.803   1.165
 4600SOL    HW214700   3.342   5.908   1.287
 4601SOL     OW14701   2.135   6.003   5.381
 4601SOL    HW114702   2.075   5.944   5.435
 4601SOL    HW214703   2.086   6.033   5.299
 4602SOL     OW14704   1.844   0.543   1.455
 4602SOL    HW114705   1.909   0.469   1.474
 4602SOL    HW214706   1.879   0.600   1.380
 4603SOL     OW14707   3.699   6.811   1.338
 4603SOL    HW114708   3.664   6.782   1.427
 4603SOL    HW214709   3.661   6.900   1.314
 4604SOL     OW14710   3.526   6.903   2.316
 4604SOL    HW114711   3.580   6.854   2.385
 4604SOL    HW214712   3.559   6.881   2.225
 4605SOL     OW14713   5.351   6.818   4.633
 4605SOL    HW114714   5.253   6.805   4.624
 4605SOL    HW214715   5.371   6.914   4.652
 4606SOL     OW14716   0.175   6.200   5.608
 4606SOL    HW114717   0.176   6.250   5.522
 4606SOL    HW214718   0.230   6.249   5.676
 4607SOL     OW14719   3.181   2.171   1.347
 4607SOL    HW114720   3.106   2.194   1.409
 4607SOL    HW214721   3.211   2.077   1.364
 4608SOL     OW14722   1.637   4.009   5.359
 4608SOL    HW114723   1.643   4.051   5.449
 4608SOL    HW214724   1.610   4.079   5.292
 4609SOL     OW14725   4.384   6.572   6.667
 4609SOL    HW114726   4.316   6.593   6.737
 4609SOL    HW214727   4.471   6.614   6.690
 4610SOL     OW14728   0.426   3.145   6.652
 4610SOL    HW114729   0.390   3.107   6.737
 4610SOL    HW214730   0.351   3.174   6.594
 4611SOL     OW14731   0.720   4.062   0.410
 4611SOL    HW114732   0.677   3.998   0.347
 4611SOL    HW214733   0.817   4.039   0.420
 4612SOL     OW14734   2.168   6.847   6.889
 4612SOL    HW114735   2.188   6.807   6.979
 4612SOL    HW214736   2.238   6.819   6.824
 4613SOL     OW14737   3.454   5.152   2.175
 4613SOL    HW114738   3.398   5.069   2.171
 4613SOL    HW214739   3.424   5.216   2.105
 4614SOL     OW14740   1.679   5.493   0.428
 4614SOL    HW114741   1.582   5.484   0.452
 4614SOL    HW214742   1.688   5.497   0.329
 4615SOL     OW14743   0.425   2.386   0.354
 4615SOL    HW114744   0.359   2.419   0.286
 4615SOL    HW214745   0.486   2.461   0.380
 4616SOL     OW14746   5.523   0.932   6.691
 4616SOL    HW114747   5.534   0.901   6.596
 4616SOL    HW214748   5.463   0.869   6.739
 4617SOL     OW14749   0.311   2.937   2.204
 4617SOL    HW114750   0.212   2.938   2.211
 4617SOL    HW214751   0.338   2.937   2.108
 4618SOL     OW14752   0.776   2.482   5.958
 4618SOL    HW114753   0.770   2.409   5.891
 4618SOL    HW214754   0.757   2.445   6.049
 4619SOL     OW14755   3.459   1.108   3.797
 4619SOL    HW114756   3.489   1.051   3.873
 4619SOL    HW214757   3.373   1.152   3.820
 4620SOL     OW14758   2.270   4.085   6.785
 4620SOL    HW114759   2.337   4.024   6.742
 4620SOL    HW214760   2.297   4.103   6.879
 4621SOL     OW14761   0.033   6.197   6.145
 4621SOL    HW114762   6.973   6.255   6.116
 4621SOL    HW214763   0.074   6.234   6.228
 4622SOL     OW14764   2.099   3.868   1.365
 4622SOL    HW114765   2.109   3.949   1.422
 4622SOL    HW214766   2.124   3.787   1.419
 4623SOL     OW14767   6.017   4.642   1.803
 4623SOL    HW114768   6.065   4.604   1.882
 4623SOL    HW214769   5.938   4.694   1.833
 4624SOL     OW14770   4.851   6.987   4.892
 4624SOL    HW114771   4.925   6.919   4.900
 4624SOL    HW214772   4.763   6.941   4.895
 4625SOL     OW14773   0.844   3.377   6.927
 4625SOL    HW114774   0.843   3.408   6.832
 4625SOL    HW214775   0.916   3.425   6.976
 4626SOL     OW14776   6.487   5.239   1.261
 4626SOL    HW114777   6.445   5.276   1.343
 4626SOL    HW214778   6.545   5.161   1.285
 4627SOL     OW14779   3.273   6.757   6.243
 4627SOL    HW114780   3.346   6.725   6.304
 4627SOL    HW214781   3.249   6.683   6.179
 4628SOL     OW14782   0.243   3.706   1.888
 4628SOL    HW114783   0.230   3.626   1.946
 4628SOL    HW214784   0.255   3.787   1.945
 4629SOL     OW14785   2.556   4.987   5.441
 4629SOL    HW114786   2.521   4.895   5.459
 4629SOL    HW214787   2.605   5.020   5.522
 4630SOL     OW14788   1.478   6.642   2.522
 4630SOL    HW114789   1.426   6.590   2.591
 4630SOL    HW214790   1.526   6.717   2.567
 4631SOL     OW14791   3.299   6.876   2.615
 4631SOL    HW114792   3.230   6.804   2.619
 4631SOL    HW214793   3.286   6.930   2.532
 4632SOL     OW14794   5.190   5.474   4.033
 4632SOL    HW114795   5.119   5.500   3.968
 4632SOL    HW214796   5.208   5.376   4.025
 4633SOL     OW14797   6.168   2.328   4.931
 4633SOL    HW114798   6.169   2.252   4.997
 4633SOL    HW214799   6.075   2.359   4.917
 4634SOL     OW14800   3.226   4.009   0.688
 4634SOL    HW114801   3.194   3.917   0.710
 4634SOL    HW214802   3.207   4.030   0.592
 4635SOL     OW14803   5.575   4.176   1.580
 4635SOL    HW114804   5.637   4.169   1.502
 4635SOL    HW214805   5.529   4.089   1.594
 4636SOL     OW14806   2.275   5.447   0.717
 4636SOL    HW114807   2.279   5.353   0.749
 4636SOL    HW214808   2.359   5.469   0.667
 4637SOL     OW14809   1.586   1.273   5.083
 4637SOL    HW114810   1.569   1.208   5.008
 4637SOL    HW214811   1.508   1.273   5.145
 4638SOL     OW14812   5.281   3.436   5.445
 4638SOL    HW114813   5.251   3.531   5.449
 4638SOL    HW214814   5.219   3.379   5.500
 4639SOL     OW14815   0.135   3.970   5.146
 4639SOL    HW114816   0.112   3.958   5.050
 4639SOL    HW214817   0.052   3.986   5.200
 4640SOL     OW14818   5.705   3.975   2.804
 4640SOL    HW114819   5.671   3.881   2.808
 4640SOL    HW214820   5.647   4.034   2.861
 4641SOL     OW14821   2.215   4.878   4.932
 4641SOL    HW114822   2.118   4.859   4.918
 4641SOL    HW214823   2.225   4.958   4.993
 4642SOL     OW14824   5.583   6.248   4.145
 4642SOL    HW114825   5.673   6.259   4.103
 4642SOL    HW214826   5.531   6.333   4.134
 4643SOL     OW14827   4.313   1.879   1.545
 4643SOL    HW114828   4.356   1.827   1.472
 4643SOL    HW214829   4.222   1.910   1.515
 4644SOL     OW14830   2.198   5.684   5.032
 4644SOL    HW114831   2.205   5.586   5.012
 4644SOL    HW214832   2.289   5.721   5.050
 4645SOL     OW14833   2.231   5.950   4.585
 4645SOL    HW114834   2.184   5.905   4.661
 4645SOL    HW214835   2.230   5.891   4.504
 4646SOL     OW14836   4.205   0.277   1.552
 4646SOL    HW114837   4.267   0.214   1.599
 4646SOL    HW214838   4.113   0.267   1.590
 4647SOL     OW14839   6.713   0.324   4.563
 4647SOL    HW114840   6.755   0.373   4.639
 4647SOL    HW214841   6.783   0.296   4.498
 4648SOL     OW14842   2.363   5.980   2.712
 4648SOL    HW114843   2.276   6.027   2.725
 4648SOL    HW214844   2.434   6.046   2.692
 4649SOL     OW14845   5.604   0.504   5.897
 4649SOL    HW114846   5.609   0.418   5.948
 4649SOL    HW214847   5.692   0.551   5.902
 4650SOL     OW14848   6.375   4.430   2.177
 4650SOL    HW114849   6.409   4.363   2.112
 4650SOL    HW214850   6.441   4.504   2.187
 4651SOL     OW14851   0.222   2.351   1.848
 4651SOL    HW114852   0.190   2.365   1.754
 4651SOL    HW214853   0.218   2.437   1.898
 4652SOL     OW14854   6.985   6.460   6.331
 4652SOL    HW114855   6.958   6.548   6.290
 4652SOL    HW214856   6.905   6.399   6.334
 4653SOL     OW14857   0.389   5.836   6.903
 4653SOL    HW114858   0.394   5.932   6.873
 4653SOL    HW214859   0.481   5.800   6.916
 4654SOL     OW14860   1.047   1.130   6.923
 4654SOL    HW114861   1.128   1.173   6.885
 4654SOL    HW214862   1.003   1.191   6.988
 4655SOL     OW14863   0.203   4.685   3.395
 4655SOL    HW114864   0.121   4.729   3.433
 4655SOL    HW214865   0.274   4.754   3.381
 4656SOL     OW14866   1.726   6.601   3.489
 4656SOL    HW114867   1.663   6.564   3.421
 4656SOL    HW214868   1.742   6.532   3.560
 4657SOL     OW14869   5.753   0.259   0.379
 4657SOL    HW114870   5.707   0.325   0.320
 4657SOL    HW214871   5.779   0.179   0.326
 4658SOL     OW14872   5.493   0.550   3.505
 4658SOL    HW114873   5.536   0.601   3.431
 4658SOL    HW214874   5.503   0.452   3.488
 4659SOL     OW14875   1.566   2.611   5.097
 4659SOL    HW114876   1.496   2.557   5.144
 4659SOL    HW214877   1.558   2.707   5.125
 4660SOL     OW14878   0.083   0.470   5.937
 4660SOL    HW114879   0.026   0.502   6.013
 4660SOL    HW214880   0.028   0.411   5.877
 4661SOL     OW14881   4.030   3.744   3.867
 4661SOL    HW114882   4.046   3.701   3.956
 4661SOL    HW214883   3.997   3.837   3.880
 4662SOL     OW14884   4.895   0.401   5.215
 4662SOL    HW114885   4.799   0.395   5.242
 4662SOL    HW214886   4.942   0.317   5.243
 4663SOL     OW14887   0.112   2.191   2.792
 4663SOL    HW114888   0.060   2.263   2.745
 4663SOL    HW214889   0.210   2.205   2.777
 4664SOL     OW14890   3.098   2.276   6.547
 4664SOL    HW114891   3.040   2.304   6.624
 4664SOL    HW214892   3.052   2.299   6.461
 4665SOL     OW14893   5.110   0.717   0.130
 4665SOL    HW114894   5.093   0.759   0.220
 4665SOL    HW214895   5.064   0.629   0.125
 4666SOL     OW14896   2.270   1.178   0.668
 4666SOL    HW114897   2.291   1.269   0.631
 4666SOL    HW214898   2.318   1.166   0.755
 4667SOL     OW14899   0.296   5.168   5.741
 4667SOL    HW114900   0.331   5.253   5.778
 4667SOL    HW214901   0.221   5.135   5.797
 4668SOL     OW14902   6.648   1.635   4.036
 4668SOL    HW114903   6.637   1.694   4.116
 4668SOL    HW214904   6.560   1.596   4.012
 4669SOL     OW14905   2.227   0.314   0.589
 4669SOL    HW114906   2.200   0.308   0.493
 4669SOL    HW214907   2.146   0.334   0.645
 4670SOL     OW14908   2.118   1.838   3.905
 4670SOL    HW114909   2.153   1.918   3.953
 4670SOL    HW214910   2.062   1.784   3.968
 4671SOL     OW14911   5.721   4.212   0.934
 4671SOL    HW114912   5.746   4.116   0.942
 4671SOL    HW214913   5.635   4.228   0.982
 4672SOL     OW14914   2.013   3.595   5.950
 4672SOL    HW114915   2.077   3.523   5.921
 4672SOL    HW214916   2.063   3.680   5.966
 4673SOL     OW14917   4.003   0.934   2.744
 4673SOL    HW114918   4.056   1.017   2.725
 4673SOL    HW214919   3.945   0.949   2.824
 4674SOL     OW14920   4.664   6.205   6.176
 4674SOL    HW114921   4.597   6.163   6.239
 4674SOL    HW214922   4.756   6.182   6.206
 4675SOL     OW14923   1.046   4.243   0.017
 4675SOL    HW114924   1.018   4.335   0.047
 4675SOL    HW214925   1.041   4.237   6.934
 4676SOL     OW14926   0.989   5.724   4.102
 4676SOL    HW114927   1.001   5.635   4.059
 4676SOL    HW214928   1.066   5.784   4.077
 4677SOL     OW14929   1.591   2.978   0.222
 4677SOL    HW114930   1.665   2.971   0.156
 4677SOL    HW214931   1.628   2.987   0.314
 4678SOL     OW14932   2.624   4.597   2.400
 4678SOL    HW114933   2.548   4.647   2.441
 4678SOL    HW214934   2.675   4.658   2.339
 4679SOL     OW14935   5.076   6.836   1.829
 4679SOL    HW114936   5.110   6.923   1.865
 4679SOL    HW214937   5.101   6.762   1.892
 4680SOL     OW14938   2.169   1.196   1.364
 4680SOL    HW114939   2.114   1.161   1.287
 4680SOL    HW214940   2.127   1.167   1.450
 4681SOL     OW14941   5.113   4.718   1.203
 4681SOL    HW114942   5.115   4.624   1.236
 4681SOL    HW214943   5.202   4.741   1.163
 4682SOL     OW14944   3.787   3.567   6.811
 4682SOL    HW114945   3.757   3.655   6.848
 4682SOL    HW214946   3.779   3.497   6.881
 4683SOL     OW14947   6.138   4.447   3.335
 4683SOL    HW114948   6.162   4.453   3.432
 4683SOL    HW214949   6.129   4.539   3.297
 4684SOL     OW14950   5.120   6.701   0.142
 4684SOL    HW114951   5.172   6.698   0.227
 4684SOL    HW214952   5.183   6.700   0.064
 4685SOL     OW14953   3.010   3.319   5.890
 4685SOL    HW114954   3.081   3.300   5.822
 4685SOL    HW214955   2.920   3.312   5.847
 4686SOL     OW14956   2.765   5.403   0.173
 4686SOL    HW114957   2.678   5.356   0.160
 4686SOL    HW214958   2.807   5.373   0.259
 4687SOL     OW14959   3.060   0.916   3.076
 4687SOL    HW114960   3.036   0.843   3.012
 4687SOL    HW214961   2.999   0.994   3.061
 4688SOL     OW14962   5.596   3.167   5.608
 4688SOL    HW114963   5.626   3.252   5.565
 4688SOL    HW214964   5.604   3.092   5.543
 4689SOL     OW14965   5.784   1.138   1.803
 4689SOL    HW114966   5.718   1.204   1.768
 4689SOL    HW214967   5.857   1.125   1.737
 4690SOL     OW14968   2.798   1.711   0.621
 4690SOL    HW114969   2.850   1.734   0.540
 4690SOL    HW214970   2.749   1.624   0.606
 4691SOL     OW14971   6.937   4.287   1.799
 4691SOL    HW114972   6.939   4.187   1.803
 4691SOL    HW214973   0.009   4.321   1.767
 4692SOL     OW14974   5.483   3.782   2.387
 4692SOL    HW114975   5.519   3.874   2.399
 4692SOL    HW214976   5.453   3.770   2.292
 4693SOL     OW14977   2.069   0.870   3.757
 4693SOL    HW114978   2.061   0.933   3.835
 4693SOL    HW214979   2.132   0.796   3.780
 4694SOL     OW14980   1.990   1.168   0.123
 4694SOL    HW114981   2.019   1.223   0.202
 4694SOL    HW214982   1.915   1.108   0.150
 4695SOL     OW14983   1.056   6.098   1.605
 4695SOL    HW114984   1.082   6.170   1.541
 4695SOL    HW214985   1.137   6.044   1.627
 4696SOL     OW14986   0.998   5.289   5.776
 4696SOL    HW114987   1.060   5.337   5.714
 4696SOL    HW214988   0.932   5.236   5.723
 4697SOL     OW14989   3.549   4.733   0.719
 4697SOL    HW114990   3.451   4.729   0.702
 4697SOL    HW214991   3.567   4.719   0.816
 4698SOL     OW14992   5.624   1.201   3.037
 4698SOL    HW114993   5.664   1.114   3.066
 4698SOL    HW214994   5.660   1.275   3.094
 4699SOL     OW14995   1.009   6.995   2.775
 4699SOL    HW114996   0.914   7.014   2.751
 4699SOL    HW214997   1.067   7.006   2.694
 4700SOL     OW14998   6.327   1.982   2.888
 4700SOL    HW114999   6.378   2.062   2.856
 4700SOL    HW215000   6.272   1.945   2.813
 4701SOL     OW15001   3.341   1.889   1.885
 4701SOL    HW115002   3.435   1.900   1.914
 4701SOL    HW215003   3.292   1.831   1.951
 4702SOL     OW15004   5.467   4.526   6.669
 4702SOL    HW115005   5.415   4.555   6.749
 4702SOL    HW215006   5.430   4.440   6.634
 4703SOL     OW15007   1.052   5.226   3.542
 4703SOL    HW115008   1.017   5.155   3.480
 4703SOL    HW215009   1.015   5.211   3.633
 4704SOL     OW15010   0.982   4.937   5.536
 4704SOL    HW115011   0.991   4.851   5.485
 4704SOL    HW215012   0.988   5.014   5.473
 4705SOL     OW15013   3.336   2.387   1.751
 4705SOL    HW115014   3.360   2.460   1.687
 4705SOL    HW215015   3.413   2.324   1.759
 4706SOL     OW15016   2.112   0.294   0.334
 4706SOL    HW115017   2.121   0.358   0.258
 4706SOL    HW215018   2.019   0.298   0.371
 4707SOL     OW15019   1.924   6.076   1.504
 4707SOL    HW115020   1.952   5.999   1.562
 4707SOL    HW215021   1.857   6.045   1.437
 4708SOL     OW15022   0.445   2.854   4.042
 4708SOL    HW115023   0.381   2.809   4.105
 4708SOL    HW215024   0.423   2.951   4.035
 4709SOL     OW15025   4.843   3.711   5.336
 4709SOL    HW115026   4.833   3.811   5.338
 4709SOL    HW215027   4.809   3.676   5.249
 4710SOL     OW15028   6.247   6.256   4.526
 4710SOL    HW115029   6.176   6.195   4.491
 4710SOL    HW215030   6.247   6.254   4.626
 4711SOL     OW15031   5.702   3.368   3.398
 4711SOL    HW115032   5.735   3.406   3.484
 4711SOL    HW215033   5.729   3.272   3.392
 4712SOL     OW15034   4.478   4.027   5.317
 4712SOL    HW115035   4.544   3.982   5.377
 4712SOL    HW215036   4.396   4.050   5.369
 4713SOL     OW15037   6.039   4.302   1.209
 4713SOL    HW115038   6.009   4.323   1.116
 4713SOL    HW215039   6.070   4.207   1.214
 4714SOL     OW15040   5.642   1.426   5.998
 4714SOL    HW115041   5.692   1.440   5.913
 4714SOL    HW215042   5.677   1.489   6.068
 4715SOL     OW15043   6.199   1.234   1.770
 4715SOL    HW115044   6.225   1.186   1.854
 4715SOL    HW215045   6.192   1.332   1.789
 4716SOL     OW15046   3.818   4.215   6.159
 4716SOL    HW115047   3.806   4.296   6.100
 4716SOL    HW215048   3.797   4.133   6.106
 4717SOL     OW15049   2.743   5.295   4.817
 4717SOL    HW115050   2.666   5.297   4.881
 4717SOL    HW215051   2.784   5.204   4.817
 4718SOL     OW15052   4.638   4.459   0.358
 4718SOL    HW115053   4.607   4.441   0.264
 4718SOL    HW215054   4.616   4.380   0.415
 4719SOL     OW15055   0.122   3.864   3.658
 4719SOL    HW115056   0.143   3.784   3.601
 4719SOL    HW215057   0.208   3.905   3.690
 4720SOL     OW15058   2.740   4.079   0.099
 4720SOL    HW115059   2.787   4.038   0.021
 4720SOL    HW215060   2.799   4.073   0.180
 4721SOL     OW15061   6.208   3.151   3.263
 4721SOL    HW115062   6.298   3.141   3.221
 4721SOL    HW215063   6.170   3.060   3.284
 4722SOL     OW15064   1.628   4.416   6.868
 4722SOL    HW115065   1.678   4.361   6.802
 4722SOL    HW215066   1.550   4.364   6.904
 4723SOL     OW15067   3.730   4.075   6.786
 4723SOL    HW115068   3.805   4.044   6.727
 4723SOL    HW215069   3.688   3.996   6.830
 4724SOL     OW15070   1.426   6.680   4.590
 4724SOL    HW115071   1.419   6.724   4.501
 4724SOL    HW215072   1.423   6.750   4.662
 4725SOL     OW15073   5.078   6.017   0.241
 4725SOL    HW115074   5.017   6.029   0.162
 4725SOL    HW215075   5.025   5.984   0.319
 4726SOL     OW15076   0.827   3.206   5.296
 4726SOL    HW115077   0.737   3.208   5.340
 4726SOL    HW215078   0.836   3.121   5.244
 4727SOL     OW15079   0.638   5.550   0.552
 4727SOL    HW115080   0.700   5.618   0.511
 4727SOL    HW215081   0.690   5.470   0.579
 4728SOL     OW15082   6.410   1.831   4.565
 4728SOL    HW115083   6.474   1.892   4.520
 4728SOL    HW215084   6.458   1.776   4.634
 4729SOL     OW15085   6.172   0.966   1.380
 4729SOL    HW115086   6.211   0.892   1.326
 4729SOL    HW215087   6.232   1.046   1.375
 4730SOL     OW15088   3.113   6.799   5.031
 4730SOL    HW115089   3.205   6.777   4.998
 4730SOL    HW215090   3.104   6.898   5.042
 4731SOL     OW15091   3.729   0.288   0.513
 4731SOL    HW115092   3.650   0.257   0.566
 4731SOL    HW215093   3.725   0.247   0.421
 4732SOL     OW15094   0.410   4.516   3.767
 4732SOL    HW115095   0.402   4.420   3.792
 4732SOL    HW215096   0.320   4.554   3.748
 4733SOL     OW15097   2.148   3.779   3.146
 4733SOL    HW115098   2.139   3.740   3.237
 4733SOL    HW215099   2.228   3.840   3.144
 4734SOL     OW15100   4.924   3.265   6.919
 4734SOL    HW115101   4.977   3.277   6.836
 4734SOL    HW215102   4.951   3.333   6.987
 4735SOL     OW15103   6.869   0.088   5.057
 4735SOL    HW115104   6.868   0.043   5.146
 4735SOL    HW215105   6.958   0.074   5.014
 4736SOL     OW15106   6.605   2.186   3.494
 4736SOL    HW115107   6.588   2.153   3.401
 4736SOL    HW215108   6.699   2.164   3.520
 4737SOL     OW15109   2.562   4.250   1.152
 4737SOL    HW115110   2.583   4.175   1.215
 4737SOL    HW215111   2.619   4.241   1.070
 4738SOL     OW15112   1.695   6.573   3.795
 4738SOL    HW115113   1.599   6.572   3.769
 4738SOL    HW215114   1.740   6.652   3.756
 4739SOL     OW15115   5.701   3.156   3.655
 4739SOL    HW115116   5.660   3.234   3.702
 4739SOL    HW215117   5.628   3.096   3.621
 4740SOL     OW15118   0.544   1.103   1.473
 4740SOL    HW115119   0.610   1.177   1.466
 4740SOL    HW215120   0.578   1.024   1.422
 4741SOL     OW15121   4.304   4.446   1.644
 4741SOL    HW115122   4.294   4.353   1.678
 4741SOL    HW215123   4.321   4.508   1.721
 4742SOL     OW15124   2.639   6.226   1.781
 4742SOL    HW115125   2.731   6.233   1.743
 4742SOL    HW215126   2.571   6.237   1.709
 4743SOL     OW15127   2.165   2.074   0.431
 4743SOL    HW115128   2.111   2.008   0.379
 4743SOL    HW215129   2.249   2.031   0.463
 4744SOL     OW15130   1.830   3.234   5.227
 4744SOL    HW115131   1.841   3.331   5.246
 4744SOL    HW215132   1.897   3.182   5.279
 4745SOL     OW15133   2.833   5.674   5.077
 4745SOL    HW115134   2.785   5.596   5.117
 4745SOL    HW215135   2.820   5.674   4.978
 4746SOL     OW15136   6.495   0.507   0.597
 4746SOL    HW115137   6.424   0.507   0.526
 4746SOL    HW215138   6.468   0.445   0.670
 4747SOL     OW15139   6.497   2.539   0.870
 4747SOL    HW115140   6.573   2.588   0.913
 4747SOL    HW215141   6.450   2.484   0.938
 4748SOL     OW15142   1.585   1.078   1.741
 4748SOL    HW115143   1.576   1.148   1.670
 4748SOL    HW215144   1.506   1.080   1.801
 4749SOL     OW15145   1.308   6.626   6.735
 4749SOL    HW115146   1.232   6.686   6.711
 4749SOL    HW215147   1.390   6.681   6.751
 4750SOL     OW15148   0.156   0.847   4.641
 4750SOL    HW115149   0.190   0.758   4.671
 4750SOL    HW215150   0.136   0.844   4.543
 4751SOL     OW15151   1.263   3.852   6.678
 4751SOL    HW115152   1.314   3.840   6.593
 4751SOL    HW215153   1.324   3.888   6.748
 4752SOL     OW15154   3.044   5.892   1.154
 4752SOL    HW115155   3.028   5.809   1.101
 4752SOL    HW215156   3.134   5.887   1.198
 4753SOL     OW15157   5.994   6.658   5.278
 4753SOL    HW115158   5.993   6.749   5.235
 4753SOL    HW215159   5.932   6.657   5.357
 4754SOL     OW15160   0.822   0.280   5.706
 4754SOL    HW115161   0.901   0.298   5.647
 4754SOL    HW215162   0.846   0.212   5.775
 4755SOL     OW15163   2.678   1.584   6.610
 4755SOL    HW115164   2.759   1.614   6.659
 4755SOL    HW215165   2.639   1.504   6.657
 4756SOL     OW15166   4.959   2.857   1.078
 4756SOL    HW115167   4.919   2.824   0.993
 4756SOL    HW215168   4.948   2.787   1.149
 4757SOL     OW15169   2.186   1.850   1.011
 4757SOL    HW115170   2.163   1.937   0.967
 4757SOL    HW215171   2.278   1.823   0.984
 4758SOL     OW15172   5.289   5.055   5.428
 4758SOL    HW115173   5.202   5.017   5.459
 4758SOL    HW215174   5.312   5.017   5.338
 4759SOL     OW15175   5.545   5.490   5.763
 4759SOL    HW115176   5.540   5.524   5.857
 4759SOL    HW215177   5.628   5.525   5.720
 4760SOL     OW15178   1.531   1.734   1.558
 4760SOL    HW115179   1.433   1.741   1.574
 4760SOL    HW215180   1.569   1.662   1.616
 4761SOL     OW15181   0.758   6.494   6.263
 4761SOL    HW115182   0.803   6.477   6.175
 4761SOL    HW215183   0.767   6.591   6.287
 4762SOL     OW15184   2.509   5.960   2.450
 4762SOL    HW115185   2.593   5.953   2.502
 4762SOL    HW215186   2.523   6.022   2.372
 4763SOL     OW15187   6.256   5.647   3.548
 4763SOL    HW115188   6.324   5.575   3.529
 4763SOL    HW215189   6.264   5.719   3.480
 4764SOL     OW15190   3.662   3.790   4.126
 4764SOL    HW115191   3.610   3.808   4.210
 4764SOL    HW215192   3.624   3.710   4.079
 4765SOL     OW15193   5.651   5.859   4.901
 4765SOL    HW115194   5.557   5.892   4.886
 4765SOL    HW215195   5.650   5.785   4.968
 4766SOL     OW15196   3.036   0.590   2.603
 4766SOL    HW115197   3.009   0.647   2.526
 4766SOL    HW215198   2.996   0.499   2.593
 4767SOL     OW15199   4.165   5.727   6.585
 4767SOL    HW115200   4.089   5.792   6.574
 4767SOL    HW215201   4.249   5.777   6.604
 4768SOL     OW15202   7.016   0.639   5.305
 4768SOL    HW115203   6.974   0.698   5.237
 4768SOL    HW215204   0.029   0.554   5.262
 4769SOL     OW15205   3.891   0.034   1.428
 4769SOL    HW115206   3.928   0.122   1.398
 4769SOL    HW215207   3.797   0.024   1.394
 4770SOL     OW15208   2.468   0.711   3.198
 4770SOL    HW115209   2.477   0.787   3.135
 4770SOL    HW215210   2.372   0.702   3.226
 4771SOL     OW15211   3.960   4.193   5.255
 4771SOL    HW115212   3.873   4.241   5.242
 4771SOL    HW215213   3.950   4.097   5.227
 4772SOL     OW15214   2.690   2.145   1.725
 4772SOL    HW115215   2.734   2.101   1.803
 4772SOL    HW215216   2.671   2.241   1.747
 4773SOL     OW15217   0.142   5.918   3.624
 4773SOL    HW115218   0.219   5.861   3.595
 4773SOL    HW215219   0.168   5.969   3.706
 4774SOL     OW15220   0.526   3.983   1.388
 4774SOL    HW115221   0.622   4.010   1.396
 4774SOL    HW215222   0.475   4.056   1.342
 4775SOL     OW15223   4.107   0.606   2.126
 4775SOL    HW115224   4.111   0.667   2.047
 4775SOL    HW215225   4.142   0.653   2.207
 4776SOL     OW15226   3.137   5.554   2.108
 4776SOL    HW115227   3.214   5.580   2.167
 4776SOL    HW215228   3.053   5.549   2.162
 4777SOL     OW15229   3.173   4.261   1.151
 4777SOL    HW115230   3.175   4.351   1.107
 4777SOL    HW215231   3.143   4.272   1.246
 4778SOL     OW15232   5.099   3.777   2.257
 4778SOL    HW115233   5.172   3.730   2.207
 4778SOL    HW215234   5.037   3.821   2.192
 4779SOL     OW15235   5.072   0.824   3.040
 4779SOL    HW115236   5.029   0.748   2.991
 4779SOL    HW215237   5.009   0.902   3.044
 4780SOL     OW15238   0.977   6.141   6.247
 4780SOL    HW115239   1.035   6.144   6.165
 4780SOL    HW215240   1.005   6.214   6.309
 4781SOL     OW15241   2.275   5.352   1.400
 4781SOL    HW115242   2.272   5.397   1.489
 4781SOL    HW215243   2.234   5.261   1.407
 4782SOL     OW15244   5.579   6.514   6.415
 4782SOL    HW115245   5.670   6.534   6.379
 4782SOL    HW215246   5.519   6.487   6.340
 4783SOL     OW15247   5.516   4.669   1.360
 4783SOL    HW115248   5.587   4.716   1.307
 4783SOL    HW215249   5.556   4.629   1.442
 4784SOL     OW15250   5.963   5.105   4.603
 4784SOL    HW115251   6.013   5.131   4.686
 4784SOL    HW215252   5.995   5.161   4.526
 4785SOL     OW15253   6.538   0.464   1.464
 4785SOL    HW115254   6.529   0.561   1.484
 4785SOL    HW215255   6.586   0.451   1.377
 4786SOL     OW15256   1.730   2.848   1.894
 4786SOL    HW115257   1.784   2.770   1.926
 4786SOL    HW215258   1.775   2.891   1.816
 4787SOL     OW15259   3.656   2.003   2.870
 4787SOL    HW115260   3.667   2.059   2.788
 4787SOL    HW215261   3.746   1.977   2.906
 4788SOL     OW15262   1.619   5.299   4.172
 4788SOL    HW115263   1.541   5.300   4.235
 4788SOL    HW215264   1.620   5.212   4.121
 4789SOL     OW15265   5.683   0.729   0.608
 4789SOL    HW115266   5.715   0.662   0.541
 4789SOL    HW215267   5.735   0.719   0.693
 4790SOL     OW15268   5.629   1.797   6.422
 4790SOL    HW115269   5.529   1.807   6.421
 4790SOL    HW215270   5.667   1.844   6.343
 4791SOL     OW15271   5.422   6.869   2.250
 4791SOL    HW115272   5.486   6.893   2.177
 4791SOL    HW215273   5.450   6.784   2.294
 4792SOL     OW15274   1.989   2.442   2.175
 4792SOL    HW115275   1.943   2.365   2.130
 4792SOL    HW215276   2.041   2.408   2.253
 4793SOL     OW15277   1.121   6.765   5.918
 4793SOL    HW115278   1.167   6.790   5.833
 4793SOL    HW215279   1.022   6.760   5.903
 4794SOL     OW15280   2.701   0.620   2.393
 4794SOL    HW115281   2.603   0.625   2.372
 4794SOL    HW215282   2.723   0.686   2.464
 4795SOL     OW15283   6.257   3.107   4.206
 4795SOL    HW115284   6.229   3.011   4.212
 4795SOL    HW215285   6.233   3.143   4.116
 4796SOL     OW15286   5.596   4.729   0.737
 4796SOL    HW115287   5.504   4.756   0.709
 4796SOL    HW215288   5.593   4.641   0.783
 4797SOL     OW15289   0.291   5.087   5.151
 4797SOL    HW115290   0.292   5.012   5.217
 4797SOL    HW215291   0.196   5.111   5.129
 4798SOL     OW15292   6.767   4.610   4.369
 4798SOL    HW115293   6.730   4.528   4.325
 4798SOL    HW215294   6.787   4.590   4.465
 4799SOL     OW15295   4.453   1.527   4.812
 4799SOL    HW115296   4.476   1.564   4.902
 4799SOL    HW215297   4.536   1.492   4.769
 4800SOL     OW15298   1.884   2.419   4.904
 4800SOL    HW115299   1.805   2.420   4.966
 4800SOL    HW215300   1.863   2.473   4.823
 4801SOL     OW15301   0.484   2.167   1.062
 4801SOL    HW115302   0.567   2.218   1.086
 4801SOL    HW215303   0.505   2.101   0.991
 4802SOL     OW15304   2.651   0.519   1.711
 4802SOL    HW115305   2.707   0.602   1.708
 4802SOL    HW215306   2.571   0.535   1.769
 4803SOL     OW15307   1.056   6.879   0.267
 4803SOL    HW115308   1.059   6.930   0.353
 4803SOL    HW215309   1.148   6.874   0.228
 4804SOL     OW15310   3.989   5.188   6.827
 4804SOL    HW115311   4.070   5.221   6.777
 4804SOL    HW215312   3.963   5.098   6.791
 4805SOL     OW15313   6.674   1.836   0.969
 4805SOL    HW115314   6.759   1.785   0.982
 4805SOL    HW215315   6.610   1.781   0.915
 4806SOL     OW15316   0.776   2.900   2.948
 4806SOL    HW115317   0.680   2.911   2.924
 4806SOL    HW215318   0.799   2.961   3.024
 4807SOL     OW15319   0.108   6.918   1.600
 4807SOL    HW115320   0.020   6.910   1.647
 4807SOL    HW215321   0.147   7.009   1.618
 4808SOL     OW15322   5.043   3.081   1.256
 4808SOL    HW115323   5.005   3.056   1.345
 4808SOL    HW215324   5.015   3.013   1.188
 4809SOL     OW15325   3.766   5.418   6.499
 4809SOL    HW115326   3.837   5.467   6.449
 4809SOL    HW215327   3.808   5.364   6.572
 4810SOL     OW15328   1.194   0.287   1.463
 4810SOL    HW115329   1.240   0.241   1.387
 4810SOL    HW215330   1.262   0.323   1.526
 4811SOL     OW15331   4.094   5.442   2.299
 4811SOL    HW115332   4.092   5.342   2.304
 4811SOL    HW215333   4.183   5.471   2.265
 4812SOL     OW15334   6.888   5.797   4.262
 4812SOL    HW115335   6.850   5.704   4.259
 4812SOL    HW215336   6.879   5.840   4.172
 4813SOL     OW15337   5.511   2.474   3.397
 4813SOL    HW115338   5.513   2.437   3.304
 4813SOL    HW215339   5.566   2.558   3.401
 4814SOL     OW15340   6.766   3.648   1.854
 4814SOL    HW115341   6.737   3.738   1.820
 4814SOL    HW215342   6.696   3.580   1.833
 4815SOL     OW15343   4.673   6.449   1.066
 4815SOL    HW115344   4.685   6.353   1.090
 4815SOL    HW215345   4.732   6.472   0.988
 4816SOL     OW15346   5.357   4.773   3.565
 4816SOL    HW115347   5.319   4.686   3.535
 4816SOL    HW215348   5.412   4.812   3.490
 4817SOL     OW15349   0.594   2.018   6.671
 4817SOL    HW115350   0.544   2.063   6.745
 4817SOL    HW215351   0.692   2.015   6.693
 4818SOL     OW15352   0.544   0.384   4.137
 4818SOL    HW115353   0.549   0.292   4.097
 4818SOL    HW215354   0.636   0.426   4.136
 4819SOL     OW15355   1.900   3.532   0.528
 4819SOL    HW115356   1.976   3.526   0.464
 4819SOL    HW215357   1.873   3.439   0.555
 4820SOL     OW15358   6.650   3.061   2.010
 4820SOL    HW115359   6.568   3.111   1.984
 4820SOL    HW215360   6.716   3.062   1.935
 4821SOL     OW15361   6.716   5.597   2.307
 4821SOL    HW115362   6.785   5.539   2.265
 4821SOL    HW215363   6.651   5.540   2.358
 4822SOL     OW15364   1.142   3.435   4.029
 4822SOL    HW115365   1.230   3.459   3.987
 4822SOL    HW215366   1.071   3.494   3.992
 4823SOL     OW15367   1.957   3.082   1.480
 4823SOL    HW115368   1.970   3.012   1.410
 4823SOL    HW215369   2.034   3.080   1.544
 4824SOL     OW15370   6.007   1.571   5.578
 4824SOL    HW115371   6.043   1.490   5.624
 4824SOL    HW215372   6.082   1.631   5.552
 4825SOL     OW15373   1.770   0.080   3.734
 4825SOL    HW115374   1.726   7.007   3.735
 4825SOL    HW215375   1.742   0.132   3.815
 4826SOL     OW15376   4.271   0.489   1.360
 4826SOL    HW115377   4.367   0.478   1.333
 4826SOL    HW215378   4.247   0.420   1.427
 4827SOL     OW15379   6.727   1.765   1.688
 4827SOL    HW115380   6.781   1.828   1.634
 4827SOL    HW215381   6.649   1.813   1.728
 4828SOL     OW15382   5.008   0.661   3.980
 4828SOL    HW115383   5.024   0.758   3.994
 4828SOL    HW215384   4.918   0.648   3.938
 4829SOL     OW15385   3.979   6.796   4.881
 4829SOL    HW115386   4.048   6.759   4.943
 4829SOL    HW215387   3.980   6.896   4.885
 4830SOL     OW15388   3.024   5.827   3.229
 4830SOL    HW115389   3.009   5.868   3.319
 4830SOL    HW215390   3.033   5.728   3.238
 4831SOL     OW15391   3.051   4.698   5.370
 4831SOL    HW115392   2.998   4.651   5.299
 4831SOL    HW215393   3.029   4.659   5.459
 4832SOL     OW15394   4.029   3.140   4.584
 4832SOL    HW115395   3.951   3.084   4.611
 4832SOL    HW215396   4.052   3.121   4.488
 4833SOL     OW15397   6.878   3.208   4.254
 4833SOL    HW115398   6.833   3.222   4.166
 4833SOL    HW215399   6.957   3.269   4.262
 4834SOL     OW15400   0.996   4.986   1.243
 4834SOL    HW115401   0.975   5.083   1.239
 4834SOL    HW215402   0.990   4.946   1.151
 4835SOL     OW15403   6.637   2.236   5.268
 4835SOL    HW115404   6.691   2.284   5.338
 4835SOL    HW215405   6.547   2.280   5.260
 4836SOL     OW15406   5.138   1.155   5.162
 4836SOL    HW115407   5.205   1.091   5.124
 4836SOL    HW215408   5.176   1.199   5.243
 4837SOL     OW15409   0.394   4.253   3.873
 4837SOL    HW115410   0.456   4.176   3.887
 4837SOL    HW215411   0.354   4.280   3.961
 4838SOL     OW15412   2.258   4.280   6.424
 4838SOL    HW115413   2.237   4.230   6.340
 4838SOL    HW215414   2.204   4.245   6.499
 4839SOL     OW15415   2.630   1.503   0.478
 4839SOL    HW115416   2.718   1.473   0.514
 4839SOL    HW215417   2.564   1.428   0.485
 4840SOL     OW15418   5.950   3.962   4.508
 4840SOL    HW115419   5.912   4.015   4.433
 4840SOL    HW215420   5.979   3.872   4.475
 4841SOL     OW15421   3.509   6.360   2.648
 4841SOL    HW115422   3.580   6.289   2.646
 4841SOL    HW215423   3.500   6.394   2.742
 4842SOL     OW15424   3.272   5.546   3.076
 4842SOL    HW115425   3.361   5.502   3.090
 4842SOL    HW215426   3.239   5.526   2.984
 4843SOL     OW15427   0.295   1.725   1.299
 4843SOL    HW115428   0.371   1.705   1.360
 4843SOL    HW215429   0.212   1.680   1.332
 4844SOL     OW15430   1.592   5.531   5.061
 4844SOL    HW115431   1.591   5.431   5.058
 4844SOL    HW215432   1.548   5.567   4.978
 4845SOL     OW15433   4.894   3.847   4.785
 4845SOL    HW115434   4.988   3.842   4.820
 4845SOL    HW215435   4.835   3.789   4.841
 4846SOL     OW15436   6.696   3.660   4.430
 4846SOL    HW115437   6.705   3.728   4.503
 4846SOL    HW215438   6.776   3.664   4.370
 4847SOL     OW15439   2.439   5.936   6.512
 4847SOL    HW115440   2.463   6.011   6.451
 4847SOL    HW215441   2.378   5.969   6.584
 4848SOL     OW15442   3.351   0.902   4.349
 4848SOL    HW115443   3.351   0.869   4.443
 4848SOL    HW215444   3.302   0.989   4.344
 4849SOL     OW15445   2.021   6.844   1.337
 4849SOL    HW115446   1.976   6.855   1.426
 4849SOL    HW215447   1.986   6.762   1.291
 4850SOL     OW15448   4.524   0.317   0.296
 4850SOL    HW115449   4.531   0.338   0.394
 4850SOL    HW215450   4.434   0.345   0.262
 4851SOL     OW15451   3.739   4.400   6.536
 4851SOL    HW115452   3.778   4.329   6.478
 4851SOL    HW215453   3.657   4.365   6.581
 4852SOL     OW15454   5.361   5.537   4.806
 4852SOL    HW115455   5.344   5.443   4.837
 4852SOL    HW215456   5.311   5.553   4.720
 4853SOL     OW15457   4.340   6.704   1.960
 4853SOL    HW115458   4.362   6.780   1.899
 4853SOL    HW215459   4.278   6.736   2.032
 4854SOL     OW15460   5.108   6.250   1.834
 4854SOL    HW115461   5.106   6.335   1.780
 4854SOL    HW215462   5.095   6.172   1.773
 4855SOL     OW15463   5.393   4.921   5.680
 4855SOL    HW115464   5.392   4.824   5.653
 4855SOL    HW215465   5.366   4.977   5.602
 4856SOL     OW15466   6.952   4.064   2.738
 4856SOL    HW115467   6.855   4.087   2.742
 4856SOL    HW215468   6.990   4.097   2.651
 4857SOL     OW15469   2.506   2.170   4.942
 4857SOL    HW115470   2.510   2.270   4.931
 4857SOL    HW215471   2.415   2.144   4.972
 4858SOL     OW15472   1.021   6.123   4.626
 4858SOL    HW115473   1.038   6.121   4.725
 4858SOL    HW215474   1.080   6.057   4.581
 4859SOL     OW15475   0.661   6.418   2.541
 4859SOL    HW115476   0.580   6.423   2.599
 4859SOL    HW215477   0.742   6.447   2.593
 4860SOL     OW15478   4.573   5.195   1.216
 4860SOL    HW115479   4.627   5.157   1.291
 4860SOL    HW215480   4.631   5.205   1.135
 4861SOL     OW15481   0.267   4.229   6.692
 4861SOL    HW115482   0.205   4.150   6.694
 4861SOL    HW215483   0.218   4.311   6.721
 4862SOL     OW15484   2.282   5.579   5.322
 4862SOL    HW115485   2.350   5.505   5.324
 4862SOL    HW215486   2.286   5.630   5.408
 4863SOL     OW15487   4.777   1.959   2.948
 4863SOL    HW115488   4.776   1.910   3.035
 4863SOL    HW215489   4.719   2.041   2.956
 4864SOL     OW15490   1.914   1.265   1.210
 4864SOL    HW115491   1.987   1.304   1.154
 4864SOL    HW215492   1.825   1.293   1.174
 4865SOL     OW15493   3.650   6.108   5.759
 4865SOL    HW115494   3.600   6.159   5.689
 4865SOL    HW215495   3.642   6.010   5.740
 4866SOL     OW15496   0.146   4.466   2.180
 4866SOL    HW115497   0.148   4.411   2.264
 4866SOL    HW215498   0.129   4.406   2.102
 4867SOL     OW15499   4.866   5.780   3.423
 4867SOL    HW115500   4.885   5.821   3.513
 4867SOL    HW215501   4.771   5.749   3.420
 4868SOL     OW15502   0.843   6.212   1.042
 4868SOL    HW115503   0.908   6.164   0.983
 4868SOL    HW215504   0.814   6.151   1.116
 4869SOL     OW15505   6.474   0.572   0.926
 4869SOL    HW115506   6.514   0.491   0.883
 4869SOL    HW215507   6.438   0.548   1.017
 4870SOL     OW15508   6.551   6.779   1.487
 4870SOL    HW115509   6.543   6.860   1.429
 4870SOL    HW215510   6.471   6.771   1.546
 4871SOL     OW15511   0.418   3.511   4.173
 4871SOL    HW115512   0.447   3.494   4.267
 4871SOL    HW215513   0.430   3.427   4.119
 4872SOL     OW15514   1.032   0.655   3.456
 4872SOL    HW115515   1.062   0.733   3.512
 4872SOL    HW215516   0.962   0.686   3.391
 4873SOL     OW15517   0.928   5.945   5.372
 4873SOL    HW115518   1.016   5.899   5.366
 4873SOL    HW215519   0.909   5.969   5.467
 4874SOL     OW15520   5.053   3.574   3.399
 4874SOL    HW115521   5.046   3.509   3.324
 4874SOL    HW215522   4.966   3.622   3.408
 4875SOL     OW15523   6.231   2.849   6.714
 4875SOL    HW115524   6.243   2.871   6.617
 4875SOL    HW215525   6.201   2.755   6.724
 4876SOL     OW15526   0.477   1.357   6.511
 4876SOL    HW115527   0.504   1.368   6.606
 4876SOL    HW215528   0.378   1.370   6.502
 4877SOL     OW15529   6.426   1.752   0.857
 4877SOL    HW115530   6.420   1.675   0.793
 4877SOL    HW215531   6.360   1.738   0.931
 4878SOL     OW15532   6.805   2.006   1.571
 4878SOL    HW115533   6.891   1.998   1.621
 4878SOL    HW215534   6.788   2.101   1.548
 4879SOL     OW15535   4.243   5.711   3.275
 4879SOL    HW115536   4.278   5.789   3.327
 4879SOL    HW215537   4.316   5.675   3.217
 4880SOL     OW15538   5.657   2.167   6.192
 4880SOL    HW115539   5.637   2.167   6.290
 4880SOL    HW215540   5.755   2.180   6.178
 4881SOL     OW15541   3.278   5.894   6.516
 4881SOL    HW115542   3.267   5.935   6.606
 4881SOL    HW215543   3.336   5.813   6.522
 4882SOL     OW15544   5.301   0.778   5.691
 4882SOL    HW115545   5.241   0.817   5.621
 4882SOL    HW215546   5.381   0.738   5.647
 4883SOL     OW15547   0.359   5.947   0.929
 4883SOL    HW115548   0.346   5.853   0.897
 4883SOL    HW215549   0.388   5.946   1.025
 4884SOL     OW15550   3.064   6.430   1.987
 4884SOL    HW115551   3.078   6.386   1.898
 4884SOL    HW215552   2.970   6.463   1.993
 4885SOL     OW15553   2.156   0.284   2.111
 4885SOL    HW115554   2.207   0.370   2.120
 4885SOL    HW215555   2.072   0.289   2.165
 4886SOL     OW15556   6.038   0.690   6.189
 4886SOL    HW115557   5.961   0.680   6.126
 4886SOL    HW215558   6.123   0.663   6.142
 4887SOL     OW15559   0.611   1.914   5.049
 4887SOL    HW115560   0.560   1.995   5.080
 4887SOL    HW215561   0.558   1.866   4.980
 4888SOL     OW15562   2.795   5.507   1.842
 4888SOL    HW115563   2.717   5.445   1.837
 4888SOL    HW215564   2.788   5.564   1.924
 4889SOL     OW15565   1.435   2.492   7.012
 4889SOL    HW115566   1.503   2.537   0.053
 4889SOL    HW215567   1.479   2.420   6.958
 4890SOL     OW15568   1.347   0.280   4.505
 4890SOL    HW115569   1.329   0.379   4.509
 4890SOL    HW215570   1.420   0.257   4.568
 4891SOL     OW15571   1.228   3.940   0.874
 4891SOL    HW115572   1.321   3.905   0.879
 4891SOL    HW215573   1.164   3.869   0.903
 4892SOL     OW15574   1.313   5.945   1.260
 4892SOL    HW115575   1.225   5.979   1.293
 4892SOL    HW215576   1.321   5.847   1.281
 4893SOL     OW15577   0.736   3.542   6.401
 4893SOL    HW115578   0.642   3.512   6.412
 4893SOL    HW215579   0.766   3.522   6.308
 4894SOL     OW15580   2.238   1.119   3.677
 4894SOL    HW115581   2.251   1.024   3.704
 4894SOL    HW215582   2.269   1.179   3.751
 4895SOL     OW15583   0.069   3.517   0.204
 4895SOL    HW115584   0.013   3.554   0.130
 4895SOL    HW215585   0.012   3.496   0.283
 4896SOL     OW15586   4.137   5.609   3.583
 4896SOL    HW115587   4.099   5.539   3.643
 4896SOL    HW215588   4.092   5.605   3.494
 4897SOL     OW15589   3.204   5.568   5.977
 4897SOL    HW115590   3.197   5.637   5.905
 4897SOL    HW215591   3.256   5.605   6.054
 4898SOL     OW15592   5.578   2.511   5.569
 4898SOL    HW115593   5.582   2.611   5.569
 4898SOL    HW215594   5.491   2.481   5.530
 4899SOL     OW15595   5.339   4.241   5.018
 4899SOL    HW115596   5.296   4.176   4.955
 4899SOL    HW215597   5.394   4.307   4.967
 4900SOL     OW15598   1.303   6.609   5.158
 4900SOL    HW115599   1.271   6.702   5.176
 4900SOL    HW215600   1.225   6.546   5.161
 4901SOL     OW15601   1.455   6.534   3.078
 4901SOL    HW115602   1.488   6.587   3.000
 4901SOL    HW215603   1.359   6.554   3.094
 4902SOL     OW15604   2.976   4.758   1.866
 4902SOL    HW115605   3.069   4.719   1.862
 4902SOL    HW215606   2.911   4.685   1.889
 4903SOL     OW15607   4.911   6.268   6.440
 4903SOL    HW115608   4.940   6.284   6.535
 4903SOL    HW215609   4.831   6.325   6.421
 4904SOL     OW15610   3.284   6.245   3.653
 4904SOL    HW115611   3.235   6.302   3.719
 4904SOL    HW215612   3.369   6.212   3.694
 4905SOL     OW15613   6.010   3.246   3.068
 4905SOL    HW115614   6.101   3.230   3.105
 4905SOL    HW215615   5.997   3.191   2.985
 4906SOL     OW15616   5.993   1.115   1.575
 4906SOL    HW115617   6.032   1.049   1.511
 4906SOL    HW215618   6.066   1.152   1.633
 4907SOL     OW15619   2.653   1.093   2.389
 4907SOL    HW115620   2.557   1.065   2.382
 4907SOL    HW215621   2.659   1.177   2.443
 4908SOL     OW15622   3.359   5.594   6.604
 4908SOL    HW115623   3.317   5.611   6.693
 4908SOL    HW215624   3.289   5.593   6.533
 4909SOL     OW15625   6.672   0.472   5.177
 4909SOL    HW115626   6.660   0.565   5.142
 4909SOL    HW215627   6.585   0.424   5.174
 4910SOL     OW15628   6.331   0.261   5.295
 4910SOL    HW115629   6.400   0.238   5.363
 4910SOL    HW215630   6.373   0.315   5.222
 4911SOL     OW15631   0.440   3.360   5.950
 4911SOL    HW115632   0.469   3.402   6.036
 4911SOL    HW215633   0.342   3.342   5.953
 4912SOL     OW15634   2.538   2.323   2.016
 4912SOL    HW115635   2.635   2.338   1.993
 4912SOL    HW215636   2.490   2.411   2.015
 4913SOL     OW15637   2.954   3.686   2.280
 4913SOL    HW115638   2.949   3.725   2.373
 4913SOL    HW215639   2.861   3.671   2.246
 4914SOL     OW15640   1.641   6.238   3.420
 4914SOL    HW115641   1.562   6.178   3.406
 4914SOL    HW215642   1.702   6.197   3.488
 4915SOL     OW15643   3.390   5.620   3.389
 4915SOL    HW115644   3.312   5.599   3.330
 4915SOL    HW215645   3.466   5.560   3.367
 4916SOL     OW15646   2.133   1.501   2.352
 4916SOL    HW115647   2.097   1.441   2.424
 4916SOL    HW215648   2.057   1.550   2.309
 4917SOL     OW15649   1.276   5.409   0.261
 4917SOL    HW115650   1.339   5.378   0.190
 4917SOL    HW215651   1.187   5.427   0.220
 4918SOL     OW15652   2.478   0.346   2.576
 4918SOL    HW115653   2.514   0.322   2.485
 4918SOL    HW215654   2.547   0.325   2.645
 4919SOL     OW15655   2.584   2.675   1.786
 4919SOL    HW115656   2.616   2.723   1.704
 4919SOL    HW215657   2.626   2.585   1.790
 4920SOL     OW15658   4.325   0.822   6.849
 4920SOL    HW115659   4.407   0.782   6.809
 4920SOL    HW215660   4.342   0.841   6.946
 4921SOL     OW15661   1.382   4.663   1.958
 4921SOL    HW115662   1.436   4.735   1.916
 4921SOL    HW215663   1.351   4.598   1.888
 4922SOL     OW15664   0.997   2.867   5.877
 4922SOL    HW115665   0.902   2.846   5.901
 4922SOL    HW215666   1.058   2.803   5.924
 4923SOL     OW15667   3.813   1.608   1.146
 4923SOL    HW115668   3.866   1.692   1.143
 4923SOL    HW215669   3.866   1.533   1.105
 4924SOL     OW15670   0.924   4.266   4.458
 4924SOL    HW115671   0.911   4.312   4.370
 4924SOL    HW215672   1.020   4.240   4.468
 4925SOL     OW15673   4.385   6.136   6.292
 4925SOL    HW115674   4.374   6.234   6.279
 4925SOL    HW215675   4.305   6.088   6.255
 4926SOL     OW15676   4.657   2.279   2.079
 4926SOL    HW115677   4.603   2.353   2.119
 4926SOL    HW215678   4.717   2.316   2.008
 4927SOL     OW15679   3.787   3.685   2.948
 4927SOL    HW115680   3.764   3.715   3.041
 4927SOL    HW215681   3.704   3.681   2.893
 4928SOL     OW15682   0.849   6.111   0.640
 4928SOL    HW115683   0.760   6.155   0.650
 4928SOL    HW215684   0.918   6.180   0.616
 4929SOL     OW15685   0.746   4.974   4.224
 4929SOL    HW115686   0.673   5.018   4.172
 4929SOL    HW215687   0.750   4.877   4.201
 4930SOL     OW15688   6.860   2.042   0.696
 4930SOL    HW115689   6.896   2.073   0.608
 4930SOL    HW215690   6.807   1.958   0.684
 4931SOL     OW15691   0.044   0.659   1.230
 4931SOL    HW115692   0.127   0.618   1.267
 4931SOL    HW215693   0.056   0.758   1.223
 4932SOL     OW15694   3.405   2.296   1.003
 4932SOL    HW115695   3.488   2.351   0.990
 4932SOL    HW215696   3.423   2.202   0.977
 4933SOL     OW15697   2.482   1.042   4.760
 4933SOL    HW115698   2.469   0.994   4.847
 4933SOL    HW215699   2.514   1.135   4.778
 4934SOL     OW15700   1.272   6.244   5.056
 4934SOL    HW115701   1.205   6.315   5.034
 4934SOL    HW215702   1.344   6.243   4.986
 4935SOL     OW15703   1.651   1.167   0.647
 4935SOL    HW115704   1.576   1.166   0.580
 4935SOL    HW215705   1.698   1.255   0.643
 4936SOL     OW15706   3.784   5.785   0.764
 4936SOL    HW115707   3.685   5.772   0.754
 4936SOL    HW215708   3.832   5.719   0.706
 4937SOL     OW15709   0.751   3.202   6.128
 4937SOL    HW115710   0.670   3.174   6.180
 4937SOL    HW215711   0.777   3.295   6.153
 4938SOL     OW15712   3.674   4.487   1.441
 4938SOL    HW115713   3.598   4.442   1.394
 4938SOL    HW215714   3.740   4.519   1.373
 4939SOL     OW15715   1.293   2.100   2.374
 4939SOL    HW115716   1.204   2.145   2.367
 4939SOL    HW215717   1.365   2.169   2.376
 4940SOL     OW15718   6.799   2.083   5.097
 4940SOL    HW115719   6.878   2.040   5.141
 4940SOL    HW215720   6.749   2.137   5.165
 4941SOL     OW15721   3.897   1.849   5.358
 4941SOL    HW115722   3.961   1.923   5.337
 4941SOL    HW215723   3.819   1.885   5.409
 4942SOL     OW15724   0.121   1.491   3.661
 4942SOL    HW115725   0.184   1.476   3.584
 4942SOL    HW215726   0.030   1.461   3.635
 4943SOL     OW15727   5.162   3.058   6.478
 4943SOL    HW115728   5.071   3.080   6.514
 4943SOL    HW215729   5.227   3.128   6.507
 4944SOL     OW15730   1.179   5.193   0.638
 4944SOL    HW115731   1.176   5.195   0.738
 4944SOL    HW215732   1.235   5.270   0.606
 4945SOL     OW15733   2.305   0.662   4.857
 4945SOL    HW115734   2.240   0.683   4.784
 4945SOL    HW215735   2.267   0.590   4.916
 4946SOL     OW15736   2.449   4.994   0.118
 4946SOL    HW115737   2.489   5.085   0.109
 4946SOL    HW215738   2.351   4.998   0.096
 4947SOL     OW15739   1.387   1.058   1.956
 4947SOL    HW115740   1.342   0.971   1.975
 4947SOL    HW215741   1.339   1.132   2.002
 4948SOL     OW15742   1.656   2.464   1.723
 4948SOL    HW115743   1.665   2.385   1.662
 4948SOL    HW215744   1.685   2.547   1.675
 4949SOL     OW15745   0.227   4.473   6.990
 4949SOL    HW115746   0.173   4.414   6.930
 4949SOL    HW215747   0.264   4.418   0.048
 4950SOL     OW15748   2.972   3.924   5.516
 4950SOL    HW115749   2.873   3.926   5.504
 4950SOL    HW215750   2.996   3.853   5.583
 4951SOL     OW15751   5.318   5.417   3.317
 4951SOL    HW115752   5.237   5.444   3.264
 4951SOL    HW215753   5.359   5.498   3.358
 4952SOL     OW15754   0.713   6.908   6.490
 4952SOL    HW115755   0.676   7.001   6.490
 4952SOL    HW215756   0.655   6.850   6.547
 4953SOL     OW15757   0.883   1.885   4.989
 4953SOL    HW115758   0.792   1.902   5.026
 4953SOL    HW215759   0.906   1.956   4.923
 4954SOL     OW15760   3.324   4.070   5.250
 4954SOL    HW115761   3.242   4.124   5.231
 4954SOL    HW215762   3.360   4.095   5.339
 4955SOL     OW15763   3.362   5.148   6.435
 4955SOL    HW115764   3.352   5.085   6.512
 4955SOL    HW215765   3.407   5.231   6.467
 4956SOL     OW15766   2.929   0.244   4.560
 4956SOL    HW115767   2.965   0.166   4.509
 4956SOL    HW215768   2.839   0.268   4.524
 4957SOL     OW15769   5.812   4.225   6.654
 4957SOL    HW115770   5.834   4.322   6.669
 4957SOL    HW215771   5.749   4.194   6.725
 4958SOL     OW15772   3.653   6.050   0.434
 4958SOL    HW115773   3.571   5.999   0.407
 4958SOL    HW215774   3.701   6.081   0.352
 4959SOL     OW15775   0.660   2.297   2.874
 4959SOL    HW115776   0.626   2.306   2.967
 4959SOL    HW215777   0.694   2.386   2.842
 4960SOL     OW15778   4.492   4.805   4.158
 4960SOL    HW115779   4.446   4.823   4.245
 4960SOL    HW215780   4.539   4.888   4.128
 4961SOL     OW15781   3.934   0.896   0.487
 4961SOL    HW115782   3.935   0.993   0.509
 4961SOL    HW215783   4.012   0.874   0.428
 4962SOL     OW15784   1.632   4.141   1.058
 4962SOL    HW115785   1.541   4.153   1.018
 4962SOL    HW215786   1.700   4.136   0.984
 4963SOL     OW15787   1.261   3.892   6.265
 4963SOL    HW115788   1.244   3.822   6.195
 4963SOL    HW215789   1.295   3.848   6.348
 4964SOL     OW15790   2.501   6.812   4.553
 4964SOL    HW115791   2.550   6.900   4.548
 4964SOL    HW215792   2.565   6.740   4.580
 4965SOL     OW15793   1.739   5.902   3.315
 4965SOL    HW115794   1.812   5.950   3.362
 4965SOL    HW215795   1.748   5.804   3.331
 4966SOL     OW15796   3.048   0.063   4.422
 4966SOL    HW115797   3.148   0.062   4.422
 4966SOL    HW215798   3.013   6.994   4.385
 4967SOL     OW15799   4.370   4.757   4.828
 4967SOL    HW115800   4.413   4.827   4.885
 4967SOL    HW215801   4.357   4.673   4.881
 4968SOL     OW15802   6.296   2.512   3.326
 4968SOL    HW115803   6.394   2.529   3.336
 4968SOL    HW215804   6.277   2.488   3.231
 4969SOL     OW15805   0.774   6.320   2.917
 4969SOL    HW115806   0.833   6.361   2.987
 4969SOL    HW215807   0.831   6.290   2.840
 4970SOL     OW15808   0.515   1.742   1.481
 4970SOL    HW115809   0.442   1.801   1.516
 4970SOL    HW215810   0.521   1.660   1.537
 4971SOL     OW15811   6.697   6.043   2.723
 4971SOL    HW115812   6.777   6.089   2.762
 4971SOL    HW215813   6.677   6.082   2.633
 4972SOL     OW15814   1.022   4.184   1.237
 4972SOL    HW115815   1.042   4.225   1.148
 4972SOL    HW215816   1.092   4.115   1.259
 4973SOL     OW15817   6.699   0.735   1.021
 4973SOL    HW115818   6.781   0.697   0.980
 4973SOL    HW215819   6.619   0.681   0.993
 4974SOL     OW15820   3.505   5.689   5.050
 4974SOL    HW115821   3.583   5.642   5.008
 4974SOL    HW215822   3.426   5.627   5.051
 4975SOL     OW15823   5.893   4.657   0.704
 4975SOL    HW115824   5.946   4.734   0.741
 4975SOL    HW215825   5.796   4.680   0.706
 4976SOL     OW15826   1.863   6.660   3.214
 4976SOL    HW115827   1.842   6.617   3.302
 4976SOL    HW215828   1.834   6.599   3.139
 4977SOL     OW15829   2.048   4.424   6.170
 4977SOL    HW115830   2.116   4.352   6.182
 4977SOL    HW215831   2.067   4.475   6.086
 4978SOL     OW15832   5.133   4.722   4.810
 4978SOL    HW115833   5.114   4.660   4.887
 4978SOL    HW215834   5.193   4.675   4.745
 4979SOL     OW15835   2.572   7.004   6.107
 4979SOL    HW115836   2.627   0.068   6.089
 4979SOL    HW215837   2.520   7.016   6.191
 4980SOL     OW15838   5.337   3.614   3.434
 4980SOL    HW115839   5.342   3.656   3.525
 4980SOL    HW215840   5.252   3.562   3.426
 4981SOL     OW15841   3.318   4.898   2.125
 4981SOL    HW115842   3.291   4.933   2.035
 4981SOL    HW215843   3.390   4.829   2.115
 4982SOL     OW15844   4.146   1.706   5.925
 4982SOL    HW115845   4.160   1.799   5.960
 4982SOL    HW215846   4.153   1.641   6.001
 4983SOL     OW15847   5.764   5.562   2.786
 4983SOL    HW115848   5.800   5.468   2.790
 4983SOL    HW215849   5.762   5.600   2.878
 4984SOL     OW15850   4.968   4.395   3.172
 4984SOL    HW115851   5.001   4.315   3.123
 4984SOL    HW215852   4.898   4.441   3.116
 4985SOL     OW15853   5.469   6.609   2.405
 4985SOL    HW115854   5.394   6.584   2.344
 4985SOL    HW215855   5.441   6.595   2.500
 4986SOL     OW15856   0.077   4.883   2.667
 4986SOL    HW115857   7.011   4.830   2.646
 4986SOL    HW215858   0.055   4.981   2.664
 4987SOL     OW15859   0.836   1.274   2.364
 4987SOL    HW115860   0.755   1.330   2.348
 4987SOL    HW215861   0.808   1.178   2.372
 4988SOL     OW15862   5.930   6.630   3.468
 4988SOL    HW115863   5.908   6.693   3.394
 4988SOL    HW215864   5.923   6.678   3.556
 4989SOL     OW15865   4.273   0.438   2.544
 4989SOL    HW115866   4.198   0.416   2.481
 4989SOL    HW215867   4.288   0.361   2.606
 4990SOL     OW15868   4.407   2.104   5.103
 4990SOL    HW115869   4.335   2.164   5.140
 4990SOL    HW215870   4.470   2.158   5.047
 4991SOL     OW15871   1.190   5.014   4.826
 4991SOL    HW115872   1.254   5.077   4.780
 4991SOL    HW215873   1.173   5.046   4.919
 4992SOL     OW15874   0.500   2.563   4.103
 4992SOL    HW115875   0.409   2.531   4.127
 4992SOL    HW215876   0.519   2.543   4.007
 4993SOL     OW15877   3.520   6.151   3.799
 4993SOL    HW115878   3.506   6.233   3.854
 4993SOL    HW215879   3.560   6.079   3.856
 4994SOL     OW15880   3.283   4.511   5.426
 4994SOL    HW115881   3.291   4.522   5.525
 4994SOL    HW215882   3.316   4.593   5.380
 4995SOL     OW15883   0.625   0.180   5.555
 4995SOL    HW115884   0.617   0.081   5.567
 4995SOL    HW215885   0.715   0.211   5.586
 4996SOL     OW15886   7.005   1.372   4.589
 4996SOL    HW115887   6.939   1.441   4.618
 4996SOL    HW215888   0.078   1.414   4.580
 4997SOL     OW15889   3.829   2.010   1.515
 4997SOL    HW115890   3.891   1.949   1.564
 4997SOL    HW215891   3.758   2.043   1.577
 4998SOL     OW15892   0.275   3.576   3.591
 4998SOL    HW115893   0.229   3.585   3.679
 4998SOL    HW215894   0.227   3.509   3.535
 4999SOL     OW15895   0.767   3.757   4.241
 4999SOL    HW115896   0.683   3.733   4.193
 4999SOL    HW215897   0.815   3.674   4.269
 5000SOL     OW15898   2.962   5.453   2.406
 5000SOL    HW115899   2.888   5.512   2.440
 5000SOL    HW215900   2.924   5.384   2.345
 5001SOL     OW15901   0.479   5.365   3.015
 5001SOL    HW115902   0.452   5.413   3.098
 5001SOL    HW215903   0.429   5.278   3.009
 5002SOL     OW15904   0.468   2.945   3.413
 5002SOL    HW115905   0.509   3.031   3.385
 5002SOL    HW215906   0.373   2.942   3.383
 5003SOL     OW15907   4.203   6.896   4.003
 5003SOL    HW115908   4.204   6.939   3.913
 5003SOL    HW215909   4.140   6.819   4.003
 5004SOL     OW15910   2.251   6.040   6.686
 5004SOL    HW115911   2.175   5.998   6.737
 5004SOL    HW215912   2.298   6.106   6.745
 5005SOL     OW15913   3.464   2.262   0.400
 5005SOL    HW115914   3.402   2.340   0.399
 5005SOL    HW215915   3.429   2.191   0.338
 5006SOL     OW15916   5.326   1.810   1.889
 5006SOL    HW115917   5.321   1.736   1.955
 5006SOL    HW215918   5.244   1.867   1.896
 5007SOL     OW15919   6.036   6.933   2.185
 5007SOL    HW115920   6.013   6.845   2.226
 5007SOL    HW215921   5.961   6.998   2.201
 5008SOL     OW15922   5.472   6.217   2.152
 5008SOL    HW115923   5.517   6.134   2.118
 5008SOL    HW215924   5.449   6.206   2.249
 5009SOL     OW15925   6.959   2.507   0.757
 5009SOL    HW115926   6.882   2.492   0.696
 5009SOL    HW215927   6.985   2.604   0.755
 5010SOL     OW15928   4.206   3.257   0.782
 5010SOL    HW115929   4.238   3.325   0.716
 5010SOL    HW215930   4.131   3.295   0.835
 5011SOL     OW15931   2.236   3.300   6.746
 5011SOL    HW115932   2.165   3.355   6.792
 5011SOL    HW215933   2.323   3.349   6.750
 5012SOL     OW15934   5.928   2.153   4.995
 5012SOL    HW115935   5.887   2.108   4.915
 5012SOL    HW215936   5.882   2.240   5.011
 5013SOL     OW15937   6.063   0.686   5.780
 5013SOL    HW115938   6.154   0.659   5.747
 5013SOL    HW215939   6.053   0.785   5.773
 5014SOL     OW15940   6.646   3.593   1.361
 5014SOL    HW115941   6.597   3.640   1.434
 5014SOL    HW215942   6.584   3.532   1.312
 5015SOL     OW15943   5.573   6.658   4.078
 5015SOL    HW115944   5.532   6.630   3.991
 5015SOL    HW215945   5.550   6.591   4.149
 5016SOL     OW15946   1.599   3.723   5.422
 5016SOL    HW115947   1.594   3.807   5.368
 5016SOL    HW215948   1.560   3.739   5.513
 5017SOL     OW15949   0.577   2.620   1.732
 5017SOL    HW115950   0.583   2.697   1.668
 5017SOL    HW215951   0.532   2.650   1.816
 5018SOL     OW15952   0.595   6.712   0.857
 5018SOL    HW115953   0.518   6.725   0.795
 5018SOL    HW215954   0.566   6.727   0.951
 5019SOL     OW15955   1.337   5.326   5.453
 5019SOL    HW115956   1.297   5.382   5.380
 5019SOL    HW215957   1.270   5.315   5.526
 5020SOL     OW15958   1.669   0.045   4.369
 5020SOL    HW115959   1.636   0.134   4.336
 5020SOL    HW215960   1.763   0.032   4.337
 5021SOL     OW15961   1.366   1.466   1.200
 5021SOL    HW115962   1.283   1.424   1.165
 5021SOL    HW215963   1.350   1.501   1.292
 5022SOL     OW15964   0.486   3.314   1.304
 5022SOL    HW115965   0.467   3.312   1.205
 5022SOL    HW215966   0.521   3.404   1.330
 5023SOL     OW15967   6.942   4.459   2.765
 5023SOL    HW115968   0.003   4.418   2.718
 5023SOL    HW215969   6.911   4.398   2.839
 5024SOL     OW15970   4.596   3.804   1.594
 5024SOL    HW115971   4.626   3.815   1.499
 5024SOL    HW215972   4.585   3.706   1.614
 5025SOL     OW15973   3.938   0.891   3.632
 5025SOL    HW115974   3.991   0.941   3.700
 5025SOL    HW215975   3.866   0.951   3.597
 5026SOL     OW15976   4.353   0.077   5.005
 5026SOL    HW115977   4.339   6.999   4.976
 5026SOL    HW215978   4.353   0.137   4.924
 5027SOL     OW15979   5.098   0.645   6.867
 5027SOL    HW115980   5.125   0.653   6.963
 5027SOL    HW215981   5.050   0.728   6.839
 5028SOL     OW15982   0.456   2.085   3.022
 5028SOL    HW115983   0.537   2.038   3.058
 5028SOL    HW215984   0.453   2.178   3.058
 5029SOL     OW15985   6.012   1.665   2.778
 5029SOL    HW115986   5.950   1.742   2.764
 5029SOL    HW215987   5.959   1.581   2.790
 5030SOL     OW15988   0.237   4.655   6.402
 5030SOL    HW115989   0.322   4.653   6.454
 5030SOL    HW215990   0.235   4.579   6.337
 5031SOL     OW15991   6.876   0.255   6.119
 5031SOL    HW115992   6.818   0.254   6.201
 5031SOL    HW215993   6.842   0.324   6.055
 5032SOL     OW15994   3.030   3.238   5.463
 5032SOL    HW115995   3.074   3.248   5.374
 5032SOL    HW215996   3.017   3.141   5.483
 5033SOL     OW15997   1.691   1.290   0.096
 5033SOL    HW115998   1.691   1.342   0.011
 5033SOL    HW215999   1.723   1.197   0.079
 5034SOL     OW16000   4.383   6.525   3.948
 5034SOL    HW116001   4.354   6.591   4.018
 5034SOL    HW216002   4.412   6.574   3.866
 5035SOL     OW16003   1.101   4.577   3.727
 5035SOL    HW116004   1.038   4.516   3.775
 5035SOL    HW216005   1.121   4.541   3.636
 5036SOL     OW16006   6.203   2.884   5.241
 5036SOL    HW116007   6.210   2.784   5.242
 5036SOL    HW216008   6.110   2.911   5.215
 5037SOL     OW16009   4.335   4.506   0.599
 5037SOL    HW116010   4.419   4.457   0.575
 5037SOL    HW216011   4.285   4.528   0.515
 5038SOL     OW16012   3.530   3.564   3.994
 5038SOL    HW116013   3.475   3.547   3.912
 5038SOL    HW216014   3.499   3.504   4.068
 5039SOL     OW16015   0.516   3.380   6.782
 5039SOL    HW116016   0.482   3.292   6.749
 5039SOL    HW216017   0.603   3.367   6.828
 5040SOL     OW16018   0.769   5.774   6.679
 5040SOL    HW116019   0.826   5.702   6.719
 5040SOL    HW216020   0.821   5.859   6.673
 5041SOL     OW16021   0.030   3.429   2.443
 5041SOL    HW116022   0.112   3.418   2.387
 5041SOL    HW216023   7.015   3.524   2.435
 5042SOL     OW16024   0.707   3.614   5.779
 5042SOL    HW116025   0.739   3.679   5.711
 5042SOL    HW216026   0.724   3.650   5.871
 5043SOL     OW16027   3.713   6.990   0.871
 5043SOL    HW116028   3.745   6.919   0.933
 5043SOL    HW216029   3.772   0.054   0.880
 5044SOL     OW16030   5.808   5.452   0.689
 5044SOL    HW116031   5.765   5.542   0.699
 5044SOL    HW216032   5.854   5.427   0.774
 5045SOL     OW16033   6.295   3.348   5.899
 5045SOL    HW116034   6.337   3.414   5.962
 5045SOL    HW216035   6.315   3.255   5.929
 5046SOL     OW16036   3.340   3.210   3.456
 5046SOL    HW116037   3.422   3.204   3.513
 5046SOL    HW216038   3.300   3.118   3.445
 5047SOL     OW16039   1.941   3.941   3.121
 5047SOL    HW116040   1.981   4.018   3.171
 5047SOL    HW216041   2.007   3.867   3.114
 5048SOL     OW16042   1.387   0.979   5.853
 5048SOL    HW116043   1.448   1.056   5.835
 5048SOL    HW216044   1.325   1.003   5.928
 5049SOL     OW16045   5.797   0.936   6.047
 5049SOL    HW116046   5.721   1.001   6.038
 5049SOL    HW216047   5.832   0.939   6.141
 5050SOL     OW16048   1.862   0.896   1.433
 5050SOL    HW116049   1.887   0.808   1.473
 5050SOL    HW216050   1.913   0.970   1.478
 5051SOL     OW16051   3.745   4.784   1.342
 5051SOL    HW116052   3.729   4.778   1.440
 5051SOL    HW216053   3.829   4.835   1.324
 5052SOL     OW16054   2.914   1.365   5.663
 5052SOL    HW116055   2.849   1.440   5.677
 5052SOL    HW216056   2.877   1.281   5.703
 5053SOL     OW16057   0.388   6.293   2.230
 5053SOL    HW116058   0.482   6.260   2.230
 5053SOL    HW216059   0.334   6.241   2.296
 5054SOL     OW16060   3.905   4.858   4.322
 5054SOL    HW116061   3.999   4.856   4.287
 5054SOL    HW216062   3.906   4.853   4.422
 5055SOL     OW16063   6.461   2.945   6.752
 5055SOL    HW116064   6.498   2.906   6.836
 5055SOL    HW216065   6.367   2.913   6.739
 5056SOL     OW16066   5.310   4.097   5.247
 5056SOL    HW116067   5.259   4.165   5.301
 5056SOL    HW216068   5.325   4.132   5.155
 5057SOL     OW16069   1.071   6.725   2.803
 5057SOL    HW116070   1.017   6.642   2.811
 5057SOL    HW216071   1.020   6.802   2.840
 5058SOL     OW16072   3.009   4.513   6.328
 5058SOL    HW116073   3.026   4.607   6.357
 5058SOL    HW216074   2.918   4.484   6.357
 5059SOL     OW16075   0.474   0.798   2.441
 5059SOL    HW116076   0.558   0.779   2.492
 5059SOL    HW216077   0.477   0.891   2.406
 5060SOL     OW16078   6.220   1.718   5.559
 5060SOL    HW116079   6.214   1.806   5.605
 5060SOL    HW216080   6.313   1.681   5.569
 5061SOL     OW16081   4.897   3.613   0.276
 5061SOL    HW116082   4.937   3.522   0.276
 5061SOL    HW216083   4.950   3.673   0.217
 5062SOL     OW16084   0.500   0.136   1.259
 5062SOL    HW116085   0.521   0.083   1.341
 5062SOL    HW216086   0.565   0.211   1.250
 5063SOL     OW16087   0.964   6.725   1.891
 5063SOL    HW116088   1.050   6.774   1.876
 5063SOL    HW216089   0.946   6.717   1.989
 5064SOL     OW16090   4.710   2.928   0.457
 5064SOL    HW116091   4.614   2.933   0.431
 5064SOL    HW216092   4.757   2.862   0.399
 5065SOL     OW16093   2.277   6.554   6.145
 5065SOL    HW116094   2.309   6.613   6.219
 5065SOL    HW216095   2.285   6.458   6.171
 5066SOL     OW16096   5.744   5.071   1.239
 5066SOL    HW116097   5.757   5.165   1.270
 5066SOL    HW216098   5.834   5.030   1.221
 5067SOL     OW16099   4.682   1.514   0.439
 5067SOL    HW116100   4.717   1.589   0.496
 5067SOL    HW216101   4.749   1.440   0.437
 5068SOL     OW16102   2.545   5.089   0.815
 5068SOL    HW116103   2.618   5.042   0.865
 5068SOL    HW216104   2.522   5.036   0.734
 5069SOL     OW16105   0.424   4.689   2.807
 5069SOL    HW116106   0.392   4.617   2.745
 5069SOL    HW216107   0.347   4.724   2.860
 5070SOL     OW16108   4.998   2.757   4.151
 5070SOL    HW116109   5.027   2.697   4.226
 5070SOL    HW216110   5.046   2.730   4.067
 5071SOL     OW16111   4.986   1.816   6.971
 5071SOL    HW116112   5.003   1.911   6.945
 5071SOL    HW216113   5.037   1.755   6.910
 5072SOL     OW16114   0.989   4.480   1.305
 5072SOL    HW116115   1.006   4.386   1.273
 5072SOL    HW216116   0.915   4.520   1.251
 5073SOL     OW16117   4.698   0.857   3.127
 5073SOL    HW116118   4.623   0.905   3.173
 5073SOL    HW216119   4.681   0.759   3.130
 5074SOL     OW16120   2.734   3.916   6.313
 5074SOL    HW116121   2.716   3.974   6.393
 5074SOL    HW216122   2.825   3.937   6.277
 5075SOL     OW16123   0.347   6.094   4.918
 5075SOL    HW116124   0.426   6.038   4.895
 5075SOL    HW216125   0.275   6.079   4.851
 5076SOL     OW16126   3.211   0.547   1.400
 5076SOL    HW116127   3.222   0.471   1.337
 5076SOL    HW216128   3.301   0.583   1.424
 5077SOL     OW16129   0.510   2.244   3.370
 5077SOL    HW116130   0.461   2.160   3.389
 5077SOL    HW216131   0.449   2.310   3.326
 5078SOL     OW16132   1.248   1.871   4.112
 5078SOL    HW116133   1.241   1.800   4.042
 5078SOL    HW216134   1.269   1.829   4.200
 5079SOL     OW16135   3.773   5.061   5.731
 5079SOL    HW116136   3.761   4.974   5.684
 5079SOL    HW216137   3.714   5.065   5.811
 5080SOL     OW16138   5.916   0.158   5.794
 5080SOL    HW116139   5.958   0.090   5.854
 5080SOL    HW216140   5.910   0.246   5.843
 5081SOL     OW16141   3.677   3.305   3.640
 5081SOL    HW116142   3.722   3.258   3.716
 5081SOL    HW216143   3.672   3.403   3.658
 5082SOL     OW16144   5.364   5.993   4.843
 5082SOL    HW116145   5.413   6.055   4.782
 5082SOL    HW216146   5.277   6.034   4.871
 5083SOL     OW16147   1.922   6.291   1.668
 5083SOL    HW116148   1.990   6.354   1.628
 5083SOL    HW216149   1.909   6.214   1.606
 5084SOL     OW16150   1.434   5.995   3.424
 5084SOL    HW116151   1.435   5.994   3.324
 5084SOL    HW216152   1.343   6.020   3.457
 5085SOL     OW16153   6.292   2.566   6.332
 5085SOL    HW116154   6.232   2.516   6.393
 5085SOL    HW216155   6.387   2.537   6.347
 5086SOL     OW16156   6.801   5.083   3.560
 5086SOL    HW116157   6.764   5.133   3.482
 5086SOL    HW216158   6.854   5.146   3.617
 5087SOL     OW16159   6.839   5.252   5.626
 5087SOL    HW116160   6.913   5.255   5.559
 5087SOL    HW216161   6.846   5.331   5.687
 5088SOL     OW16162   5.703   0.358   6.465
 5088SOL    HW116163   5.753   0.286   6.416
 5088SOL    HW216164   5.654   0.415   6.398
 5089SOL     OW16165   5.858   3.712   3.478
 5089SOL    HW116166   5.842   3.630   3.534
 5089SOL    HW216167   5.817   3.700   3.388
 5090SOL     OW16168   1.879   5.232   1.043
 5090SOL    HW116169   1.915   5.216   1.135
 5090SOL    HW216170   1.780   5.242   1.048
 5091SOL     OW16171   1.202   5.951   2.704
 5091SOL    HW116172   1.154   6.022   2.756
 5091SOL    HW216173   1.205   5.867   2.758
 5092SOL     OW16174   4.335   2.257   1.294
 5092SOL    HW116175   4.352   2.159   1.284
 5092SOL    HW216176   4.291   2.274   1.382
 5093SOL     OW16177   0.798   2.193   2.086
 5093SOL    HW116178   0.772   2.104   2.124
 5093SOL    HW216179   0.830   2.180   1.992
 5094SOL     OW16180   0.568   6.928   5.553
 5094SOL    HW116181   0.643   6.905   5.491
 5094SOL    HW216182   0.505   6.851   5.558
 5095SOL     OW16183   2.803   6.928   4.770
 5095SOL    HW116184   2.893   6.971   4.782
 5095SOL    HW216185   2.760   6.965   4.687
 5096SOL     OW16186   4.228   4.251   0.983
 5096SOL    HW116187   4.280   4.268   1.067
 5096SOL    HW216188   4.201   4.154   0.979
 5097SOL     OW16189   1.566   6.872   6.181
 5097SOL    HW116190   1.491   6.876   6.114
 5097SOL    HW216191   1.528   6.869   6.273
 5098SOL     OW16192   0.384   1.593   2.586
 5098SOL    HW116193   0.371   1.637   2.497
 5098SOL    HW216194   0.295   1.561   2.620
 5099SOL     OW16195   1.270   0.272   5.152
 5099SOL    HW116196   1.327   0.198   5.188
 5099SOL    HW216197   1.315   0.313   5.073
 5100SOL     OW16198   5.321   0.144   6.303
 5100SOL    HW116199   5.366   0.098   6.227
 5100SOL    HW216200   5.225   0.118   6.306
 5101SOL     OW16201   4.282   6.389   0.334
 5101SOL    HW116202   4.375   6.427   0.340
 5101SOL    HW216203   4.228   6.419   0.413
 5102SOL     OW16204   3.567   5.865   5.325
 5102SOL    HW116205   3.560   5.772   5.362
 5102SOL    HW216206   3.476   5.900   5.305
 5103SOL     OW16207   0.618   0.720   4.183
 5103SOL    HW116208   0.548   0.771   4.231
 5103SOL    HW216209   0.672   0.667   4.248
 5104SOL     OW16210   1.424   0.530   1.530
 5104SOL    HW116211   1.394   0.623   1.555
 5104SOL    HW216212   1.477   0.533   1.446
 5105SOL     OW16213   3.119   3.947   6.266
 5105SOL    HW116214   3.146   3.934   6.361
 5105SOL    HW216215   3.174   3.888   6.207
 5106SOL     OW16216   3.502   0.763   2.365
 5106SOL    HW116217   3.448   0.743   2.446
 5106SOL    HW216218   3.451   0.737   2.283
 5107SOL     OW16219   1.930   6.821   5.819
 5107SOL    HW116220   2.019   6.797   5.782
 5107SOL    HW216221   1.935   6.909   5.866
 5108SOL     OW16222   3.483   3.613   4.338
 5108SOL    HW116223   3.436   3.693   4.375
 5108SOL    HW216224   3.420   3.536   4.336
 5109SOL     OW16225   0.214   1.351   1.400
 5109SOL    HW116226   0.167   1.438   1.413
 5109SOL    HW216227   0.170   1.300   1.326
 5110SOL     OW16228   2.266   5.689   5.562
 5110SOL    HW116229   2.170   5.706   5.585
 5110SOL    HW216230   2.300   5.613   5.617
 5111SOL     OW16231   1.564   1.119   0.890
 5111SOL    HW116232   1.616   1.115   0.805
 5111SOL    HW216233   1.471   1.150   0.872
 5112SOL     OW16234   0.346   5.841   3.850
 5112SOL    HW116235   0.279   5.767   3.838
 5112SOL    HW216236   0.395   5.828   3.936
 5113SOL     OW16237   1.265   0.132   6.725
 5113SOL    HW116238   1.231   0.174   6.809
 5113SOL    HW216239   1.205   0.156   6.648
 5114SOL     OW16240   3.782   4.837   0.118
 5114SOL    HW116241   3.880   4.855   0.109
 5114SOL    HW216242   3.764   4.740   0.105
 5115SOL     OW16243   1.798   3.544   5.681
 5115SOL    HW116244   1.875   3.482   5.697
 5115SOL    HW216245   1.747   3.514   5.600
 5116SOL     OW16246   6.725   4.502   0.331
 5116SOL    HW116247   6.757   4.544   0.416
 5116SOL    HW216248   6.793   4.436   0.300
 5117SOL     OW16249   2.382   4.385   4.516
 5117SOL    HW116250   2.421   4.366   4.425
 5117SOL    HW216251   2.311   4.318   4.537
 5118SOL     OW16252   4.572   6.735   0.839
 5118SOL    HW116253   4.539   6.760   0.748
 5118SOL    HW216254   4.638   6.660   0.831
 5119SOL     OW16255   6.034   6.654   2.239
 5119SOL    HW116256   6.106   6.639   2.171
 5119SOL    HW216257   5.954   6.598   2.216
 5120SOL     OW16258   5.004   1.643   2.516
 5120SOL    HW116259   4.929   1.612   2.576
 5120SOL    HW216260   5.068   1.698   2.569
 5121SOL     OW16261   0.610   3.765   5.346
 5121SOL    HW116262   0.593   3.667   5.332
 5121SOL    HW216263   0.543   3.818   5.295
 5122SOL     OW16264   1.817   6.343   3.723
 5122SOL    HW116265   1.782   6.410   3.788
 5122SOL    HW216266   1.891   6.384   3.669
 5123SOL     OW16267   5.488   4.690   2.249
 5123SOL    HW116268   5.564   4.649   2.300
 5123SOL    HW216269   5.485   4.650   2.158
 5124SOL     OW16270   2.564   6.835   0.071
 5124SOL    HW116271   2.608   6.798   7.006
 5124SOL    HW216272   2.499   6.907   0.045
 5125SOL     OW16273   0.175   3.202   5.013
 5125SOL    HW116274   0.168   3.163   4.921
 5125SOL    HW216275   0.271   3.226   5.031
 5126SOL     OW16276   5.608   3.579   6.356
 5126SOL    HW116277   5.623   3.677   6.351
 5126SOL    HW216278   5.695   3.532   6.371
 5127SOL     OW16279   6.074   3.087   6.651
 5127SOL    HW116280   5.979   3.059   6.639
 5127SOL    HW216281   6.120   3.027   6.716
 5128SOL     OW16282   0.169   0.809   6.879
 5128SOL    HW116283   0.115   0.820   6.962
 5128SOL    HW216284   0.220   0.723   6.884
 5129SOL     OW16285   4.271   2.046   2.476
 5129SOL    HW116286   4.262   1.948   2.491
 5129SOL    HW216287   4.201   2.076   2.410
 5130SOL     OW16288   1.338   6.053   4.559
 5130SOL    HW116289   1.412   6.042   4.493
 5130SOL    HW216290   1.355   6.135   4.613
 5131SOL     OW16291   3.109   4.956   3.634
 5131SOL    HW116292   3.071   5.047   3.649
 5131SOL    HW216293   3.134   4.915   3.722
 5132SOL     OW16294   3.675   1.165   6.969
 5132SOL    HW116295   3.765   1.208   6.980
 5132SOL    HW216296   3.604   1.232   6.993
 5133SOL     OW16297   4.778   4.210   6.848
 5133SOL    HW116298   4.848   4.271   6.811
 5133SOL    HW216299   4.702   4.203   6.784
 5134SOL     OW16300   6.599   6.271   1.030
 5134SOL    HW116301   6.537   6.278   0.951
 5134SOL    HW216302   6.658   6.351   1.034
 5135SOL     OW16303   6.423   3.419   1.970
 5135SOL    HW116304   6.367   3.480   1.912
 5135SOL    HW216305   6.399   3.324   1.951
 5136SOL     OW16306   1.096   1.004   5.945
 5136SOL    HW116307   1.016   0.980   6.000
 5136SOL    HW216308   1.124   0.925   5.890
 5137SOL     OW16309   6.318   1.076   4.515
 5137SOL    HW116310   6.355   1.064   4.608
 5137SOL    HW216311   6.224   1.044   4.512
 5138SOL     OW16312   3.025   3.313   4.149
 5138SOL    HW116313   3.118   3.342   4.128
 5138SOL    HW216314   2.963   3.344   4.077
 5139SOL     OW16315   2.569   0.380   5.399
 5139SOL    HW116316   2.556   0.282   5.380
 5139SOL    HW216317   2.641   0.391   5.468
 5140SOL     OW16318   4.307   2.657   6.905
 5140SOL    HW116319   4.307   2.652   7.004
 5140SOL    HW216320   4.313   2.565   6.867
 5141SOL     OW16321   6.542   2.684   1.866
 5141SOL    HW116322   6.480   2.688   1.788
 5141SOL    HW216323   6.573   2.590   1.879
 5142SOL     OW16324   0.265   0.135   2.518
 5142SOL    HW116325   0.364   0.127   2.523
 5142SOL    HW216326   0.239   0.224   2.482
 5143SOL     OW16327   0.217   6.413   2.946
 5143SOL    HW116328   0.219   6.504   2.906
 5143SOL    HW216329   0.142   6.360   2.906
 5144SOL     OW16330   2.326   2.900   5.322
 5144SOL    HW116331   2.384   2.943   5.252
 5144SOL    HW216332   2.293   2.970   5.386
 5145SOL     OW16333   2.083   5.694   6.943
 5145SOL    HW116334   2.030   5.631   6.886
 5145SOL    HW216335   2.166   5.647   6.975
 5146SOL     OW16336   5.506   5.268   6.137
 5146SOL    HW116337   5.443   5.194   6.159
 5146SOL    HW216338   5.595   5.248   6.177
 5147SOL     OW16339   4.594   2.647   3.727
 5147SOL    HW116340   4.523   2.577   3.724
 5147SOL    HW216341   4.670   2.614   3.783
 5148SOL     OW16342   0.785   0.633   6.321
 5148SOL    HW116343   0.853   0.689   6.274
 5148SOL    HW216344   0.712   0.608   6.257
 5149SOL     OW16345   4.904   4.567   3.969
 5149SOL    HW116346   4.937   4.568   4.063
 5149SOL    HW216347   4.972   4.524   3.910
 5150SOL     OW16348   0.013   6.061   3.931
 5150SOL    HW116349   0.066   6.076   4.014
 5150SOL    HW216350   0.028   6.137   3.867
 5151SOL     OW16351   6.217   5.314   2.188
 5151SOL    HW116352   6.186   5.288   2.096
 5151SOL    HW216353   6.315   5.334   2.186
 5152SOL     OW16354   1.165   1.304   0.355
 5152SOL    HW116355   1.264   1.314   0.369
 5152SOL    HW216356   1.120   1.300   0.444
 5153SOL     OW16357   0.960   1.691   1.206
 5153SOL    HW116358   1.013   1.679   1.290
 5153SOL    HW216359   0.865   1.665   1.223
 5154SOL     OW16360   0.582   2.798   0.164
 5154SOL    HW116361   0.562   2.895   0.176
 5154SOL    HW216362   0.534   2.745   0.234
 5155SOL     OW16363   1.657   1.440   0.687
 5155SOL    HW116364   1.669   1.469   0.592
 5155SOL    HW216365   1.572   1.478   0.723
 5156SOL     OW16366   5.264   6.039   5.882
 5156SOL    HW116367   5.350   6.009   5.923
 5156SOL    HW216368   5.275   6.130   5.843
 5157SOL     OW16369   3.571   0.467   1.253
 5157SOL    HW116370   3.514   0.545   1.281
 5157SOL    HW216371   3.538   0.385   1.299
 5158SOL     OW16372   1.907   2.073   1.515
 5158SOL    HW116373   1.895   1.983   1.558
 5158SOL    HW216374   1.871   2.071   1.422
 5159SOL     OW16375   6.369   3.331   5.648
 5159SOL    HW116376   6.343   3.366   5.738
 5159SOL    HW216377   6.288   3.297   5.601
 5160SOL     OW16378   6.129   6.339   3.652
 5160SOL    HW116379   6.128   6.331   3.752
 5160SOL    HW216380   6.170   6.426   3.625
 5161SOL     OW16381   1.107   3.339   0.747
 5161SOL    HW116382   1.047   3.351   0.668
 5161SOL    HW216383   1.130   3.428   0.786
 5162SOL     OW16384   0.209   0.054   3.521
 5162SOL    HW116385   0.109   0.057   3.512
 5162SOL    HW216386   0.249   0.119   3.456
 5163SOL     OW16387   3.017   0.441   1.864
 5163SOL    HW116388   2.988   0.506   1.935
 5163SOL    HW216389   3.030   0.489   1.777
 5164SOL     OW16390   3.011   3.331   0.573
 5164SOL    HW116391   3.081   3.298   0.635
 5164SOL    HW216392   2.958   3.254   0.537
 5165SOL     OW16393   1.624   4.096   6.129
 5165SOL    HW116394   1.696   4.156   6.164
 5165SOL    HW216395   1.544   4.102   6.189
 5166SOL     OW16396   1.209   5.323   0.910
 5166SOL    HW116397   1.289   5.381   0.928
 5166SOL    HW216398   1.127   5.380   0.905
 5167SOL     OW16399   5.435   3.218   5.335
 5167SOL    HW116400   5.371   3.284   5.375
 5167SOL    HW216401   5.483   3.259   5.258
 5168SOL     OW16402   4.538   2.213   2.986
 5168SOL    HW116403   4.525   2.146   3.059
 5168SOL    HW216404   4.449   2.246   2.954
 5169SOL     OW16405   4.156   6.035   4.508
 5169SOL    HW116406   4.094   6.023   4.431
 5169SOL    HW216407   4.138   5.964   4.577
 5170SOL     OW16408   2.041   3.652   6.650
 5170SOL    HW116409   1.951   3.661   6.607
 5170SOL    HW216410   2.099   3.727   6.619
 5171SOL     OW16411   1.991   5.674   5.235
 5171SOL    HW116412   2.084   5.670   5.200
 5171SOL    HW216413   1.927   5.645   5.164
 5172SOL     OW16414   6.234   5.843   4.435
 5172SOL    HW116415   6.327   5.808   4.442
 5172SOL    HW216416   6.186   5.797   4.360
 5173SOL     OW16417   4.406   4.107   5.699
 5173SOL    HW116418   4.441   4.036   5.638
 5173SOL    HW216419   4.326   4.072   5.748
 5174SOL     OW16420   2.250   6.496   3.202
 5174SOL    HW116421   2.253   6.577   3.144
 5174SOL    HW216422   2.343   6.461   3.215
 5175SOL     OW16423   3.272   3.295   7.014
 5175SOL    HW116424   3.286   3.330   0.090
 5175SOL    HW216425   3.293   3.198   7.012
 5176SOL     OW16426   6.167   6.337   0.213
 5176SOL    HW116427   6.209   6.250   0.186
 5176SOL    HW216428   6.225   6.383   0.279
 5177SOL     OW16429   5.992   6.937   0.636
 5177SOL    HW116430   6.051   6.953   0.557
 5177SOL    HW216431   5.917   6.876   0.610
 5178SOL     OW16432   0.580   4.483   2.289
 5178SOL    HW116433   0.625   4.462   2.203
 5178SOL    HW216434   0.527   4.403   2.320
 5179SOL     OW16435   4.841   6.015   2.475
 5179SOL    HW116436   4.931   5.975   2.457
 5179SOL    HW216437   4.781   5.946   2.515
 5180SOL     OW16438   2.547   6.778   2.506
 5180SOL    HW116439   2.488   6.856   2.525
 5180SOL    HW216440   2.499   6.711   2.449
 5181SOL     OW16441   0.300   7.010   5.973
 5181SOL    HW116442   0.248   0.075   5.949
 5181SOL    HW216443   0.286   6.988   6.069
 5182SOL     OW16444   2.685   6.309   3.338
 5182SOL    HW116445   2.694   6.390   3.395
 5182SOL    HW216446   2.595   6.267   3.354
 5183SOL     OW16447   4.330   1.439   3.874
 5183SOL    HW116448   4.340   1.502   3.952
 5183SOL    HW216449   4.245   1.388   3.884
 5184SOL     OW16450   2.845   1.579   3.852
 5184SOL    HW116451   2.768   1.624   3.805
 5184SOL    HW216452   2.930   1.598   3.803
 5185SOL     OW16453   6.444   0.393   1.878
 5185SOL    HW116454   6.464   0.358   1.970
 5185SOL    HW216455   6.489   0.482   1.867
 5186SOL     OW16456   0.209   3.255   6.507
 5186SOL    HW116457   0.123   3.272   6.556
 5186SOL    HW216458   0.190   3.199   6.426
 5187SOL     OW16459   1.456   4.694   5.227
 5187SOL    HW116460   1.531   4.674   5.290
 5187SOL    HW216461   1.409   4.778   5.257
 5188SOL     OW16462   6.092   6.927   2.775
 5188SOL    HW116463   6.109   6.947   2.679
 5188SOL    HW216464   6.059   6.833   2.785
 5189SOL     OW16465   5.440   7.000   6.089
 5189SOL    HW116466   5.381   6.923   6.114
 5189SOL    HW216467   5.508   7.015   6.161
 5190SOL     OW16468   2.202   4.073   0.811
 5190SOL    HW116469   2.181   4.102   0.904
 5190SOL    HW216470   2.293   4.032   0.809
 5191SOL     OW16471   3.023   4.861   2.133
 5191SOL    HW116472   3.118   4.891   2.131
 5191SOL    HW216473   2.993   4.838   2.040
 5192SOL     OW16474   1.966   5.234   2.377
 5192SOL    HW116475   1.870   5.264   2.377
 5192SOL    HW216476   1.980   5.168   2.303
 5193SOL     OW16477   5.058   0.270   5.542
 5193SOL    HW116478   4.984   0.313   5.594
 5193SOL    HW216479   5.092   0.191   5.592
 5194SOL     OW16480   5.285   1.650   6.459
 5194SOL    HW116481   5.244   1.571   6.415
 5194SOL    HW216482   5.305   1.720   6.390
 5195SOL     OW16483   7.009   0.702   4.915
 5195SOL    HW116484   0.088   0.698   4.945
 5195SOL    HW216485   6.989   0.622   4.858
 5196SOL     OW16486   5.529   0.023   3.275
 5196SOL    HW116487   5.552   0.120   3.285
 5196SOL    HW216488   5.457   0.013   3.206
 5197SOL     OW16489   0.930   3.516   5.178
 5197SOL    HW116490   0.947   3.593   5.117
 5197SOL    HW216491   0.953   3.541   5.272
 5198SOL     OW16492   5.755   5.203   3.331
 5198SOL    HW116493   5.712   5.158   3.253
 5198SOL    HW216494   5.854   5.210   3.315
 5199SOL     OW16495   0.605   4.916   1.775
 5199SOL    HW116496   0.639   4.838   1.828
 5199SOL    HW216497   0.505   4.911   1.771
 5200SOL     OW16498   6.989   3.868   4.625
 5200SOL    HW116499   0.005   3.951   4.580
 5200SOL    HW216500   6.889   3.871   4.632
 5201SOL     OW16501   1.311   4.771   4.108
 5201SOL    HW116502   1.354   4.779   4.198
 5201SOL    HW216503   1.217   4.804   4.113
 5202SOL     OW16504   0.903   5.327   1.652
 5202SOL    HW116505   0.921   5.241   1.605
 5202SOL    HW216506   0.809   5.328   1.685
 5203SOL     OW16507   0.945   2.577   0.703
 5203SOL    HW116508   0.889   2.624   0.634
 5203SOL    HW216509   0.900   2.491   0.729
 5204SOL     OW16510   4.972   4.667   6.773
 5204SOL    HW116511   4.882   4.696   6.742
 5204SOL    HW216512   5.030   4.648   6.694
 5205SOL     OW16513   1.668   0.219   1.641
 5205SOL    HW116514   1.693   0.296   1.583
 5205SOL    HW216515   1.743   0.198   1.703
 5206SOL     OW16516   0.506   4.422   5.233
 5206SOL    HW116517   0.538   4.427   5.138
 5206SOL    HW216518   0.414   4.462   5.239
 5207SOL     OW16519   1.863   4.145   4.120
 5207SOL    HW116520   1.888   4.068   4.061
 5207SOL    HW216521   1.833   4.222   4.064
 5208SOL     OW16522   4.410   1.483   6.594
 5208SOL    HW116523   4.343   1.523   6.657
 5208SOL    HW216524   4.367   1.407   6.545
 5209SOL     OW16525   5.134   6.171   3.108
 5209SOL    HW116526   5.114   6.135   3.200
 5209SOL    HW216527   5.137   6.271   3.112
 5210SOL     OW16528   4.788   4.947   3.690
 5210SOL    HW116529   4.721   4.946   3.616
 5210SOL    HW216530   4.831   5.037   3.695
 5211SOL     OW16531   4.095   3.822   2.595
 5211SOL    HW116532   4.012   3.877   2.582
 5211SOL    HW216533   4.171   3.863   2.544
 5212SOL     OW16534   0.851   1.854   0.536
 5212SOL    HW116535   0.927   1.790   0.521
 5212SOL    HW216536   0.787   1.848   0.460
 5213SOL     OW16537   3.954   2.023   6.590
 5213SOL    HW116538   4.048   1.990   6.590
 5213SOL    HW216539   3.917   2.016   6.497
 5214SOL     OW16540   5.550   1.501   5.728
 5214SOL    HW116541   5.473   1.564   5.724
 5214SOL    HW216542   5.633   1.547   5.696
 5215SOL     OW16543   4.970   5.405   2.273
 5215SOL    HW116544   4.888   5.459   2.287
 5215SOL    HW216545   4.946   5.308   2.271
 5216SOL     OW16546   4.750   5.207   1.024
 5216SOL    HW116547   4.796   5.287   0.985
 5216SOL    HW216548   4.754   5.131   0.958
 5217SOL     OW16549   2.575   4.910   3.967
 5217SOL    HW116550   2.577   4.825   4.020
 5217SOL    HW216551   2.668   4.943   3.953
 5218SOL     OW16552   1.438   6.958   3.653
 5218SOL    HW116553   1.489   6.907   3.722
 5218SOL    HW216554   1.502   7.004   3.592
 5219SOL     OW16555   2.500   5.772   0.083
 5219SOL    HW116556   2.447   5.772   7.016
 5219SOL    HW216557   2.468   5.699   0.143
 5220SOL     OW16558   0.517   6.641   2.354
 5220SOL    HW116559   0.595   6.668   2.298
 5220SOL    HW216560   0.534   6.552   2.395
 5221SOL     OW16561   4.814   1.392   4.982
 5221SOL    HW116562   4.777   1.328   5.050
 5221SOL    HW216563   4.893   1.439   5.021
 5222SOL     OW16564   1.135   0.380   2.597
 5222SOL    HW116565   1.138   0.480   2.601
 5222SOL    HW216566   1.118   0.344   2.689
 5223SOL     OW16567   5.108   0.007   1.420
 5223SOL    HW116568   5.131   6.926   1.424
 5223SOL    HW216569   5.096   0.041   1.513
 5224SOL     OW16570   5.814   2.126   2.311
 5224SOL    HW116571   5.905   2.130   2.352
 5224SOL    HW216572   5.745   2.142   2.382
 5225SOL     OW16573   5.481   5.985   5.343
 5225SOL    HW116574   5.418   5.948   5.275
 5225SOL    HW216575   5.499   6.081   5.323
 5226SOL     OW16576   1.339   6.398   4.088
 5226SOL    HW116577   1.407   6.386   4.016
 5226SOL    HW216578   1.324   6.312   4.135
 5227SOL     OW16579   5.868   4.827   3.367
 5227SOL    HW116580   5.884   4.899   3.299
 5227SOL    HW216581   5.773   4.797   3.361
 5228SOL     OW16582   5.583   1.335   0.713
 5228SOL    HW116583   5.661   1.287   0.754
 5228SOL    HW216584   5.507   1.335   0.779
 5229SOL     OW16585   1.134   4.446   5.285
 5229SOL    HW116586   1.233   4.428   5.285
 5229SOL    HW216587   1.114   4.524   5.226
 5230SOL     OW16588   1.109   0.290   6.886
 5230SOL    HW116589   1.043   0.347   6.838
 5230SOL    HW216590   1.099   0.302   6.985
 5231SOL     OW16591   3.880   3.026   3.317
 5231SOL    HW116592   3.861   2.950   3.254
 5231SOL    HW216593   3.816   3.023   3.393
 5232SOL     OW16594   4.690   2.417   6.649
 5232SOL    HW116595   4.742   2.481   6.705
 5232SOL    HW216596   4.606   2.391   6.698
 5233SOL     OW16597   0.918   0.624   2.598
 5233SOL    HW116598   1.011   0.649   2.569
 5233SOL    HW216599   0.852   0.689   2.560
 5234SOL     OW16600   4.080   6.878   1.039
 5234SOL    HW116601   4.050   6.948   0.975
 5234SOL    HW216602   4.151   6.822   0.996
 5235SOL     OW16603   0.904   3.318   1.245
 5235SOL    HW116604   0.846   3.388   1.204
 5235SOL    HW216605   0.849   3.261   1.306
 5236SOL     OW16606   5.232   3.014   1.029
 5236SOL    HW116607   5.251   3.038   1.125
 5236SOL    HW216608   5.187   2.926   1.025
 5237SOL     OW16609   2.359   1.886   5.183
 5237SOL    HW116610   2.333   1.909   5.089
 5237SOL    HW216611   2.277   1.857   5.234
 5238SOL     OW16612   1.885   4.853   1.379
 5238SOL    HW116613   1.816   4.905   1.431
 5238SOL    HW216614   1.843   4.771   1.341
 5239SOL     OW16615   2.882   3.561   4.374
 5239SOL    HW116616   2.845   3.528   4.287
 5239SOL    HW216617   2.916   3.483   4.427
 5240SOL     OW16618   3.344   2.115   4.888
 5240SOL    HW116619   3.280   2.146   4.958
 5240SOL    HW216620   3.404   2.044   4.926
 5241SOL     OW16621   1.942   5.698   6.425
 5241SOL    HW116622   2.022   5.682   6.483
 5241SOL    HW216623   1.961   5.774   6.363
 5242SOL     OW16624   5.744   0.892   5.185
 5242SOL    HW116625   5.693   0.806   5.186
 5242SOL    HW216626   5.689   0.964   5.227
 5243SOL     OW16627   1.672   4.926   1.094
 5243SOL    HW116628   1.769   4.907   1.081
 5243SOL    HW216629   1.661   5.023   1.116
 5244SOL     OW16630   5.341   4.263   5.781
 5244SOL    HW116631   5.296   4.294   5.698
 5244SOL    HW216632   5.399   4.184   5.760
 5245SOL     OW16633   4.887   3.580   6.754
 5245SOL    HW116634   4.792   3.599   6.779
 5245SOL    HW216635   4.909   3.484   6.773
 5246SOL     OW16636   0.996   3.190   2.610
 5246SOL    HW116637   0.909   3.141   2.611
 5246SOL    HW216638   1.048   3.168   2.693
 5247SOL     OW16639   0.689   4.829   1.187
 5247SOL    HW116640   0.634   4.912   1.181
 5247SOL    HW216641   0.692   4.798   1.281
 5248SOL     OW16642   4.824   0.934   6.011
 5248SOL    HW116643   4.921   0.908   6.010
 5248SOL    HW216644   4.795   0.954   6.104
 5249SOL     OW16645   0.845   5.256   4.624
 5249SOL    HW116646   0.927   5.309   4.646
 5249SOL    HW216647   0.793   5.239   4.707
 5250SOL     OW16648   0.677   1.578   6.091
 5250SOL    HW116649   0.620   1.575   6.174
 5250SOL    HW216650   0.623   1.550   6.012
 5251SOL     OW16651   6.849   3.206   1.041
 5251SOL    HW116652   6.800   3.235   1.124
 5251SOL    HW216653   6.937   3.167   1.066
 5252SOL     OW16654   4.219   5.868   0.721
 5252SOL    HW116655   4.234   5.956   0.676
 5252SOL    HW216656   4.273   5.863   0.805
 5253SOL     OW16657   5.566   3.330   3.821
 5253SOL    HW116658   5.493   3.268   3.850
 5253SOL    HW216659   5.542   3.424   3.847
 5254SOL     OW16660   4.599   0.636   4.044
 5254SOL    HW116661   4.630   0.577   3.969
 5254SOL    HW216662   4.557   0.718   4.006
 5255SOL     OW16663   3.552   6.551   5.044
 5255SOL    HW116664   3.647   6.547   5.011
 5255SOL    HW216665   3.499   6.479   5.000
 5256SOL     OW16666   5.661   6.296   3.750
 5256SOL    HW116667   5.651   6.356   3.671
 5256SOL    HW216668   5.718   6.340   3.819
 5257SOL     OW16669   3.353   0.939   1.065
 5257SOL    HW116670   3.281   0.944   1.134
 5257SOL    HW216671   3.427   1.001   1.089
 5258SOL     OW16672   6.040   3.450   2.553
 5258SOL    HW116673   5.953   3.440   2.601
 5258SOL    HW216674   6.108   3.391   2.596
 5259SOL     OW16675   4.586   4.951   2.597
 5259SOL    HW116676   4.511   4.996   2.549
 5259SOL    HW216677   4.659   4.930   2.533
 5260SOL     OW16678   5.606   3.342   1.387
 5260SOL    HW116679   5.508   3.346   1.363
 5260SOL    HW216680   5.654   3.287   1.319
 5261SOL     OW16681   1.470   2.406   4.704
 5261SOL    HW116682   1.379   2.365   4.694
 5261SOL    HW216683   1.461   2.496   4.747
 5262SOL     OW16684   2.542   0.262   2.315
 5262SOL    HW116685   2.506   0.171   2.293
 5262SOL    HW216686   2.494   0.331   2.263
 5263SOL     OW16687   0.989   6.473   6.661
 5263SOL    HW116688   0.897   6.478   6.623
 5263SOL    HW216689   1.020   6.564   6.687
 5264SOL     OW16690   0.222   2.162   0.972
 5264SOL    HW116691   0.310   2.140   1.014
 5264SOL    HW216692   0.222   2.256   0.940
 5265SOL     OW16693   5.070   4.748   1.667
 5265SOL    HW116694   5.161   4.723   1.632
 5265SOL    HW216695   5.032   4.821   1.610
 5266SOL     OW16696   1.599   6.664   1.183
 5266SOL    HW116697   1.522   6.700   1.131
 5266SOL    HW216698   1.682   6.713   1.157
 5267SOL     OW16699   4.792   4.580   4.848
 5267SOL    HW116700   4.760   4.629   4.767
 5267SOL    HW216701   4.891   4.564   4.840
 5268SOL     OW16702   5.541   4.673   4.768
 5268SOL    HW116703   5.626   4.664   4.716
 5268SOL    HW216704   5.507   4.767   4.760
 5269SOL     OW16705   1.936   5.787   3.910
 5269SOL    HW116706   1.899   5.738   3.832
 5269SOL    HW216707   1.995   5.861   3.878
 5270SOL     OW16708   6.132   2.815   1.914
 5270SOL    HW116709   6.181   2.729   1.902
 5270SOL    HW216710   6.175   2.886   1.859
 5271SOL     OW16711   5.034   4.500   4.953
 5271SOL    HW116712   5.021   4.402   4.939
 5271SOL    HW216713   5.025   4.522   5.050
 5272SOL     OW16714   1.721   0.964   5.056
 5272SOL    HW116715   1.712   1.013   5.142
 5272SOL    HW216716   1.652   0.996   4.991
 5273SOL     OW16717   0.411   1.075   3.740
 5273SOL    HW116718   0.401   0.976   3.728
 5273SOL    HW216719   0.321   1.118   3.734
 5274SOL     OW16720   6.289   5.066   4.031
 5274SOL    HW116721   6.241   5.153   4.027
 5274SOL    HW216722   6.372   5.076   4.084
 5275SOL     OW16723   1.920   6.946   6.911
 5275SOL    HW116724   1.912   6.967   7.008
 5275SOL    HW216725   2.007   6.900   6.893
 5276SOL     OW16726   0.353   6.850   1.437
 5276SOL    HW116727   0.271   6.847   1.494
 5276SOL    HW216728   0.350   6.933   1.380
 5277SOL     OW16729   1.072   1.707   3.215
 5277SOL    HW116730   1.095   1.804   3.213
 5277SOL    HW216731   1.025   1.683   3.130
 5278SOL     OW16732   0.951   5.377   5.339
 5278SOL    HW116733   0.892   5.368   5.419
 5278SOL    HW216734   0.984   5.287   5.311
 5279SOL     OW16735   1.687   5.618   6.785
 5279SOL    HW116736   1.602   5.608   6.733
 5279SOL    HW216737   1.665   5.650   6.878
 5280SOL     OW16738   4.453   5.886   5.017
 5280SOL    HW116739   4.528   5.830   5.052
 5280SOL    HW216740   4.478   5.982   5.021
 5281SOL     OW16741   2.145   1.169   4.935
 5281SOL    HW116742   2.241   1.160   4.911
 5281SOL    HW216743   2.127   1.263   4.966
 5282SOL     OW16744   1.519   0.523   1.830
 5282SOL    HW116745   1.590   0.580   1.789
 5282SOL    HW216746   1.466   0.479   1.758
 5283SOL     OW16747   0.872   0.914   4.171
 5283SOL    HW116748   0.790   0.859   4.157
 5283SOL    HW216749   0.883   0.935   4.268
 5284SOL     OW16750   4.777   2.178   2.296
 5284SOL    HW116751   4.728   2.221   2.220
 5284SOL    HW216752   4.722   2.104   2.334
 5285SOL     OW16753   1.091   2.436   4.353
 5285SOL    HW116754   1.151   2.357   4.348
 5285SOL    HW216755   1.016   2.425   4.287
 5286SOL     OW16756   6.111   3.099   1.037
 5286SOL    HW116757   6.042   3.150   1.088
 5286SOL    HW216758   6.108   3.125   0.941
 5287SOL     OW16759   2.956   5.259   1.027
 5287SOL    HW116760   2.976   5.198   1.103
 5287SOL    HW216761   2.857   5.266   1.014
 5288SOL     OW16762   4.481   0.844   2.186
 5288SOL    HW116763   4.536   0.765   2.157
 5288SOL    HW216764   4.407   0.813   2.246
 5289SOL     OW16765   1.800   4.283   6.237
 5289SOL    HW116766   1.887   4.325   6.211
 5289SOL    HW216767   1.747   4.347   6.292
 5290SOL     OW16768   1.112   3.000   5.390
 5290SOL    HW116769   1.052   3.054   5.450
 5290SOL    HW216770   1.086   2.904   5.395
 5291SOL     OW16771   2.668   4.681   4.782
 5291SOL    HW116772   2.719   4.708   4.701
 5291SOL    HW216773   2.731   4.670   4.859
 5292SOL     OW16774   6.799   4.251   6.178
 5292SOL    HW116775   6.777   4.167   6.129
 5292SOL    HW216776   6.873   4.233   6.243
 5293SOL     OW16777   2.197   5.791   4.360
 5293SOL    HW116778   2.258   5.712   4.349
 5293SOL    HW216779   2.109   5.771   4.316
 5294SOL     OW16780   3.875   0.542   5.118
 5294SOL    HW116781   3.942   0.616   5.118
 5294SOL    HW216782   3.848   0.521   5.024
 5295SOL     OW16783   2.959   1.142   2.375
 5295SOL    HW116784   3.011   1.057   2.383
 5295SOL    HW216785   2.862   1.122   2.384
 5296SOL     OW16786   4.283   4.842   0.663
 5296SOL    HW116787   4.206   4.807   0.609
 5296SOL    HW216788   4.248   4.901   0.736
 5297SOL     OW16789   2.699   4.230   0.885
 5297SOL    HW116790   2.734   4.173   0.810
 5297SOL    HW216791   2.767   4.300   0.907
 5298SOL     OW16792   2.164   7.006   0.721
 5298SOL    HW116793   2.095   0.020   0.656
 5298SOL    HW216794   2.254   7.009   0.677
 5299SOL     OW16795   3.024   1.805   0.350
 5299SOL    HW116796   3.015   1.737   0.277
 5299SOL    HW216797   3.075   1.765   0.426
 5300SOL     OW16798   2.030   4.380   0.169
 5300SOL    HW116799   2.011   4.382   0.071
 5300SOL    HW216800   2.055   4.472   0.200
 5301SOL     OW16801   4.467   0.644   5.756
 5301SOL    HW116802   4.399   0.616   5.688
 5301SOL    HW216803   4.555   0.658   5.710
 5302SOL     OW16804   5.452   5.925   3.026
 5302SOL    HW116805   5.405   5.840   3.051
 5302SOL    HW216806   5.536   5.933   3.080
 5303SOL     OW16807   6.895   4.613   5.753
 5303SOL    HW116808   6.873   4.540   5.688
 5303SOL    HW216809   6.989   4.643   5.738
 5304SOL     OW16810   6.606   1.393   1.392
 5304SOL    HW116811   6.676   1.437   1.448
 5304SOL    HW216812   6.628   1.296   1.381
 5305SOL     OW16813   1.531   5.460   2.879
 5305SOL    HW116814   1.538   5.535   2.946
 5305SOL    HW216815   1.615   5.456   2.825
 5306SOL     OW16816   6.639   3.927   5.704
 5306SOL    HW116817   6.698   3.924   5.785
 5306SOL    HW216818   6.543   3.927   5.733
 5307SOL     OW16819   5.214   2.406   0.888
 5307SOL    HW116820   5.278   2.474   0.855
 5307SOL    HW216821   5.120   2.440   0.877
 5308SOL     OW16822   1.583   4.690   2.933
 5308SOL    HW116823   1.589   4.774   2.986
 5308SOL    HW216824   1.488   4.657   2.933
 5309SOL     OW16825   4.590   6.015   3.201
 5309SOL    HW116826   4.655   6.070   3.255
 5309SOL    HW216827   4.606   6.032   3.103
 5310SOL     OW16828   5.935   2.820   3.178
 5310SOL    HW116829   6.013   2.874   3.144
 5310SOL    HW216830   5.965   2.764   3.255
 5311SOL     OW16831   5.650   0.430   0.732
 5311SOL    HW116832   5.613   0.497   0.668
 5311SOL    HW216833   5.748   0.446   0.743
 5312SOL     OW16834   0.151   6.684   1.333
 5312SOL    HW116835   0.150   6.624   1.413
 5312SOL    HW216836   0.226   6.750   1.341
 5313SOL     OW16837   6.198   5.056   5.358
 5313SOL    HW116838   6.122   5.097   5.307
 5313SOL    HW216839   6.268   5.126   5.376
 5314SOL     OW16840   6.055   6.960   1.453
 5314SOL    HW116841   6.083   6.890   1.387
 5314SOL    HW216842   6.137   7.008   1.486
 5315SOL     OW16843   4.103   1.293   3.920
 5315SOL    HW116844   4.133   1.240   3.999
 5315SOL    HW216845   4.005   1.312   3.928
 5316SOL     OW16846   0.971   2.852   4.914
 5316SOL    HW116847   1.066   2.842   4.882
 5316SOL    HW216848   0.969   2.909   4.995
 5317SOL     OW16849   6.497   1.832   5.995
 5317SOL    HW116850   6.530   1.767   5.927
 5317SOL    HW216851   6.574   1.885   6.031
 5318SOL     OW16852   6.561   2.962   0.268
 5318SOL    HW116853   6.591   3.056   0.281
 5318SOL    HW216854   6.499   2.958   0.189
 5319SOL     OW16855   4.553   6.830   1.206
 5319SOL    HW116856   4.580   6.860   1.297
 5319SOL    HW216857   4.567   6.904   1.141
 5320SOL     OW16858   3.389   6.050   1.327
 5320SOL    HW116859   3.467   6.028   1.386
 5320SOL    HW216860   3.419   6.108   1.252
 5321SOL     OW16861   2.082   4.652   4.540
 5321SOL    HW116862   2.170   4.671   4.496
 5321SOL    HW216863   2.098   4.623   4.635
 5322SOL     OW16864   5.766   6.733   1.908
 5322SOL    HW116865   5.852   6.776   1.879
 5322SOL    HW216866   5.765   6.638   1.877
 5323SOL     OW16867   4.366   1.655   5.546
 5323SOL    HW116868   4.412   1.631   5.632
 5323SOL    HW216869   4.348   1.572   5.493
 5324SOL     OW16870   2.636   2.289   0.090
 5324SOL    HW116871   2.589   2.325   0.171
 5324SOL    HW216872   2.727   2.257   0.117
 5325SOL     OW16873   2.574   2.382   4.684
 5325SOL    HW116874   2.556   2.453   4.751
 5325SOL    HW216875   2.498   2.317   4.683
 5326SOL     OW16876   6.014   6.263   2.869
 5326SOL    HW116877   6.050   6.206   2.943
 5326SOL    HW216878   5.914   6.264   2.873
 5327SOL     OW16879   5.558   2.738   4.704
 5327SOL    HW116880   5.592   2.801   4.774
 5327SOL    HW216881   5.518   2.791   4.629
 5328SOL     OW16882   4.111   4.154   6.948
 5328SOL    HW116883   4.141   4.091   6.876
 5328SOL    HW216884   4.040   4.214   6.912
 5329SOL     OW16885   1.398   5.959   6.496
 5329SOL    HW116886   1.463   5.893   6.534
 5329SOL    HW216887   1.332   5.985   6.566
 5330SOL     OW16888   2.706   2.991   0.932
 5330SOL    HW116889   2.666   2.905   0.961
 5330SOL    HW216890   2.633   3.057   0.913
 5331SOL     OW16891   6.505   0.993   6.710
 5331SOL    HW116892   6.513   1.090   6.690
 5331SOL    HW216893   6.410   0.964   6.695
 5332SOL     OW16894   1.220   4.440   2.286
 5332SOL    HW116895   1.227   4.507   2.360
 5332SOL    HW216896   1.144   4.377   2.303
 5333SOL     OW16897   0.702   6.585   4.141
 5333SOL    HW116898   0.677   6.640   4.221
 5333SOL    HW216899   0.750   6.503   4.172
 5334SOL     OW16900   2.749   6.735   4.083
 5334SOL    HW116901   2.653   6.706   4.083
 5334SOL    HW216902   2.753   6.834   4.067
 5335SOL     OW16903   6.944   5.127   0.782
 5335SOL    HW116904   0.006   5.143   0.723
 5335SOL    HW216905   6.953   5.038   0.826
 5336SOL     OW16906   1.796   3.460   2.207
 5336SOL    HW116907   1.772   3.368   2.239
 5336SOL    HW216908   1.809   3.459   2.108
 5337SOL     OW16909   5.035   4.228   0.993
 5337SOL    HW116910   5.013   4.267   1.082
 5337SOL    HW216911   5.134   4.211   0.987
 5338SOL     OW16912   6.530   1.928   6.715
 5338SOL    HW116913   6.600   1.972   6.658
 5338SOL    HW216914   6.561   1.836   6.740
 5339SOL     OW16915   0.065   1.806   3.197
 5339SOL    HW116916   0.129   1.766   3.263
 5339SOL    HW216917   6.990   1.810   3.238
 5340SOL     OW16918   5.642   2.641   6.998
 5340SOL    HW116919   5.544   2.655   6.983
 5340SOL    HW216920   5.684   2.612   6.912
 5341SOL     OW16921   4.755   1.000   6.267
 5341SOL    HW116922   4.665   0.966   6.293
 5341SOL    HW216923   4.810   1.016   6.349
 5342SOL     OW16924   3.949   0.600   5.587
 5342SOL    HW116925   3.866   0.581   5.641
 5342SOL    HW216926   3.929   0.669   5.518
 5343SOL     OW16927   3.879   3.290   2.322
 5343SOL    HW116928   3.929   3.335   2.396
 5343SOL    HW216929   3.807   3.233   2.360
 5344SOL     OW16930   2.038   2.775   3.414
 5344SOL    HW116931   1.995   2.748   3.327
 5344SOL    HW216932   2.131   2.806   3.397
 5345SOL     OW16933   4.441   6.594   1.108
 5345SOL    HW116934   4.513   6.531   1.081
 5345SOL    HW216935   4.481   6.681   1.136
 5346SOL     OW16936   2.724   6.544   3.537
 5346SOL    HW116937   2.655   6.517   3.604
 5346SOL    HW216938   2.750   6.640   3.552
 5347SOL     OW16939   0.097   1.603   1.445
 5347SOL    HW116940   0.006   1.612   1.405
 5347SOL    HW216941   0.094   1.628   1.542
 5348SOL     OW16942   1.346   1.639   0.393
 5348SOL    HW116943   1.333   1.727   0.347
 5348SOL    HW216944   1.353   1.566   0.325
 5349SOL     OW16945   6.966   1.360   0.826
 5349SOL    HW116946   6.933   1.412   0.904
 5349SOL    HW216947   6.888   1.336   0.767
 5350SOL     OW16948   2.342   1.135   6.184
 5350SOL    HW116949   2.406   1.203   6.148
 5350SOL    HW216950   2.259   1.134   6.128
 5351SOL     OW16951   4.859   6.527   0.879
 5351SOL    HW116952   4.862   6.627   0.873
 5351SOL    HW216953   4.866   6.487   0.788
 5352SOL     OW16954   2.618   5.945   3.438
 5352SOL    HW116955   2.565   5.966   3.356
 5352SOL    HW216956   2.697   5.888   3.413
 5353SOL     OW16957   5.013   6.009   5.123
 5353SOL    HW116958   4.946   5.985   5.193
 5353SOL    HW216959   5.051   5.926   5.082
 5354SOL     OW16960   1.532   4.846   1.825
 5354SOL    HW116961   1.627   4.855   1.855
 5354SOL    HW216962   1.529   4.822   1.728
 5355SOL     OW16963   4.544   1.301   3.837
 5355SOL    HW116964   4.618   1.357   3.799
 5355SOL    HW216965   4.460   1.355   3.840
 5356SOL     OW16966   6.329   4.111   1.059
 5356SOL    HW116967   6.243   4.136   1.015
 5356SOL    HW216968   6.318   4.023   1.107
 5357SOL     OW16969   3.640   0.174   0.251
 5357SOL    HW116970   3.673   0.122   0.172
 5357SOL    HW216971   3.561   0.229   0.224
 5358SOL     OW16972   4.467   2.831   0.841
 5358SOL    HW116973   4.515   2.799   0.760
 5358SOL    HW216974   4.483   2.768   0.917
 5359SOL     OW16975   2.560   1.768   0.739
 5359SOL    HW116976   2.558   1.689   0.800
 5359SOL    HW216977   2.647   1.771   0.690
 5360SOL     OW16978   3.858   6.598   5.725
 5360SOL    HW116979   3.811   6.659   5.788
 5360SOL    HW216980   3.852   6.504   5.758
 5361SOL     OW16981   2.093   1.117   4.643
 5361SOL    HW116982   2.129   1.200   4.599
 5361SOL    HW216983   2.073   1.137   4.739
 5362SOL     OW16984   4.641   5.116   2.806
 5362SOL    HW116985   4.614   5.065   2.724
 5362SOL    HW216986   4.647   5.053   2.884
 5363SOL     OW16987   0.884   5.305   6.393
 5363SOL    HW116988   0.934   5.313   6.307
 5363SOL    HW216989   0.874   5.396   6.433
 5364SOL     OW16990   6.964   6.412   0.719
 5364SOL    HW116991   6.873   6.436   0.753
 5364SOL    HW216992   0.014   6.420   0.794
 5365SOL     OW16993   4.574   2.097   5.880
 5365SOL    HW116994   4.640   2.048   5.937
 5365SOL    HW216995   4.485   2.052   5.885
 5366SOL     OW16996   4.214   4.370   0.276
 5366SOL    HW116997   4.189   4.310   0.352
 5366SOL    HW216998   4.210   4.465   0.307
 5367SOL     OW16999   0.454   4.457   1.386
 5367SOL    HW117000   0.520   4.464   1.311
 5367SOL    HW217001   0.498   4.484   1.471
 5368SOL     OW17002   5.655   2.067   2.930
 5368SOL    HW117003   5.605   2.014   2.999
 5368SOL    HW217004   5.640   2.165   2.945
 5369SOL     OW17005   2.551   4.519   3.087
 5369SOL    HW117006   2.498   4.447   3.042
 5369SOL    HW217007   2.527   4.522   3.184
 5370SOL     OW17008   3.990   2.837   1.400
 5370SOL    HW117009   3.903   2.818   1.353
 5370SOL    HW217010   3.982   2.924   1.449
 5371SOL     OW17011   1.566   4.322   4.121
 5371SOL    HW117012   1.630   4.354   4.191
 5371SOL    HW217013   1.506   4.397   4.093
 5372SOL     OW17014   3.078   4.878   2.917
 5372SOL    HW117015   3.083   4.853   2.820
 5372SOL    HW217016   3.153   4.939   2.939
 5373SOL     OW17017   3.182   4.902   4.163
 5373SOL    HW117018   3.186   4.996   4.199
 5373SOL    HW217019   3.162   4.839   4.238
 5374SOL     OW17020   1.858   2.466   6.557
 5374SOL    HW117021   1.919   2.525   6.611
 5374SOL    HW217022   1.776   2.518   6.533
 5375SOL     OW17023   1.474   4.468   4.582
 5375SOL    HW117024   1.378   4.439   4.585
 5375SOL    HW217025   1.520   4.442   4.667
 5376SOL     OW17026   1.416   3.865   1.655
 5376SOL    HW117027   1.419   3.817   1.567
 5376SOL    HW217028   1.479   3.821   1.719
 5377SOL     OW17029   0.411   0.267   1.626
 5377SOL    HW117030   0.416   0.341   1.558
 5377SOL    HW217031   0.499   0.260   1.673
 5378SOL     OW17032   5.725   0.695   0.004
 5378SOL    HW117033   5.728   0.680   0.103
 5378SOL    HW217034   5.675   0.779   7.001
 5379SOL     OW17035   7.009   5.520   2.749
 5379SOL    HW117036   0.060   5.510   2.823
 5379SOL    HW217037   6.941   5.447   2.757
 5380SOL     OW17038   2.519   0.265   3.515
 5380SOL    HW117039   2.473   0.252   3.603
 5380SOL    HW217040   2.602   0.210   3.512
 5381SOL     OW17041   5.503   4.495   0.899
 5381SOL    HW117042   5.404   4.483   0.906
 5381SOL    HW217043   5.546   4.472   0.987
 5382SOL     OW17044   2.989   1.259   1.331
 5382SOL    HW117045   2.912   1.214   1.378
 5382SOL    HW217046   3.069   1.259   1.390
 5383SOL     OW17047   2.697   2.141   5.148
 5383SOL    HW117048   2.615   2.137   5.091
 5383SOL    HW217049   2.723   2.237   5.163
 5384SOL     OW17050   6.240   6.891   4.017
 5384SOL    HW117051   6.277   6.894   3.924
 5384SOL    HW217052   6.313   6.865   4.081
 5385SOL     OW17053   3.489   4.115   2.247
 5385SOL    HW117054   3.437   4.091   2.165
 5385SOL    HW217055   3.581   4.076   2.240
 5386SOL     OW17056   4.995   6.382   4.027
 5386SOL    HW117057   5.050   6.299   4.029
 5386SOL    HW217058   4.902   6.360   3.997
 5387SOL     OW17059   2.941   5.148   2.050
 5387SOL    HW117060   2.958   5.063   2.100
 5387SOL    HW217061   3.007   5.157   1.976
 5388SOL     OW17062   5.744   6.675   2.415
 5388SOL    HW117063   5.657   6.632   2.439
 5388SOL    HW217064   5.772   6.736   2.489
 5389SOL     OW17065   4.710   0.750   1.691
 5389SOL    HW117066   4.792   0.725   1.744
 5389SOL    HW217067   4.633   0.764   1.753
 5390SOL     OW17068   5.987   5.181   5.181
 5390SOL    HW117069   5.902   5.131   5.201
 5390SOL    HW217070   5.976   5.277   5.208
 5391SOL     OW17071   2.865   3.060   0.493
 5391SOL    HW117072   2.848   3.006   0.411
 5391SOL    HW217073   2.789   3.049   0.557
 5392SOL     OW17074   6.027   3.214   1.624
 5392SOL    HW117075   5.981   3.135   1.665
 5392SOL    HW217076   6.014   3.294   1.682
 5393SOL     OW17077   6.731   0.255   0.400
 5393SOL    HW117078   6.763   0.261   0.306
 5393SOL    HW217079   6.647   0.201   0.404
 5394SOL     OW17080   0.670   4.095   5.894
 5394SOL    HW117081   0.755   4.042   5.886
 5394SOL    HW217082   0.598   4.052   5.839
 5395SOL     OW17083   3.806   0.263   0.768
 5395SOL    HW117084   3.801   0.264   0.668
 5395SOL    HW217085   3.754   0.340   0.805
 5396SOL     OW17086   5.467   3.915   1.862
 5396SOL    HW117087   5.531   3.838   1.855
 5396SOL    HW217088   5.450   3.952   1.770
 5397SOL     OW17089   6.944   3.391   1.472
 5397SOL    HW117090   6.995   3.403   1.387
 5397SOL    HW217091   6.986   3.319   1.527
 5398SOL     OW17092   3.117   2.528   1.695
 5398SOL    HW117093   3.202   2.485   1.726
 5398SOL    HW217094   3.045   2.512   1.762
 5399SOL     OW17095   1.883   6.111   1.110
 5399SOL    HW117096   1.968   6.140   1.154
 5399SOL    HW217097   1.807   6.165   1.146
 5400SOL     OW17098   2.841   4.646   0.230
 5400SOL    HW117099   2.819   4.742   0.214
 5400SOL    HW217100   2.803   4.591   0.156
 5401SOL     OW17101   5.752   3.252   1.976
 5401SOL    HW117102   5.674   3.230   1.918
 5401SOL    HW217103   5.730   3.333   2.031
 5402SOL     OW17104   2.105   6.279   1.990
 5402SOL    HW117105   2.016   6.245   1.961
 5402SOL    HW217106   2.158   6.204   2.030
 5403SOL     OW17107   0.427   3.556   6.399
 5403SOL    HW117108   0.454   3.582   6.492
 5403SOL    HW217109   0.423   3.638   6.342
 5404SOL     OW17110   1.508   2.904   4.058
 5404SOL    HW117111   1.517   2.812   4.095
 5404SOL    HW217112   1.554   2.909   3.969
 5405SOL     OW17113   6.740   5.284   5.940
 5405SOL    HW117114   6.688   5.269   5.857
 5405SOL    HW217115   6.743   5.199   5.994
 5406SOL     OW17116   1.343   1.233   6.867
 5406SOL    HW117117   1.407   1.189   6.805
 5406SOL    HW217118   1.379   1.321   6.896
 5407SOL     OW17119   3.928   3.369   0.957
 5407SOL    HW117120   3.893   3.458   0.926
 5407SOL    HW217121   3.895   3.351   1.050
 5408SOL     OW17122   2.324   0.746   6.358
 5408SOL    HW117123   2.243   0.772   6.305
 5408SOL    HW217124   2.402   0.737   6.297
 5409SOL     OW17125   4.907   0.613   2.935
 5409SOL    HW117126   4.991   0.560   2.934
 5409SOL    HW217127   4.831   0.555   2.966
 5410SOL     OW17128   3.184   2.042   1.684
 5410SOL    HW117129   3.110   2.098   1.721
 5410SOL    HW217130   3.234   1.999   1.759
 5411SOL     OW17131   0.121   5.072   5.455
 5411SOL    HW117132   0.107   5.170   5.466
 5411SOL    HW217133   0.218   5.051   5.467
 5412SOL     OW17134   5.928   2.810   0.806
 5412SOL    HW117135   5.855   2.850   0.861
 5412SOL    HW217136   6.016   2.843   0.838
 5413SOL     OW17137   3.051   1.629   1.606
 5413SOL    HW117138   3.000   1.675   1.678
 5413SOL    HW217139   3.130   1.685   1.579
 5414SOL     OW17140   4.576   1.153   4.729
 5414SOL    HW117141   4.546   1.110   4.644
 5414SOL    HW217142   4.591   1.251   4.713
 5415SOL     OW17143   0.127   5.725   1.488
 5415SOL    HW117144   0.105   5.822   1.495
 5415SOL    HW217145   0.210   5.705   1.540
 5416SOL     OW17146   4.208   5.241   4.980
 5416SOL    HW117147   4.192   5.308   4.907
 5416SOL    HW217148   4.306   5.222   4.986
 5417SOL     OW17149   3.388   6.770   5.013
 5417SOL    HW117150   3.430   6.850   4.969
 5417SOL    HW217151   3.457   6.700   5.029
 5418SOL     OW17152   3.696   0.112   2.555
 5418SOL    HW117153   3.639   0.112   2.638
 5418SOL    HW217154   3.665   0.184   2.493
 5419SOL     OW17155   3.289   4.868   6.548
 5419SOL    HW117156   3.322   4.937   6.612
 5419SOL    HW217157   3.367   4.823   6.504
 5420SOL     OW17158   2.057   2.352   2.901
 5420SOL    HW117159   2.046   2.271   2.958
 5420SOL    HW217160   2.128   2.336   2.832
 5421SOL     OW17161   1.750   3.984   1.659
 5421SOL    HW117162   1.802   3.905   1.693
 5421SOL    HW217163   1.784   4.067   1.703
 5422SOL     OW17164   1.754   4.419   1.504
 5422SOL    HW117165   1.735   4.339   1.448
 5422SOL    HW217166   1.719   4.404   1.596
 5423SOL     OW17167   6.148   3.125   6.370
 5423SOL    HW117168   6.121   3.108   6.464
 5423SOL    HW217169   6.073   3.169   6.320
 5424SOL     OW17170   5.153   3.240   4.624
 5424SOL    HW117171   5.189   3.213   4.713
 5424SOL    HW217172   5.094   3.168   4.589
 5425SOL     OW17173   4.094   1.150   5.199
 5425SOL    HW117174   4.137   1.102   5.275
 5425SOL    HW217175   4.112   1.248   5.207
 5426SOL     OW17176   5.841   6.618   5.004
 5426SOL    HW117177   5.919   6.662   4.958
 5426SOL    HW217178   5.875   6.551   5.069
 5427SOL     OW17179   4.412   5.869   6.643
 5427SOL    HW117180   4.485   5.931   6.616
 5427SOL    HW217181   4.433   5.828   6.732
 5428SOL     OW17182   0.826   0.227   1.010
 5428SOL    HW117183   0.769   0.299   1.050
 5428SOL    HW217184   0.786   0.137   1.031
 5429SOL     OW17185   1.130   2.207   6.617
 5429SOL    HW117186   1.136   2.281   6.551
 5429SOL    HW217187   1.112   2.243   6.708
 5430SOL     OW17188   0.622   2.920   6.470
 5430SOL    HW117189   0.578   2.883   6.551
 5430SOL    HW217190   0.668   2.845   6.420
 5431SOL     OW17191   3.497   6.295   6.347
 5431SOL    HW117192   3.438   6.349   6.407
 5431SOL    HW217193   3.581   6.271   6.396
 5432SOL     OW17194   4.865   7.009   0.110
 5432SOL    HW117195   4.840   6.914   0.092
 5432SOL    HW217196   4.963   0.004   0.097
 5433SOL     OW17197   0.018   1.791   4.946
 5433SOL    HW117198   0.081   1.852   4.994
 5433SOL    HW217199   6.962   1.761   5.008
 5434SOL     OW17200   2.999   0.303   6.117
 5434SOL    HW117201   2.997   0.387   6.172
 5434SOL    HW217202   3.018   0.225   6.176
 5435SOL     OW17203   4.324   0.099   1.718
 5435SOL    HW117204   4.368   0.159   1.785
 5435SOL    HW217205   4.244   0.055   1.760
 5436SOL     OW17206   4.823   4.553   3.513
 5436SOL    HW117207   4.841   4.630   3.574
 5436SOL    HW217208   4.876   4.564   3.429
 5437SOL     OW17209   2.848   4.357   6.919
 5437SOL    HW117210   2.937   4.402   6.934
 5437SOL    HW217211   2.802   4.400   6.842
 5438SOL     OW17212   5.849   1.725   1.599
 5438SOL    HW117213   5.925   1.702   1.660
 5438SOL    HW217214   5.841   1.825   1.593
 5439SOL     OW17215   1.243   2.498   1.121
 5439SOL    HW117216   1.295   2.447   1.190
 5439SOL    HW217217   1.155   2.453   1.105
 5440SOL     OW17218   1.540   2.261   1.125
 5440SOL    HW117219   1.489   2.217   1.052
 5440SOL    HW217220   1.475   2.299   1.192
 5441SOL     OW17221   3.284   1.997   3.838
 5441SOL    HW117222   3.278   1.909   3.885
 5441SOL    HW217223   3.294   2.070   3.906
 5442SOL     OW17224   3.765   0.161   2.137
 5442SOL    HW117225   3.669   0.169   2.161
 5442SOL    HW217226   3.795   0.245   2.092
 5443SOL     OW17227   2.780   6.821   5.037
 5443SOL    HW117228   2.822   6.731   5.018
 5443SOL    HW217229   2.773   6.872   4.952
 5444SOL     OW17230   0.361   6.274   3.958
 5444SOL    HW117231   0.300   6.217   4.014
 5444SOL    HW217232   0.362   6.367   3.995
 5445SOL     OW17233   6.492   3.428   2.890
 5445SOL    HW117234   6.465   3.384   2.804
 5445SOL    HW217235   6.535   3.516   2.871
 5446SOL     OW17236   5.962   5.540   4.744
 5446SOL    HW117237   5.903   5.561   4.666
 5446SOL    HW217238   6.039   5.604   4.746
 5447SOL     OW17239   3.923   2.422   0.040
 5447SOL    HW117240   3.968   2.349   0.093
 5447SOL    HW217241   3.825   2.420   0.057
 5448SOL     OW17242   5.045   2.514   5.345
 5448SOL    HW117243   5.142   2.513   5.320
 5448SOL    HW217244   4.990   2.505   5.262
 5449SOL     OW17245   1.119   3.241   0.294
 5449SOL    HW117246   1.027   3.228   0.331
 5449SOL    HW217247   1.129   3.188   0.210
 5450SOL     OW17248   1.879   0.128   1.340
 5450SOL    HW117249   1.937   0.104   1.418
 5450SOL    HW217250   1.806   0.189   1.370
 5451SOL     OW17251   0.590   6.110   2.931
 5451SOL    HW117252   0.613   6.184   2.867
 5451SOL    HW217253   0.655   6.111   3.007
 5452SOL     OW17254   2.032   4.499   6.845
 5452SOL    HW117255   1.949   4.536   6.887
 5452SOL    HW217256   2.034   4.399   6.858
 5453SOL     OW17257   6.025   3.853   0.288
 5453SOL    HW117258   6.124   3.860   0.296
 5453SOL    HW217259   5.988   3.938   0.249
 5454SOL     OW17260   0.015   5.216   6.825
 5454SOL    HW117261   0.019   5.301   6.771
 5454SOL    HW217262   0.009   5.138   6.763
 5455SOL     OW17263   6.758   3.246   1.322
 5455SOL    HW117264   6.817   3.299   1.382
 5455SOL    HW217265   6.679   3.301   1.295
 5456SOL     OW17266   2.740   0.380   6.751
 5456SOL    HW117267   2.734   0.282   6.731
 5456SOL    HW217268   2.660   0.409   6.803
 5457SOL     OW17269   5.714   2.678   1.203
 5457SOL    HW117270   5.811   2.671   1.225
 5457SOL    HW217271   5.674   2.755   1.251
 5458SOL     OW17272   1.788   4.212   6.707
 5458SOL    HW117273   1.745   4.121   6.704
 5458SOL    HW217274   1.811   4.241   6.614
 5459SOL     OW17275   1.810   4.595   6.972
 5459SOL    HW117276   1.748   4.524   6.938
 5459SOL    HW217277   1.778   4.685   6.943
 5460SOL     OW17278   2.861   0.578   1.320
 5460SOL    HW117279   2.829   0.513   1.389
 5460SOL    HW217280   2.885   0.529   1.236
 5461SOL     OW17281   4.819   0.038   5.162
 5461SOL    HW117282   4.903   0.076   5.201
 5461SOL    HW217283   4.832   0.022   5.064
 5462SOL     OW17284   1.482   0.047   0.334
 5462SOL    HW117285   1.553   0.013   0.394
 5462SOL    HW217286   1.413   6.992   0.320
 5463SOL     OW17287   6.251   2.972   0.481
 5463SOL    HW117288   6.224   2.960   0.577
 5463SOL    HW217289   6.242   2.885   0.433
 5464SOL     OW17290   2.353   0.762   4.234
 5464SOL    HW117291   2.265   0.766   4.187
 5464SOL    HW217292   2.339   0.735   4.329
 5465SOL     OW17293   3.538   0.257   4.833
 5465SOL    HW117294   3.446   0.276   4.801
 5465SOL    HW217295   3.564   0.325   4.902
 5466SOL     OW17296   4.779   4.095   4.842
 5466SOL    HW117297   4.707   4.124   4.780
 5466SOL    HW217298   4.788   3.995   4.839
 5467SOL     OW17299   5.338   1.537   2.330
 5467SOL    HW117300   5.347   1.457   2.389
 5467SOL    HW217301   5.366   1.619   2.380
 5468SOL     OW17302   4.814   1.973   4.913
 5468SOL    HW117303   4.796   2.068   4.938
 5468SOL    HW217304   4.796   1.959   4.816
 5469SOL     OW17305   3.858   4.294   5.852
 5469SOL    HW117306   3.822   4.298   5.759
 5469SOL    HW217307   3.888   4.200   5.872
 5470SOL     OW17308   1.651   5.087   3.973
 5470SOL    HW117309   1.572   5.028   3.984
 5470SOL    HW217310   1.734   5.037   3.999
 5471SOL     OW17311   6.860   5.803   1.824
 5471SOL    HW117312   6.930   5.860   1.781
 5471SOL    HW217313   6.892   5.709   1.829
 5472SOL     OW17314   4.250   4.050   6.211
 5472SOL    HW117315   4.174   3.985   6.212
 5472SOL    HW217316   4.306   4.039   6.293
 5473SOL     OW17317   1.426   3.155   3.512
 5473SOL    HW117318   1.500   3.166   3.445
 5473SOL    HW217319   1.387   3.063   3.504
 5474SOL     OW17320   1.686   5.621   4.003
 5474SOL    HW117321   1.756   5.553   3.981
 5474SOL    HW217322   1.615   5.620   3.933
 5475SOL     OW17323   3.092   1.972   0.876
 5475SOL    HW117324   3.115   2.026   0.957
 5475SOL    HW217325   3.003   2.002   0.840
 5476SOL     OW17326   1.179   3.015   6.628
 5476SOL    HW117327   1.104   2.978   6.574
 5476SOL    HW217328   1.154   3.106   6.663
 5477SOL     OW17329   2.203   2.903   3.142
 5477SOL    HW117330   2.233   2.878   3.234
 5477SOL    HW217331   2.259   2.856   3.075
 5478SOL     OW17332   5.473   5.900   5.956
 5478SOL    HW117333   5.503   5.904   5.861
 5478SOL    HW217334   5.504   5.815   5.998
 5479SOL     OW17335   4.970   0.115   4.667
 5479SOL    HW117336   4.892   0.063   4.702
 5479SOL    HW217337   4.966   0.208   4.703
 5480SOL     OW17338   1.046   3.820   4.173
 5480SOL    HW117339   0.961   3.770   4.157
 5480SOL    HW217340   1.060   3.833   4.271
 5481SOL     OW17341   3.497   6.798   4.354
 5481SOL    HW117342   3.434   6.740   4.406
 5481SOL    HW217343   3.579   6.816   4.408
 5482SOL     OW17344   3.033   4.727   1.354
 5482SOL    HW117345   2.960   4.675   1.398
 5482SOL    HW217346   3.046   4.814   1.402
 5483SOL     OW17347   0.368   2.814   5.662
 5483SOL    HW117348   0.457   2.850   5.690
 5483SOL    HW217349   0.296   2.878   5.691
 5484SOL     OW17350   4.545   0.594   4.514
 5484SOL    HW117351   4.634   0.631   4.488
 5484SOL    HW217352   4.473   0.651   4.476
 5485SOL     OW17353   2.905   6.637   5.673
 5485SOL    HW117354   2.821   6.688   5.690
 5485SOL    HW217355   2.961   6.686   5.606
 5486SOL     OW17356   2.835   5.824   4.459
 5486SOL    HW117357   2.814   5.916   4.492
 5486SOL    HW217358   2.886   5.829   4.373
 5487SOL     OW17359   2.873   4.871   5.838
 5487SOL    HW117360   2.812   4.792   5.841
 5487SOL    HW217361   2.957   4.846   5.790
 5488SOL     OW17362   5.921   0.862   1.000
 5488SOL    HW117363   6.021   0.860   0.997
 5488SOL    HW217364   5.886   0.903   0.916
 5489SOL     OW17365   6.790   3.693   2.117
 5489SOL    HW117366   6.791   3.689   2.017
 5489SOL    HW217367   6.703   3.658   2.151
 5490SOL     OW17368   1.323   6.784   2.763
 5490SOL    HW117369   1.328   6.815   2.668
 5490SOL    HW217370   1.228   6.762   2.786
 5491SOL     OW17371   6.969   4.319   0.814
 5491SOL    HW117372   6.877   4.357   0.808
 5491SOL    HW217373   6.968   4.237   0.870
 5492SOL     OW17374   0.533   1.301   5.466
 5492SOL    HW117375   0.485   1.227   5.419
 5492SOL    HW217376   0.523   1.386   5.414
 5493SOL     OW17377   4.066   3.695   1.494
 5493SOL    HW117378   4.111   3.712   1.582
 5493SOL    HW217379   4.135   3.672   1.425
 5494SOL     OW17380   6.426   4.076   5.227
 5494SOL    HW117381   6.368   4.000   5.198
 5494SOL    HW217382   6.522   4.049   5.221
 5495SOL     OW17383   5.867   0.688   1.212
 5495SOL    HW117384   5.928   0.609   1.207
 5495SOL    HW217385   5.897   0.757   1.146
 5496SOL     OW17386   3.812   0.433   4.430
 5496SOL    HW117387   3.815   0.506   4.361
 5496SOL    HW217388   3.898   0.432   4.481
 5497SOL     OW17389   0.858   0.962   6.164
 5497SOL    HW117390   0.882   1.001   6.253
 5497SOL    HW217391   0.891   0.868   6.159
 5498SOL     OW17392   0.318   5.193   2.273
 5498SOL    HW117393   0.399   5.247   2.251
 5498SOL    HW217394   0.262   5.182   2.191
 5499SOL     OW17395   1.554   0.288   4.727
 5499SOL    HW117396   1.652   0.299   4.713
 5499SOL    HW217397   1.539   0.219   4.798
 5500SOL     OW17398   2.373   0.550   0.655
 5500SOL    HW117399   2.365   0.452   0.636
 5500SOL    HW217400   2.298   0.599   0.610
 5501SOL     OW17401   3.749   2.988   6.536
 5501SOL    HW117402   3.680   2.916   6.549
 5501SOL    HW217403   3.710   3.062   6.481
 5502SOL     OW17404   4.504   2.201   0.203
 5502SOL    HW117405   4.419   2.202   0.151
 5502SOL    HW217406   4.536   2.107   0.213
 5503SOL     OW17407   0.024   3.910   0.432
 5503SOL    HW117408   6.943   3.888   0.424
 5503SOL    HW217409   0.043   3.943   0.525
 5504SOL     OW17410   3.614   0.957   6.141
 5504SOL    HW117411   3.532   1.011   6.124
 5504SOL    HW217412   3.686   0.986   6.079
 5505SOL     OW17413   2.443   4.816   4.242
 5505SOL    HW117414   2.543   4.816   4.234
 5505SOL    HW217415   2.415   4.761   4.320
 5506SOL     OW17416   0.830   3.453   6.145
 5506SOL    HW117417   0.911   3.408   6.106
 5506SOL    HW217418   0.819   3.544   6.104
 5507SOL     OW17419   2.889   0.097   7.014
 5507SOL    HW117420   2.953   0.173   0.008
 5507SOL    HW217421   2.826   0.117   6.939
 5508SOL     OW17422   0.216   0.591   6.638
 5508SOL    HW117423   0.272   0.554   6.712
 5508SOL    HW217424   0.119   0.576   6.659
 5509SOL     OW17425   6.993   5.558   0.450
 5509SOL    HW117426   0.020   5.502   0.379
 5509SOL    HW217427   6.977   5.501   0.531
 5510SOL     OW17428   3.852   5.404   0.078
 5510SOL    HW117429   3.776   5.339   0.088
 5510SOL    HW217430   3.902   5.410   0.164
 5511SOL     OW17431   0.763   1.295   5.267
 5511SOL    HW117432   0.677   1.287   5.318
 5511SOL    HW217433   0.830   1.230   5.303
 5512SOL     OW17434   3.273   1.006   2.581
 5512SOL    HW117435   3.357   1.060   2.575
 5512SOL    HW217436   3.239   1.007   2.675
 5513SOL     OW17437   3.908   4.316   6.854
 5513SOL    HW117438   3.836   4.270   6.802
 5513SOL    HW217439   3.911   4.412   6.828
 5514SOL     OW17440   2.928   0.405   6.472
 5514SOL    HW117441   2.948   0.443   6.563
 5514SOL    HW217442   2.833   0.374   6.470
 5515SOL     OW17443   2.552   6.048   1.967
 5515SOL    HW117444   2.636   6.023   2.016
 5515SOL    HW217445   2.575   6.109   1.891
 5516SOL     OW17446   2.461   2.706   5.138
 5516SOL    HW117447   2.368   2.739   5.117
 5516SOL    HW217448   2.516   2.781   5.172
 5517SOL     OW17449   1.399   3.482   3.357
 5517SOL    HW117450   1.350   3.566   3.377
 5517SOL    HW217451   1.467   3.464   3.429
 5518SOL     OW17452   4.582   4.234   5.891
 5518SOL    HW117453   4.535   4.209   5.806
 5518SOL    HW217454   4.585   4.155   5.952
 5519SOL     OW17455   4.576   2.271   3.836
 5519SOL    HW117456   4.513   2.194   3.848
 5519SOL    HW217457   4.544   2.349   3.890
 5520SOL     OW17458   4.970   6.711   1.594
 5520SOL    HW117459   5.036   6.722   1.520
 5520SOL    HW217460   5.003   6.758   1.676
 5521SOL     OW17461   5.441   5.721   1.950
 5521SOL    HW117462   5.398   5.766   2.029
 5521SOL    HW217463   5.521   5.670   1.980
 5522SOL     OW17464   6.165   5.518   0.625
 5522SOL    HW117465   6.085   5.576   0.609
 5522SOL    HW217466   6.221   5.515   0.542
 5523SOL     OW17467   5.618   1.417   2.264
 5523SOL    HW117468   5.613   1.489   2.195
 5523SOL    HW217469   5.548   1.348   2.245
 5524SOL     OW17470   2.887   0.790   4.577
 5524SOL    HW117471   2.940   0.725   4.524
 5524SOL    HW217472   2.940   0.874   4.591
 5525SOL     OW17473   6.119   1.520   1.204
 5525SOL    HW117474   6.031   1.494   1.242
 5525SOL    HW217475   6.186   1.447   1.219
 5526SOL     OW17476   4.887   4.940   3.343
 5526SOL    HW117477   4.975   4.946   3.390
 5526SOL    HW217478   4.883   5.008   3.270
 5527SOL     OW17479   6.056   1.531   3.697
 5527SOL    HW117480   6.020   1.452   3.746
 5527SOL    HW217481   6.126   1.502   3.632
 5528SOL     OW17482   0.905   1.636   0.905
 5528SOL    HW117483   0.947   1.639   0.996
 5528SOL    HW217484   0.961   1.582   0.843
 5529SOL     OW17485   3.903   0.866   2.137
 5529SOL    HW117486   3.876   0.825   2.049
 5529SOL    HW217487   3.918   0.964   2.124
 5530SOL     OW17488   6.211   2.091   1.288
 5530SOL    HW117489   6.176   2.112   1.379
 5530SOL    HW217490   6.148   2.027   1.243
 5531SOL     OW17491   2.237   4.263   1.529
 5531SOL    HW117492   2.143   4.229   1.521
 5531SOL    HW217493   2.297   4.211   1.469
 5532SOL     OW17494   1.327   2.938   0.934
 5532SOL    HW117495   1.314   3.019   0.877
 5532SOL    HW217496   1.244   2.883   0.934
 5533SOL     OW17497   3.944   2.178   4.016
 5533SOL    HW117498   3.881   2.253   3.996
 5533SOL    HW217499   3.951   2.166   4.115
 5534SOL     OW17500   1.287   0.532   4.616
 5534SOL    HW117501   1.218   0.521   4.687
 5534SOL    HW217502   1.369   0.573   4.655
 5535SOL     OW17503   0.247   2.074   3.358
 5535SOL    HW117504   0.221   1.978   3.345
 5535SOL    HW217505   0.217   2.128   3.279
 5536SOL     OW17506   3.749   6.619   4.103
 5536SOL    HW117507   3.791   6.634   4.192
 5536SOL    HW217508   3.802   6.552   4.051
 5537SOL     OW17509   3.370   1.124   3.552
 5537SOL    HW117510   3.415   1.124   3.641
 5537SOL    HW217511   3.336   1.032   3.532
 5538SOL     OW17512   4.200   5.294   4.461
 5538SOL    HW117513   4.178   5.212   4.514
 5538SOL    HW217514   4.124   5.314   4.399
 5539SOL     OW17515   2.282   4.220   0.207
 5539SOL    HW117516   2.197   4.271   0.201
 5539SOL    HW217517   2.276   4.138   0.150
 5540SOL     OW17518   5.265   5.055   2.105
 5540SOL    HW117519   5.191   4.988   2.103
 5540SOL    HW217520   5.336   5.023   2.168
 5541SOL     OW17521   4.393   1.245   5.668
 5541SOL    HW117522   4.448   1.167   5.637
 5541SOL    HW217523   4.358   1.295   5.588
 5542SOL     OW17524   4.890   4.700   6.010
 5542SOL    HW117525   4.939   4.740   6.087
 5542SOL    HW217526   4.912   4.750   5.927
 5543SOL     OW17527   6.819   2.083   5.829
 5543SOL    HW117528   6.882   2.157   5.855
 5543SOL    HW217529   6.806   2.084   5.730
 5544SOL     OW17530   5.738   1.595   6.206
 5544SOL    HW117531   5.724   1.694   6.204
 5544SOL    HW217532   5.817   1.574   6.263
 5545SOL     OW17533   2.989   2.210   1.780
 5545SOL    HW117534   2.982   2.309   1.795
 5545SOL    HW217535   2.943   2.162   1.855
 5546SOL     OW17536   1.910   4.918   5.820
 5546SOL    HW117537   1.887   4.937   5.916
 5546SOL    HW217538   1.859   4.979   5.761
 5547SOL     OW17539   3.993   6.147   4.938
 5547SOL    HW117540   3.979   6.051   4.914
 5547SOL    HW217541   4.087   6.160   4.968
 5548SOL     OW17542   6.951   3.488   5.108
 5548SOL    HW117543   0.030   3.494   5.079
 5548SOL    HW217544   6.916   3.579   5.127
 5549SOL     OW17545   3.499   4.343   6.642
 5549SOL    HW117546   3.510   4.295   6.729
 5549SOL    HW217547   3.422   4.407   6.647
 5550SOL     OW17548   3.672   6.770   1.906
 5550SOL    HW117549   3.649   6.673   1.898
 5550SOL    HW217550   3.596   6.825   1.871
 5551SOL     OW17551   0.529   0.859   2.998
 5551SOL    HW117552   0.579   0.931   3.046
 5551SOL    HW217553   0.484   0.799   3.065
 5552SOL     OW17554   0.323   2.869   1.533
 5552SOL    HW117555   0.300   2.796   1.597
 5552SOL    HW217556   0.411   2.848   1.490
 5553SOL     OW17557   5.296   6.660   0.359
 5553SOL    HW117558   5.377   6.621   0.315
 5553SOL    HW217559   5.249   6.589   0.411
 5554SOL     OW17560   2.547   1.893   4.612
 5554SOL    HW117561   2.581   1.901   4.706
 5554SOL    HW217562   2.615   1.932   4.549
 5555SOL     OW17563   6.763   5.762   2.771
 5555SOL    HW117564   6.754   5.860   2.757
 5555SOL    HW217565   6.860   5.738   2.780
 5556SOL     OW17566   0.579   1.087   4.355
 5556SOL    HW117567   0.548   1.130   4.270
 5556SOL    HW217568   0.554   0.990   4.354
 5557SOL     OW17569   2.900   0.740   3.326
 5557SOL    HW117570   2.938   0.691   3.248
 5557SOL    HW217571   2.916   0.688   3.410
 5558SOL     OW17572   4.867   2.319   4.720
 5558SOL    HW117573   4.848   2.239   4.663
 5558SOL    HW217574   4.810   2.315   4.802
 5559SOL     OW17575   2.020   0.178   1.001
 5559SOL    HW117576   2.025   0.213   1.094
 5559SOL    HW217577   2.107   0.136   0.976
 5560SOL     OW17578   0.274   0.401   4.047
 5560SOL    HW117579   0.281   0.343   3.966
 5560SOL    HW217580   0.363   0.440   4.069
 5561SOL     OW17581   1.390   3.757   3.116
 5561SOL    HW117582   1.372   3.816   3.038
 5561SOL    HW217583   1.487   3.761   3.140
 5562SOL     OW17584   2.426   2.570   5.996
 5562SOL    HW117585   2.373   2.617   5.926
 5562SOL    HW217586   2.488   2.504   5.953
 5563SOL     OW17587   4.211   4.908   1.464
 5563SOL    HW117588   4.301   4.912   1.420
 5563SOL    HW217589   4.206   4.828   1.523
 5564SOL     OW17590   6.249   4.467   1.208
 5564SOL    HW117591   6.180   4.397   1.222
 5564SOL    HW217592   6.340   4.425   1.213
 5565SOL     OW17593   2.705   3.259   5.624
 5565SOL    HW117594   2.767   3.336   5.611
 5565SOL    HW217595   2.737   3.181   5.569
 5566SOL     OW17596   2.092   4.585   0.981
 5566SOL    HW117597   2.136   4.619   0.898
 5566SOL    HW217598   2.129   4.632   1.061
 5567SOL     OW17599   1.730   5.957   2.320
 5567SOL    HW117600   1.812   5.899   2.318
 5567SOL    HW217601   1.677   5.937   2.402
 5568SOL     OW17602   3.766   1.849   0.882
 5568SOL    HW117603   3.707   1.812   0.954
 5568SOL    HW217604   3.709   1.877   0.804
 5569SOL     OW17605   6.171   2.435   7.010
 5569SOL    HW117606   6.181   2.336   7.010
 5569SOL    HW217607   6.079   2.459   0.022
 5570SOL     OW17608   6.922   4.032   5.666
 5570SOL    HW117609   6.837   4.076   5.638
 5570SOL    HW217610   6.959   3.979   5.591
 5571SOL     OW17611   6.898   4.496   6.461
 5571SOL    HW117612   6.863   4.560   6.529
 5571SOL    HW217613   6.878   4.530   6.370
 5572SOL     OW17614   5.276   2.791   5.721
 5572SOL    HW117615   5.353   2.768   5.781
 5572SOL    HW217616   5.192   2.791   5.775
 5573SOL     OW17617   0.958   3.941   0.436
 5573SOL    HW117618   1.029   3.994   0.482
 5573SOL    HW217619   0.997   3.856   0.401
 5574SOL     OW17620   0.754   6.218   4.678
 5574SOL    HW117621   0.717   6.271   4.602
 5574SOL    HW217622   0.850   6.198   4.661
 5575SOL     OW17623   1.629   0.883   1.567
 5575SOL    HW117624   1.707   0.907   1.508
 5575SOL    HW217625   1.615   0.956   1.635
 5576SOL     OW17626   6.343   6.116   0.225
 5576SOL    HW117627   6.435   6.127   0.262
 5576SOL    HW217628   6.344   6.047   0.152
 5577SOL     OW17629   2.343   3.713   5.251
 5577SOL    HW117630   2.384   3.805   5.247
 5577SOL    HW217631   2.264   3.709   5.190
 5578SOL     OW17632   3.938   1.488   6.132
 5578SOL    HW117633   4.013   1.449   6.078
 5578SOL    HW217634   3.878   1.414   6.163
 5579SOL     OW17635   5.116   4.666   0.803
 5579SOL    HW117636   5.175   4.619   0.869
 5579SOL    HW217637   5.048   4.721   0.851
 5580SOL     OW17638   5.335   0.537   1.539
 5580SOL    HW117639   5.240   0.507   1.531
 5580SOL    HW217640   5.385   0.513   1.456
 5581SOL     OW17641   2.659   2.578   0.435
 5581SOL    HW117642   2.745   2.627   0.424
 5581SOL    HW217643   2.651   2.545   0.529
 5582SOL     OW17644   3.795   3.244   3.064
 5582SOL    HW117645   3.839   3.282   3.145
 5582SOL    HW217646   3.863   3.200   3.006
 5583SOL     OW17647   3.547   0.558   0.507
 5583SOL    HW117648   3.585   0.617   0.579
 5583SOL    HW217649   3.614   0.488   0.482
 5584SOL     OW17650   5.724   3.042   2.771
 5584SOL    HW117651   5.644   3.082   2.817
 5584SOL    HW217652   5.715   3.055   2.673
 5585SOL     OW17653   6.909   6.593   4.212
 5585SOL    HW117654   6.973   6.565   4.140
 5585SOL    HW217655   6.870   6.512   4.255
 5586SOL     OW17656   2.192   1.508   6.504
 5586SOL    HW117657   2.276   1.562   6.510
 5586SOL    HW217658   2.117   1.567   6.473
 5587SOL     OW17659   3.538   0.184   3.879
 5587SOL    HW117660   3.593   0.246   3.935
 5587SOL    HW217661   3.444   0.183   3.914
 5588SOL     OW17662   4.058   0.145   5.774
 5588SOL    HW117663   4.014   0.208   5.710
 5588SOL    HW217664   4.017   0.054   5.766
 5589SOL     OW17665   3.488   3.369   6.611
 5589SOL    HW117666   3.433   3.433   6.557
 5589SOL    HW217667   3.432   3.291   6.638
 5590SOL     OW17668   6.949   6.801   2.963
 5590SOL    HW117669   6.893   6.726   2.999
 5590SOL    HW217670   6.942   6.880   3.024
 5591SOL     OW17671   4.550   0.995   6.956
 5591SOL    HW117672   4.637   0.973   7.000
 5591SOL    HW217673   4.565   1.064   6.885
 5592SOL     OW17674   2.781   2.328   2.587
 5592SOL    HW117675   2.806   2.371   2.500
 5592SOL    HW217676   2.844   2.253   2.607
 5593SOL     OW17677   1.950   3.510   5.081
 5593SOL    HW117678   1.974   3.577   5.011
 5593SOL    HW217679   1.851   3.507   5.092
 5594SOL     OW17680   2.597   1.384   6.794
 5594SOL    HW117681   2.550   1.299   6.770
 5594SOL    HW217682   2.546   1.431   6.867
 5595SOL     OW17683   0.029   1.636   5.866
 5595SOL    HW117684   0.110   1.607   5.917
 5595SOL    HW217685   0.038   1.732   5.840
 5596SOL     OW17686   4.992   1.549   2.985
 5596SOL    HW117687   4.896   1.538   3.010
 5596SOL    HW217688   5.049   1.540   3.066
 5597SOL     OW17689   0.191   1.001   6.031
 5597SOL    HW117690   0.265   1.057   6.068
 5597SOL    HW217691   0.109   1.014   6.085
 5598SOL     OW17692   6.952   2.385   4.372
 5598SOL    HW117693   6.973   2.289   4.393
 5598SOL    HW217694   6.900   2.425   4.447
 5599SOL     OW17695   5.037   2.847   3.656
 5599SOL    HW117696   5.084   2.909   3.592
 5599SOL    HW217697   4.981   2.783   3.604
 5600SOL     OW17698   2.396   1.830   1.711
 5600SOL    HW117699   2.444   1.796   1.792
 5600SOL    HW217700   2.336   1.906   1.737
 5601SOL     OW17701   6.279   3.004   5.728
 5601SOL    HW117702   6.205   3.025   5.791
 5601SOL    HW217703   6.242   2.978   5.639
 5602SOL     OW17704   6.191   2.442   2.555
 5602SOL    HW117705   6.105   2.418   2.600
 5602SOL    HW217706   6.171   2.481   2.465
 5603SOL     OW17707   4.684   1.228   5.891
 5603SOL    HW117708   4.742   1.244   5.811
 5603SOL    HW217709   4.620   1.153   5.872
 5604SOL     OW17710   1.377   6.727   3.445
 5604SOL    HW117711   1.458   6.783   3.461
 5604SOL    HW217712   1.402   6.645   3.393
 5605SOL     OW17713   4.345   6.901   4.321
 5605SOL    HW117714   4.423   6.887   4.260
 5605SOL    HW217715   4.282   6.824   4.313
 5606SOL     OW17716   5.002   3.333   0.321
 5606SOL    HW117717   5.067   3.370   0.386
 5606SOL    HW217718   4.924   3.294   0.370
 5607SOL     OW17719   6.878   2.482   3.319
 5607SOL    HW117720   6.892   2.519   3.411
 5607SOL    HW217721   6.793   2.429   3.317
 5608SOL     OW17722   5.004   0.718   3.310
 5608SOL    HW117723   5.050   0.790   3.361
 5608SOL    HW217724   4.996   0.744   3.214
 5609SOL     OW17725   6.876   0.401   0.831
 5609SOL    HW117726   6.891   0.450   0.745
 5609SOL    HW217727   6.929   0.444   0.904
 5610SOL     OW17728   5.132   5.409   0.734
 5610SOL    HW117729   5.227   5.424   0.706
 5610SOL    HW217730   5.084   5.359   0.662
 5611SOL     OW17731   5.799   4.792   1.889
 5611SOL    HW117732   5.787   4.805   1.791
 5611SOL    HW217733   5.738   4.854   1.939
 5612SOL     OW17734   3.573   1.959   6.903
 5612SOL    HW117735   3.596   2.019   6.826
 5612SOL    HW217736   3.478   1.930   6.896
 5613SOL     OW17737   5.978   4.789   6.178
 5613SOL    HW117738   6.022   4.876   6.198
 5613SOL    HW217739   5.948   4.746   6.263
 5614SOL     OW17740   4.806   2.965   4.101
 5614SOL    HW117741   4.870   2.889   4.110
 5614SOL    HW217742   4.751   2.953   4.018
 5615SOL     OW17743   0.473   2.870   2.960
 5615SOL    HW117744   0.383   2.850   2.923
 5615SOL    HW217745   0.507   2.791   3.011
 5616SOL     OW17746   1.620   3.274   2.503
 5616SOL    HW117747   1.677   3.196   2.528
 5616SOL    HW217748   1.621   3.342   2.577
 5617SOL     OW17749   1.314   5.074   6.378
 5617SOL    HW117750   1.278   4.981   6.384
 5617SOL    HW217751   1.367   5.083   6.293
 5618SOL     OW17752   5.257   6.581   2.230
 5618SOL    HW117753   5.243   6.599   2.133
 5618SOL    HW217754   5.215   6.494   2.254
 5619SOL     OW17755   3.442   3.203   3.747
 5619SOL    HW117756   3.535   3.218   3.713
 5619SOL    HW217757   3.444   3.187   3.846
 5620SOL     OW17758   4.928   4.724   4.235
 5620SOL    HW117759   4.842   4.674   4.247
 5620SOL    HW217760   5.004   4.661   4.246
 5621SOL     OW17761   0.114   2.482   6.373
 5621SOL    HW117762   0.197   2.510   6.325
 5621SOL    HW217763   0.137   2.412   6.441
 5622SOL     OW17764   4.697   5.836   3.761
 5622SOL    HW117765   4.701   5.850   3.860
 5622SOL    HW217766   4.605   5.857   3.728
 5623SOL     OW17767   5.026   4.923   4.681
 5623SOL    HW117768   5.094   4.915   4.608
 5623SOL    HW217769   5.050   4.860   4.755
 5624SOL     OW17770   5.058   4.602   3.336
 5624SOL    HW117771   5.099   4.680   3.286
 5624SOL    HW217772   5.037   4.529   3.271
 5625SOL     OW17773   2.201   6.091   5.937
 5625SOL    HW117774   2.215   6.190   5.927
 5625SOL    HW217775   2.112   6.066   5.899
 5626SOL     OW17776   0.745   4.157   6.722
 5626SOL    HW117777   0.812   4.231   6.728
 5626SOL    HW217778   0.717   4.131   6.814
 5627SOL     OW17779   1.020   5.240   6.856
 5627SOL    HW117780   0.921   5.235   6.842
 5627SOL    HW217781   1.040   5.302   6.932
 5628SOL     OW17782   2.264   3.547   0.591
 5628SOL    HW117783   2.339   3.613   0.591
 5628SOL    HW217784   2.191   3.580   0.651
 5629SOL     OW17785   6.551   3.390   2.396
 5629SOL    HW117786   6.459   3.428   2.391
 5629SOL    HW217787   6.557   3.326   2.472
 5630SOL     OW17788   0.844   3.886   0.132
 5630SOL    HW117789   0.804   3.961   0.079
 5630SOL    HW217790   0.934   3.913   0.166
 5631SOL     OW17791   3.879   1.411   2.139
 5631SOL    HW117792   3.793   1.405   2.088
 5631SOL    HW217793   3.953   1.435   2.077
 5632SOL     OW17794   4.971   6.625   5.578
 5632SOL    HW117795   4.948   6.569   5.499
 5632SOL    HW217796   4.914   6.599   5.656
 5633SOL     OW17797   1.186   5.479   5.262
 5633SOL    HW117798   1.185   5.461   5.164
 5633SOL    HW217799   1.095   5.465   5.300
 5634SOL     OW17800   2.646   0.671   1.183
 5634SOL    HW117801   2.574   0.612   1.221
 5634SOL    HW217802   2.735   0.641   1.217
 5635SOL     OW17803   3.094   0.988   1.219
 5635SOL    HW117804   3.042   0.938   1.288
 5635SOL    HW217805   3.133   1.071   1.259
 5636SOL     OW17806   4.981   1.392   6.074
 5636SOL    HW117807   4.884   1.414   6.073
 5636SOL    HW217808   5.027   1.439   5.999
 5637SOL     OW17809   5.122   6.652   4.557
 5637SOL    HW117810   5.029   6.646   4.591
 5637SOL    HW217811   5.178   6.581   4.600
 5638SOL     OW17812   6.140   5.293   1.159
 5638SOL    HW117813   6.217   5.245   1.118
 5638SOL    HW217814   6.173   5.375   1.206
 5639SOL     OW17815   2.089   0.385   1.801
 5639SOL    HW117816   2.041   0.463   1.841
 5639SOL    HW217817   2.034   0.302   1.813
 5640SOL     OW17818   3.178   0.222   2.754
 5640SOL    HW117819   3.184   0.196   2.657
 5640SOL    HW217820   3.085   0.203   2.787
 5641SOL     OW17821   6.542   4.254   3.702
 5641SOL    HW117822   6.556   4.314   3.623
 5641SOL    HW217823   6.582   4.297   3.783
 5642SOL     OW17824   2.143   3.397   6.497
 5642SOL    HW117825   2.142   3.390   6.597
 5642SOL    HW217826   2.113   3.489   6.470
 5643SOL     OW17827   5.442   2.476   4.799
 5643SOL    HW117828   5.360   2.480   4.742
 5643SOL    HW217829   5.501   2.553   4.776
 5644SOL     OW17830   4.425   0.711   4.980
 5644SOL    HW117831   4.362   0.634   4.982
 5644SOL    HW217832   4.514   0.682   5.015
 5645SOL     OW17833   6.544   5.500   3.944
 5645SOL    HW117834   6.574   5.533   4.034
 5645SOL    HW217835   6.483   5.567   3.902
 5646SOL     OW17836   0.201   6.388   3.604
 5646SOL    HW117837   0.280   6.360   3.658
 5646SOL    HW217838   0.118   6.344   3.639
 5647SOL     OW17839   6.055   5.421   6.109
 5647SOL    HW117840   6.050   5.342   6.169
 5647SOL    HW217841   5.995   5.407   6.030
 5648SOL     OW17842   1.825   1.363   5.171
 5648SOL    HW117843   1.826   1.460   5.147
 5648SOL    HW217844   1.737   1.324   5.146
 5649SOL     OW17845   1.447   0.417   4.980
 5649SOL    HW117846   1.502   0.475   5.041
 5649SOL    HW217847   1.504   0.384   4.905
 5650SOL     OW17848   6.727   4.923   0.414
 5650SOL    HW117849   6.668   4.867   0.356
 5650SOL    HW217850   6.820   4.920   0.378
 5651SOL     OW17851   6.542   1.416   2.784
 5651SOL    HW117852   6.447   1.442   2.772
 5651SOL    HW217853   6.596   1.449   2.707
 5652SOL     OW17854   5.507   4.326   0.220
 5652SOL    HW117855   5.499   4.420   0.185
 5652SOL    HW217856   5.490   4.261   0.145
 5653SOL     OW17857   1.571   6.174   6.456
 5653SOL    HW117858   1.507   6.104   6.424
 5653SOL    HW217859   1.526   6.234   6.522
 5654SOL     OW17860   0.846   5.353   6.023
 5654SOL    HW117861   0.747   5.340   6.033
 5654SOL    HW217862   0.871   5.342   5.927
 5655SOL     OW17863   6.964   4.369   3.284
 5655SOL    HW117864   6.983   4.275   3.315
 5655SOL    HW217865   6.958   4.370   3.184
 5656SOL     OW17866   3.012   4.775   6.444
 5656SOL    HW117867   2.957   4.854   6.417
 5656SOL    HW217868   3.098   4.807   6.484
 5657SOL     OW17869   4.051   5.941   1.484
 5657SOL    HW117870   4.113   5.987   1.548
 5657SOL    HW217871   4.072   5.969   1.391
 5658SOL     OW17872   4.981   6.766   5.198
 5658SOL    HW117873   4.919   6.817   5.257
 5658SOL    HW217874   4.978   6.669   5.222
 5659SOL     OW17875   3.406   3.708   2.898
 5659SOL    HW117876   3.417   3.616   2.861
 5659SOL    HW217877   3.319   3.746   2.868
 5660SOL     OW17878   6.086   6.868   0.919
 5660SOL    HW117879   6.052   6.945   0.973
 5660SOL    HW217880   6.070   6.885   0.822
 5661SOL     OW17881   6.587   5.958   4.641
 5661SOL    HW117882   6.537   5.962   4.727
 5661SOL    HW217883   6.684   5.941   4.658
 5662SOL     OW17884   2.083   3.657   4.283
 5662SOL    HW117885   2.062   3.600   4.362
 5662SOL    HW217886   2.060   3.608   4.199
 5663SOL     OW17887   1.664   3.613   0.224
 5663SOL    HW117888   1.565   3.607   0.237
 5663SOL    HW217889   1.704   3.665   0.299
 5664SOL     OW17890   6.974   4.695   2.907
 5664SOL    HW117891   7.005   4.684   3.002
 5664SOL    HW217892   6.961   4.606   2.865
 5665SOL     OW17893   2.020   1.193   6.148
 5665SOL    HW117894   1.923   1.195   6.122
 5665SOL    HW217895   2.029   1.221   6.244
 5666SOL     OW17896   5.851   5.366   0.404
 5666SOL    HW117897   5.867   5.355   0.502
 5666SOL    HW217898   5.824   5.461   0.385
 5667SOL     OW17899   0.163   5.652   3.832
 5667SOL    HW117900   0.140   5.596   3.752
 5667SOL    HW217901   0.110   5.620   3.911
 5668SOL     OW17902   5.877   2.666   5.557
 5668SOL    HW117903   5.889   2.625   5.467
 5668SOL    HW217904   5.781   2.659   5.585
 5669SOL     OW17905   6.867   3.350   5.341
 5669SOL    HW117906   6.776   3.387   5.327
 5669SOL    HW217907   6.934   3.403   5.288
 5670SOL     OW17908   1.943   4.166   3.504
 5670SOL    HW117909   1.875   4.105   3.545
 5670SOL    HW217910   1.943   4.254   3.554
 5671SOL     OW17911   1.731   1.102   5.429
 5671SOL    HW117912   1.645   1.071   5.390
 5671SOL    HW217913   1.802   1.034   5.411
 5672SOL     OW17914   5.531   4.491   5.750
 5672SOL    HW117915   5.613   4.478   5.694
 5672SOL    HW217916   5.493   4.403   5.775
 5673SOL     OW17917   1.858   0.181   1.821
 5673SOL    HW117918   1.925   0.108   1.834
 5673SOL    HW217919   1.810   0.199   1.908
 5674SOL     OW17920   6.779   3.648   1.117
 5674SOL    HW117921   6.809   3.721   1.178
 5674SOL    HW217922   6.725   3.581   1.169
 5675SOL     OW17923   4.355   1.951   5.878
 5675SOL    HW117924   4.296   1.957   5.797
 5675SOL    HW217925   4.298   1.954   5.961
 5676SOL     OW17926   3.290   6.872   1.358
 5676SOL    HW117927   3.191   6.870   1.343
 5676SOL    HW217928   3.337   6.863   1.271
 5677SOL     OW17929   0.171   0.210   4.226
 5677SOL    HW117930   0.238   0.139   4.247
 5677SOL    HW217931   0.207   0.271   4.156
 5678SOL     OW17932   2.159   5.190   3.288
 5678SOL    HW117933   2.126   5.149   3.373
 5678SOL    HW217934   2.244   5.147   3.261
 5679SOL     OW17935   2.535   6.068   5.146
 5679SOL    HW117936   2.533   6.120   5.231
 5679SOL    HW217937   2.600   5.993   5.155
 5680SOL     OW17938   2.369   0.022   6.289
 5680SOL    HW117939   2.316   0.102   6.315
 5680SOL    HW217940   2.308   6.961   6.274
 5681SOL     OW17941   1.503   3.420   0.804
 5681SOL    HW117942   1.507   3.444   0.901
 5681SOL    HW217943   1.534   3.326   0.792
 5682SOL     OW17944   0.591   3.344   3.947
 5682SOL    HW117945   0.639   3.275   3.892
 5682SOL    HW217946   0.621   3.337   4.042
 5683SOL     OW17947   3.763   2.590   5.459
 5683SOL    HW117948   3.755   2.637   5.547
 5683SOL    HW217949   3.848   2.619   5.414
 5684SOL     OW17950   3.073   3.817   3.263
 5684SOL    HW117951   3.125   3.896   3.230
 5684SOL    HW217952   3.024   3.844   3.346
 5685SOL     OW17953   0.593   5.321   2.167
 5685SOL    HW117954   0.655   5.387   2.124
 5685SOL    HW217955   0.607   5.323   2.266
 5686SOL     OW17956   3.538   5.659   0.126
 5686SOL    HW117957   3.616   5.697   0.177
 5686SOL    HW217958   3.562   5.653   0.029
 5687SOL     OW17959   4.756   5.581   5.437
 5687SOL    HW117960   4.688   5.653   5.441
 5687SOL    HW217961   4.759   5.532   5.524
 5688SOL     OW17962   5.758   2.306   2.095
 5688SOL    HW117963   5.677   2.249   2.078
 5688SOL    HW217964   5.783   2.300   2.192
 5689SOL     OW17965   4.347   2.591   0.186
 5689SOL    HW117966   4.274   2.602   0.254
 5689SOL    HW217967   4.422   2.539   0.226
 5690SOL     OW17968   4.721   6.758   1.466
 5690SOL    HW117969   4.809   6.761   1.512
 5690SOL    HW217970   4.722   6.684   1.398
 5691SOL     OW17971   1.936   0.206   2.337
 5691SOL    HW117972   1.964   0.112   2.357
 5691SOL    HW217973   1.886   0.209   2.250
 5692SOL     OW17974   5.685   3.040   0.002
 5692SOL    HW117975   5.615   2.973   0.027
 5692SOL    HW217976   5.775   2.997   0.004
 5693SOL     OW17977   4.925   2.672   3.466
 5693SOL    HW117978   4.845   2.621   3.434
 5693SOL    HW217979   4.979   2.701   3.387
 5694SOL     OW17980   0.602   1.750   4.005
 5694SOL    HW117981   0.566   1.794   4.087
 5694SOL    HW217982   0.655   1.669   4.030
 5695SOL     OW17983   2.149   3.393   3.369
 5695SOL    HW117984   2.215   3.318   3.362
 5695SOL    HW217985   2.125   3.425   3.277
 5696SOL     OW17986   3.044   6.935   5.676
 5696SOL    HW117987   3.064   0.010   5.642
 5696SOL    HW217988   3.057   6.868   5.602
 5697SOL     OW17989   0.081   3.435   6.765
 5697SOL    HW117990   0.092   3.514   6.705
 5697SOL    HW217991   0.057   3.355   6.710
 5698SOL     OW17992   0.315   4.086   2.168
 5698SOL    HW117993   0.401   4.057   2.127
 5698SOL    HW217994   0.334   4.138   2.252
 5699SOL     OW17995   5.947   0.885   4.842
 5699SOL    HW117996   5.968   0.878   4.940
 5699SOL    HW217997   6.011   0.826   4.791
 5700SOL     OW17998   1.141   5.668   3.550
 5700SOL    HW117999   1.075   5.656   3.624
 5700SOL    HW218000   1.232   5.685   3.589
 5701SOL     OW18001   5.713   5.156   1.789
 5701SOL    HW118002   5.638   5.213   1.821
 5701SOL    HW218003   5.727   5.080   1.852
 5702SOL     OW18004   1.904   0.170   6.502
 5702SOL    HW118005   1.917   0.269   6.499
 5702SOL    HW218006   1.879   0.143   6.595
 5703SOL     OW18007   3.971   4.299   0.650
 5703SOL    HW118008   3.954   4.389   0.610
 5703SOL    HW218009   4.048   4.305   0.714
 5704SOL     OW18010   3.872   5.458   3.614
 5704SOL    HW118011   3.897   5.476   3.709
 5704SOL    HW218012   3.815   5.533   3.580
 5705SOL     OW18013   6.403   1.642   1.997
 5705SOL    HW118014   6.402   1.571   1.927
 5705SOL    HW218015   6.312   1.649   2.039
 5706SOL     OW18016   1.962   1.331   6.793
 5706SOL    HW118017   2.036   1.361   6.733
 5706SOL    HW218018   1.983   1.240   6.829
 5707SOL     OW18019   3.167   2.306   6.095
 5707SOL    HW118020   3.174   2.244   6.174
 5707SOL    HW218021   3.118   2.260   6.021
 5708SOL     OW18022   5.451   6.701   1.960
 5708SOL    HW118023   5.443   6.623   2.023
 5708SOL    HW218024   5.415   6.783   2.004
 5709SOL     OW18025   1.231   1.197   2.857
 5709SOL    HW118026   1.330   1.189   2.853
 5709SOL    HW218027   1.203   1.221   2.950
 5710SOL     OW18028   3.022   4.032   6.014
 5710SOL    HW118029   2.978   3.950   5.977
 5710SOL    HW218030   3.054   4.013   6.107
 5711SOL     OW18031   3.989   1.018   4.299
 5711SOL    HW118032   3.893   1.035   4.323
 5711SOL    HW218033   3.997   1.012   4.200
 5712SOL     OW18034   6.583   5.916   6.511
 5712SOL    HW118035   6.508   5.940   6.572
 5712SOL    HW218036   6.616   5.824   6.531
 5713SOL     OW18037   6.595   2.078   3.246
 5713SOL    HW118038   6.563   1.983   3.249
 5713SOL    HW218039   6.633   2.098   3.156
 5714SOL     OW18040   1.850   0.888   6.916
 5714SOL    HW118041   1.904   0.972   6.917
 5714SOL    HW218042   1.762   0.903   6.960
 5715SOL     OW18043   1.848   0.018   3.074
 5715SOL    HW118044   1.766   0.039   3.128
 5715SOL    HW218045   1.822   0.010   2.978
 5716SOL     OW18046   2.333   2.708   5.707
 5716SOL    HW118047   2.344   2.655   5.623
 5716SOL    HW218048   2.419   2.755   5.729
 5717SOL     OW18049   0.799   3.922   0.829
 5717SOL    HW118050   0.868   3.863   0.870
 5717SOL    HW218051   0.844   3.992   0.773
 5718SOL     OW18052   2.524   4.708   5.446
 5718SOL    HW118053   2.552   4.679   5.355
 5718SOL    HW218054   2.460   4.641   5.484
 5719SOL     OW18055   3.032   0.807   6.332
 5719SOL    HW118056   3.082   0.893   6.325
 5719SOL    HW218057   2.967   0.799   6.256
 5720SOL     OW18058   1.765   4.837   4.520
 5720SOL    HW118059   1.839   4.804   4.462
 5720SOL    HW218060   1.677   4.814   4.478
 5721SOL     OW18061   0.866   4.857   1.667
 5721SOL    HW118062   0.774   4.868   1.702
 5721SOL    HW218063   0.922   4.807   1.734
 5722SOL     OW18064   5.434   0.209   3.976
 5722SOL    HW118065   5.385   0.277   3.922
 5722SOL    HW218066   5.408   0.219   4.073
 5723SOL     OW18067   1.877   4.765   1.004
 5723SOL    HW118068   1.944   4.691   0.998
 5723SOL    HW218069   1.895   4.832   0.932
 5724SOL     OW18070   5.302   1.601   6.989
 5724SOL    HW118071   5.331   1.520   0.022
 5724SOL    HW218072   5.292   1.579   6.892
 5725SOL     OW18073   5.035   5.786   6.423
 5725SOL    HW118074   4.982   5.855   6.472
 5725SOL    HW218075   4.975   5.732   6.365
 5726SOL     OW18076   5.238   3.460   6.429
 5726SOL    HW118077   5.309   3.526   6.403
 5726SOL    HW218078   5.281   3.380   6.471
 5727SOL     OW18079   6.234   1.863   3.955
 5727SOL    HW118080   6.276   1.866   4.046
 5727SOL    HW218081   6.300   1.828   3.889
 5728SOL     OW18082   6.424   0.615   6.329
 5728SOL    HW118083   6.408   0.688   6.262
 5728SOL    HW218084   6.458   0.655   6.414
 5729SOL     OW18085   0.731   2.682   5.509
 5729SOL    HW118086   0.641   2.664   5.550
 5729SOL    HW218087   0.766   2.597   5.468
 5730SOL     OW18088   4.704   4.829   6.501
 5730SOL    HW118089   4.676   4.837   6.596
 5730SOL    HW218090   4.689   4.916   6.454
 5731SOL     OW18091   3.319   1.159   4.274
 5731SOL    HW118092   3.249   1.229   4.259
 5731SOL    HW218093   3.378   1.186   4.350
 5732SOL     OW18094   5.337   4.075   4.620
 5732SOL    HW118095   5.288   4.036   4.543
 5732SOL    HW218096   5.301   4.166   4.640
 5733SOL     OW18097   2.797   0.663   0.476
 5733SOL    HW118098   2.888   0.647   0.440
 5733SOL    HW218099   2.784   0.761   0.492
 5734SOL     OW18100   2.153   6.195   6.479
 5734SOL    HW118101   2.209   6.151   6.550
 5734SOL    HW218102   2.067   6.226   6.519
 5735SOL     OW18103   4.429   0.407   1.799
 5735SOL    HW118104   4.352   0.468   1.777
 5735SOL    HW218105   4.410   0.359   1.885
 5736SOL     OW18106   5.148   4.231   6.985
 5736SOL    HW118107   5.130   4.138   6.954
 5736SOL    HW218108   5.106   4.244   0.059
 5737SOL     OW18109   4.025   5.084   1.092
 5737SOL    HW118110   3.966   5.105   1.014
 5737SOL    HW218111   4.113   5.131   1.081
 5738SOL     OW18112   2.912   0.712   6.986
 5738SOL    HW118113   2.873   0.658   6.910
 5738SOL    HW218114   2.838   0.739   0.032
 5739SOL     OW18115   2.003   0.832   5.903
 5739SOL    HW118116   2.053   0.919   5.910
 5739SOL    HW218117   2.023   0.790   5.815
 5740SOL     OW18118   5.299   3.480   2.496
 5740SOL    HW118119   5.386   3.472   2.447
 5740SOL    HW218120   5.316   3.487   2.594
 5741SOL     OW18121   0.175   3.396   4.168
 5741SOL    HW118122   0.259   3.449   4.154
 5741SOL    HW218123   0.136   3.418   4.257
 5742SOL     OW18124   5.172   0.256   3.573
 5742SOL    HW118125   5.220   0.197   3.508
 5742SOL    HW218126   5.132   0.333   3.525
 5743SOL     OW18127   4.203   4.407   6.771
 5743SOL    HW118128   4.151   4.323   6.786
 5743SOL    HW218129   4.253   4.431   6.854
 5744SOL     OW18130   5.386   6.885   2.852
 5744SOL    HW118131   5.367   6.974   2.811
 5744SOL    HW218132   5.345   6.813   2.796
 5745SOL     OW18133   1.872   2.105   2.295
 5745SOL    HW118134   1.892   2.199   2.325
 5745SOL    HW218135   1.774   2.088   2.302
 5746SOL     OW18136   4.335   0.104   3.469
 5746SOL    HW118137   4.307   0.008   3.473
 5746SOL    HW218138   4.298   0.145   3.386
 5747SOL     OW18139   0.529   6.153   0.938
 5747SOL    HW118140   0.617   6.121   0.973
 5747SOL    HW218141   0.469   6.075   0.921
 5748SOL     OW18142   0.288   6.205   0.572
 5748SOL    HW118143   0.253   6.167   0.487
 5748SOL    HW218144   0.276   6.304   0.573
 5749SOL     OW18145   1.766   5.856   6.021
 5749SOL    HW118146   1.843   5.848   6.084
 5749SOL    HW218147   1.795   5.906   5.940
 5750SOL     OW18148   5.972   4.382   3.657
 5750SOL    HW118149   5.925   4.373   3.745
 5750SOL    HW218150   5.921   4.444   3.598
 5751SOL     OW18151   1.820   3.524   4.226
 5751SOL    HW118152   1.792   3.511   4.321
 5751SOL    HW218153   1.833   3.622   4.208
 5752SOL     OW18154   4.671   0.604   0.492
 5752SOL    HW118155   4.606   0.678   0.477
 5752SOL    HW218156   4.636   0.543   0.563
 5753SOL     OW18157   3.991   3.965   5.118
 5753SOL    HW118158   4.035   4.014   5.043
 5753SOL    HW218159   3.915   3.911   5.082
 5754SOL     OW18160   0.967   6.048   1.304
 5754SOL    HW118161   0.975   5.961   1.351
 5754SOL    HW218162   0.919   6.114   1.362
 5755SOL     OW18163   1.118   2.507   6.682
 5755SOL    HW118164   1.052   2.441   6.718
 5755SOL    HW218165   1.104   2.520   6.584
 5756SOL     OW18166   6.047   6.248   1.343
 5756SOL    HW118167   6.123   6.186   1.324
 5756SOL    HW218168   6.028   6.302   1.262
 5757SOL     OW18169   6.355   0.132   4.390
 5757SOL    HW118170   6.285   0.082   4.440
 5757SOL    HW218171   6.390   0.207   4.446
 5758SOL     OW18172   6.332   0.157   2.818
 5758SOL    HW118173   6.275   0.193   2.744
 5758SOL    HW218174   6.403   0.099   2.779
 5759SOL     OW18175   3.973   0.232   1.273
 5759SOL    HW118176   3.908   0.211   1.200
 5759SOL    HW218177   4.022   0.316   1.251
 5760SOL     OW18178   0.535   2.893   1.202
 5760SOL    HW118179   0.480   2.933   1.128
 5760SOL    HW218180   0.507   2.798   1.216
 5761SOL     OW18181   5.754   6.950   4.779
 5761SOL    HW118182   5.671   6.928   4.830
 5761SOL    HW218183   5.831   6.898   4.818
 5762SOL     OW18184   6.309   5.715   6.699
 5762SOL    HW118185   6.229   5.654   6.699
 5762SOL    HW218186   6.392   5.662   6.684
 5763SOL     OW18187   6.057   0.016   7.007
 5763SOL    HW118188   6.076   0.103   6.962
 5763SOL    HW218189   6.143   6.986   0.011
 5764SOL     OW18190   4.582   6.329   4.292
 5764SOL    HW118191   4.632   6.413   4.275
 5764SOL    HW218192   4.503   6.348   4.350
 5765SOL     OW18193   6.675   4.990   1.801
 5765SOL    HW118194   6.687   5.040   1.886
 5765SOL    HW218195   6.577   4.974   1.786
 5766SOL     OW18196   0.164   1.698   4.373
 5766SOL    HW118197   0.185   1.602   4.355
 5766SOL    HW218198   0.243   1.742   4.416
 5767SOL     OW18199   2.856   0.258   0.437
 5767SOL    HW118200   2.796   0.316   0.492
 5767SOL    HW218201   2.800   0.201   0.377
 5768SOL     OW18202   0.531   6.838   4.689
 5768SOL    HW118203   0.612   6.817   4.634
 5768SOL    HW218204   0.449   6.803   4.643
 5769SOL     OW18205   1.476   4.259   6.581
 5769SOL    HW118206   1.380   4.232   6.581
 5769SOL    HW218207   1.491   4.330   6.513
 5770SOL     OW18208   1.897   4.912   1.689
 5770SOL    HW118209   1.957   4.933   1.612
 5770SOL    HW218210   1.863   4.819   1.681
 5771SOL     OW18211   2.574   5.380   3.553
 5771SOL    HW118212   2.629   5.338   3.625
 5771SOL    HW218213   2.507   5.443   3.593
 5772SOL     OW18214   3.797   0.780   1.897
 5772SOL    HW118215   3.701   0.807   1.893
 5772SOL    HW218216   3.805   0.681   1.881
 5773SOL     OW18217   4.313   1.882   2.987
 5773SOL    HW118218   4.247   1.906   2.915
 5773SOL    HW218219   4.381   1.819   2.951
 5774SOL     OW18220   0.246   6.860   2.036
 5774SOL    HW118221   0.307   6.936   2.058
 5774SOL    HW218222   0.285   6.775   2.070
 5775SOL     OW18223   6.616   5.799   1.983
 5775SOL    HW118224   6.705   5.797   1.940
 5775SOL    HW218225   6.593   5.893   2.008
 5776SOL     OW18226   2.540   0.782   3.676
 5776SOL    HW118227   2.639   0.794   3.671
 5776SOL    HW218228   2.513   0.701   3.623
 5777SOL     OW18229   1.873   6.228   2.949
 5777SOL    HW118230   1.909   6.234   2.856
 5777SOL    HW218231   1.883   6.134   2.983
 5778SOL     OW18232   0.433   1.589   0.427
 5778SOL    HW118233   0.490   1.523   0.476
 5778SOL    HW218234   0.405   1.661   0.490
 5779SOL     OW18235   5.994   2.001   6.091
 5779SOL    HW118236   6.007   1.987   5.993
 5779SOL    HW218237   6.082   1.998   6.138
 5780SOL     OW18238   5.007   5.505   3.828
 5780SOL    HW118239   4.913   5.520   3.798
 5780SOL    HW218240   5.067   5.501   3.748
 5781SOL     OW18241   0.742   4.155   5.493
 5781SOL    HW118242   0.644   4.174   5.489
 5781SOL    HW218243   0.758   4.056   5.483
 5782SOL     OW18244   6.951   1.379   0.426
 5782SOL    HW118245   6.893   1.347   0.501
 5782SOL    HW218246   6.976   1.474   0.442
 5783SOL     OW18247   1.759   1.803   1.397
 5783SOL    HW118248   1.805   1.719   1.369
 5783SOL    HW218249   1.672   1.781   1.441
 5784SOL     OW18250   0.086   6.763   6.492
 5784SOL    HW118251   0.092   6.858   6.523
 5784SOL    HW218252   7.016   6.749   6.445
 5785SOL     OW18253   1.510   1.593   1.025
 5785SOL    HW118254   1.602   1.593   1.064
 5785SOL    HW218255   1.452   1.530   1.077
 5786SOL     OW18256   6.281   4.534   0.792
 5786SOL    HW118257   6.251   4.586   0.872
 5786SOL    HW218258   6.327   4.596   0.728
 5787SOL     OW18259   3.066   1.998   5.570
 5787SOL    HW118260   2.987   1.995   5.632
 5787SOL    HW218261   3.034   1.999   5.475
 5788SOL     OW18262   2.877   1.109   3.277
 5788SOL    HW118263   2.825   1.024   3.283
 5788SOL    HW218264   2.815   1.186   3.262
 5789SOL     OW18265   4.340   5.074   6.205
 5789SOL    HW118266   4.260   5.013   6.198
 5789SOL    HW218267   4.308   5.169   6.209
 5790SOL     OW18268   0.369   2.779   3.792
 5790SOL    HW118269   0.415   2.769   3.881
 5790SOL    HW218270   0.351   2.876   3.775
 5791SOL     OW18271   2.293   0.534   2.648
 5791SOL    HW118272   2.297   0.537   2.748
 5791SOL    HW218273   2.357   0.465   2.614
 5792SOL     OW18274   0.328   2.509   3.320
 5792SOL    HW118275   0.326   2.513   3.420
 5792SOL    HW218276   0.235   2.516   3.285
 5793SOL     OW18277   6.652   0.736   3.698
 5793SOL    HW118278   6.689   0.721   3.790
 5793SOL    HW218279   6.554   0.716   3.698
 5794SOL     OW18280   3.749   3.809   6.983
 5794SOL    HW118281   3.683   3.842   0.034
 5794SOL    HW218282   3.830   3.775   0.014
 5795SOL     OW18283   6.223   4.197   6.050
 5795SOL    HW118284   6.252   4.165   6.140
 5795SOL    HW218285   6.154   4.135   6.013
 5796SOL     OW18286   3.675   1.345   0.291
 5796SOL    HW118287   3.654   1.392   0.205
 5796SOL    HW218288   3.771   1.361   0.315
 5797SOL     OW18289   3.215   1.832   4.945
 5797SOL    HW118290   3.172   1.910   4.900
 5797SOL    HW218291   3.150   1.757   4.953
 5798SOL     OW18292   0.043   4.734   4.806
 5798SOL    HW118293   0.023   4.818   4.856
 5798SOL    HW218294   6.978   4.703   4.758
 5799SOL     OW18295   5.688   0.294   3.964
 5799SOL    HW118296   5.698   0.371   4.028
 5799SOL    HW218297   5.595   0.259   3.969
 5800SOL     OW18298   5.937   4.980   0.342
 5800SOL    HW118299   5.945   5.080   0.338
 5800SOL    HW218300   5.870   4.955   0.411
 5801SOL     OW18301   1.723   0.983   3.723
 5801SOL    HW118302   1.776   0.964   3.806
 5801SOL    HW218303   1.629   0.953   3.736
 5802SOL     OW18304   0.424   3.916   5.779
 5802SOL    HW118305   0.375   3.872   5.854
 5802SOL    HW218306   0.428   3.855   5.700
 5803SOL     OW18307   0.974   4.566   0.934
 5803SOL    HW118308   1.015   4.655   0.955
 5803SOL    HW218309   0.876   4.569   0.955
 5804SOL     OW18310   5.966   4.079   4.774
 5804SOL    HW118311   5.951   4.067   4.676
 5804SOL    HW218312   6.038   4.016   4.804
 5805SOL     OW18313   5.039   3.372   6.696
 5805SOL    HW118314   5.013   3.411   6.607
 5805SOL    HW218315   5.112   3.426   6.737
 5806SOL     OW18316   0.726   6.400   0.202
 5806SOL    HW118317   0.812   6.450   0.210
 5806SOL    HW218318   0.656   6.447   0.256
 5807SOL     OW18319   1.726   3.265   1.510
 5807SOL    HW118320   1.814   3.218   1.501
 5807SOL    HW218321   1.669   3.245   1.431
 5808SOL     OW18322   5.875   3.930   2.215
 5808SOL    HW118323   5.872   3.830   2.211
 5808SOL    HW218324   5.967   3.960   2.241
 5809SOL     OW18325   0.023   3.408   4.411
 5809SOL    HW118326   0.040   3.314   4.440
 5809SOL    HW218327   0.036   3.470   4.489
 5810SOL     OW18328   2.786   1.929   2.489
 5810SOL    HW118329   2.834   1.889   2.567
 5810SOL    HW218330   2.714   1.990   2.521
 5811SOL     OW18331   2.952   0.547   4.389
 5811SOL    HW118332   2.987   0.627   4.339
 5811SOL    HW218333   3.023   0.478   4.396
 5812SOL     OW18334   4.872   0.390   3.942
 5812SOL    HW118335   4.823   0.446   3.875
 5812SOL    HW218336   4.915   0.449   4.010
 5813SOL     OW18337   1.464   0.695   5.225
 5813SOL    HW118338   1.541   0.652   5.179
 5813SOL    HW218339   1.385   0.635   5.222
 5814SOL     OW18340   6.934   5.022   1.658
 5814SOL    HW118341   7.013   5.073   1.693
 5814SOL    HW218342   6.855   5.039   1.716
 5815SOL     OW18343   4.138   1.479   3.267
 5815SOL    HW118344   4.099   1.538   3.338
 5815SOL    HW218345   4.164   1.391   3.307
 5816SOL     OW18346   4.303   0.883   0.639
 5816SOL    HW118347   4.226   0.867   0.577
 5816SOL    HW218348   4.333   0.796   0.678
 5817SOL     OW18349   4.856   3.081   5.690
 5817SOL    HW118350   4.953   3.104   5.683
 5817SOL    HW218351   4.844   2.983   5.675
 5818SOL     OW18352   6.013   7.013   6.261
 5818SOL    HW118353   6.023   6.964   6.348
 5818SOL    HW218354   5.986   6.949   6.189
 5819SOL     OW18355   5.460   0.500   1.303
 5819SOL    HW118356   5.495   0.593   1.318
 5819SOL    HW218357   5.534   0.434   1.314
 5820SOL     OW18358   5.429   6.358   3.413
 5820SOL    HW118359   5.331   6.360   3.431
 5820SOL    HW218360   5.467   6.269   3.441
 5821SOL     OW18361   2.716   0.730   2.036
 5821SOL    HW118362   2.816   0.733   2.048
 5821SOL    HW218363   2.676   0.815   2.072
 5822SOL     OW18364   0.022   1.619   2.423
 5822SOL    HW118365   0.051   1.714   2.421
 5822SOL    HW218366   6.995   1.595   2.337
 5823SOL     OW18367   1.951   1.972   4.216
 5823SOL    HW118368   1.855   1.949   4.203
 5823SOL    HW218369   1.976   1.961   4.312
 5824SOL     OW18370   5.767   6.997   3.707
 5824SOL    HW118371   5.810   6.923   3.654
 5824SOL    HW218372   5.838   0.032   3.754
 5825SOL     OW18373   2.157   0.439   0.093
 5825SOL    HW118374   2.073   0.397   0.057
 5825SOL    HW218375   2.198   0.497   0.023
 5826SOL     OW18376   6.684   6.687   4.539
 5826SOL    HW118377   6.656   6.712   4.446
 5826SOL    HW218378   6.619   6.621   4.577
 5827SOL     OW18379   0.722   5.752   4.913
 5827SOL    HW118380   0.661   5.832   4.918
 5827SOL    HW218381   0.805   5.770   4.966
 5828SOL     OW18382   0.553   3.356   1.910
 5828SOL    HW118383   0.613   3.430   1.881
 5828SOL    HW218384   0.502   3.321   1.831
 5829SOL     OW18385   2.310   1.460   1.421
 5829SOL    HW118386   2.321   1.528   1.348
 5829SOL    HW218387   2.239   1.394   1.395
 5830SOL     OW18388   3.372   1.078   6.112
 5830SOL    HW118389   3.288   1.027   6.094
 5830SOL    HW218390   3.402   1.122   6.027
 5831SOL     OW18391   5.484   6.875   3.501
 5831SOL    HW118392   5.531   6.914   3.422
 5831SOL    HW218393   5.461   6.948   3.566
 5832SOL     OW18394   4.122   3.805   5.291
 5832SOL    HW118395   4.084   3.883   5.241
 5832SOL    HW218396   4.053   3.733   5.296
 5833SOL     OW18397   3.295   3.401   4.407
 5833SOL    HW118398   3.332   3.316   4.445
 5833SOL    HW218399   3.196   3.393   4.398
 5834SOL     OW18400   5.741   2.055   0.684
 5834SOL    HW118401   5.736   2.140   0.737
 5834SOL    HW218402   5.685   1.985   0.729
 5835SOL     OW18403   4.756   2.297   3.639
 5835SOL    HW118404   4.829   2.365   3.650
 5835SOL    HW218405   4.688   2.308   3.711
 5836SOL     OW18406   3.622   6.370   2.147
 5836SOL    HW118407   3.687   6.300   2.175
 5836SOL    HW218408   3.608   6.366   2.048
 5837SOL     OW18409   4.487   3.982   0.421
 5837SOL    HW118410   4.586   3.997   0.423
 5837SOL    HW218411   4.466   3.912   0.352
 5838SOL     OW18412   1.395   1.173   5.553
 5838SOL    HW118413   1.370   1.080   5.577
 5838SOL    HW218414   1.453   1.172   5.471
 5839SOL     OW18415   6.452   3.210   3.105
 5839SOL    HW118416   6.474   3.280   3.037
 5839SOL    HW218417   6.503   3.127   3.084
 5840SOL     OW18418   1.467   5.330   0.073
 5840SOL    HW118419   1.549   5.380   0.101
 5840SOL    HW218420   1.482   5.290   6.999
 5841SOL     OW18421   6.551   2.534   3.633
 5841SOL    HW118422   6.500   2.459   3.676
 5841SOL    HW218423   6.520   2.621   3.669
 5842SOL     OW18424   4.098   2.640   1.229
 5842SOL    HW118425   4.165   2.670   1.160
 5842SOL    HW218426   4.101   2.702   1.307
 5843SOL     OW18427   2.143   3.420   2.504
 5843SOL    HW118428   2.105   3.407   2.412
 5843SOL    HW218429   2.241   3.403   2.502
 5844SOL     OW18430   0.498   6.061   6.700
 5844SOL    HW118431   0.473   6.126   6.628
 5844SOL    HW218432   0.515   5.971   6.659
 5845SOL     OW18433   0.865   2.430   4.198
 5845SOL    HW118434   0.818   2.517   4.186
 5845SOL    HW218435   0.819   2.358   4.146
 5846SOL     OW18436   6.940   2.529   5.381
 5846SOL    HW118437   6.995   2.598   5.428
 5846SOL    HW218438   6.891   2.572   5.305
 5847SOL     OW18439   2.253   2.711   2.436
 5847SOL    HW118440   2.215   2.794   2.477
 5847SOL    HW218441   2.279   2.730   2.341
 5848SOL     OW18442   1.366   4.911   3.238
 5848SOL    HW118443   1.327   4.980   3.177
 5848SOL    HW218444   1.445   4.868   3.194
 5849SOL     OW18445   2.315   0.404   5.537
 5849SOL    HW118446   2.404   0.414   5.493
 5849SOL    HW218447   2.311   0.315   5.583
 5850SOL     OW18448   0.729   4.871   2.144
 5850SOL    HW118449   0.772   4.959   2.124
 5850SOL    HW218450   0.708   4.865   2.241
 5851SOL     OW18451   6.169   3.967   1.909
 5851SOL    HW118452   6.213   3.922   1.986
 5851SOL    HW218453   6.173   4.066   1.921
 5852SOL     OW18454   3.947   5.961   2.197
 5852SOL    HW118455   4.007   6.000   2.268
 5852SOL    HW218456   3.920   5.869   2.224
 5853SOL     OW18457   2.935   4.481   6.034
 5853SOL    HW118458   2.982   4.470   6.122
 5853SOL    HW218459   2.919   4.391   5.994
 5854SOL     OW18460   6.934   1.064   5.806
 5854SOL    HW118461   6.898   1.019   5.888
 5854SOL    HW218462   6.857   1.091   5.747
 5855SOL     OW18463   1.323   1.098   4.486
 5855SOL    HW118464   1.324   1.024   4.553
 5855SOL    HW218465   1.399   1.160   4.504
 5856SOL     OW18466   1.589   4.803   3.522
 5856SOL    HW118467   1.642   4.797   3.606
 5856SOL    HW218468   1.506   4.749   3.530
 5857SOL     OW18469   6.314   3.168   5.223
 5857SOL    HW118470   6.334   3.072   5.208
 5857SOL    HW218471   6.373   3.225   5.166
 5858SOL     OW18472   3.997   1.340   2.721
 5858SOL    HW118473   4.012   1.252   2.677
 5858SOL    HW218474   4.084   1.377   2.754
 5859SOL     OW18475   6.398   6.921   1.181
 5859SOL    HW118476   6.437   6.841   1.136
 5859SOL    HW218477   6.471   6.983   1.209
 5860SOL     OW18478   1.579   4.373   1.753
 5860SOL    HW118479   1.584   4.306   1.826
 5860SOL    HW218480   1.488   4.415   1.752
 5861SOL     OW18481   5.747   2.095   4.143
 5861SOL    HW118482   5.765   2.078   4.239
 5861SOL    HW218483   5.824   2.064   4.088
 5862SOL     OW18484   4.158   4.870   2.806
 5862SOL    HW118485   4.088   4.833   2.867
 5862SOL    HW218486   4.150   4.826   2.716
 5863SOL     OW18487   2.155   1.032   5.985
 5863SOL    HW118488   2.082   1.076   6.037
 5863SOL    HW218489   2.197   1.099   5.923
 5864SOL     OW18490   4.215   4.180   1.678
 5864SOL    HW118491   4.177   4.088   1.681
 5864SOL    HW218492   4.289   4.188   1.745
 5865SOL     OW18493   4.677   0.872   3.619
 5865SOL    HW118494   4.617   0.931   3.564
 5865SOL    HW218495   4.710   0.797   3.562
 5866SOL     OW18496   3.808   6.881   5.513
 5866SOL    HW118497   3.898   6.874   5.470
 5866SOL    HW218498   3.814   6.939   5.594
 5867SOL     OW18499   0.613   2.828   1.578
 5867SOL    HW118500   0.587   2.899   1.643
 5867SOL    HW218501   0.689   2.861   1.521
 5868SOL     OW18502   1.960   6.892   5.200
 5868SOL    HW118503   2.059   6.892   5.212
 5868SOL    HW218504   1.923   6.802   5.225
 5869SOL     OW18505   2.813   4.787   4.543
 5869SOL    HW118506   2.722   4.827   4.528
 5869SOL    HW218507   2.858   4.833   4.619
 5870SOL     OW18508   4.709   5.456   4.161
 5870SOL    HW118509   4.720   5.364   4.123
 5870SOL    HW218510   4.774   5.470   4.235
 5871SOL     OW18511   3.733   3.318   0.682
 5871SOL    HW118512   3.678   3.395   0.715
 5871SOL    HW218513   3.759   3.260   0.759
 5872SOL     OW18514   3.477   5.823   6.004
 5872SOL    HW118515   3.460   5.921   6.014
 5872SOL    HW218516   3.510   5.804   5.912
 5873SOL     OW18517   3.335   3.258   0.277
 5873SOL    HW118518   3.399   3.250   0.353
 5873SOL    HW218519   3.328   3.170   0.230
 5874SOL     OW18520   2.100   3.400   1.761
 5874SOL    HW118521   2.161   3.438   1.831
 5874SOL    HW218522   2.154   3.357   1.689
 5875SOL     OW18523   3.426   1.312   0.003
 5875SOL    HW118524   3.405   1.257   0.083
 5875SOL    HW218525   3.354   1.381   7.006
 5876SOL     OW18526   3.135   3.398   6.807
 5876SOL    HW118527   3.044   3.416   6.843
 5876SOL    HW218528   3.194   3.364   6.880
 5877SOL     OW18529   6.588   0.688   2.501
 5877SOL    HW118530   6.491   0.699   2.522
 5877SOL    HW218531   6.605   0.596   2.464
 5878SOL     OW18532   4.382   4.960   2.175
 5878SOL    HW118533   4.362   4.949   2.272
 5878SOL    HW218534   4.303   4.930   2.121
 5879SOL     OW18535   3.664   3.440   6.213
 5879SOL    HW118536   3.745   3.455   6.157
 5879SOL    HW218537   3.586   3.488   6.172
 5880SOL     OW18538   4.718   3.027   5.937
 5880SOL    HW118539   4.759   3.067   5.855
 5880SOL    HW218540   4.779   2.955   5.972
 5881SOL     OW18541   1.061   6.310   1.949
 5881SOL    HW118542   1.063   6.364   1.865
 5881SOL    HW218543   1.101   6.220   1.932
 5882SOL     OW18544   1.893   5.597   6.073
 5882SOL    HW118545   1.918   5.692   6.090
 5882SOL    HW218546   1.857   5.556   6.157
 5883SOL     OW18547   0.048   4.585   1.179
 5883SOL    HW118548   6.968   4.590   1.153
 5883SOL    HW218549   0.064   4.502   1.233
 5884SOL     OW18550   6.310   1.719   3.709
 5884SOL    HW118551   6.214   1.741   3.690
 5884SOL    HW218552   6.320   1.619   3.716
 5885SOL     OW18553   0.242   5.215   6.527
 5885SOL    HW118554   0.176   5.271   6.577
 5885SOL    HW218555   0.280   5.145   6.587
 5886SOL     OW18556   1.723   4.051   3.622
 5886SOL    HW118557   1.701   4.106   3.702
 5886SOL    HW218558   1.662   4.075   3.546
 5887SOL     OW18559   2.038   2.602   1.101
 5887SOL    HW118560   2.111   2.596   1.170
 5887SOL    HW218561   2.052   2.532   1.032
 5888SOL     OW18562   3.434   0.126   1.133
 5888SOL    HW118563   3.421   0.101   1.037
 5888SOL    HW218564   3.361   0.188   1.162
 5889SOL     OW18565   6.493   0.681   1.861
 5889SOL    HW118566   6.451   0.764   1.898
 5889SOL    HW218567   6.586   0.702   1.830
 5890SOL     OW18568   2.865   6.409   2.348
 5890SOL    HW118569   2.909   6.483   2.399
 5890SOL    HW218570   2.929   6.333   2.337
 5891SOL     OW18571   2.578   3.523   0.893
 5891SOL    HW118572   2.598   3.581   0.814
 5891SOL    HW218573   2.494   3.471   0.875
 5892SOL     OW18574   1.024   3.761   0.951
 5892SOL    HW118575   0.995   3.674   0.913
 5892SOL    HW218576   1.065   3.746   1.041
 5893SOL     OW18577   0.500   5.695   2.252
 5893SOL    HW118578   0.538   5.649   2.332
 5893SOL    HW218579   0.520   5.793   2.257
 5894SOL     OW18580   2.252   5.428   5.700
 5894SOL    HW118581   2.163   5.450   5.659
 5894SOL    HW218582   2.268   5.330   5.691
 5895SOL     OW18583   5.459   2.705   4.388
 5895SOL    HW118584   5.491   2.796   4.363
 5895SOL    HW218585   5.539   2.645   4.402
 5896SOL     OW18586   5.582   2.541   2.125
 5896SOL    HW118587   5.658   2.478   2.143
 5896SOL    HW218588   5.506   2.519   2.186
 5897SOL     OW18589   4.339   2.249   0.814
 5897SOL    HW118590   4.361   2.157   0.846
 5897SOL    HW218591   4.329   2.311   0.893
 5898SOL     OW18592   2.144   1.514   5.537
 5898SOL    HW118593   2.240   1.513   5.567
 5898SOL    HW218594   2.130   1.445   5.467
 5899SOL     OW18595   6.841   4.999   5.753
 5899SOL    HW118596   6.849   5.091   5.716
 5899SOL    HW218597   6.877   4.933   5.688
 5900SOL     OW18598   5.908   6.199   3.626
 5900SOL    HW118599   5.972   6.275   3.643
 5900SOL    HW218600   5.822   6.217   3.672
 5901SOL     OW18601   1.812   0.280   5.538
 5901SOL    HW118602   1.868   0.197   5.543
 5901SOL    HW218603   1.826   0.334   5.621
 5902SOL     OW18604   4.747   4.571   5.270
 5902SOL    HW118605   4.699   4.592   5.185
 5902SOL    HW218606   4.699   4.499   5.319
 5903SOL     OW18607   6.274   1.935   5.772
 5903SOL    HW118608   6.306   1.909   5.863
 5903SOL    HW218609   6.317   2.021   5.745
 5904SOL     OW18610   2.071   4.639   2.423
 5904SOL    HW118611   2.018   4.566   2.465
 5904SOL    HW218612   2.167   4.629   2.448
 5905SOL     OW18613   6.309   1.818   4.230
 5905SOL    HW118614   6.289   1.720   4.233
 5905SOL    HW218615   6.408   1.831   4.235
 5906SOL     OW18616   4.482   0.570   5.407
 5906SOL    HW118617   4.454   0.663   5.431
 5906SOL    HW218618   4.566   0.547   5.456
 5907SOL     OW18619   1.766   2.833   6.724
 5907SOL    HW118620   1.831   2.899   6.762
 5907SOL    HW218621   1.678   2.843   6.769
 5908SOL     OW18622   4.609   2.471   5.938
 5908SOL    HW118623   4.644   2.433   6.024
 5908SOL    HW218624   4.511   2.485   5.946
 5909SOL     OW18625   6.735   5.428   4.465
 5909SOL    HW118626   6.758   5.383   4.379
 5909SOL    HW218627   6.820   5.454   4.512
 5910SOL     OW18628   2.117   3.638   1.507
 5910SOL    HW118629   2.038   3.580   1.529
 5910SOL    HW218630   2.189   3.621   1.574
 5911SOL     OW18631   5.909   6.564   6.620
 5911SOL    HW118632   5.861   6.478   6.602
 5911SOL    HW218633   5.976   6.581   6.547
 5912SOL     OW18634   6.931   3.711   6.707
 5912SOL    HW118635   6.932   3.757   6.618
 5912SOL    HW218636   6.872   3.631   6.703
 5913SOL     OW18637   1.773   1.324   6.133
 5913SOL    HW118638   1.714   1.340   6.054
 5913SOL    HW218639   1.770   1.404   6.194
 5914SOL     OW18640   1.920   6.159   0.429
 5914SOL    HW118641   1.849   6.161   0.359
 5914SOL    HW218642   1.880   6.181   0.518
 5915SOL     OW18643   4.898   3.035   2.903
 5915SOL    HW118644   4.887   3.102   2.830
 5915SOL    HW218645   4.814   2.981   2.913
 5916SOL     OW18646   3.577   0.796   5.758
 5916SOL    HW118647   3.534   0.879   5.794
 5916SOL    HW218648   3.519   0.718   5.777
 5917SOL     OW18649   2.906   3.407   3.156
 5917SOL    HW118650   2.893   3.405   3.255
 5917SOL    HW218651   2.958   3.327   3.128
 5918SOL     OW18652   2.176   3.302   4.089
 5918SOL    HW118653   2.268   3.322   4.123
 5918SOL    HW218654   2.181   3.232   4.018
 5919SOL     OW18655   1.413   3.097   6.742
 5919SOL    HW118656   1.337   3.048   6.700
 5919SOL    HW218657   1.377   3.158   6.813
 5920SOL     OW18658   3.649   6.379   6.770
 5920SOL    HW118659   3.644   6.281   6.789
 5920SOL    HW218660   3.737   6.415   6.801
 5921SOL     OW18661   3.961   4.852   5.300
 5921SOL    HW118662   4.025   4.776   5.308
 5921SOL    HW218663   4.001   4.924   5.243
 5922SOL     OW18664   5.656   4.095   2.250
 5922SOL    HW118665   5.724   4.023   2.238
 5922SOL    HW218666   5.645   4.145   2.164
 5923SOL     OW18667   0.317   6.744   4.207
 5923SOL    HW118668   0.271   6.832   4.196
 5923SOL    HW218669   0.300   6.710   4.300
 5924SOL     OW18670   5.339   1.808   4.512
 5924SOL    HW118671   5.382   1.733   4.562
 5924SOL    HW218672   5.403   1.845   4.445
 5925SOL     OW18673   5.584   6.203   1.248
 5925SOL    HW118674   5.560   6.293   1.284
 5925SOL    HW218675   5.672   6.174   1.288
 5926SOL     OW18676   3.505   5.034   1.560
 5926SOL    HW118677   3.542   5.072   1.476
 5926SOL    HW218678   3.490   5.107   1.626
 5927SOL     OW18679   2.985   6.099   2.758
 5927SOL    HW118680   3.017   6.171   2.697
 5927SOL    HW218681   3.032   6.106   2.846
 5928SOL     OW18682   1.193   6.895   1.893
 5928SOL    HW118683   1.270   6.840   1.925
 5928SOL    HW218684   1.220   6.991   1.885
 5929SOL     OW18685   1.319   0.079   6.294
 5929SOL    HW118686   1.315   0.088   6.394
 5929SOL    HW218687   1.396   0.134   6.259
 5930SOL     OW18688   6.701   1.974   4.699
 5930SOL    HW118689   6.628   2.041   4.682
 5930SOL    HW218690   6.697   1.944   4.794
 5931SOL     OW18691   6.601   5.490   1.529
 5931SOL    HW118692   6.514   5.445   1.550
 5931SOL    HW218693   6.653   5.432   1.465
 5932SOL     OW18694   2.940   6.727   0.687
 5932SOL    HW118695   2.932   6.637   0.730
 5932SOL    HW218696   2.854   6.749   0.639
 5933SOL     OW18697   6.550   3.678   2.960
 5933SOL    HW118698   6.594   3.749   2.905
 5933SOL    HW218699   6.454   3.700   2.972
 5934SOL     OW18700   3.311   4.067   2.984
 5934SOL    HW118701   3.254   4.000   2.937
 5934SOL    HW218702   3.387   4.021   3.029
 5935SOL     OW18703   3.948   3.553   4.065
 5935SOL    HW118704   3.962   3.456   4.084
 5935SOL    HW218705   3.864   3.565   4.011
 5936SOL     OW18706   4.859   5.988   6.508
 5936SOL    HW118707   4.762   5.987   6.532
 5936SOL    HW218708   4.885   6.080   6.478
 5937SOL     OW18709   2.041   3.568   0.769
 5937SOL    HW118710   1.967   3.580   0.703
 5937SOL    HW218711   2.071   3.657   0.804
 5938SOL     OW18712   2.201   4.708   1.962
 5938SOL    HW118713   2.225   4.659   2.045
 5938SOL    HW218714   2.149   4.791   1.985
 5939SOL     OW18715   3.673   0.145   2.987
 5939SOL    HW118716   3.606   0.184   3.051
 5939SOL    HW218717   3.667   0.045   2.990
 5940SOL     OW18718   3.839   5.855   3.015
 5940SOL    HW118719   3.753   5.899   2.990
 5940SOL    HW218720   3.904   5.925   3.047
 5941SOL     OW18721   5.880   5.139   2.218
 5941SOL    HW118722   5.884   5.230   2.177
 5941SOL    HW218723   5.946   5.079   2.172
 5942SOL     OW18724   4.670   2.414   6.214
 5942SOL    HW118725   4.706   2.326   6.246
 5942SOL    HW218726   4.744   2.482   6.214
 5943SOL     OW18727   1.421   5.977   0.371
 5943SOL    HW118728   1.469   5.890   0.382
 5943SOL    HW218729   1.410   6.021   0.460
 5944SOL     OW18730   5.444   1.963   2.767
 5944SOL    HW118731   5.486   1.924   2.685
 5944SOL    HW218732   5.512   2.016   2.817
 5945SOL     OW18733   6.847   4.757   5.982
 5945SOL    HW118734   6.931   4.793   6.023
 5945SOL    HW218735   6.868   4.721   5.891
 5946SOL     OW18736   4.148   3.105   5.308
 5946SOL    HW118737   4.127   3.153   5.393
 5946SOL    HW218738   4.190   3.017   5.328
 5947SOL     OW18739   4.388   3.466   1.671
 5947SOL    HW118740   4.487   3.477   1.672
 5947SOL    HW218741   4.344   3.546   1.711
 5948SOL     OW18742   3.667   4.943   2.228
 5948SOL    HW118743   3.667   4.889   2.143
 5948SOL    HW218744   3.608   5.023   2.216
 5949SOL     OW18745   4.551   4.764   1.553
 5949SOL    HW118746   4.505   4.796   1.636
 5949SOL    HW218747   4.617   4.693   1.576
 5950SOL     OW18748   6.529   2.522   3.980
 5950SOL    HW118749   6.476   2.552   4.060
 5950SOL    HW218750   6.470   2.472   3.918
 5951SOL     OW18751   2.302   5.561   3.340
 5951SOL    HW118752   2.361   5.516   3.274
 5951SOL    HW218753   2.215   5.512   3.346
 5952SOL     OW18754   0.213   6.652   4.438
 5952SOL    HW118755   0.206   6.563   4.485
 5952SOL    HW218756   0.125   6.699   4.445
 5953SOL     OW18757   0.174   3.147   6.239
 5953SOL    HW118758   0.078   3.151   6.209
 5953SOL    HW218759   0.217   3.237   6.226
 5954SOL     OW18760   0.273   4.980   6.680
 5954SOL    HW118761   0.178   4.995   6.652
 5954SOL    HW218762   0.274   4.925   6.764
 5955SOL     OW18763   5.380   5.267   1.758
 5955SOL    HW118764   5.304   5.224   1.708
 5955SOL    HW218765   5.347   5.299   1.847
 5956SOL     OW18766   5.859   2.349   6.930
 5956SOL    HW118767   5.800   2.348   7.011
 5956SOL    HW218768   5.821   2.413   6.863
 5957SOL     OW18769   5.867   6.438   6.166
 5957SOL    HW118770   5.933   6.508   6.138
 5957SOL    HW218771   5.910   6.375   6.231
 5958SOL     OW18772   6.902   5.286   1.906
 5958SOL    HW118773   6.995   5.281   1.871
 5958SOL    HW218774   6.848   5.348   1.849
 5959SOL     OW18775   2.020   1.645   6.018
 5959SOL    HW118776   2.037   1.564   5.962
 5959SOL    HW218777   2.022   1.727   5.960
 5960SOL     OW18778   3.231   0.696   3.355
 5960SOL    HW118779   3.300   0.768   3.347
 5960SOL    HW218780   3.250   0.623   3.290
 5961SOL     OW18781   2.984   0.550   5.389
 5961SOL    HW118782   3.059   0.499   5.430
 5961SOL    HW218783   2.906   0.551   5.451
 5962SOL     OW18784   5.194   5.136   2.366
 5962SOL    HW118785   5.125   5.207   2.382
 5962SOL    HW218786   5.218   5.134   2.269
 5963SOL     OW18787   4.043   3.759   2.286
 5963SOL    HW118788   4.064   3.686   2.352
 5963SOL    HW218789   4.082   3.845   2.318
 5964SOL     OW18790   0.576   5.405   5.272
 5964SOL    HW118791   0.622   5.495   5.271
 5964SOL    HW218792   0.556   5.380   5.367
 5965SOL     OW18793   2.787   2.452   5.536
 5965SOL    HW118794   2.763   2.372   5.591
 5965SOL    HW218795   2.859   2.428   5.472
 5966SOL     OW18796   2.760   6.163   3.923
 5966SOL    HW118797   2.680   6.151   3.981
 5966SOL    HW218798   2.810   6.245   3.952
 5967SOL     OW18799   4.814   6.890   2.504
 5967SOL    HW118800   4.818   6.790   2.511
 5967SOL    HW218801   4.746   6.916   2.436
 5968SOL     OW18802   6.914   2.931   4.301
 5968SOL    HW118803   6.880   3.025   4.305
 5968SOL    HW218804   6.984   2.923   4.230
 5969SOL     OW18805   6.077   3.494   3.592
 5969SOL    HW118806   6.111   3.587   3.582
 5969SOL    HW218807   6.084   3.446   3.505
 5970SOL     OW18808   1.329   2.815   3.123
 5970SOL    HW118809   1.362   2.748   3.057
 5970SOL    HW218810   1.314   2.903   3.077
 5971SOL     OW18811   2.350   6.975   2.448
 5971SOL    HW118812   2.393   0.009   2.523
 5971SOL    HW218813   2.255   7.004   2.439
 5972SOL     OW18814   4.950   6.406   0.321
 5972SOL    HW118815   4.973   6.470   0.395
 5972SOL    HW218816   4.859   6.368   0.338
 5973SOL     OW18817   1.259   4.608   3.387
 5973SOL    HW118818   1.234   4.704   3.391
 5973SOL    HW218819   1.272   4.580   3.292
 5974SOL     OW18820   0.881   4.036   6.483
 5974SOL    HW118821   0.829   4.088   6.551
 5974SOL    HW218822   0.819   4.005   6.411
 5975SOL     OW18823   2.344   2.939   0.736
 5975SOL    HW118824   2.343   2.868   0.807
 5975SOL    HW218825   2.378   3.025   0.775
 5976SOL     OW18826   3.086   3.141   4.990
 5976SOL    HW118827   3.043   3.179   4.908
 5976SOL    HW218828   3.074   3.204   5.066
 5977SOL     OW18829   0.991   3.781   2.426
 5977SOL    HW118830   0.996   3.761   2.524
 5977SOL    HW218831   0.939   3.709   2.381
 5978SOL     OW18832   5.187   5.123   1.581
 5978SOL    HW118833   5.135   5.112   1.666
 5978SOL    HW218834   5.148   5.064   1.511
 5979SOL     OW18835   6.883   0.720   3.507
 5979SOL    HW118836   6.932   0.633   3.495
 5979SOL    HW218837   6.806   0.707   3.569
 5980SOL     OW18838   5.903   3.978   6.942
 5980SOL    HW118839   5.922   4.017   6.852
 5980SOL    HW218840   5.945   4.034   7.013
 5981SOL     OW18841   5.051   1.039   2.530
 5981SOL    HW118842   5.091   1.130   2.523
 5981SOL    HW218843   5.069   0.988   2.446
 5982SOL     OW18844   6.536   1.611   6.319
 5982SOL    HW118845   6.457   1.643   6.268
 5982SOL    HW218846   6.519   1.623   6.417
 5983SOL     OW18847   1.623   1.028   4.617
 5983SOL    HW118848   1.620   1.116   4.570
 5983SOL    HW218849   1.568   1.033   4.700
 5984SOL     OW18850   0.210   6.595   4.956
 5984SOL    HW118851   0.133   6.559   4.902
 5984SOL    HW218852   0.188   6.590   5.053
 5985SOL     OW18853   4.334   1.610   4.105
 5985SOL    HW118854   4.271   1.676   4.146
 5985SOL    HW218855   4.420   1.610   4.157
 5986SOL     OW18856   3.407   3.219   2.596
 5986SOL    HW118857   3.381   3.129   2.559
 5986SOL    HW218858   3.507   3.228   2.592
 5987SOL     OW18859   3.553   6.985   4.909
 5987SOL    HW118860   3.533   0.046   4.849
 5987SOL    HW218861   3.554   7.015   5.004
 5988SOL     OW18862   4.034   6.706   4.018
 5988SOL    HW118863   4.012   6.626   3.962
 5988SOL    HW218864   3.965   6.777   4.005
 5989SOL     OW18865   3.454   1.040   5.812
 5989SOL    HW118866   3.448   1.140   5.813
 5989SOL    HW218867   3.404   1.005   5.732
 5990SOL     OW18868   3.213   4.526   1.287
 5990SOL    HW118869   3.193   4.443   1.340
 5990SOL    HW218870   3.139   4.592   1.297
 5991SOL     OW18871   2.714   5.020   4.757
 5991SOL    HW118872   2.625   4.994   4.793
 5991SOL    HW218873   2.782   4.952   4.783
 5992SOL     OW18874   4.558   0.118   3.888
 5992SOL    HW118875   4.498   0.197   3.874
 5992SOL    HW218876   4.630   0.118   3.818
 5993SOL     OW18877   2.672   5.830   5.231
 5993SOL    HW118878   2.700   5.816   5.326
 5993SOL    HW218879   2.743   5.796   5.170
 5994SOL     OW18880   6.477   2.222   2.799
 5994SOL    HW118881   6.547   2.203   2.730
 5994SOL    HW218882   6.461   2.321   2.803
 5995SOL     OW18883   7.008   4.759   1.487
 5995SOL    HW118884   6.993   4.663   1.463
 5995SOL    HW218885   6.936   4.789   1.550
 5996SOL     OW18886   0.115   5.344   5.464
 5996SOL    HW118887   0.154   5.390   5.384
 5996SOL    HW218888   0.087   5.412   5.532
 5997SOL     OW18889   0.347   6.633   2.138
 5997SOL    HW118890   0.341   6.548   2.084
 5997SOL    HW218891   0.430   6.632   2.193
 5998SOL     OW18892   5.524   2.354   2.707
 5998SOL    HW118893   5.525   2.317   2.800
 5998SOL    HW218894   5.431   2.382   2.684
 5999SOL     OW18895   1.270   1.423   2.673
 5999SOL    HW118896   1.199   1.453   2.737
 5999SOL    HW218897   1.264   1.324   2.661
 6000SOL     OW18898   4.716   5.778   1.951
 6000SOL    HW118899   4.776   5.701   1.933
 6000SOL    HW218900   4.725   5.807   2.046
 6001SOL     OW18901   6.778   2.372   0.027
 6001SOL    HW118902   6.784   2.290   6.987
 6001SOL    HW218903   6.766   2.346   0.123
 6002SOL     OW18904   2.003   0.351   1.541
 6002SOL    HW118905   2.022   0.253   1.535
 6002SOL    HW218906   2.017   0.383   1.635
 6003SOL     OW18907   4.744   4.166   4.507
 6003SOL    HW118908   4.798   4.217   4.440
 6003SOL    HW218909   4.759   4.068   4.494
 6004SOL     OW18910   0.209   3.070   2.522
 6004SOL    HW118911   0.296   3.024   2.508
 6004SOL    HW218912   0.201   3.147   2.458
 6005SOL     OW18913   2.982   5.783   2.955
 6005SOL    HW118914   3.059   5.838   2.923
 6005SOL    HW218915   2.969   5.797   3.053
 6006SOL     OW18916   2.526   6.939   6.776
 6006SOL    HW118917   2.478   0.008   6.762
 6006SOL    HW218918   2.530   6.888   6.690
 6007SOL     OW18919   5.916   2.879   4.033
 6007SOL    HW118920   5.879   2.812   4.097
 6007SOL    HW218921   5.949   2.832   3.951
 6008SOL     OW18922   2.757   4.432   6.435
 6008SOL    HW118923   2.672   4.449   6.385
 6008SOL    HW218924   2.789   4.339   6.417
 6009SOL     OW18925   2.802   2.046   4.193
 6009SOL    HW118926   2.774   1.965   4.245
 6009SOL    HW218927   2.864   2.018   4.119
 6010SOL     OW18928   1.687   3.849   3.121
 6010SOL    HW118929   1.784   3.875   3.119
 6010SOL    HW218930   1.636   3.916   3.175
 6011SOL     OW18931   5.456   3.631   3.049
 6011SOL    HW118932   5.490   3.697   2.982
 6011SOL    HW218933   5.528   3.609   3.114
 6012SOL     OW18934   6.881   3.181   0.774
 6012SOL    HW118935   6.952   3.237   0.731
 6012SOL    HW218936   6.878   3.200   0.872
 6013SOL     OW18937   5.368   1.281   2.533
 6013SOL    HW118938   5.272   1.280   2.561
 6013SOL    HW218939   5.426   1.291   2.614
 6014SOL     OW18940   5.685   0.167   0.794
 6014SOL    HW118941   5.785   0.165   0.787
 6014SOL    HW218942   5.653   0.261   0.787
 6015SOL     OW18943   6.169   2.037   4.318
 6015SOL    HW118944   6.224   2.060   4.399
 6015SOL    HW218945   6.197   1.948   4.282
 6016SOL     OW18946   1.672   0.087   5.175
 6016SOL    HW118947   1.576   0.088   5.205
 6016SOL    HW218948   1.713   7.016   5.198
 6017SOL     OW18949   6.200   4.876   2.573
 6017SOL    HW118950   6.277   4.901   2.633
 6017SOL    HW218951   6.206   4.779   2.551
 6018SOL     OW18952   2.660   3.878   0.838
 6018SOL    HW118953   2.727   3.941   0.800
 6018SOL    HW218954   2.657   3.794   0.783
 6019SOL     OW18955   3.590   0.072   4.500
 6019SOL    HW118956   3.649   0.123   4.564
 6019SOL    HW218957   3.552   0.135   4.433
 6020SOL     OW18958   3.856   1.090   2.970
 6020SOL    HW118959   3.853   1.032   3.051
 6020SOL    HW218960   3.765   1.126   2.951
 6021SOL     OW18961   4.504   1.507   2.746
 6021SOL    HW118962   4.426   1.486   2.688
 6021SOL    HW218963   4.528   1.426   2.801
 6022SOL     OW18964   4.218   1.362   4.238
 6022SOL    HW118965   4.211   1.293   4.166
 6022SOL    HW218966   4.283   1.433   4.211
 6023SOL     OW18967   6.795   1.249   2.464
 6023SOL    HW118968   6.737   1.195   2.525
 6023SOL    HW218969   6.867   1.293   2.517
 6024SOL     OW18970   0.686   4.724   1.922
 6024SOL    HW118971   0.728   4.745   2.011
 6024SOL    HW218972   0.741   4.655   1.875
 6025SOL     OW18973   4.759   1.817   1.214
 6025SOL    HW118974   4.761   1.754   1.136
 6025SOL    HW218975   4.808   1.901   1.190
 6026SOL     OW18976   6.843   4.986   5.152
 6026SOL    HW118977   6.816   4.958   5.060
 6026SOL    HW218978   6.791   4.935   5.220
 6027SOL     OW18979   3.105   3.422   0.322
 6027SOL    HW118980   3.072   3.397   0.413
 6027SOL    HW218981   3.205   3.410   0.318
 6028SOL     OW18982   1.387   3.561   0.205
 6028SOL    HW118983   1.308   3.619   0.189
 6028SOL    HW218984   1.376   3.513   0.292
 6029SOL     OW18985   2.089   6.154   1.300
 6029SOL    HW118986   2.139   6.068   1.293
 6029SOL    HW218987   2.048   6.161   1.391
 6030SOL     OW18988   1.716   0.650   1.668
 6030SOL    HW118989   1.693   0.748   1.665
 6030SOL    HW218990   1.759   0.624   1.581
 6031SOL     OW18991   5.252   6.991   5.000
 6031SOL    HW118992   5.345   6.969   4.969
 6031SOL    HW218993   5.219   0.055   4.951
 6032SOL     OW18994   0.511   3.404   2.534
 6032SOL    HW118995   0.536   3.316   2.494
 6032SOL    HW218996   0.497   3.471   2.461
 6033SOL     OW18997   1.134   0.769   3.812
 6033SOL    HW118998   1.199   0.827   3.860
 6033SOL    HW218999   1.069   0.730   3.878
 6034SOL     OW19000   1.915   3.986   5.238
 6034SOL    HW119001   1.910   4.053   5.313
 6034SOL    HW219002   1.824   3.950   5.219
 6035SOL     OW19003   6.224   0.991   4.092
 6035SOL    HW119004   6.194   0.991   3.996
 6035SOL    HW219005   6.144   0.996   4.152
 6036SOL     OW19006   0.645   6.541   5.233
 6036SOL    HW119007   0.717   6.609   5.220
 6036SOL    HW219008   0.579   6.547   5.158
 6037SOL     OW19009   5.913   5.859   4.773
 6037SOL    HW119010   5.883   5.838   4.680
 6037SOL    HW219011   5.834   5.862   4.834
 6038SOL     OW19012   5.071   3.819   6.314
 6038SOL    HW119013   5.072   3.888   6.387
 6038SOL    HW219014   5.164   3.805   6.280
 6039SOL     OW19015   3.578   3.834   2.438
 6039SOL    HW119016   3.577   3.902   2.511
 6039SOL    HW219017   3.653   3.769   2.454
 6040SOL     OW19018   0.453   1.873   0.212
 6040SOL    HW119019   0.539   1.849   0.257
 6040SOL    HW219020   0.426   1.966   0.240
 6041SOL     OW19021   1.210   2.263   0.229
 6041SOL    HW119022   1.216   2.259   0.129
 6041SOL    HW219023   1.291   2.309   0.265
 6042SOL     OW19024   4.655   5.449   3.419
 6042SOL    HW119025   4.593   5.402   3.482
 6042SOL    HW219026   4.714   5.382   3.375
 6043SOL     OW19027   0.900   4.417   4.249
 6043SOL    HW119028   0.895   4.434   4.150
 6043SOL    HW219029   0.869   4.498   4.298
 6044SOL     OW19030   0.906   0.705   1.150
 6044SOL    HW119031   0.874   0.766   1.224
 6044SOL    HW219032   1.004   0.718   1.136
 6045SOL     OW19033   6.920   4.007   1.918
 6045SOL    HW119034   6.861   4.031   1.996
 6045SOL    HW219035   7.014   3.999   1.948
 6046SOL     OW19036   3.055   2.431   0.147
 6046SOL    HW119037   3.059   2.437   0.246
 6046SOL    HW219038   2.964   2.403   0.118
 6047SOL     OW19039   6.760   0.132   4.291
 6047SOL    HW119040   6.757   0.054   4.353
 6047SOL    HW219041   6.816   0.204   4.330
 6048SOL     OW19042   4.591   6.805   4.985
 6048SOL    HW119043   4.644   6.836   5.064
 6048SOL    HW219044   4.613   6.709   4.967
 6049SOL     OW19045   6.183   4.602   6.968
 6049SOL    HW119046   6.209   4.573   0.043
 6049SOL    HW219047   6.093   4.646   6.971
 6050SOL     OW19048   4.645   4.732   5.628
 6050SOL    HW119049   4.617   4.820   5.590
 6050SOL    HW219050   4.744   4.727   5.634
 6051SOL     OW19051   1.980   1.736   2.887
 6051SOL    HW119052   2.038   1.685   2.952
 6051SOL    HW219053   2.013   1.719   2.794
 6052SOL     OW19054   0.138   1.088   0.755
 6052SOL    HW119055   0.051   1.103   0.802
 6052SOL    HW219056   0.137   1.136   0.667
 6053SOL     OW19057   1.777   6.688   6.810
 6053SOL    HW119058   1.849   6.754   6.832
 6053SOL    HW219059   1.811   6.595   6.823
 6054SOL     OW19060   2.304   4.237   0.506
 6054SOL    HW119061   2.297   4.244   0.406
 6054SOL    HW219062   2.214   4.251   0.546
 6055SOL     OW19063   4.517   0.846   4.719
 6055SOL    HW119064   4.493   0.757   4.759
 6055SOL    HW219065   4.576   0.896   4.782
 6056SOL     OW19066   5.078   1.881   6.415
 6056SOL    HW119067   5.060   1.791   6.377
 6056SOL    HW219068   5.138   1.873   6.495
 6057SOL     OW19069   3.181   1.155   5.145
 6057SOL    HW119070   3.280   1.144   5.156
 6057SOL    HW219071   3.163   1.216   5.068
 6058SOL     OW19072   5.905   2.365   4.149
 6058SOL    HW119073   5.878   2.420   4.069
 6058SOL    HW219074   5.832   2.300   4.170
 6059SOL     OW19075   6.385   5.014   6.844
 6059SOL    HW119076   6.428   4.924   6.848
 6059SOL    HW219077   6.325   5.026   6.923
 6060SOL     OW19078   4.331   5.957   5.901
 6060SOL    HW119079   4.309   5.877   5.845
 6060SOL    HW219080   4.280   6.036   5.868
 6061SOL     OW19081   2.493   1.878   6.305
 6061SOL    HW119082   2.474   1.896   6.401
 6061SOL    HW219083   2.574   1.820   6.296
 6062SOL     OW19084   2.413   0.180   4.419
 6062SOL    HW119085   2.454   0.111   4.359
 6062SOL    HW219086   2.435   0.271   4.384
 6063SOL     OW19087   4.128   0.690   6.145
 6063SOL    HW119088   4.142   0.701   6.046
 6063SOL    HW219089   4.195   0.626   6.182
 6064SOL     OW19090   1.768   5.349   3.336
 6064SOL    HW119091   1.702   5.339   3.261
 6064SOL    HW219092   1.765   5.267   3.394
 6065SOL     OW19093   6.986   0.605   0.974
 6065SOL    HW119094   0.002   0.626   1.066
 6065SOL    HW219095   0.030   0.646   0.906
 6066SOL     OW19096   4.143   2.968   0.408
 6066SOL    HW119097   4.099   2.962   0.498
 6066SOL    HW219098   4.075   2.953   0.337
 6067SOL     OW19099   6.209   1.468   6.770
 6067SOL    HW119100   6.259   1.543   6.813
 6067SOL    HW219101   6.132   1.506   6.717
 6068SOL     OW19102   4.659   2.565   4.837
 6068SOL    HW119103   4.689   2.644   4.891
 6068SOL    HW219104   4.572   2.532   4.872
 6069SOL     OW19105   6.330   4.506   4.427
 6069SOL    HW119106   6.414   4.522   4.478
 6069SOL    HW219107   6.299   4.592   4.386
 6070SOL     OW19108   3.947   2.195   6.166
 6070SOL    HW119109   3.984   2.288   6.161
 6070SOL    HW219110   3.874   2.186   6.099
 6071SOL     OW19111   4.386   6.237   5.422
 6071SOL    HW119112   4.333   6.311   5.380
 6071SOL    HW219113   4.349   6.149   5.393
 6072SOL     OW19114   0.204   1.991   1.360
 6072SOL    HW119115   0.207   1.901   1.316
 6072SOL    HW219116   0.129   2.044   1.322
 6073SOL     OW19117   6.670   2.839   0.596
 6073SOL    HW119118   6.587   2.799   0.635
 6073SOL    HW219119   6.703   2.783   0.520
 6074SOL     OW19120   0.629   0.270   4.790
 6074SOL    HW119121   0.552   0.284   4.852
 6074SOL    HW219122   0.712   0.253   4.843
 6075SOL     OW19123   5.711   3.812   6.813
 6075SOL    HW119124   5.784   3.815   6.882
 6075SOL    HW219125   5.678   3.905   6.795
 6076SOL     OW19126   1.963   5.701   4.181
 6076SOL    HW119127   1.927   5.747   4.100
 6076SOL    HW219128   1.963   5.602   4.166
 6077SOL     OW19129   6.386   6.034   2.214
 6077SOL    HW119130   6.484   6.049   2.213
 6077SOL    HW219131   6.356   5.997   2.126
 6078SOL     OW19132   2.454   4.488   4.020
 6078SOL    HW119133   2.521   4.562   4.030
 6078SOL    HW219134   2.426   4.482   3.924
 6079SOL     OW19135   2.148   1.825   6.780
 6079SOL    HW119136   2.165   1.923   6.763
 6079SOL    HW219137   2.227   1.772   6.749
 6080SOL     OW19138   5.715   2.548   1.668
 6080SOL    HW119139   5.704   2.639   1.708
 6080SOL    HW219140   5.804   2.511   1.694
 6081SOL     OW19141   6.884   3.801   3.791
 6081SOL    HW119142   6.961   3.849   3.749
 6081SOL    HW219143   6.811   3.865   3.812
 6082SOL     OW19144   4.170   1.041   3.821
 6082SOL    HW119145   4.216   1.014   3.736
 6082SOL    HW219146   4.156   1.140   3.821
 6083SOL     OW19147   1.509   6.125   6.942
 6083SOL    HW119148   1.539   6.097   0.016
 6083SOL    HW219149   1.474   6.046   6.893
 6084SOL     OW19150   0.045   5.509   5.725
 6084SOL    HW119151   0.110   5.479   5.795
 6084SOL    HW219152   6.975   5.534   5.768
 6085SOL     OW19153   5.394   3.849   0.606
 6085SOL    HW119154   5.481   3.859   0.558
 6085SOL    HW219155   5.371   3.752   0.614
 6086SOL     OW19156   2.953   1.994   3.956
 6086SOL    HW119157   2.999   2.080   3.977
 6086SOL    HW219158   2.971   1.969   3.861
 6087SOL     OW19159   5.355   6.930   6.787
 6087SOL    HW119160   5.279   6.992   6.771
 6087SOL    HW219161   5.412   6.923   6.705
 6088SOL     OW19162   0.847   0.162   4.998
 6088SOL    HW119163   0.938   0.142   4.960
 6088SOL    HW219164   0.814   0.082   5.048
 6089SOL     OW19165   0.188   3.689   0.457
 6089SOL    HW119166   0.135   3.773   0.448
 6089SOL    HW219167   0.231   3.667   0.369
 6090SOL     OW19168   0.722   5.181   4.856
 6090SOL    HW119169   0.635   5.134   4.868
 6090SOL    HW219170   0.714   5.275   4.890
 6091SOL     OW19171   6.141   1.878   1.812
 6091SOL    HW119172   6.129   1.825   1.728
 6091SOL    HW219173   6.198   1.958   1.793
 6092SOL     OW19174   2.074   1.914   1.894
 6092SOL    HW119175   2.133   1.841   1.929
 6092SOL    HW219176   2.012   1.876   1.824
 6093SOL     OW19177   1.109   2.779   0.954
 6093SOL    HW119178   1.037   2.845   0.933
 6093SOL    HW219179   1.069   2.695   0.988
 6094SOL     OW19180   1.260   1.035   1.374
 6094SOL    HW119181   1.292   1.044   1.468
 6094SOL    HW219182   1.323   1.081   1.313
 6095SOL     OW19183   6.048   3.364   6.218
 6095SOL    HW119184   6.061   3.427   6.141
 6095SOL    HW219185   6.129   3.365   6.277
 6096SOL     OW19186   3.862   2.105   3.555
 6096SOL    HW119187   3.914   2.151   3.627
 6096SOL    HW219188   3.921   2.085   3.477
 6097SOL     OW19189   2.734   1.856   2.217
 6097SOL    HW119190   2.771   1.864   2.310
 6097SOL    HW219191   2.654   1.915   2.207
 6098SOL     OW19192   1.988   2.381   5.856
 6098SOL    HW119193   2.035   2.324   5.923
 6098SOL    HW219194   2.014   2.477   5.870
 6099SOL     OW19195   6.090   5.822   5.042
 6099SOL    HW119196   6.149   5.899   5.020
 6099SOL    HW219197   6.022   5.810   4.970
 6100SOL     OW19198   6.450   2.700   6.948
 6100SOL    HW119199   6.443   2.687   6.849
 6100SOL    HW219200   6.422   2.617   6.995
 6101SOL     OW19201   6.483   1.113   5.171
 6101SOL    HW119202   6.425   1.067   5.104
 6101SOL    HW219203   6.434   1.123   5.257
 6102SOL     OW19204   2.675   0.329   4.488
 6102SOL    HW119205   2.694   0.407   4.429
 6102SOL    HW219206   2.626   0.360   4.570
 6103SOL     OW19207   6.514   6.596   5.529
 6103SOL    HW119208   6.574   6.556   5.598
 6103SOL    HW219209   6.518   6.541   5.445
 6104SOL     OW19210   6.821   2.361   6.540
 6104SOL    HW119211   6.849   2.410   6.458
 6104SOL    HW219212   6.745   2.300   6.518
 6105SOL     OW19213   3.355   5.906   4.704
 6105SOL    HW119214   3.262   5.928   4.674
 6105SOL    HW219215   3.391   5.830   4.651
 6106SOL     OW19216   2.926   5.284   5.652
 6106SOL    HW119217   2.981   5.214   5.699
 6106SOL    HW219218   2.840   5.297   5.702
 6107SOL     OW19219   1.975   4.720   5.208
 6107SOL    HW119220   2.013   4.810   5.228
 6107SOL    HW219221   2.049   4.658   5.179
 6108SOL     OW19222   0.360   2.170   5.066
 6108SOL    HW119223   0.326   2.172   4.973
 6108SOL    HW219224   0.286   2.146   5.129
 6109SOL     OW19225   5.905   4.396   0.982
 6109SOL    HW119226   5.959   4.402   0.898
 6109SOL    HW219227   5.826   4.337   0.967
 6110SOL     OW19228   3.304   1.048   4.644
 6110SOL    HW119229   3.298   0.949   4.647
 6110SOL    HW219230   3.366   1.080   4.715
 6111SOL     OW19231   1.613   4.910   3.087
 6111SOL    HW119232   1.686   4.938   3.148
 6111SOL    HW219233   1.613   4.968   3.005
 6112SOL     OW19234   0.611   1.397   2.664
 6112SOL    HW119235   0.612   1.336   2.743
 6112SOL    HW219236   0.543   1.468   2.677
 6113SOL     OW19237   1.359   6.423   5.946
 6113SOL    HW119238   1.421   6.496   5.974
 6113SOL    HW219239   1.265   6.451   5.964
 6114SOL     OW19240   5.120   5.644   0.465
 6114SOL    HW119241   5.166   5.560   0.495
 6114SOL    HW219242   5.059   5.677   0.537
 6115SOL     OW19243   5.485   5.188   2.521
 6115SOL    HW119244   5.478   5.134   2.605
 6115SOL    HW219245   5.546   5.141   2.457
 6116SOL     OW19246   3.883   1.190   1.859
 6116SOL    HW119247   3.784   1.182   1.868
 6116SOL    HW219248   3.904   1.270   1.802
 6117SOL     OW19249   5.405   6.873   4.325
 6117SOL    HW119250   5.442   6.819   4.401
 6117SOL    HW219251   5.452   6.961   4.321
 6118SOL     OW19252   5.981   0.589   3.438
 6118SOL    HW119253   5.996   0.552   3.529
 6118SOL    HW219254   6.058   0.648   3.413
 6119SOL     OW19255   6.521   5.524   4.630
 6119SOL    HW119256   6.428   5.489   4.626
 6119SOL    HW219257   6.576   5.482   4.557
 6120SOL     OW19258   2.658   1.021   2.977
 6120SOL    HW119259   2.618   0.943   2.931
 6120SOL    HW219260   2.653   1.008   3.076
 6121SOL     OW19261   0.012   2.833   4.597
 6121SOL    HW119262   6.987   2.894   4.665
 6121SOL    HW219263   0.002   2.874   4.506
 6122SOL     OW19264   4.427   5.345   3.111
 6122SOL    HW119265   4.362   5.358   3.035
 6122SOL    HW219266   4.455   5.434   3.146
 6123SOL     OW19267   5.891   1.610   2.255
 6123SOL    HW119268   5.936   1.525   2.280
 6123SOL    HW219269   5.867   1.608   2.158
 6124SOL     OW19270   3.105   0.244   5.864
 6124SOL    HW119271   3.064   0.265   5.952
 6124SOL    HW219272   3.147   0.153   5.868
 6125SOL     OW19273   2.318   5.970   1.884
 6125SOL    HW119274   2.305   6.045   1.819
 6125SOL    HW219275   2.404   5.983   1.934
 6126SOL     OW19276   5.392   5.427   2.611
 6126SOL    HW119277   5.311   5.441   2.552
 6126SOL    HW219278   5.438   5.342   2.584
 6127SOL     OW19279   2.012   5.449   1.314
 6127SOL    HW119280   1.961   5.373   1.354
 6127SOL    HW219281   2.108   5.423   1.302
 6128SOL     OW19282   5.372   1.822   0.539
 6128SOL    HW119283   5.302   1.757   0.512
 6128SOL    HW219284   5.350   1.912   0.501
 6129SOL     OW19285   5.864   4.540   3.461
 6129SOL    HW119286   5.764   4.541   3.461
 6129SOL    HW219287   5.898   4.541   3.367
 6130SOL     OW19288   5.629   3.592   2.510
 6130SOL    HW119289   5.637   3.513   2.450
 6130SOL    HW219290   5.562   3.656   2.473
 6131SOL     OW19291   5.976   1.025   5.162
 6131SOL    HW119292   5.906   0.958   5.187
 6131SOL    HW219293   6.062   1.002   5.208
 6132SOL     OW19294   4.829   2.506   1.203
 6132SOL    HW119295   4.870   2.596   1.220
 6132SOL    HW219296   4.807   2.462   1.290
 6133SOL     OW19297   1.094   4.333   1.030
 6133SOL    HW119298   1.190   4.359   1.019
 6133SOL    HW219299   1.035   4.412   1.011
 6134SOL     OW19300   4.462   3.760   6.629
 6134SOL    HW119301   4.407   3.796   6.553
 6134SOL    HW219302   4.476   3.662   6.615
 6135SOL     OW19303   5.391   0.038   1.480
 6135SOL    HW119304   5.411   0.014   1.385
 6135SOL    HW219305   5.294   0.060   1.489
 6136SOL     OW19306   0.518   2.223   1.617
 6136SOL    HW119307   0.498   2.181   1.528
 6136SOL    HW219308   0.521   2.152   1.687
 6137SOL     OW19309   2.993   6.811   6.242
 6137SOL    HW119310   3.091   6.814   6.259
 6137SOL    HW219311   2.974   6.748   6.166
 6138SOL     OW19312   4.103   6.359   2.752
 6138SOL    HW119313   4.165   6.433   2.729
 6138SOL    HW219314   4.017   6.397   2.788
 6139SOL     OW19315   1.994   4.787   4.330
 6139SOL    HW119316   2.069   4.850   4.312
 6139SOL    HW219317   2.013   4.735   4.413
 6140SOL     OW19318   1.883   6.166   0.704
 6140SOL    HW119319   1.837   6.238   0.757
 6140SOL    HW219320   1.950   6.120   0.761
 6141SOL     OW19321   6.405   5.764   6.125
 6141SOL    HW119322   6.460   5.798   6.049
 6141SOL    HW219323   6.376   5.841   6.182
 6142SOL     OW19324   0.148   4.423   1.681
 6142SOL    HW119325   0.218   4.352   1.693
 6142SOL    HW219326   0.193   4.512   1.671
 6143SOL     OW19327   5.780   5.926   6.577
 6143SOL    HW119328   5.755   5.831   6.599
 6143SOL    HW219329   5.732   5.954   6.494
 6144SOL     OW19330   0.734   4.706   4.152
 6144SOL    HW119331   0.713   4.654   4.069
 6144SOL    HW219332   0.782   4.648   4.217
 6145SOL     OW19333   5.274   6.095   2.895
 6145SOL    HW119334   5.218   6.128   2.971
 6145SOL    HW219335   5.335   6.023   2.927
 6146SOL     OW19336   5.696   1.364   3.283
 6146SOL    HW119337   5.710   1.346   3.380
 6146SOL    HW219338   5.775   1.413   3.246
 6147SOL     OW19339   1.845   3.345   3.204
 6147SOL    HW119340   1.781   3.406   3.249
 6147SOL    HW219341   1.934   3.389   3.195
 6148SOL     OW19342   6.470   6.359   4.381
 6148SOL    HW119343   6.528   6.287   4.343
 6148SOL    HW219344   6.393   6.317   4.430
 6149SOL     OW19345   2.417   6.248   3.268
 6149SOL    HW119346   2.441   6.228   3.173
 6149SOL    HW219347   2.353   6.179   3.302
 6150SOL     OW19348   4.717   5.603   5.974
 6150SOL    HW119349   4.775   5.610   5.893
 6150SOL    HW219350   4.666   5.517   5.971
 6151SOL     OW19351   5.029   2.766   5.492
 6151SOL    HW119352   5.042   2.667   5.479
 6151SOL    HW219353   4.952   2.782   5.553
 6152SOL     OW19354   6.882   4.429   6.940
 6152SOL    HW119355   6.783   4.435   6.926
 6152SOL    HW219356   6.925   4.393   6.857
 6153SOL     OW19357   4.439   3.007   1.323
 6153SOL    HW119358   4.462   2.970   1.413
 6153SOL    HW219359   4.359   2.960   1.287
 6154SOL     OW19360   5.427   3.138   2.852
 6154SOL    HW119361   5.348   3.181   2.807
 6154SOL    HW219362   5.439   3.178   2.943
 6155SOL     OW19363   0.457   3.858   5.145
 6155SOL    HW119364   0.436   3.928   5.076
 6155SOL    HW219365   0.490   3.776   5.099
 6156SOL     OW19366   6.610   0.026   3.682
 6156SOL    HW119367   6.565   0.052   3.767
 6156SOL    HW219368   6.624   6.944   3.680
 6157SOL     OW19369   2.687   1.060   3.821
 6157SOL    HW119370   2.702   1.055   3.722
 6157SOL    HW219371   2.725   1.146   3.856
 6158SOL     OW19372   5.135   1.444   5.832
 6158SOL    HW119373   5.112   1.494   5.749
 6158SOL    HW219374   5.110   1.348   5.821
 6159SOL     OW19375   5.367   3.248   6.587
 6159SOL    HW119376   5.436   3.320   6.593
 6159SOL    HW219377   5.413   3.160   6.571
 6160SOL     OW19378   5.889   5.905   1.795
 6160SOL    HW119379   5.836   5.909   1.880
 6160SOL    HW219380   5.985   5.925   1.814
 6161SOL     OW19381   5.604   0.541   6.309
 6161SOL    HW119382   5.648   0.600   6.241
 6161SOL    HW219383   5.509   0.525   6.283
 6162SOL     OW19384   6.222   4.921   4.663
 6162SOL    HW119385   6.243   5.018   4.649
 6162SOL    HW219386   6.269   4.888   4.744
 6163SOL     OW19387   6.747   3.992   2.433
 6163SOL    HW119388   6.732   3.893   2.438
 6163SOL    HW219389   6.754   4.019   2.337
 6164SOL     OW19390   4.157   2.394   0.670
 6164SOL    HW119391   4.211   2.327   0.722
 6164SOL    HW219392   4.077   2.422   0.723
 6165SOL     OW19393   4.181   6.063   0.173
 6165SOL    HW119394   4.174   6.147   0.120
 6165SOL    HW219395   4.119   5.994   0.135
 6166SOL     OW19396   2.886   1.987   5.909
 6166SOL    HW119397   2.788   1.976   5.923
 6166SOL    HW219398   2.933   1.903   5.935
 6167SOL     OW19399   0.218   4.394   3.187
 6167SOL    HW119400   0.300   4.367   3.238
 6167SOL    HW219401   0.139   4.394   3.248
 6168SOL     OW19402   0.203   3.225   2.753
 6168SOL    HW119403   0.211   3.173   2.668
 6168SOL    HW219404   0.255   3.309   2.746
 6169SOL     OW19405   2.024   4.315   2.234
 6169SOL    HW119406   1.940   4.263   2.244
 6169SOL    HW219407   2.095   4.274   2.291
 6170SOL     OW19408   0.562   3.341   4.744
 6170SOL    HW119409   0.611   3.322   4.659
 6170SOL    HW219410   0.592   3.429   4.780
 6171SOL     OW19411   0.351   0.102   6.298
 6171SOL    HW119412   0.405   0.186   6.290
 6171SOL    HW219413   0.257   0.119   6.270
 6172SOL     OW19414   0.454   3.464   3.300
 6172SOL    HW119415   0.437   3.426   3.391
 6172SOL    HW219416   0.510   3.547   3.309
 6173SOL     OW19417   6.851   6.352   3.241
 6173SOL    HW119418   6.925   6.418   3.254
 6173SOL    HW219419   6.787   6.358   3.317
 6174SOL     OW19420   5.936   3.933   2.600
 6174SOL    HW119421   5.890   3.974   2.521
 6174SOL    HW219422   5.876   3.937   2.679
 6175SOL     OW19423   2.759   2.217   5.690
 6175SOL    HW119424   2.709   2.130   5.695
 6175SOL    HW219425   2.848   2.207   5.733
 6176SOL     OW19426   4.499   3.718   5.822
 6176SOL    HW119427   4.599   3.716   5.825
 6176SOL    HW219428   4.468   3.683   5.734
 6177SOL     OW19429   6.271   1.185   2.068
 6177SOL    HW119430   6.237   1.265   2.118
 6177SOL    HW219431   6.261   1.103   2.124
 6178SOL     OW19432   4.119   4.476   1.183
 6178SOL    HW119433   4.188   4.547   1.166
 6178SOL    HW219434   4.028   4.517   1.176
 6179SOL     OW19435   5.639   4.708   3.285
 6179SOL    HW119436   5.637   4.678   3.190
 6179SOL    HW219437   5.603   4.635   3.343
 6180SOL     OW19438   3.071   4.186   0.293
 6180SOL    HW119439   3.050   4.236   0.209
 6180SOL    HW219440   3.094   4.091   0.270
 6181SOL     OW19441   5.571   5.687   6.579
 6181SOL    HW119442   5.512   5.621   6.626
 6181SOL    HW219443   5.539   5.700   6.486
 6182SOL     OW19444   3.553   2.564   0.305
 6182SOL    HW119445   3.474   2.505   0.318
 6182SOL    HW219446   3.615   2.555   0.384
 6183SOL     OW19447   0.637   0.958   1.020
 6183SOL    HW119448   0.557   0.918   0.974
 6183SOL    HW219449   0.607   1.013   1.098
 6184SOL     OW19450   2.397   0.814   5.443
 6184SOL    HW119451   2.339   0.892   5.465
 6184SOL    HW219452   2.489   0.845   5.421
 6185SOL     OW19453   3.468   3.175   5.619
 6185SOL    HW119454   3.458   3.228   5.535
 6185SOL    HW219455   3.456   3.077   5.599
 6186SOL     OW19456   6.669   1.947   2.351
 6186SOL    HW119457   6.665   1.851   2.321
 6186SOL    HW219458   6.726   1.999   2.288
 6187SOL     OW19459   5.346   1.695   5.768
 6187SOL    HW119460   5.425   1.727   5.820
 6187SOL    HW219461   5.270   1.760   5.779
 6188SOL     OW19462   1.655   1.530   5.008
 6188SOL    HW119463   1.738   1.540   4.952
 6188SOL    HW219464   1.619   1.438   4.996
 6189SOL     OW19465   6.571   6.598   1.280
 6189SOL    HW119466   6.658   6.552   1.264
 6189SOL    HW219467   6.575   6.649   1.365
 6190SOL     OW19468   0.410   2.473   5.465
 6190SOL    HW119469   0.461   2.417   5.400
 6190SOL    HW219470   0.428   2.442   5.558
 6191SOL     OW19471   4.145   3.694   6.960
 6191SOL    HW119472   4.105   3.733   6.878
 6191SOL    HW219473   4.081   3.703   0.020
 6192SOL     OW19474   3.100   1.394   0.480
 6192SOL    HW119475   3.173   1.331   0.507
 6192SOL    HW219476   3.061   1.365   0.392
 6193SOL     OW19477   4.665   5.742   6.480
 6193SOL    HW119478   4.739   5.809   6.486
 6193SOL    HW219479   4.605   5.766   6.404
 6194SOL     OW19480   6.313   0.532   5.739
 6194SOL    HW119481   6.355   0.460   5.795
 6194SOL    HW219482   6.313   0.504   5.643
 6195SOL     OW19483   6.780   6.758   5.880
 6195SOL    HW119484   6.831   6.844   5.888
 6195SOL    HW219485   6.715   6.751   5.956
 6196SOL     OW19486   5.727   4.024   3.252
 6196SOL    HW119487   5.627   4.020   3.245
 6196SOL    HW219488   5.756   3.967   3.329
 6197SOL     OW19489   3.416   5.801   1.916
 6197SOL    HW119490   3.452   5.721   1.966
 6197SOL    HW219491   3.478   5.824   1.841
 6198SOL     OW19492   6.590   0.304   0.014
 6198SOL    HW119493   6.668   0.365   0.026
 6198SOL    HW219494   6.511   0.341   0.062
 6199SOL     OW19495   0.886   0.306   0.292
 6199SOL    HW119496   0.956   0.296   0.221
 6199SOL    HW219497   0.920   0.267   0.377
 6200SOL     OW19498   2.334   1.727   2.069
 6200SOL    HW119499   2.398   1.804   2.060
 6200SOL    HW219500   2.347   1.683   2.158
 6201SOL     OW19501   6.830   4.562   3.703
 6201SOL    HW119502   6.890   4.557   3.783
 6201SOL    HW219503   6.796   4.655   3.693
 6202SOL     OW19504   6.256   1.557   2.476
 6202SOL    HW119505   6.169   1.606   2.475
 6202SOL    HW219506   6.329   1.619   2.506
 6203SOL     OW19507   6.664   0.009   1.708
 6203SOL    HW119508   6.603   6.985   1.775
 6203SOL    HW219509   6.756   6.988   1.721
 6204SOL     OW19510   2.446   0.311   4.910
 6204SOL    HW119511   2.425   0.257   4.829
 6204SOL    HW219512   2.361   0.337   4.955
 6205SOL     OW19513   4.699   4.731   3.224
 6205SOL    HW119514   4.686   4.810   3.164
 6205SOL    HW219515   4.787   4.739   3.272
 6206SOL     OW19516   5.989   1.950   3.856
 6206SOL    HW119517   5.963   2.044   3.834
 6206SOL    HW219518   6.083   1.949   3.890
 6207SOL     OW19519   2.355   4.670   4.475
 6207SOL    HW119520   2.376   4.576   4.503
 6207SOL    HW219521   2.414   4.734   4.526
 6208SOL     OW19522   3.928   3.580   5.763
 6208SOL    HW119523   3.887   3.492   5.740
 6208SOL    HW219524   4.027   3.575   5.750
 6209SOL     OW19525   3.720   2.494   1.436
 6209SOL    HW119526   3.711   2.404   1.393
 6209SOL    HW219527   3.752   2.482   1.530
 6210SOL     OW19528   4.800   1.856   3.985
 6210SOL    HW119529   4.724   1.798   4.014
 6210SOL    HW219530   4.785   1.950   4.017
 6211SOL     OW19531   5.630   4.904   5.515
 6211SOL    HW119532   5.536   4.910   5.550
 6211SOL    HW219533   5.628   4.867   5.422
 6212SOL     OW19534   4.461   5.229   4.870
 6212SOL    HW119535   4.497   5.159   4.809
 6212SOL    HW219536   4.457   5.317   4.822
 6213SOL     OW19537   4.135   5.975   0.447
 6213SOL    HW119538   4.045   5.999   0.484
 6213SOL    HW219539   4.145   6.014   0.356
 6214SOL     OW19540   6.514   5.512   6.259
 6214SOL    HW119541   6.494   5.423   6.219
 6214SOL    HW219542   6.481   5.584   6.197
 6215SOL     OW19543   5.484   2.717   5.920
 6215SOL    HW119544   5.497   2.815   5.937
 6215SOL    HW219545   5.561   2.666   5.958
 6216SOL     OW19546   4.363   2.093   3.423
 6216SOL    HW119547   4.354   2.096   3.323
 6216SOL    HW219548   4.444   2.041   3.448
 6217SOL     OW19549   0.447   4.219   2.382
 6217SOL    HW119550   0.536   4.209   2.426
 6217SOL    HW219551   0.378   4.169   2.434
 6218SOL     OW19552   4.385   6.687   0.317
 6218SOL    HW119553   4.288   6.685   0.294
 6218SOL    HW219554   4.434   6.619   0.261
 6219SOL     OW19555   1.333   0.712   5.804
 6219SOL    HW119556   1.391   0.787   5.835
 6219SOL    HW219557   1.386   0.627   5.802
 6220SOL     OW19558   3.961   0.443   0.986
 6220SOL    HW119559   3.990   0.375   0.919
 6220SOL    HW219560   3.999   0.420   1.076
 6221SOL     OW19561   5.766   5.545   6.880
 6221SOL    HW119562   5.677   5.516   6.914
 6221SOL    HW219563   5.838   5.492   6.926
 6222SOL     OW19564   6.368   2.007   2.029
 6222SOL    HW119565   6.379   1.922   2.082
 6222SOL    HW219566   6.447   2.019   1.969
 6223SOL     OW19567   0.474   5.027   3.666
 6223SOL    HW119568   0.523   4.995   3.747
 6223SOL    HW219569   0.510   5.116   3.639
 6224SOL     OW19570   3.959   0.769   0.081
 6224SOL    HW119571   3.949   0.676   0.046
 6224SOL    HW219572   3.870   0.815   0.079
 6225SOL     OW19573   4.514   6.322   6.608
 6225SOL    HW119574   4.585   6.315   6.679
 6225SOL    HW219575   4.457   6.402   6.625
 6226SOL     OW19576   1.538   1.276   4.538
 6226SOL    HW119577   1.558   1.315   4.449
 6226SOL    HW219578   1.591   1.323   4.608
 6227SOL     OW19579   2.767   4.563   5.402
 6227SOL    HW119580   2.750   4.656   5.434
 6227SOL    HW219581   2.815   4.566   5.314
 6228SOL     OW19582   1.367   3.269   3.745
 6228SOL    HW119583   1.401   3.230   3.660
 6228SOL    HW219584   1.441   3.317   3.792
 6229SOL     OW19585   0.518   3.439   4.423
 6229SOL    HW119586   0.583   3.385   4.475
 6229SOL    HW219587   0.448   3.476   4.485
 6230SOL     OW19588   0.099   0.779   2.089
 6230SOL    HW119589   0.154   0.695   2.098
 6230SOL    HW219590   0.108   0.815   1.997
 6231SOL     OW19591   1.244   5.007   6.702
 6231SOL    HW119592   1.236   4.949   6.621
 6231SOL    HW219593   1.278   4.952   6.778
 6232SOL     OW19594   4.406   1.094   6.155
 6232SOL    HW119595   4.446   1.048   6.234
 6232SOL    HW219596   4.451   1.064   6.072
 6233SOL     OW19597   6.958   3.695   1.364
 6233SOL    HW119598   6.876   3.642   1.388
 6233SOL    HW219599   0.010   3.683   1.436
 6234SOL     OW19600   4.576   5.671   4.791
 6234SOL    HW119601   4.513   5.649   4.865
 6234SOL    HW219602   4.660   5.709   4.828
 6235SOL     OW19603   6.324   0.488   2.689
 6235SOL    HW119604   6.240   0.441   2.717
 6235SOL    HW219605   6.309   0.586   2.690
 6236SOL     OW19606   0.412   5.296   1.297
 6236SOL    HW119607   0.466   5.262   1.374
 6236SOL    HW219608   0.426   5.237   1.217
 6237SOL     OW19609   3.541   1.188   0.626
 6237SOL    HW119610   3.555   1.287   0.623
 6237SOL    HW219611   3.448   1.167   0.596
 6238SOL     OW19612   2.110   0.112   4.025
 6238SOL    HW119613   2.056   0.100   3.942
 6238SOL    HW219614   2.173   0.189   4.013
 6239SOL     OW19615   4.497   1.040   4.009
 6239SOL    HW119616   4.519   0.968   3.944
 6239SOL    HW219617   4.501   1.129   3.963
 6240SOL     OW19618   3.804   3.016   3.616
 6240SOL    HW119619   3.881   3.072   3.647
 6240SOL    HW219620   3.765   2.967   3.693
 6241SOL     OW19621   3.496   0.173   2.750
 6241SOL    HW119622   3.401   0.202   2.736
 6241SOL    HW219623   3.511   0.152   2.847
 6242SOL     OW19624   2.965   1.985   3.398
 6242SOL    HW119625   2.967   1.941   3.308
 6242SOL    HW219626   2.948   2.083   3.387
 6243SOL     OW19627   4.647   1.903   6.262
 6243SOL    HW119628   4.633   1.806   6.243
 6243SOL    HW219629   4.692   1.913   6.351
 6244SOL     OW19630   5.172   4.008   2.569
 6244SOL    HW119631   5.178   4.048   2.478
 6244SOL    HW219632   5.077   3.988   2.591
 6245SOL     OW19633   0.110   4.345   2.612
 6245SOL    HW119634   0.090   4.287   2.533
 6245SOL    HW219635   0.170   4.421   2.583
 6246SOL     OW19636   6.643   6.720   4.220
 6246SOL    HW119637   6.616   6.784   4.149
 6246SOL    HW219638   6.742   6.707   4.218
 6247SOL     OW19639   6.464   6.540   3.308
 6247SOL    HW119640   6.465   6.533   3.208
 6247SOL    HW219641   6.416   6.624   3.335
 6248SOL     OW19642   3.649   3.181   5.906
 6248SOL    HW119643   3.725   3.238   5.939
 6248SOL    HW219644   3.575   3.183   5.972
 6249SOL     OW19645   5.882   3.008   1.752
 6249SOL    HW119646   5.868   2.974   1.659
 6249SOL    HW219647   5.797   3.051   1.785
 6250SOL     OW19648   6.275   0.495   0.445
 6250SOL    HW119649   6.237   0.521   0.356
 6250SOL    HW219650   6.201   0.467   0.506
 6251SOL     OW19651   2.288   6.881   3.736
 6251SOL    HW119652   2.189   6.891   3.725
 6251SOL    HW219653   2.327   6.968   3.766
 6252SOL     OW19654   3.279   5.632   6.865
 6252SOL    HW119655   3.316   5.621   6.957
 6252SOL    HW219656   3.185   5.667   6.871
 6253SOL     OW19657   3.353   5.221   4.875
 6253SOL    HW119658   3.386   5.130   4.850
 6253SOL    HW219659   3.425   5.288   4.857
 6254SOL     OW19660   0.657   7.009   1.437
 6254SOL    HW119661   0.643   6.918   1.398
 6254SOL    HW219662   0.752   0.021   1.421
 6255SOL     OW19663   0.313   1.493   1.956
 6255SOL    HW119664   0.287   1.405   1.916
 6255SOL    HW219665   0.410   1.510   1.939
 6256SOL     OW19666   5.087   5.864   2.570
 6256SOL    HW119667   5.150   5.939   2.589
 6256SOL    HW219668   5.023   5.853   2.646
 6257SOL     OW19669   3.156   3.943   1.385
 6257SOL    HW119670   3.064   3.978   1.364
 6257SOL    HW219671   3.194   3.900   1.304
 6258SOL     OW19672   3.649   5.268   4.865
 6258SOL    HW119673   3.723   5.242   4.802
 6258SOL    HW219674   3.610   5.355   4.835
 6259SOL     OW19675   3.455   0.559   4.443
 6259SOL    HW119676   3.411   0.591   4.359
 6259SOL    HW219677   3.497   0.470   4.427
 6260SOL     OW19678   1.437   1.487   6.885
 6260SOL    HW119679   1.403   1.581   6.890
 6260SOL    HW219680   1.537   1.488   6.894
 6261SOL     OW19681   3.724   0.264   1.084
 6261SOL    HW119682   3.643   0.206   1.092
 6261SOL    HW219683   3.707   0.351   1.130
 6262SOL     OW19684   5.603   0.235   2.367
 6262SOL    HW119685   5.551   0.288   2.301
 6262SOL    HW219686   5.540   0.183   2.426
 6263SOL     OW19687   6.010   6.093   6.061
 6263SOL    HW119688   5.944   6.061   5.992
 6263SOL    HW219689   5.974   6.071   6.152
 6264SOL     OW19690   2.603   0.101   0.227
 6264SOL    HW119691   2.508   0.073   0.208
 6264SOL    HW219692   2.665   0.028   0.196
 6265SOL     OW19693   4.968   0.683   6.433
 6265SOL    HW119694   5.001   0.767   6.477
 6265SOL    HW219695   4.997   0.604   6.487
 6266SOL     OW19696   2.783   5.019   3.143
 6266SOL    HW119697   2.686   4.995   3.145
 6266SOL    HW219698   2.837   4.937   3.123
 6267SOL     OW19699   2.696   6.241   4.998
 6267SOL    HW119700   2.620   6.178   5.017
 6267SOL    HW219701   2.779   6.208   5.042
 6268SOL     OW19702   3.313   1.307   1.073
 6268SOL    HW119703   3.333   1.397   1.111
 6268SOL    HW219704   3.329   1.309   0.974
 6269SOL     OW19705   6.189   4.943   0.054
 6269SOL    HW119706   6.187   4.861   0.111
 6269SOL    HW219707   6.099   4.957   0.012
 6270SOL     OW19708   2.018   5.465   0.790
 6270SOL    HW119709   2.109   5.483   0.753
 6270SOL    HW219710   1.989   5.373   0.762
 6271SOL     OW19711   6.023   3.426   5.921
 6271SOL    HW119712   6.121   3.407   5.919
 6271SOL    HW219713   5.972   3.341   5.911
 6272SOL     OW19714   0.314   0.048   0.512
 6272SOL    HW119715   0.351   0.141   0.521
 6272SOL    HW219716   0.237   0.037   0.575
 6273SOL     OW19717   0.524   6.641   1.399
 6273SOL    HW119718   0.498   6.566   1.459
 6273SOL    HW219719   0.466   6.720   1.418
 6274SOL     OW19720   3.133   5.365   3.463
 6274SOL    HW119721   3.203   5.360   3.534
 6274SOL    HW219722   3.143   5.288   3.401
 6275SOL     OW19723   2.038   5.249   6.928
 6275SOL    HW119724   2.057   5.344   6.951
 6275SOL    HW219725   2.072   5.229   6.836
 6276SOL     OW19726   2.139   5.307   3.041
 6276SOL    HW119727   2.181   5.243   2.977
 6276SOL    HW219728   2.098   5.257   3.117
 6277SOL     OW19729   5.084   3.299   1.074
 6277SOL    HW119730   5.173   3.344   1.075
 6277SOL    HW219731   5.077   3.236   1.152
 6278SOL     OW19732   2.732   1.155   6.631
 6278SOL    HW119733   2.701   1.241   6.672
 6278SOL    HW219734   2.741   1.086   6.702
 6279SOL     OW19735   2.911   6.825   2.099
 6279SOL    HW119736   2.884   6.910   2.054
 6279SOL    HW219737   2.838   6.793   2.159
 6280SOL     OW19738   6.195   2.532   6.744
 6280SOL    HW119739   6.188   2.484   6.831
 6280SOL    HW219740   6.290   2.528   6.712
 6281SOL     OW19741   5.373   3.805   6.043
 6281SOL    HW119742   5.405   3.777   5.953
 6281SOL    HW219743   5.349   3.724   6.097
 6282SOL     OW19744   0.299   3.377   6.241
 6282SOL    HW119745   0.218   3.430   6.217
 6282SOL    HW219746   0.342   3.417   6.322
 6283SOL     OW19747   1.517   6.425   5.184
 6283SOL    HW119748   1.441   6.490   5.174
 6283SOL    HW219749   1.527   6.371   5.100
 6284SOL     OW19750   1.662   4.524   5.727
 6284SOL    HW119751   1.700   4.526   5.820
 6284SOL    HW219752   1.707   4.452   5.675
 6285SOL     OW19753   1.181   3.959   2.989
 6285SOL    HW119754   1.225   3.966   2.899
 6285SOL    HW219755   1.083   3.972   2.979
 6286SOL     OW19756   0.803   2.403   0.445
 6286SOL    HW119757   0.879   2.338   0.449
 6286SOL    HW219758   0.727   2.370   0.501
 6287SOL     OW19759   4.935   5.075   4.898
 6287SOL    HW119760   4.964   5.032   4.813
 6287SOL    HW219761   4.949   5.174   4.892
 6288SOL     OW19762   3.335   3.564   6.455
 6288SOL    HW119763   3.329   3.645   6.514
 6288SOL    HW219764   3.393   3.585   6.376
 6289SOL     OW19765   2.749   4.587   5.867
 6289SOL    HW119766   2.812   4.555   5.937
 6289SOL    HW219767   2.763   4.535   5.783
 6290SOL     OW19768   5.803   6.115   4.341
 6290SOL    HW119769   5.824   6.111   4.244
 6290SOL    HW219770   5.880   6.078   4.394
 6291SOL     OW19771   3.466   2.909   3.002
 6291SOL    HW119772   3.520   2.928   2.919
 6291SOL    HW219773   3.381   2.863   2.976
 6292SOL     OW19774   1.723   3.510   4.515
 6292SOL    HW119775   1.804   3.552   4.556
 6292SOL    HW219776   1.652   3.580   4.504
 6293SOL     OW19777   3.287   0.908   6.557
 6293SOL    HW119778   3.260   0.984   6.499
 6293SOL    HW219779   3.323   0.834   6.501
 6294SOL     OW19780   1.511   1.594   2.988
 6294SOL    HW119781   1.558   1.673   3.028
 6294SOL    HW219782   1.539   1.583   2.893
 6295SOL     OW19783   5.011   3.697   6.052
 6295SOL    HW119784   5.030   3.731   6.144
 6295SOL    HW219785   4.929   3.640   6.055
 6296SOL     OW19786   0.864   3.088   0.658
 6296SOL    HW119787   0.855   3.057   0.563
 6296SOL    HW219788   0.869   3.188   0.659
 6297SOL     OW19789   5.984   1.392   4.430
 6297SOL    HW119790   6.028   1.382   4.519
 6297SOL    HW219791   5.979   1.489   4.406
 6298SOL     OW19792   6.728   6.046   0.939
 6298SOL    HW119793   6.823   6.028   0.964
 6298SOL    HW219794   6.689   6.112   1.003
 6299SOL     OW19795   4.099   1.252   3.048
 6299SOL    HW119796   4.078   1.324   3.114
 6299SOL    HW219797   4.020   1.237   2.988
 6300SOL     OW19798   2.384   1.068   6.462
 6300SOL    HW119799   2.371   1.083   6.364
 6300SOL    HW219800   2.295   1.053   6.506
 6301SOL     OW19801   4.104   6.327   0.115
 6301SOL    HW119802   4.058   6.415   0.125
 6301SOL    HW219803   4.195   6.332   0.157
 6302SOL     OW19804   3.150   2.557   6.197
 6302SOL    HW119805   3.160   2.637   6.137
 6302SOL    HW219806   3.180   2.475   6.149
 6303SOL     OW19807   0.605   6.000   5.143
 6303SOL    HW119808   0.651   6.033   5.225
 6303SOL    HW219809   0.571   5.907   5.158
 6304SOL     OW19810   3.634   0.824   4.370
 6304SOL    HW119811   3.671   0.890   4.435
 6304SOL    HW219812   3.537   0.841   4.357
 6305SOL     OW19813   0.348   5.892   6.390
 6305SOL    HW119814   0.366   5.822   6.321
 6305SOL    HW219815   0.401   5.873   6.472
 6306SOL     OW19816   0.154   5.172   4.387
 6306SOL    HW119817   0.197   5.095   4.339
 6306SOL    HW219818   0.055   5.164   4.381
 6307SOL     OW19819   3.899   2.947   2.025
 6307SOL    HW119820   3.885   2.916   2.118
 6307SOL    HW219821   3.911   3.046   2.024
 6308SOL     OW19822   0.236   2.272   0.554
 6308SOL    HW119823   0.309   2.328   0.515
 6308SOL    HW219824   0.275   2.210   0.622
 6309SOL     OW19825   2.507   6.358   4.763
 6309SOL    HW119826   2.447   6.433   4.733
 6309SOL    HW219827   2.454   6.273   4.766
 6310SOL     OW19828   1.742   0.003   2.813
 6310SOL    HW119829   1.652   0.043   2.828
 6310SOL    HW219830   1.797   0.065   2.758
 6311SOL     OW19831   5.847   0.880   6.357
 6311SOL    HW119832   5.818   0.971   6.384
 6311SOL    HW219833   5.914   0.845   6.422
 6312SOL     OW19834   3.561   5.768   6.581
 6312SOL    HW119835   3.616   5.791   6.662
 6312SOL    HW219836   3.506   5.687   6.601
 6313SOL     OW19837   5.300   5.132   4.906
 6313SOL    HW119838   5.235   5.144   4.982
 6313SOL    HW219839   5.289   5.207   4.841
 6314SOL     OW19840   1.747   6.861   2.242
 6314SOL    HW119841   1.767   6.764   2.249
 6314SOL    HW219842   1.669   6.883   2.301
 6315SOL     OW19843   2.236   2.373   4.403
 6315SOL    HW119844   2.158   2.434   4.416
 6315SOL    HW219845   2.299   2.414   4.336
 6316SOL     OW19846   4.557   0.974   4.483
 6316SOL    HW119847   4.644   0.979   4.433
 6316SOL    HW219848   4.562   0.899   4.549
 6317SOL     OW19849   5.738   4.889   1.643
 6317SOL    HW119850   5.672   4.957   1.610
 6317SOL    HW219851   5.817   4.886   1.582
 6318SOL     OW19852   6.581   6.787   0.302
 6318SOL    HW119853   6.559   6.701   0.347
 6318SOL    HW219854   6.576   6.775   0.203
 6319SOL     OW19855   5.220   1.323   4.146
 6319SOL    HW119856   5.212   1.274   4.060
 6319SOL    HW219857   5.241   1.259   4.220
 6320SOL     OW19858   6.103   1.281   5.674
 6320SOL    HW119859   6.190   1.325   5.652
 6320SOL    HW219860   6.104   1.250   5.769
 6321SOL     OW19861   6.561   2.587   6.402
 6321SOL    HW119862   6.586   2.658   6.468
 6321SOL    HW219863   6.623   2.591   6.323
 6322SOL     OW19864   1.039   1.179   2.203
 6322SOL    HW119865   0.958   1.205   2.255
 6322SOL    HW219866   1.021   1.188   2.106
 6323SOL     OW19867   2.363   4.829   1.647
 6323SOL    HW119868   2.338   4.821   1.744
 6323SOL    HW219869   2.282   4.848   1.593
 6324SOL     OW19870   4.519   2.417   1.152
 6324SOL    HW119871   4.597   2.355   1.143
 6324SOL    HW219872   4.440   2.367   1.187
 6325SOL     OW19873   1.610   3.118   4.188
 6325SOL    HW119874   1.593   3.035   4.135
 6325SOL    HW219875   1.705   3.147   4.175
 6326SOL     OW19876   5.474   5.095   5.885
 6326SOL    HW119877   5.560   5.076   5.932
 6326SOL    HW219878   5.459   5.028   5.813
 6327SOL     OW19879   0.141   0.656   3.800
 6327SOL    HW119880   0.107   0.750   3.799
 6327SOL    HW219881   0.177   0.635   3.891
 6328SOL     OW19882   4.540   3.554   5.336
 6328SOL    HW119883   4.618   3.566   5.274
 6328SOL    HW219884   4.455   3.569   5.285
 6329SOL     OW19885   0.371   2.534   5.764
 6329SOL    HW119886   0.455   2.497   5.805
 6329SOL    HW219887   0.363   2.631   5.789
 6330SOL     OW19888   5.395   1.073   3.350
 6330SOL    HW119889   5.417   1.171   3.345
 6330SOL    HW219890   5.436   1.026   3.271
 6331SOL     OW19891   0.681   2.927   3.659
 6331SOL    HW119892   0.677   2.835   3.698
 6331SOL    HW219893   0.626   2.929   3.575
 6332SOL     OW19894   3.091   1.392   6.634
 6332SOL    HW119895   3.024   1.396   6.709
 6332SOL    HW219896   3.055   1.334   6.560
 6333SOL     OW19897   5.597   1.817   0.732
 6333SOL    HW119898   5.529   1.839   0.661
 6333SOL    HW219899   5.655   1.742   0.700
 6334SOL     OW19900   1.276   1.416   1.872
 6334SOL    HW119901   1.303   1.362   1.951
 6334SOL    HW219902   1.177   1.415   1.862
 6335SOL     OW19903   6.438   2.128   6.967
 6335SOL    HW119904   6.366   2.102   0.015
 6335SOL    HW219905   6.502   2.053   6.956
 6336SOL     OW19906   1.038   3.941   5.234
 6336SOL    HW119907   1.053   3.934   5.332
 6336SOL    HW219908   0.941   3.926   5.213
 6337SOL     OW19909   5.274   5.884   5.177
 6337SOL    HW119910   5.277   5.967   5.122
 6337SOL    HW219911   5.295   5.804   5.120
 6338SOL     OW19912   1.533   0.927   3.175
 6338SOL    HW119913   1.481   0.927   3.260
 6338SOL    HW219914   1.626   0.895   3.192
 6339SOL     OW19915   0.176   4.592   3.670
 6339SOL    HW119916   0.186   4.686   3.701
 6339SOL    HW219917   0.182   4.589   3.570
 6340SOL     OW19918   2.888   4.037   0.771
 6340SOL    HW119919   2.951   4.074   0.840
 6340SOL    HW219920   2.925   4.056   0.680
 6341SOL     OW19921   0.381   5.482   2.675
 6341SOL    HW119922   0.308   5.416   2.690
 6341SOL    HW219923   0.357   5.569   2.717
 6342SOL     OW19924   2.088   0.910   1.220
 6342SOL    HW119925   2.094   0.966   1.137
 6342SOL    HW219926   2.179   0.879   1.245
 6343SOL     OW19927   0.961   5.082   0.915
 6343SOL    HW119928   0.983   5.162   0.971
 6343SOL    HW219929   0.899   5.109   0.841
 6344SOL     OW19930   0.040   1.196   3.983
 6344SOL    HW119931   0.018   1.103   4.014
 6344SOL    HW219932   6.974   1.239   3.947
 6345SOL     OW19933   6.010   3.142   1.962
 6345SOL    HW119934   5.920   3.181   1.980
 6345SOL    HW219935   6.001   3.055   1.914
 6346SOL     OW19936   0.121   4.705   5.663
 6346SOL    HW119937   0.168   4.618   5.676
 6346SOL    HW219938   0.155   4.772   5.730
 6347SOL     OW19939   2.244   1.825   2.860
 6347SOL    HW119940   2.149   1.849   2.882
 6347SOL    HW219941   2.274   1.752   2.920
 6348SOL     OW19942   0.652   2.162   6.104
 6348SOL    HW119943   0.736   2.144   6.053
 6348SOL    HW219944   0.605   2.076   6.124
 6349SOL     OW19945   6.805   0.932   0.087
 6349SOL    HW119946   6.749   0.986   0.025
 6349SOL    HW219947   6.784   0.957   0.182
 6350SOL     OW19948   0.944   5.693   2.049
 6350SOL    HW119949   0.972   5.730   1.961
 6350SOL    HW219950   1.010   5.719   2.119
 6351SOL     OW19951   5.334   3.197   1.809
 6351SOL    HW119952   5.254   3.139   1.827
 6351SOL    HW219953   5.384   3.212   1.894
 6352SOL     OW19954   3.107   0.546   4.067
 6352SOL    HW119955   3.165   0.556   3.986
 6352SOL    HW219956   3.025   0.603   4.058
 6353SOL     OW19957   3.683   6.730   5.339
 6353SOL    HW119958   3.682   6.648   5.396
 6353SOL    HW219959   3.730   6.804   5.387
 6354SOL     OW19960   4.715   5.563   1.053
 6354SOL    HW119961   4.653   5.570   1.132
 6354SOL    HW219962   4.668   5.597   0.972
 6355SOL     OW19963   2.722   4.868   0.632
 6355SOL    HW119964   2.634   4.901   0.599
 6355SOL    HW219965   2.777   4.835   0.555
 6356SOL     OW19966   6.427   5.175   6.329
 6356SOL    HW119967   6.426   5.075   6.328
 6356SOL    HW219968   6.443   5.209   6.236
 6357SOL     OW19969   5.621   1.354   1.946
 6357SOL    HW119970   5.614   1.453   1.933
 6357SOL    HW219971   5.701   1.334   2.002
 6358SOL     OW19972   1.349   2.032   5.729
 6358SOL    HW119973   1.449   2.037   5.719
 6358SOL    HW219974   1.325   2.018   5.825
 6359SOL     OW19975   5.437   6.716   0.630
 6359SOL    HW119976   5.435   6.753   0.723
 6359SOL    HW219977   5.479   6.784   0.568
 6360SOL     OW19978   0.527   1.932   2.492
 6360SOL    HW119979   0.607   1.961   2.439
 6360SOL    HW219980   0.458   2.004   2.490
 6361SOL     OW19981   7.013   0.857   6.670
 6361SOL    HW119982   0.060   0.817   6.736
 6361SOL    HW219983   6.920   0.853   6.707
 6362SOL     OW19984   1.007   5.501   0.443
 6362SOL    HW119985   0.923   5.552   0.425
 6362SOL    HW219986   1.072   5.559   0.491
 6363SOL     OW19987   2.397   4.291   2.924
 6363SOL    HW119988   2.443   4.250   2.844
 6363SOL    HW219989   2.360   4.218   2.981
 6364SOL     OW19990   2.452   2.589   4.159
 6364SOL    HW119991   2.455   2.555   4.253
 6364SOL    HW219992   2.462   2.688   4.159
 6365SOL     OW19993   5.090   6.593   3.309
 6365SOL    HW119994   5.013   6.653   3.331
 6365SOL    HW219995   5.174   6.629   3.350
 6366SOL     OW19996   6.061   0.223   5.237
 6366SOL    HW119997   6.157   0.222   5.266
 6366SOL    HW219998   6.013   0.145   5.279
 6367SOL     OW19999   1.634   1.945   2.395
 6367SOL    HW120000   1.553   1.948   2.455
 6367SOL    HW220001   1.628   1.865   2.336
 6368SOL     OW20002   5.089   3.212   5.087
 6368SOL    HW120003   5.101   3.174   5.178
 6368SOL    HW220004   4.991   3.213   5.064
 6369SOL     OW20005   4.400   5.197   0.086
 6369SOL    HW120006   4.317   5.241   0.051
 6369SOL    HW220007   4.383   5.164   0.179
 6370SOL     OW20008   5.230   3.859   4.475
 6370SOL    HW120009   5.209   3.795   4.401
 6370SOL    HW220010   5.221   3.812   4.563
 6371SOL     OW20011   5.256   4.517   1.004
 6371SOL    HW120012   5.193   4.468   1.064
 6371SOL    HW220013   5.302   4.589   1.055
 6372SOL     OW20014   6.280   1.839   2.259
 6372SOL    HW120015   6.221   1.821   2.180
 6372SOL    HW220016   6.312   1.753   2.297
 6373SOL     OW20017   4.980   4.380   1.843
 6373SOL    HW120018   4.915   4.371   1.767
 6373SOL    HW220019   5.017   4.472   1.844
 6374SOL     OW20020   4.202   3.970   6.768
 6374SOL    HW120021   4.169   3.877   6.754
 6374SOL    HW220022   4.226   4.011   6.680
 6375SOL     OW20023   5.015   2.194   2.108
 6375SOL    HW120024   5.084   2.131   2.143
 6375SOL    HW220025   4.941   2.203   2.174
 6376SOL     OW20026   3.415   0.722   6.814
 6376SOL    HW120027   3.379   0.713   6.906
 6376SOL    HW220028   3.368   0.658   6.753
 6377SOL     OW20029   0.269   0.432   0.946
 6377SOL    HW120030   0.301   0.357   0.889
 6377SOL    HW220031   0.171   0.444   0.934
 6378SOL     OW20032   4.953   4.679   1.883
 6378SOL    HW120033   4.857   4.705   1.889
 6378SOL    HW220034   4.991   4.711   1.796
 6379SOL     OW20035   1.985   5.297   6.621
 6379SOL    HW120036   2.081   5.269   6.609
 6379SOL    HW220037   1.932   5.268   6.541
 6380SOL     OW20038   1.561   3.704   4.756
 6380SOL    HW120039   1.506   3.744   4.830
 6380SOL    HW220040   1.598   3.778   4.699
 6381SOL     OW20041   4.357   2.611   0.533
 6381SOL    HW120042   4.275   2.566   0.570
 6381SOL    HW220043   4.335   2.703   0.503
 6382SOL     OW20044   1.333   1.276   0.787
 6382SOL    HW120045   1.329   1.375   0.783
 6382SOL    HW220046   1.261   1.242   0.847
 6383SOL     OW20047   2.291   2.239   1.836
 6383SOL    HW120048   2.386   2.271   1.846
 6383SOL    HW220049   2.251   2.227   1.927
 6384SOL     OW20050   6.726   2.855   2.623
 6384SOL    HW120051   6.649   2.808   2.578
 6384SOL    HW220052   6.805   2.854   2.562
 6385SOL     OW20053   0.394   2.921   0.919
 6385SOL    HW120054   0.453   2.928   0.838
 6385SOL    HW220055   0.307   2.965   0.900
 6386SOL     OW20056   2.674   3.491   0.459
 6386SOL    HW120057   2.699   3.529   0.548
 6386SOL    HW220058   2.596   3.429   0.470
 6387SOL     OW20059   0.033   0.115   6.993
 6387SOL    HW120060   0.069   0.170   0.052
 6387SOL    HW220061   0.096   0.039   6.976
 6388SOL     OW20062   6.187   5.391   2.464
 6388SOL    HW120063   6.188   5.334   2.382
 6388SOL    HW220064   6.246   5.350   2.534
 6389SOL     OW20065   0.481   0.511   0.477
 6389SOL    HW120066   0.500   0.463   0.391
 6389SOL    HW220067   0.552   0.487   0.544
 6390SOL     OW20068   5.102   0.521   6.607
 6390SOL    HW120069   5.191   0.475   6.607
 6390SOL    HW220070   5.084   0.560   6.697
 6391SOL     OW20071   1.214   1.726   4.858
 6391SOL    HW120072   1.178   1.800   4.802
 6391SOL    HW220073   1.148   1.704   4.930
 6392SOL     OW20074   3.636   6.679   3.651
 6392SOL    HW120075   3.668   6.771   3.672
 6392SOL    HW220076   3.702   6.633   3.591
 6393SOL     OW20077   0.490   5.068   6.960
 6393SOL    HW120078   0.507   4.970   6.962
 6393SOL    HW220079   0.557   5.114   0.002
 6394SOL     OW20080   1.533   5.809   1.594
 6394SOL    HW120081   1.599   5.828   1.522
 6394SOL    HW220082   1.441   5.832   1.562
 6395SOL     OW20083   2.224   4.119   3.043
 6395SOL    HW120084   2.207   4.076   2.954
 6395SOL    HW220085   2.137   4.127   3.092
 6396SOL     OW20086   1.032   3.341   5.970
 6396SOL    HW120087   1.026   3.291   5.884
 6396SOL    HW220088   1.100   3.298   6.029
 6397SOL     OW20089   5.531   3.945   4.369
 6397SOL    HW120090   5.579   3.861   4.396
 6397SOL    HW220091   5.464   3.969   4.439
 6398SOL     OW20092   2.061   0.086   1.542
 6398SOL    HW120093   2.148   0.078   1.494
 6398SOL    HW220094   2.075   0.072   1.640
 6399SOL     OW20095   3.162   0.704   6.036
 6399SOL    HW120096   3.256   0.678   6.059
 6399SOL    HW220097   3.163   0.795   5.993
 6400SOL     OW20098   1.307   6.304   2.903
 6400SOL    HW120099   1.405   6.299   2.919
 6400SOL    HW220100   1.267   6.375   2.961
 6401SOL     OW20101   3.785   5.267   3.423
 6401SOL    HW120102   3.817   5.296   3.514
 6401SOL    HW220103   3.864   5.251   3.364
 6402SOL     OW20104   2.238   4.668   5.125
 6402SOL    HW120105   2.224   4.751   5.070
 6402SOL    HW220106   2.296   4.604   5.075
 6403SOL     OW20107   5.028   5.210   5.400
 6403SOL    HW120108   5.123   5.182   5.382
 6403SOL    HW220109   5.004   5.285   5.338
 6404SOL     OW20110   4.291   6.559   1.704
 6404SOL    HW120111   4.322   6.614   1.782
 6404SOL    HW220112   4.308   6.610   1.620
 6405SOL     OW20113   5.458   1.472   3.142
 6405SOL    HW120114   5.415   1.561   3.159
 6405SOL    HW220115   5.518   1.448   3.218
 6406SOL     OW20116   6.887   3.582   3.628
 6406SOL    HW120117   6.956   3.525   3.674
 6406SOL    HW220118   6.869   3.663   3.684
 6407SOL     OW20119   0.557   6.001   2.242
 6407SOL    HW120120   0.591   6.092   2.268
 6407SOL    HW220121   0.634   5.943   2.217
 6408SOL     OW20122   6.429   0.240   2.366
 6408SOL    HW120123   6.457   0.248   2.461
 6408SOL    HW220124   6.382   0.323   2.338
 6409SOL     OW20125   5.269   5.176   3.540
 6409SOL    HW120126   5.194   5.231   3.503
 6409SOL    HW220127   5.325   5.141   3.466
 6410SOL     OW20128   1.791   1.461   6.517
 6410SOL    HW120129   1.709   1.496   6.473
 6410SOL    HW220130   1.792   1.490   6.613
 6411SOL     OW20131   0.512   2.671   1.989
 6411SOL    HW120132   0.529   2.747   2.053
 6411SOL    HW220133   0.584   2.603   1.998
 6412SOL     OW20134   3.432   0.995   6.997
 6412SOL    HW120135   3.530   0.998   0.001
 6412SOL    HW220136   3.380   0.989   0.066
 6413SOL     OW20137   4.840   6.275   3.038
 6413SOL    HW120138   4.934   6.240   3.040
 6413SOL    HW220139   4.815   6.310   3.128
 6414SOL     OW20140   1.555   0.497   0.330
 6414SOL    HW120141   1.646   0.525   0.298
 6414SOL    HW220142   1.489   0.568   0.306
 6415SOL     OW20143   0.256   2.415   3.782
 6415SOL    HW120144   0.238   2.483   3.711
 6415SOL    HW220145   0.240   2.324   3.745
 6416SOL     OW20146   2.320   6.491   0.298
 6416SOL    HW120147   2.392   6.423   0.286
 6416SOL    HW220148   2.250   6.479   0.227
 6417SOL     OW20149   4.337   2.433   6.723
 6417SOL    HW120150   4.238   2.446   6.734
 6417SOL    HW220151   4.365   2.464   6.632
 6418SOL     OW20152   5.129   4.531   0.101
 6418SOL    HW120153   5.206   4.580   0.143
 6418SOL    HW220154   5.051   4.593   0.093
 6419SOL     OW20155   0.893   6.464   6.025
 6419SOL    HW120156   0.882   6.532   5.952
 6419SOL    HW220157   0.989   6.461   6.054
 6420SOL     OW20158   1.947   4.102   4.544
 6420SOL    HW120159   1.899   4.077   4.459
 6420SOL    HW220160   2.034   4.054   4.548
 6421SOL     OW20161   3.840   0.526   2.044
 6421SOL    HW120162   3.788   0.553   2.125
 6421SOL    HW220163   3.936   0.552   2.055
 6422SOL     OW20164   6.022   1.659   4.409
 6422SOL    HW120165   6.071   1.724   4.467
 6422SOL    HW220166   5.931   1.694   4.388
 6423SOL     OW20167   1.651   4.443   4.367
 6423SOL    HW120168   1.591   4.457   4.445
 6423SOL    HW220169   1.746   4.462   4.394
 6424SOL     OW20170   6.274   4.794   5.353
 6424SOL    HW120171   6.233   4.885   5.346
 6424SOL    HW220172   6.251   4.741   5.272
 6425SOL     OW20173   6.791   5.288   4.243
 6425SOL    HW120174   6.803   5.311   4.146
 6425SOL    HW220175   6.828   5.197   4.260
 6426SOL     OW20176   4.724   4.191   5.115
 6426SOL    HW120177   4.696   4.130   5.040
 6426SOL    HW220178   4.766   4.273   5.077
 6427SOL     OW20179   3.857   3.175   2.722
 6427SOL    HW120180   3.805   3.244   2.773
 6427SOL    HW220181   3.794   3.119   2.668
 6428SOL     OW20182   5.548   2.633   0.488
 6428SOL    HW120183   5.613   2.699   0.527
 6428SOL    HW220184   5.480   2.682   0.433
 6429SOL     OW20185   2.118   1.314   5.284
 6429SOL    HW120186   2.019   1.323   5.269
 6429SOL    HW220187   2.167   1.355   5.207
 6430SOL     OW20188   6.565   0.581   5.497
 6430SOL    HW120189   6.526   0.535   5.577
 6430SOL    HW220190   6.610   0.513   5.438
 6431SOL     OW20191   3.681   4.834   1.621
 6431SOL    HW120192   3.669   4.780   1.704
 6431SOL    HW220193   3.604   4.896   1.609
 6432SOL     OW20194   5.180   4.297   6.034
 6432SOL    HW120195   5.222   4.288   5.944
 6432SOL    HW220196   5.089   4.337   6.024
 6433SOL     OW20197   3.116   4.368   6.532
 6433SOL    HW120198   3.081   4.425   6.457
 6433SOL    HW220199   3.185   4.419   6.583
 6434SOL     OW20200   4.524   5.506   6.277
 6434SOL    HW120201   4.453   5.532   6.212
 6434SOL    HW220202   4.609   5.554   6.254
 6435SOL     OW20203   5.154   2.126   1.576
 6435SOL    HW120204   5.187   2.207   1.625
 6435SOL    HW220205   5.157   2.047   1.636
 6436SOL     OW20206   6.570   3.630   3.901
 6436SOL    HW120207   6.634   3.565   3.860
 6436SOL    HW220208   6.529   3.686   3.829
 6437SOL     OW20209   1.271   2.159   5.486
 6437SOL    HW120210   1.297   2.105   5.566
 6437SOL    HW220211   1.288   2.256   5.505
 6438SOL     OW20212   0.543   4.525   0.007
 6438SOL    HW120213   0.450   4.517   0.043
 6438SOL    HW220214   0.607   4.541   0.083
 6439SOL     OW20215   4.823   6.954   3.415
 6439SOL    HW120216   4.921   6.943   3.402
 6439SOL    HW220217   4.793   6.898   3.492
 6440SOL     OW20218   2.909   2.070   6.301
 6440SOL    HW120219   2.974   2.146   6.293
 6440SOL    HW220220   2.828   2.089   6.246
 6441SOL     OW20221   0.121   1.871   2.380
 6441SOL    HW120222   0.117   1.926   2.296
 6441SOL    HW220223   0.104   1.931   2.459
 6442SOL     OW20224   2.712   2.369   4.423
 6442SOL    HW120225   2.806   2.337   4.435
 6442SOL    HW220226   2.659   2.353   4.507
 6443SOL     OW20227   4.639   3.024   0.129
 6443SOL    HW120228   4.738   3.020   0.116
 6443SOL    HW220229   4.600   2.934   0.106
 6444SOL     OW20230   6.537   3.560   4.831
 6444SOL    HW120231   6.588   3.490   4.780
 6444SOL    HW220232   6.460   3.592   4.775
 6445SOL     OW20233   3.177   3.118   3.745
 6445SOL    HW120234   3.261   3.169   3.761
 6445SOL    HW220235   3.185   3.068   3.658
 6446SOL     OW20236   1.666   1.177   6.344
 6446SOL    HW120237   1.671   1.237   6.264
 6446SOL    HW220238   1.599   1.214   6.409
 6447SOL     OW20239   5.924   3.632   1.531
 6447SOL    HW120240   5.838   3.621   1.482
 6447SOL    HW220241   5.999   3.644   1.465
 6448SOL     OW20242   3.230   5.071   1.468
 6448SOL    HW120243   3.191   5.142   1.526
 6448SOL    HW220244   3.310   5.032   1.512
 6449SOL     OW20245   2.640   5.225   1.123
 6449SOL    HW120246   2.583   5.280   1.184
 6449SOL    HW220247   2.665   5.140   1.168
 6450SOL     OW20248   0.767   4.764   0.390
 6450SOL    HW120249   0.745   4.861   0.377
 6450SOL    HW220250   0.800   4.749   0.483
 6451SOL     OW20251   4.754   2.734   1.472
 6451SOL    HW120252   4.702   2.651   1.453
 6451SOL    HW220253   4.749   2.755   1.570
 6452SOL     OW20254   4.588   1.676   3.825
 6452SOL    HW120255   4.663   1.705   3.765
 6452SOL    HW220256   4.623   1.617   3.897
 6453SOL     OW20257   2.083   0.733   2.219
 6453SOL    HW120258   2.035   0.689   2.143
 6453SOL    HW220259   2.034   0.815   2.248
 6454SOL     OW20260   5.152   2.208   3.368
 6454SOL    HW120261   5.132   2.111   3.354
 6454SOL    HW220262   5.076   2.263   3.333
 6455SOL     OW20263   6.506   3.425   3.605
 6455SOL    HW120264   6.514   3.372   3.520
 6455SOL    HW220265   6.440   3.380   3.666
 6456SOL     OW20266   6.229   1.069   2.541
 6456SOL    HW120267   6.197   1.060   2.635
 6456SOL    HW220268   6.314   1.121   2.540
 6457SOL     OW20269   3.478   6.941   1.768
 6457SOL    HW120270   3.482   0.000   1.834
 6457SOL    HW220271   3.383   6.916   1.752
 6458SOL     OW20272   6.845   5.154   3.842
 6458SOL    HW120273   6.756   5.178   3.879
 6458SOL    HW220274   6.895   5.238   3.818
 6459SOL     OW20275   0.125   2.927   3.167
 6459SOL    HW120276   0.168   3.011   3.134
 6459SOL    HW220277   0.040   2.950   3.215
 6460SOL     OW20278   0.492   5.495   6.414
 6460SOL    HW120279   0.545   5.520   6.333
 6460SOL    HW220280   0.534   5.416   6.458
 6461SOL     OW20281   1.156   5.458   1.175
 6461SOL    HW120282   1.112   5.516   1.106
 6461SOL    HW220283   1.248   5.433   1.144
 6462SOL     OW20284   1.795   4.418   5.447
 6462SOL    HW120285   1.847   4.501   5.427
 6462SOL    HW220286   1.698   4.440   5.452
 6463SOL     OW20287   4.652   2.121   1.192
 6463SOL    HW120288   4.599   2.046   1.229
 6463SOL    HW220289   4.694   2.173   1.267
 6464SOL     OW20290   0.996   4.198   3.462
 6464SOL    HW120291   0.978   4.140   3.383
 6464SOL    HW220292   0.987   4.144   3.546
 6465SOL     OW20293   3.567   1.508   3.660
 6465SOL    HW120294   3.514   1.504   3.576
 6465SOL    HW220295   3.506   1.499   3.739
 6466SOL     OW20296   6.548   3.836   0.394
 6466SOL    HW120297   6.563   3.932   0.415
 6466SOL    HW220298   6.494   3.829   0.309
 6467SOL     OW20299   2.431   2.923   0.492
 6467SOL    HW120300   2.398   2.924   0.586
 6467SOL    HW220301   2.394   2.843   0.445
 6468SOL     OW20302   2.621   1.059   0.819
 6468SOL    HW120303   2.528   1.094   0.836
 6468SOL    HW220304   2.633   0.972   0.867
 6469SOL     OW20305   2.841   1.601   2.334
 6469SOL    HW120306   2.796   1.524   2.290
 6469SOL    HW220307   2.862   1.671   2.266
 6470SOL     OW20308   0.126   1.948   6.969
 6470SOL    HW120309   0.197   1.902   6.915
 6470SOL    HW220310   0.163   1.975   0.041
 6471SOL     OW20311   1.004   6.406   5.711
 6471SOL    HW120312   0.956   6.443   5.631
 6471SOL    HW220313   0.980   6.458   5.792
 6472SOL     OW20314   6.599   6.278   3.009
 6472SOL    HW120315   6.673   6.222   2.970
 6472SOL    HW220316   6.511   6.238   2.985
 6473SOL     OW20317   2.774   1.443   3.545
 6473SOL    HW120318   2.731   1.501   3.615
 6473SOL    HW220319   2.851   1.491   3.505
 6474SOL     OW20320   3.924   5.459   4.780
 6474SOL    HW120321   4.024   5.455   4.770
 6474SOL    HW220322   3.901   5.530   4.847
 6475SOL     OW20323   5.796   5.661   2.543
 6475SOL    HW120324   5.833   5.586   2.488
 6475SOL    HW220325   5.785   5.632   2.637
 6476SOL     OW20326   3.741   2.235   6.888
 6476SOL    HW120327   3.790   2.317   6.917
 6476SOL    HW220328   3.649   2.260   6.859
 6477SOL     OW20329   6.239   6.080   1.406
 6477SOL    HW120330   6.208   6.060   1.499
 6477SOL    HW220331   6.336   6.057   1.397
 6478SOL     OW20332   3.310   5.686   0.937
 6478SOL    HW120333   3.220   5.704   0.977
 6478SOL    HW220334   3.325   5.587   0.932
 6479SOL     OW20335   3.489   6.302   3.069
 6479SOL    HW120336   3.410   6.350   3.030
 6479SOL    HW220337   3.457   6.228   3.129
 6480SOL     OW20338   3.909   1.990   6.862
 6480SOL    HW120339   3.825   2.039   6.884
 6480SOL    HW220340   3.913   1.972   6.764
 6481SOL     OW20341   3.728   2.749   1.332
 6481SOL    HW120342   3.724   2.655   1.365
 6481SOL    HW220343   3.638   2.791   1.339
 6482SOL     OW20344   5.744   3.891   5.833
 6482SOL    HW120345   5.721   3.871   5.928
 6482SOL    HW220346   5.662   3.879   5.776
 6483SOL     OW20347   1.773   6.494   4.882
 6483SOL    HW120348   1.714   6.573   4.898
 6483SOL    HW220349   1.813   6.500   4.790
 6484SOL     OW20350   2.647   1.038   3.538
 6484SOL    HW120351   2.607   0.957   3.495
 6484SOL    HW220352   2.582   1.114   3.531
 6485SOL     OW20353   2.492   6.175   5.406
 6485SOL    HW120354   2.441   6.261   5.414
 6485SOL    HW220355   2.433   6.100   5.436
 6486SOL     OW20356   1.037   5.113   2.818
 6486SOL    HW120357   1.012   5.020   2.788
 6486SOL    HW220358   1.134   5.128   2.805
 6487SOL     OW20359   5.461   4.627   4.483
 6487SOL    HW120360   5.509   4.655   4.400
 6487SOL    HW220361   5.518   4.646   4.563
 6488SOL     OW20362   3.892   5.196   4.688
 6488SOL    HW120363   3.984   5.166   4.664
 6488SOL    HW220364   3.896   5.290   4.722
 6489SOL     OW20365   4.831   2.486   5.170
 6489SOL    HW120366   4.804   2.390   5.163
 6489SOL    HW220367   4.756   2.539   5.210
 6490SOL     OW20368   2.050   2.376   6.795
 6490SOL    HW120369   2.103   2.422   6.866
 6490SOL    HW220370   2.110   2.319   6.739
 6491SOL     OW20371   2.678   0.024   1.694
 6491SOL    HW120372   2.703   7.012   1.786
 6491SOL    HW220373   2.637   6.963   1.645
 6492SOL     OW20374   4.021   3.469   5.184
 6492SOL    HW120375   3.950   3.519   5.234
 6492SOL    HW220376   4.063   3.531   5.117
 6493SOL     OW20377   0.906   4.565   4.771
 6493SOL    HW120378   0.965   4.635   4.732
 6493SOL    HW220379   0.940   4.539   4.861
 6494SOL     OW20380   6.140   0.330   1.204
 6494SOL    HW120381   6.121   0.232   1.204
 6494SOL    HW220382   6.096   0.373   1.283
 6495SOL     OW20383   6.362   0.548   3.400
 6495SOL    HW120384   6.462   0.548   3.399
 6495SOL    HW220385   6.328   0.454   3.401
 6496SOL     OW20386   3.466   1.738   1.667
 6496SOL    HW120387   3.400   1.749   1.593
 6496SOL    HW220388   3.433   1.785   1.749
 6497SOL     OW20389   0.382   1.367   0.797
 6497SOL    HW120390   0.399   1.326   0.707
 6497SOL    HW220391   0.297   1.420   0.794
 6498SOL     OW20392   0.819   4.439   3.718
 6498SOL    HW120393   0.796   4.481   3.631
 6498SOL    HW220394   0.796   4.341   3.716
 6499SOL     OW20395   4.808   3.031   3.366
 6499SOL    HW120396   4.819   3.014   3.464
 6499SOL    HW220397   4.759   2.955   3.325
 6500SOL     OW20398   1.320   4.495   2.698
 6500SOL    HW120399   1.403   4.449   2.668
 6500SOL    HW220400   1.314   4.493   2.798
 6501SOL     OW20401   5.905   1.959   1.938
 6501SOL    HW120402   5.948   1.921   1.856
 6501SOL    HW220403   5.976   1.995   1.999
 6502SOL     OW20404   6.919   3.467   2.148
 6502SOL    HW120405   6.883   3.560   2.142
 6502SOL    HW220406   6.847   3.405   2.178
 6503SOL     OW20407   6.811   3.539   5.639
 6503SOL    HW120408   6.740   3.574   5.700
 6503SOL    HW220409   6.852   3.458   5.680
 6504SOL     OW20410   4.551   6.068   6.496
 6504SOL    HW120411   4.554   6.164   6.525
 6504SOL    HW220412   4.508   6.061   6.406
 6505SOL     OW20413   0.256   5.799   0.500
 6505SOL    HW120414   0.269   5.752   0.413
 6505SOL    HW220415   0.320   5.876   0.506
 6506SOL     OW20416   0.161   3.487   2.032
 6506SOL    HW120417   0.231   3.475   2.103
 6506SOL    HW220418   0.073   3.506   2.075
 6507SOL     OW20419   3.144   4.965   7.002
 6507SOL    HW120420   3.065   5.022   6.985
 6507SOL    HW220421   3.157   4.901   6.926
 6508SOL     OW20422   0.499   0.125   2.819
 6508SOL    HW120423   0.506   0.200   2.885
 6508SOL    HW220424   0.423   0.066   2.844
 6509SOL     OW20425   2.421   1.665   6.574
 6509SOL    HW120426   2.513   1.628   6.587
 6509SOL    HW220427   2.428   1.764   6.555
 6510SOL     OW20428   3.008   6.206   5.855
 6510SOL    HW120429   3.008   6.157   5.768
 6510SOL    HW220430   3.098   6.247   5.870
 6511SOL     OW20431   3.114   1.703   0.799
 6511SOL    HW120432   3.114   1.803   0.802
 6511SOL    HW220433   3.039   1.668   0.856
 6512SOL     OW20434   3.673   1.501   7.011
 6512SOL    HW120435   3.706   1.593   6.991
 6512SOL    HW220436   3.637   1.460   6.927
 6513SOL     OW20437   2.937   4.802   3.123
 6513SOL    HW120438   3.005   4.839   3.186
 6513SOL    HW220439   2.984   4.765   3.042
 6514SOL     OW20440   5.206   6.465   5.566
 6514SOL    HW120441   5.206   6.392   5.498
 6514SOL    HW220442   5.123   6.520   5.556
 6515SOL     OW20443   0.940   4.684   2.331
 6515SOL    HW120444   0.999   4.616   2.374
 6515SOL    HW220445   0.956   4.685   2.232
 6516SOL     OW20446   6.445   3.692   1.556
 6516SOL    HW120447   6.402   3.603   1.552
 6516SOL    HW220448   6.486   3.705   1.646
 6517SOL     OW20449   0.188   3.696   0.768
 6517SOL    HW120450   0.133   3.766   0.723
 6517SOL    HW220451   0.258   3.740   0.825
 6518SOL     OW20452   0.604   1.733   2.725
 6518SOL    HW120453   0.562   1.683   2.649
 6518SOL    HW220454   0.568   1.826   2.727
 6519SOL     OW20455   1.280   1.509   3.256
 6519SOL    HW120456   1.364   1.553   3.289
 6519SOL    HW220457   1.206   1.576   3.253
 6520SOL     OW20458   0.077   5.406   0.253
 6520SOL    HW120459   0.021   5.343   0.199
 6520SOL    HW220460   0.130   5.465   0.192
 6521SOL     OW20461   1.310   4.015   3.442
 6521SOL    HW120462   1.310   4.046   3.537
 6521SOL    HW220463   1.274   3.922   3.437
 6522SOL     OW20464   2.656   2.882   5.410
 6522SOL    HW120465   2.639   2.965   5.357
 6522SOL    HW220466   2.629   2.897   5.505
 6523SOL     OW20467   5.912   0.197   0.623
 6523SOL    HW120468   5.834   0.198   0.561
 6523SOL    HW220469   5.945   0.103   0.634
 6524SOL     OW20470   2.372   2.731   0.935
 6524SOL    HW120471   2.456   2.751   0.986
 6524SOL    HW220472   2.389   2.655   0.871
 6525SOL     OW20473   1.236   5.408   3.454
 6525SOL    HW120474   1.174   5.338   3.489
 6525SOL    HW220475   1.202   5.498   3.480
 6526SOL     OW20476   0.667   5.725   0.154
 6526SOL    HW120477   0.684   5.769   0.066
 6526SOL    HW220478   0.678   5.626   0.146
 6527SOL     OW20479   6.757   1.761   0.167
 6527SOL    HW120480   6.754   1.765   0.267
 6527SOL    HW220481   6.810   1.681   0.139
 6528SOL     OW20482   4.047   6.648   6.573
 6528SOL    HW120483   4.061   6.550   6.588
 6528SOL    HW220484   4.102   6.679   6.495
 6529SOL     OW20485   5.646   0.844   2.662
 6529SOL    HW120486   5.569   0.897   2.625
 6529SOL    HW220487   5.694   0.799   2.587
 6530SOL     OW20488   0.369   3.461   2.755
 6530SOL    HW120489   0.433   3.474   2.832
 6530SOL    HW220490   0.419   3.470   2.669
 6531SOL     OW20491   3.560   4.083   5.105
 6531SOL    HW120492   3.552   4.096   5.006
 6531SOL    HW220493   3.470   4.065   5.144
 6532SOL     OW20494   1.320   0.316   0.297
 6532SOL    HW120495   1.394   0.374   0.263
 6532SOL    HW220496   1.358   0.229   0.330
 6533SOL     OW20497   5.043   3.683   1.182
 6533SOL    HW120498   5.015   3.779   1.191
 6533SOL    HW220499   4.962   3.625   1.178
 6534SOL     OW20500   0.075   4.638   3.137
 6534SOL    HW120501   0.068   4.647   3.236
 6534SOL    HW220502   0.122   4.553   3.114
 6535SOL     OW20503   4.989   2.907   5.231
 6535SOL    HW120504   5.045   2.983   5.264
 6535SOL    HW220505   4.969   2.845   5.307
 6536SOL     OW20506   0.385   4.768   5.268
 6536SOL    HW120507   0.468   4.713   5.277
 6536SOL    HW220508   0.347   4.757   5.176
 6537SOL     OW20509   6.158   5.304   3.956
 6537SOL    HW120510   6.220   5.336   3.884
 6537SOL    HW220511   6.065   5.302   3.921
 6538SOL     OW20512   1.811   2.953   5.589
 6538SOL    HW120513   1.767   2.995   5.509
 6538SOL    HW220514   1.857   3.023   5.643
 6539SOL     OW20515   4.949   0.686   5.808
 6539SOL    HW120516   5.009   0.764   5.823
 6539SOL    HW220517   4.997   0.616   5.755
 6540SOL     OW20518   6.363   2.876   5.469
 6540SOL    HW120519   6.423   2.956   5.476
 6540SOL    HW220520   6.298   2.890   5.395
 6541SOL     OW20521   5.921   1.490   5.293
 6541SOL    HW120522   5.950   1.492   5.389
 6541SOL    HW220523   5.822   1.491   5.288
 6542SOL     OW20524   1.768   4.388   2.975
 6542SOL    HW120525   1.769   4.485   2.999
 6542SOL    HW220526   1.767   4.378   2.876
 6543SOL     OW20527   3.742   1.512   4.609
 6543SOL    HW120528   3.749   1.605   4.572
 6543SOL    HW220529   3.735   1.517   4.709
 6544SOL     OW20530   0.888   6.499   1.779
 6544SOL    HW120531   0.953   6.481   1.706
 6544SOL    HW220532   0.915   6.581   1.829
 6545SOL     OW20533   4.715   6.541   0.589
 6545SOL    HW120534   4.750   6.634   0.592
 6545SOL    HW220535   4.790   6.477   0.606
 6546SOL     OW20536   4.789   3.830   6.396
 6546SOL    HW120537   4.775   3.912   6.451
 6546SOL    HW220538   4.884   3.827   6.365
 6547SOL     OW20539   0.377   5.688   6.148
 6547SOL    HW120540   0.365   5.751   6.072
 6547SOL    HW220541   0.325   5.605   6.131
 6548SOL     OW20542   0.225   1.351   5.355
 6548SOL    HW120543   0.137   1.389   5.325
 6548SOL    HW220544   0.233   1.359   5.454
 6549SOL     OW20545   4.782   1.398   2.465
 6549SOL    HW120546   4.805   1.304   2.444
 6549SOL    HW220547   4.812   1.458   2.391
 6550SOL     OW20548   5.805   6.147   3.360
 6550SOL    HW120549   5.820   6.238   3.324
 6550SOL    HW220550   5.784   6.153   3.458
 6551SOL     OW20551   3.329   4.039   0.958
 6551SOL    HW120552   3.284   3.985   1.029
 6551SOL    HW220553   3.268   4.049   0.879
 6552SOL     OW20554   1.971   5.760   0.649
 6552SOL    HW120555   1.911   5.734   0.725
 6552SOL    HW220556   1.985   5.859   0.650
 6553SOL     OW20557   0.934   1.262   4.091
 6553SOL    HW120558   0.906   1.212   4.009
 6553SOL    HW220559   0.876   1.343   4.102
 6554SOL     OW20560   1.898   1.263   3.896
 6554SOL    HW120561   1.807   1.270   3.937
 6554SOL    HW220562   1.890   1.258   3.797
 6555SOL     OW20563   6.489   3.683   3.496
 6555SOL    HW120564   6.447   3.728   3.574
 6555SOL    HW220565   6.483   3.584   3.508
 6556SOL     OW20566   4.872   3.297   2.801
 6556SOL    HW120567   4.820   3.299   2.716
 6556SOL    HW220568   4.842   3.371   2.861
 6557SOL     OW20569   2.258   0.543   2.153
 6557SOL    HW120570   2.310   0.596   2.086
 6557SOL    HW220571   2.202   0.606   2.209
 6558SOL     OW20572   5.680   6.088   6.369
 6558SOL    HW120573   5.611   6.062   6.302
 6558SOL    HW220574   5.637   6.139   6.443
 6559SOL     OW20575   6.985   2.203   6.158
 6559SOL    HW120576   6.961   2.284   6.213
 6559SOL    HW220577   6.981   2.226   6.061
 6560SOL     OW20578   5.278   4.696   0.402
 6560SOL    HW120579   5.180   4.673   0.399
 6560SOL    HW220580   5.331   4.612   0.392
 6561SOL     OW20581   3.505   4.470   0.066
 6561SOL    HW120582   3.481   4.526   7.004
 6561SOL    HW220583   3.509   4.374   0.039
 6562SOL     OW20584   5.318   2.499   1.382
 6562SOL    HW120585   5.334   2.411   1.339
 6562SOL    HW220586   5.405   2.538   1.412
 6563SOL     OW20587   5.370   5.666   5.036
 6563SOL    HW120588   5.390   5.590   5.099
 6563SOL    HW220589   5.359   5.631   4.943
 6564SOL     OW20590   6.251   3.473   2.998
 6564SOL    HW120591   6.274   3.490   3.094
 6564SOL    HW220592   6.334   3.468   2.944
 6565SOL     OW20593   5.107   0.441   3.076
 6565SOL    HW120594   5.191   0.400   3.111
 6565SOL    HW220595   5.072   0.506   3.142
 6566SOL     OW20596   4.672   5.964   2.740
 6566SOL    HW120597   4.598   5.954   2.674
 6566SOL    HW220598   4.643   6.026   2.813
 6567SOL     OW20599   4.183   0.748   1.484
 6567SOL    HW120600   4.237   0.690   1.423
 6567SOL    HW220601   4.087   0.748   1.453
 6568SOL     OW20602   4.379   1.997   1.229
 6568SOL    HW120603   4.421   1.923   1.281
 6568SOL    HW220604   4.338   1.960   1.145
 6569SOL     OW20605   0.624   4.429   4.980
 6569SOL    HW120606   0.581   4.366   4.916
 6569SOL    HW220607   0.722   4.408   4.987
 6570SOL     OW20608   4.397   0.219   2.019
 6570SOL    HW120609   4.427   0.254   2.108
 6570SOL    HW220610   4.378   0.121   2.025
 6571SOL     OW20611   3.440   4.921   3.084
 6571SOL    HW120612   3.372   4.979   3.037
 6571SOL    HW220613   3.466   4.965   3.170
 6572SOL     OW20614   1.370   5.691   4.141
 6572SOL    HW120615   1.467   5.668   4.153
 6572SOL    HW220616   1.344   5.677   4.045
 6573SOL     OW20617   1.661   1.241   3.643
 6573SOL    HW120618   1.678   1.146   3.669
 6573SOL    HW220619   1.692   1.255   3.549
 6574SOL     OW20620   2.057   5.851   2.047
 6574SOL    HW120621   2.132   5.906   2.008
 6574SOL    HW220622   2.055   5.862   2.146
 6575SOL     OW20623   6.891   1.341   2.847
 6575SOL    HW120624   6.813   1.305   2.795
 6575SOL    HW220625   6.866   1.429   2.888
 6576SOL     OW20626   4.598   5.986   0.760
 6576SOL    HW120627   4.682   5.941   0.788
 6576SOL    HW220628   4.606   6.085   0.775
 6577SOL     OW20629   3.116   1.019   3.717
 6577SOL    HW120630   3.106   1.001   3.619
 6577SOL    HW220631   3.144   1.115   3.730
 6578SOL     OW20632   1.556   4.807   1.554
 6578SOL    HW120633   1.609   4.771   1.477
 6578SOL    HW220634   1.467   4.760   1.557
 6579SOL     OW20635   6.622   0.787   4.154
 6579SOL    HW120636   6.678   0.868   4.171
 6579SOL    HW220637   6.677   0.705   4.166
 6580SOL     OW20638   2.559   1.749   0.381
 6580SOL    HW120639   2.519   1.742   0.290
 6580SOL    HW220640   2.580   1.657   0.415
 6581SOL     OW20641   0.426   1.845   1.076
 6581SOL    HW120642   0.507   1.861   1.133
 6581SOL    HW220643   0.349   1.820   1.134
 6582SOL     OW20644   6.602   1.349   3.033
 6582SOL    HW120645   6.593   1.365   2.934
 6582SOL    HW220646   6.689   1.304   3.051
 6583SOL     OW20647   3.493   5.392   6.482
 6583SOL    HW120648   3.442   5.460   6.535
 6583SOL    HW220649   3.591   5.402   6.501
 6584SOL     OW20650   3.956   2.695   0.561
 6584SOL    HW120651   4.034   2.683   0.623
 6584SOL    HW220652   3.917   2.786   0.574
 6585SOL     OW20653   5.645   6.555   1.151
 6585SOL    HW120654   5.730   6.607   1.156
 6585SOL    HW220655   5.622   6.518   1.241
 6586SOL     OW20656   6.987   2.011   6.562
 6586SOL    HW120657   6.900   2.060   6.551
 6586SOL    HW220658   0.011   2.034   6.650
 6587SOL     OW20659   1.803   4.749   5.643
 6587SOL    HW120660   1.765   4.677   5.701
 6587SOL    HW220661   1.862   4.808   5.698
 6588SOL     OW20662   6.695   3.107   0.488
 6588SOL    HW120663   6.749   3.162   0.552
 6588SOL    HW220664   6.686   3.014   0.524
 6589SOL     OW20665   6.719   0.236   2.192
 6589SOL    HW120666   6.628   0.212   2.159
 6589SOL    HW220667   6.716   0.326   2.236
 6590SOL     OW20668   1.316   6.428   3.672
 6590SOL    HW120669   1.352   6.520   3.659
 6590SOL    HW220670   1.391   6.366   3.697
 6591SOL     OW20671   5.941   4.085   4.074
 6591SOL    HW120672   6.036   4.053   4.074
 6591SOL    HW220673   5.914   4.107   4.168
 6592SOL     OW20674   6.018   0.018   3.165
 6592SOL    HW120675   6.023   0.116   3.186
 6592SOL    HW220676   6.090   7.010   3.100
 6593SOL     OW20677   2.709   1.648   1.993
 6593SOL    HW120678   2.717   1.717   2.065
 6593SOL    HW220679   2.710   1.557   2.034
 6594SOL     OW20680   5.132   0.601   6.207
 6594SOL    HW120681   5.081   0.602   6.293
 6594SOL    HW220682   5.119   0.689   6.160
 6595SOL     OW20683   0.979   2.162   5.506
 6595SOL    HW120684   0.916   2.183   5.431
 6595SOL    HW220685   1.073   2.157   5.471
 6596SOL     OW20686   5.816   6.895   2.599
 6596SOL    HW120687   5.836   6.992   2.597
 6596SOL    HW220688   5.735   6.878   2.656
 6597SOL     OW20689   0.970   4.342   2.356
 6597SOL    HW120690   0.914   4.272   2.312
 6597SOL    HW220691   0.918   4.382   2.432
 6598SOL     OW20692   1.346   4.507   4.081
 6598SOL    HW120693   1.291   4.447   4.140
 6598SOL    HW220694   1.302   4.596   4.074
 6599SOL     OW20695   5.996   5.173   6.276
 6599SOL    HW120696   6.051   5.096   6.245
 6599SOL    HW220697   6.056   5.243   6.317
 6600SOL     OW20698   4.311   0.272   5.210
 6600SOL    HW120699   4.331   0.191   5.156
 6600SOL    HW220700   4.345   0.260   5.303
 6601SOL     OW20701   1.612   2.247   1.537
 6601SOL    HW120702   1.583   2.159   1.575
 6601SOL    HW220703   1.684   2.232   1.470
 6602SOL     OW20704   1.178   5.999   1.900
 6602SOL    HW120705   1.212   5.981   1.992
 6602SOL    HW220706   1.255   6.007   1.837
 6603SOL     OW20707   0.250   3.574   3.033
 6603SOL    HW120708   0.274   3.671   3.035
 6603SOL    HW220709   0.235   3.545   2.938
 6604SOL     OW20710   2.534   6.203   2.626
 6604SOL    HW120711   2.563   6.227   2.533
 6604SOL    HW220712   2.501   6.285   2.672
 6605SOL     OW20713   6.775   5.301   0.894
 6605SOL    HW120714   6.834   5.368   0.937
 6605SOL    HW220715   6.831   5.235   0.843
 6606SOL     OW20716   1.572   3.236   3.241
 6606SOL    HW120717   1.514   3.318   3.239
 6606SOL    HW220718   1.668   3.264   3.231
 6607SOL     OW20719   6.010   3.922   3.357
 6607SOL    HW120720   6.097   3.883   3.328
 6607SOL    HW220721   5.963   3.857   3.417
 6608SOL     OW20722   1.245   5.754   6.186
 6608SOL    HW120723   1.281   5.809   6.262
 6608SOL    HW220724   1.158   5.792   6.156
 6609SOL     OW20725   4.773   1.639   6.174
 6609SOL    HW120726   4.760   1.595   6.085
 6609SOL    HW220727   4.858   1.693   6.172
 6610SOL     OW20728   3.101   5.310   0.798
 6610SOL    HW120729   3.061   5.221   0.774
 6610SOL    HW220730   3.079   5.331   0.893
 6611SOL     OW20731   3.949   1.748   4.773
 6611SOL    HW120732   3.965   1.661   4.726
 6611SOL    HW220733   3.859   1.783   4.749
 6612SOL     OW20734   0.409   0.815   6.207
 6612SOL    HW120735   0.431   0.795   6.303
 6612SOL    HW220736   0.463   0.894   6.177
 6613SOL     OW20737   4.657   6.416   0.348
 6613SOL    HW120738   4.626   6.442   0.256
 6613SOL    HW220739   4.680   6.498   0.400
 6614SOL     OW20740   4.367   5.729   0.978
 6614SOL    HW120741   4.344   5.825   0.996
 6614SOL    HW220742   4.339   5.673   1.056
 6615SOL     OW20743   3.528   4.726   6.467
 6615SOL    HW120744   3.583   4.768   6.395
 6615SOL    HW220745   3.466   4.659   6.426
 6616SOL     OW20746   4.000   1.072   5.615
 6616SOL    HW120747   4.002   1.169   5.592
 6616SOL    HW220748   3.913   1.033   5.586
 6617SOL     OW20749   4.002   0.331   3.986
 6617SOL    HW120750   4.017   0.366   4.078
 6617SOL    HW220751   4.064   0.254   3.968
 6618SOL     OW20752   6.686   2.730   3.984
 6618SOL    HW120753   6.711   2.742   4.080
 6618SOL    HW220754   6.634   2.645   3.973
 6619SOL     OW20755   4.794   6.125   4.233
 6619SOL    HW120756   4.839   6.167   4.153
 6619SOL    HW220757   4.714   6.178   4.258
 6620SOL     OW20758   0.598   3.174   3.351
 6620SOL    HW120759   0.595   3.235   3.272
 6620SOL    HW220760   0.625   3.225   3.432
 6621SOL     OW20761   4.055   3.293   4.805
 6621SOL    HW120762   4.058   3.266   4.901
 6621SOL    HW220763   4.056   3.211   4.748
 6622SOL     OW20764   0.603   5.723   0.764
 6622SOL    HW120765   0.515   5.703   0.807
 6622SOL    HW220766   0.617   5.663   0.685
 6623SOL     OW20767   3.324   3.427   5.501
 6623SOL    HW120768   3.281   3.484   5.431
 6623SOL    HW220769   3.254   3.379   5.553
 6624SOL     OW20770   2.074   1.654   3.385
 6624SOL    HW120771   2.010   1.596   3.435
 6624SOL    HW220772   2.129   1.598   3.323
 6625SOL     OW20773   6.002   3.869   5.720
 6625SOL    HW120774   6.042   3.777   5.723
 6625SOL    HW220775   5.913   3.868   5.767
 6626SOL     OW20776   2.770   6.120   5.437
 6626SOL    HW120777   2.767   6.051   5.510
 6626SOL    HW220778   2.678   6.151   5.417
 6627SOL     OW20779   1.846   5.840   4.397
 6627SOL    HW120780   1.751   5.808   4.405
 6627SOL    HW220781   1.890   5.794   4.320
 6628SOL     OW20782   3.975   6.195   4.641
 6628SOL    HW120783   4.066   6.170   4.607
 6628SOL    HW220784   3.981   6.220   4.737
 6629SOL     OW20785   4.685   6.431   6.404
 6629SOL    HW120786   4.608   6.427   6.468
 6629SOL    HW220787   4.697   6.525   6.372
 6630SOL     OW20788   1.653   0.760   0.781
 6630SOL    HW120789   1.658   0.833   0.848
 6630SOL    HW220790   1.598   0.685   0.818
 6631SOL     OW20791   1.448   3.608   6.146
 6631SOL    HW120792   1.361   3.644   6.110
 6631SOL    HW220793   1.520   3.676   6.132
 6632SOL     OW20794   0.860   0.852   0.897
 6632SOL    HW120795   0.787   0.868   0.963
 6632SOL    HW220796   0.824   0.861   0.804
 6633SOL     OW20797   3.593   5.508   5.698
 6633SOL    HW120798   3.541   5.425   5.676
 6633SOL    HW220799   3.642   5.494   5.784
 6634SOL     OW20800   3.851   1.553   4.137
 6634SOL    HW120801   3.790   1.600   4.201
 6634SOL    HW220802   3.909   1.620   4.090
 6635SOL     OW20803   5.203   4.957   3.981
 6635SOL    HW120804   5.276   4.907   4.026
 6635SOL    HW220805   5.204   4.938   3.882
 6636SOL     OW20806   4.173   0.642   6.616
 6636SOL    HW120807   4.090   0.645   6.560
 6636SOL    HW220808   4.150   0.669   6.710
 6637SOL     OW20809   1.196   1.691   1.394
 6637SOL    HW120810   1.226   1.755   1.323
 6637SOL    HW220811   1.221   1.728   1.484
 6638SOL     OW20812   3.354   3.472   3.778
 6638SOL    HW120813   3.297   3.507   3.704
 6638SOL    HW220814   3.377   3.377   3.761
 6639SOL     OW20815   4.976   2.703   1.305
 6639SOL    HW120816   4.905   2.732   1.369
 6639SOL    HW220817   5.066   2.716   1.346
 6640SOL     OW20818   1.586   3.509   4.951
 6640SOL    HW120819   1.592   3.427   4.894
 6640SOL    HW220820   1.569   3.588   4.892
 6641SOL     OW20821   4.985   2.058   1.382
 6641SOL    HW120822   5.050   2.077   1.455
 6641SOL    HW220823   5.034   2.023   1.302
 6642SOL     OW20824   1.144   5.799   0.208
 6642SOL    HW120825   1.160   5.897   0.197
 6642SOL    HW220826   1.183   5.768   0.294
 6643SOL     OW20827   3.923   5.606   6.365
 6643SOL    HW120828   3.951   5.654   6.281
 6643SOL    HW220829   3.867   5.668   6.420
 6644SOL     OW20830   1.724   6.828   3.647
 6644SOL    HW120831   1.706   6.767   3.569
 6644SOL    HW220832   1.822   6.843   3.655
 6645SOL     OW20833   6.089   2.642   0.594
 6645SOL    HW120834   6.105   2.574   0.666
 6645SOL    HW220835   6.019   2.706   0.623
 6646SOL     OW20836   4.292   6.999   5.935
 6646SOL    HW120837   4.263   6.904   5.933
 6646SOL    HW220838   4.213   0.042   5.919
 6647SOL     OW20839   4.423   5.385   0.876
 6647SOL    HW120840   4.501   5.447   0.888
 6647SOL    HW220841   4.456   5.299   0.836
 6648SOL     OW20842   3.057   6.319   6.219
 6648SOL    HW120843   2.962   6.288   6.221
 6648SOL    HW220844   3.115   6.254   6.269
 6649SOL     OW20845   5.280   3.469   6.805
 6649SOL    HW120846   5.351   3.466   6.875
 6649SOL    HW220847   5.315   3.428   6.720
 6650SOL     OW20848   2.198   1.871   4.927
 6650SOL    HW120849   2.107   1.830   4.927
 6650SOL    HW220850   2.221   1.901   4.834
 6651SOL     OW20851   6.473   1.589   6.591
 6651SOL    HW120852   6.416   1.654   6.641
 6651SOL    HW220853   6.514   1.525   6.656
 6652SOL     OW20854   0.309   4.660   0.640
 6652SOL    HW120855   0.240   4.592   0.665
 6652SOL    HW220856   0.303   4.678   0.542
 6653SOL     OW20857   5.688   4.570   0.400
 6653SOL    HW120858   5.602   4.613   0.372
 6653SOL    HW220859   5.755   4.641   0.423
 6654SOL     OW20860   6.435   4.245   3.373
 6654SOL    HW120861   6.494   4.316   3.412
 6654SOL    HW220862   6.341   4.260   3.403
 6655SOL     OW20863   6.822   4.753   2.201
 6655SOL    HW120864   6.825   4.853   2.200
 6655SOL    HW220865   6.908   4.716   2.166
 6656SOL     OW20866   4.668   1.361   3.135
 6656SOL    HW120867   4.683   1.454   3.101
 6656SOL    HW220868   4.750   1.329   3.181
 6657SOL     OW20869   5.173   2.136   3.661
 6657SOL    HW120870   5.239   2.209   3.643
 6657SOL    HW220871   5.111   2.128   3.583
 6658SOL     OW20872   6.668   6.020   5.698
 6658SOL    HW120873   6.646   5.940   5.642
 6658SOL    HW220874   6.752   6.004   5.749
 6659SOL     OW20875   0.881   5.133   2.311
 6659SOL    HW120876   0.864   5.176   2.222
 6659SOL    HW220877   0.871   5.201   2.383
 6660SOL     OW20878   6.673   6.491   3.707
 6660SOL    HW120879   6.594   6.480   3.767
 6660SOL    HW220880   6.755   6.502   3.763
 6661SOL     OW20881   3.432   5.516   4.207
 6661SOL    HW120882   3.496   5.590   4.227
 6661SOL    HW220883   3.402   5.474   4.293
 6662SOL     OW20884   4.143   6.745   2.136
 6662SOL    HW120885   4.045   6.742   2.115
 6662SOL    HW220886   4.167   6.667   2.194
 6663SOL     OW20887   1.431   3.882   5.883
 6663SOL    HW120888   1.351   3.825   5.900
 6663SOL    HW220889   1.402   3.977   5.872
 6664SOL     OW20890   3.035   0.143   1.127
 6664SOL    HW120891   2.947   0.138   1.175
 6664SOL    HW220892   3.036   0.077   1.052
 6665SOL     OW20893   2.390   0.694   6.041
 6665SOL    HW120894   2.480   0.660   6.068
 6665SOL    HW220895   2.399   0.783   5.997
 6666SOL     OW20896   4.038   6.402   5.173
 6666SOL    HW120897   4.016   6.465   5.100
 6666SOL    HW220898   4.136   6.408   5.194
 6667SOL     OW20899   0.152   6.476   0.027
 6667SOL    HW120900   0.109   6.429   6.967
 6667SOL    HW220901   0.247   6.499   0.004
 6668SOL     OW20902   0.404   5.038   0.534
 6668SOL    HW120903   0.496   4.999   0.522
 6668SOL    HW220904   0.371   5.073   0.447
 6669SOL     OW20905   1.329   1.273   3.166
 6669SOL    HW120906   1.338   1.216   3.248
 6669SOL    HW220907   1.302   1.366   3.194
 6670SOL     OW20908   4.235   2.414   1.013
 6670SOL    HW120909   4.212   2.378   1.103
 6670SOL    HW220910   4.303   2.486   1.022
 6671SOL     OW20911   4.824   5.775   0.590
 6671SOL    HW120912   4.830   5.808   0.684
 6671SOL    HW220913   4.831   5.852   0.527
 6672SOL     OW20914   2.027   2.415   0.896
 6672SOL    HW120915   2.102   2.351   0.879
 6672SOL    HW220916   2.027   2.486   0.825
 6673SOL     OW20917   6.124   3.096   3.968
 6673SOL    HW120918   6.077   3.010   3.947
 6673SOL    HW220919   6.093   3.166   3.904
 6674SOL     OW20920   0.265   1.666   0.218
 6674SOL    HW120921   0.300   1.757   0.196
 6674SOL    HW220922   0.316   1.629   0.295
 6675SOL     OW20923   5.657   1.447   6.658
 6675SOL    HW120924   5.578   1.505   6.675
 6675SOL    HW220925   5.629   1.364   6.610
 6676SOL     OW20926   1.231   3.741   3.355
 6676SOL    HW120927   1.170   3.663   3.337
 6676SOL    HW220928   1.273   3.770   3.269
 6677SOL     OW20929   0.637   1.537   0.235
 6677SOL    HW120930   0.603   1.473   0.166
 6677SOL    HW220931   0.560   1.575   0.286
 6678SOL     OW20932   2.040   3.955   0.000
 6678SOL    HW120933   2.035   3.920   6.923
 6678SOL    HW220934   1.996   3.891   0.063
 6679SOL     OW20935   2.129   0.787   4.091
 6679SOL    HW120936   2.050   0.731   4.065
 6679SOL    HW220937   2.111   0.882   4.069
 6680SOL     OW20938   5.812   0.052   1.416
 6680SOL    HW120939   5.771   0.009   1.335
 6680SOL    HW220940   5.904   0.016   1.430
 6681SOL     OW20941   3.244   6.086   1.581
 6681SOL    HW120942   3.284   6.075   1.490
 6681SOL    HW220943   3.179   6.012   1.598
 6682SOL     OW20944   3.152   4.991   6.052
 6682SOL    HW120945   3.063   4.954   6.080
 6682SOL    HW220946   3.208   4.916   6.015
 6683SOL     OW20947   6.818   3.840   6.373
 6683SOL    HW120948   6.865   3.909   6.429
 6683SOL    HW220949   6.851   3.846   6.279
 6684SOL     OW20950   3.014   6.403   0.399
 6684SOL    HW120951   2.970   6.393   0.489
 6684SOL    HW220952   3.104   6.444   0.411
 6685SOL     OW20953   5.026   3.439   0.083
 6685SOL    HW120954   5.112   3.483   0.057
 6685SOL    HW220955   5.041   3.386   0.167
 6686SOL     OW20956   4.752   5.178   4.053
 6686SOL    HW120957   4.836   5.138   4.090
 6686SOL    HW220958   4.699   5.106   4.006
 6687SOL     OW20959   6.499   2.226   1.859
 6687SOL    HW120960   6.544   2.307   1.819
 6687SOL    HW220961   6.491   2.238   1.958
 6688SOL     OW20962   4.662   5.391   0.296
 6688SOL    HW120963   4.573   5.345   0.300
 6688SOL    HW220964   4.670   5.454   0.373
 6689SOL     OW20965   2.062   4.515   5.901
 6689SOL    HW120966   2.096   4.460   5.824
 6689SOL    HW220967   2.094   4.609   5.891
 6690SOL     OW20968   0.711   6.915   5.858
 6690SOL    HW120969   0.648   6.932   5.783
 6690SOL    HW220970   0.660   6.881   5.937
 6691SOL     OW20971   2.552   2.430   2.695
 6691SOL    HW120972   2.637   2.426   2.643
 6691SOL    HW220973   2.558   2.370   2.775
 6692SOL     OW20974   4.655   5.044   1.756
 6692SOL    HW120975   4.715   5.008   1.685
 6692SOL    HW220976   4.599   5.118   1.718
 6693SOL     OW20977   4.114   1.501   4.684
 6693SOL    HW120978   4.167   1.586   4.682
 6693SOL    HW220979   4.143   1.442   4.609
 6694SOL     OW20980   3.415   4.298   1.425
 6694SOL    HW120981   3.440   4.257   1.337
 6694SOL    HW220982   3.357   4.234   1.476
 6695SOL     OW20983   2.098   1.918   6.259
 6695SOL    HW120984   2.168   1.889   6.193
 6695SOL    HW220985   2.131   1.998   6.309
 6696SOL     OW20986   4.063   3.669   4.544
 6696SOL    HW120987   4.087   3.572   4.553
 6696SOL    HW220988   4.042   3.689   4.449
 6697SOL     OW20989   4.259   2.228   2.984
 6697SOL    HW120990   4.217   2.141   2.958
 6697SOL    HW220991   4.236   2.248   3.080
 6698SOL     OW20992   3.521   3.862   1.317
 6698SOL    HW120993   3.537   3.885   1.413
 6698SOL    HW220994   3.603   3.881   1.263
 6699SOL     OW20995   1.119   4.158   5.776
 6699SOL    HW120996   1.211   4.169   5.739
 6699SOL    HW220997   1.057   4.222   5.729
 6700SOL     OW20998   5.822   6.921   6.953
 6700SOL    HW120999   5.828   6.837   6.899
 6700SOL    HW221000   5.914   6.958   6.969
 6701SOL     OW21001   5.866   0.782   1.468
 6701SOL    HW121002   5.959   0.772   1.503
 6701SOL    HW221003   5.866   0.772   1.369
 6702SOL     OW21004   3.001   2.811   1.110
 6702SOL    HW121005   3.037   2.837   1.200
 6702SOL    HW221006   3.036   2.720   1.085
 6703SOL     OW21007   0.343   1.253   0.011
 6703SOL    HW121008   0.331   1.168   6.975
 6703SOL    HW221009   0.271   1.318   7.002
 6704SOL     OW21010   2.792   0.378   5.567
 6704SOL    HW121011   2.819   0.286   5.538
 6704SOL    HW221012   2.868   0.420   5.617
 6705SOL     OW21013   6.415   3.754   2.124
 6705SOL    HW121014   6.461   3.668   2.145
 6705SOL    HW221015   6.329   3.759   2.176
 6706SOL     OW21016   0.310   6.751   1.785
 6706SOL    HW121017   0.379   6.807   1.740
 6706SOL    HW221018   0.299   6.781   1.879
 6707SOL     OW21019   5.407   0.347   2.167
 6707SOL    HW121020   5.349   0.423   2.141
 6707SOL    HW221021   5.352   0.276   2.212
 6708SOL     OW21022   0.769   4.055   1.293
 6708SOL    HW121023   0.803   3.961   1.301
 6708SOL    HW221024   0.843   4.114   1.262
 6709SOL     OW21025   1.906   5.032   2.856
 6709SOL    HW121026   1.921   4.985   2.943
 6709SOL    HW221027   1.948   4.980   2.782
 6710SOL     OW21028   4.066   1.062   0.796
 6710SOL    HW121029   4.157   1.038   0.831
 6710SOL    HW221030   4.055   1.025   0.704
 6711SOL     OW21031   3.500   5.546   6.243
 6711SOL    HW121032   3.490   5.490   6.326
 6711SOL    HW221033   3.410   5.579   6.214
 6712SOL     OW21034   6.053   3.760   1.286
 6712SOL    HW121035   6.075   3.754   1.189
 6712SOL    HW221036   6.040   3.668   1.323
 6713SOL     OW21037   1.864   6.466   4.628
 6713SOL    HW121038   1.819   6.382   4.598
 6713SOL    HW221039   1.956   6.470   4.588
 6714SOL     OW21040   5.057   1.564   1.154
 6714SOL    HW121041   5.135   1.618   1.188
 6714SOL    HW221042   5.073   1.467   1.172
 6715SOL     OW21043   1.509   0.974   0.308
 6715SOL    HW121044   1.434   1.039   0.313
 6715SOL    HW221045   1.541   0.952   0.401
 6716SOL     OW21046   6.822   5.294   2.837
 6716SOL    HW121047   6.838   5.278   2.934
 6716SOL    HW221048   6.729   5.330   2.824
 6717SOL     OW21049   4.930   1.927   5.596
 6717SOL    HW121050   4.943   2.025   5.580
 6717SOL    HW221051   4.838   1.910   5.630
 6718SOL     OW21052   3.518   0.831   1.950
 6718SOL    HW121053   3.435   0.887   1.945
 6718SOL    HW221054   3.564   0.847   2.037
 6719SOL     OW21055   2.006   0.742   0.092
 6719SOL    HW121056   1.954   0.769   0.011
 6719SOL    HW221057   1.943   0.722   0.168
 6720SOL     OW21058   1.426   0.501   6.294
 6720SOL    HW121059   1.480   0.519   6.212
 6720SOL    HW221060   1.486   0.461   6.364
 6721SOL     OW21061   6.765   1.339   0.190
 6721SOL    HW121062   6.739   1.373   0.280
 6721SOL    HW221063   6.845   1.390   0.157
 6722SOL     OW21064   6.437   3.190   0.469
 6722SOL    HW121065   6.389   3.102   0.463
 6722SOL    HW221066   6.534   3.177   0.448
 6723SOL     OW21067   1.375   2.524   6.333
 6723SOL    HW121068   1.366   2.436   6.286
 6723SOL    HW221069   1.360   2.599   6.268
 6724SOL     OW21070   2.048   3.404   5.610
 6724SOL    HW121071   2.147   3.410   5.626
 6724SOL    HW221072   2.028   3.431   5.516
 6725SOL     OW21073   5.101   2.724   3.915
 6725SOL    HW121074   5.100   2.624   3.909
 6725SOL    HW221075   5.056   2.762   3.834
 6726SOL     OW21076   0.222   1.032   5.534
 6726SOL    HW121077   0.262   0.951   5.493
 6726SOL    HW221078   0.135   1.053   5.488
 6727SOL     OW21079   1.027   4.993   5.800
 6727SOL    HW121080   1.020   4.948   5.711
 6727SOL    HW221081   1.045   4.924   5.871
 6728SOL     OW21082   3.751   1.875   3.784
 6728SOL    HW121083   3.668   1.833   3.748
 6728SOL    HW221084   3.787   1.941   3.717
 6729SOL     OW21085   4.925   1.393   2.039
 6729SOL    HW121086   4.929   1.464   2.109
 6729SOL    HW221087   4.915   1.435   1.949
 6730SOL     OW21088   0.258   1.244   1.855
 6730SOL    HW121089   0.170   1.290   1.845
 6730SOL    HW221090   0.292   1.215   1.766
 6731SOL     OW21091   3.731   6.600   6.550
 6731SOL    HW121092   3.733   6.501   6.545
 6731SOL    HW221093   3.729   6.629   6.645
 6732SOL     OW21094   6.822   5.750   4.546
 6732SOL    HW121095   6.808   5.651   4.552
 6732SOL    HW221096   6.846   5.774   4.452
 6733SOL     OW21097   4.849   5.294   6.340
 6733SOL    HW121098   4.821   5.390   6.345
 6733SOL    HW221099   4.877   5.272   6.246
 6734SOL     OW21100   6.480   1.266   4.419
 6734SOL    HW121101   6.431   1.347   4.451
 6734SOL    HW221102   6.437   1.184   4.457
 6735SOL     OW21103   6.251   2.764   3.709
 6735SOL    HW121104   6.223   2.744   3.615
 6735SOL    HW221105   6.350   2.774   3.713
 6736SOL     OW21106   3.494   3.908   0.723
 6736SOL    HW121107   3.415   3.968   0.733
 6736SOL    HW221108   3.475   3.820   0.766
 6737SOL     OW21109   0.387   3.825   0.903
 6737SOL    HW121110   0.449   3.862   0.835
 6737SOL    HW221111   0.380   3.888   0.980
 6738SOL     OW21112   1.795   5.704   3.697
 6738SOL    HW121113   1.796   5.604   3.690
 6738SOL    HW221114   1.701   5.737   3.691
 6739SOL     OW21115   6.255   6.931   4.704
 6739SOL    HW121116   6.255   6.833   4.720
 6739SOL    HW221117   6.342   6.970   4.732
 6740SOL     OW21118   0.384   6.669   3.765
 6740SOL    HW121119   0.326   6.645   3.688
 6740SOL    HW221120   0.360   6.760   3.799
 6741SOL     OW21121   4.405   2.121   6.287
 6741SOL    HW121122   4.501   2.096   6.273
 6741SOL    HW221123   4.351   2.039   6.305
 6742SOL     OW21124   5.578   4.547   3.517
 6742SOL    HW121125   5.622   4.512   3.599
 6742SOL    HW221126   5.479   4.533   3.524
 6743SOL     OW21127   4.483   3.832   0.730
 6743SOL    HW121128   4.430   3.906   0.686
 6743SOL    HW221129   4.531   3.780   0.659
 6744SOL     OW21130   0.261   6.151   6.005
 6744SOL    HW121131   0.324   6.127   6.079
 6744SOL    HW221132   0.170   6.168   6.043
 6745SOL     OW21133   6.881   5.538   4.966
 6745SOL    HW121134   6.891   5.599   5.044
 6745SOL    HW221135   6.966   5.487   4.951
 6746SOL     OW21136   1.696   1.772   2.719
 6746SOL    HW121137   1.695   1.817   2.809
 6746SOL    HW221138   1.739   1.833   2.652
 6747SOL     OW21139   1.689   6.366   5.895
 6747SOL    HW121140   1.636   6.451   5.905
 6747SOL    HW221141   1.692   6.318   5.983
 6748SOL     OW21142   2.174   1.346   4.480
 6748SOL    HW121143   2.269   1.375   4.478
 6748SOL    HW221144   2.134   1.354   4.388
 6749SOL     OW21145   3.509   4.749   1.003
 6749SOL    HW121146   3.452   4.726   1.082
 6749SOL    HW221147   3.600   4.775   1.034
 6750SOL     OW21148   3.143   0.827   4.956
 6750SOL    HW121149   3.216   0.881   4.914
 6750SOL    HW221150   3.142   0.844   5.055
 6751SOL     OW21151   4.231   0.181   4.078
 6751SOL    HW121152   4.255   0.084   4.077
 6751SOL    HW221153   4.222   0.213   4.172
 6752SOL     OW21154   2.221   6.101   2.154
 6752SOL    HW121155   2.319   6.106   2.172
 6752SOL    HW221156   2.173   6.074   2.237
 6753SOL     OW21157   4.043   3.218   5.533
 6753SOL    HW121158   3.952   3.219   5.491
 6753SOL    HW221159   4.034   3.204   5.632
 6754SOL     OW21160   5.941   1.954   1.401
 6754SOL    HW121161   5.948   2.049   1.433
 6754SOL    HW221162   5.976   1.892   1.471
 6755SOL     OW21163   2.281   5.513   6.342
 6755SOL    HW121164   2.215   5.440   6.325
 6755SOL    HW221165   2.233   5.600   6.351
 6756SOL     OW21166   2.522   2.515   5.317
 6756SOL    HW121167   2.494   2.569   5.237
 6756SOL    HW221168   2.621   2.511   5.322
 6757SOL     OW21169   3.280   6.961   0.485
 6757SOL    HW121170   3.267   0.038   0.453
 6757SOL    HW221171   3.370   6.928   0.455
 6758SOL     OW21172   5.950   2.400   2.697
 6758SOL    HW121173   5.854   2.422   2.680
 6758SOL    HW221174   5.958   2.346   2.781
 6759SOL     OW21175   0.741   3.159   2.661
 6759SOL    HW121176   0.691   3.193   2.581
 6759SOL    HW221177   0.676   3.142   2.735
 6760SOL     OW21178   5.489   2.311   2.975
 6760SOL    HW121179   5.545   2.378   3.024
 6760SOL    HW221180   5.393   2.322   3.000
 6761SOL     OW21181   4.549   2.054   4.763
 6761SOL    HW121182   4.557   2.111   4.846
 6761SOL    HW221183   4.455   2.060   4.728
 6762SOL     OW21184   6.731   5.638   4.101
 6762SOL    HW121185   6.776   5.554   4.073
 6762SOL    HW221186   6.779   5.717   4.062
 6763SOL     OW21187   4.972   5.382   5.190
 6763SOL    HW121188   5.032   5.448   5.236
 6763SOL    HW221189   4.942   5.419   5.102
 6764SOL     OW21190   1.893   5.210   0.770
 6764SOL    HW121191   1.803   5.194   0.729
 6764SOL    HW221192   1.882   5.233   0.866
 6765SOL     OW21193   6.236   4.949   3.062
 6765SOL    HW121194   6.312   4.919   3.120
 6765SOL    HW221195   6.182   4.869   3.034
 6766SOL     OW21196   5.097   0.480   0.409
 6766SOL    HW121197   5.020   0.534   0.443
 6766SOL    HW221198   5.066   0.387   0.388
 6767SOL     OW21199   3.187   0.682   0.616
 6767SOL    HW121200   3.092   0.680   0.648
 6767SOL    HW221201   3.242   0.739   0.676
 6768SOL     OW21202   1.546   0.886   1.029
 6768SOL    HW121203   1.508   0.967   0.983
 6768SOL    HW221204   1.625   0.914   1.084
 6769SOL     OW21205   4.190   2.769   1.610
 6769SOL    HW121206   4.173   2.847   1.669
 6769SOL    HW221207   4.104   2.736   1.571
 6770SOL     OW21208   6.874   0.295   1.967
 6770SOL    HW121209   6.914   0.209   1.999
 6770SOL    HW221210   6.805   0.326   2.032
 6771SOL     OW21211   3.999   2.083   3.323
 6771SOL    HW121212   4.049   1.997   3.331
 6771SOL    HW221213   3.921   2.071   3.261
 6772SOL     OW21214   2.921   1.861   2.709
 6772SOL    HW121215   2.892   1.806   2.787
 6772SOL    HW221216   2.970   1.803   2.644
 6773SOL     OW21217   6.936   4.243   2.199
 6773SOL    HW121218   6.842   4.212   2.183
 6773SOL    HW221219   6.965   4.216   2.291
 6774SOL     OW21220   0.692   1.950   0.032
 6774SOL    HW121221   0.785   1.935   7.016
 6774SOL    HW221222   0.684   1.918   0.126
 6775SOL     OW21223   2.682   4.701   1.027
 6775SOL    HW121224   2.644   4.665   0.941
 6775SOL    HW221225   2.609   4.705   1.095
 6776SOL     OW21226   5.924   5.372   0.003
 6776SOL    HW121227   6.011   5.393   0.047
 6776SOL    HW221228   5.873   5.308   0.060
 6777SOL     OW21229   4.696   4.572   6.386
 6777SOL    HW121230   4.656   4.570   6.294
 6777SOL    HW221231   4.682   4.662   6.427
 6778SOL     OW21232   0.667   5.228   2.894
 6778SOL    HW121233   0.609   5.292   2.943
 6778SOL    HW221234   0.714   5.169   2.960
 6779SOL     OW21235   0.296   4.866   0.182
 6779SOL    HW121236   0.309   4.963   0.166
 6779SOL    HW221237   0.336   4.814   0.106
 6780SOL     OW21238   0.327   2.758   2.662
 6780SOL    HW121239   0.262   2.778   2.736
 6780SOL    HW221240   0.350   2.843   2.615
 6781SOL     OW21241   5.167   6.165   6.181
 6781SOL    HW121242   5.139   6.069   6.173
 6781SOL    HW221243   5.148   6.212   6.095
 6782SOL     OW21244   0.010   1.369   2.599
 6782SOL    HW121245   0.087   1.353   2.660
 6782SOL    HW221246   0.012   1.464   2.567
 6783SOL     OW21247   0.109   6.354   6.781
 6783SOL    HW121248   0.130   6.402   6.696
 6783SOL    HW221249   0.119   6.255   6.768
 6784SOL     OW21250   4.048   3.893   0.532
 6784SOL    HW121251   4.090   3.808   0.566
 6784SOL    HW221252   3.982   3.926   0.600
 6785SOL     OW21253   5.898   5.810   2.083
 6785SOL    HW121254   5.808   5.816   2.127
 6785SOL    HW221255   5.948   5.731   2.118
 6786SOL     OW21256   1.511   2.913   6.272
 6786SOL    HW121257   1.445   2.894   6.345
 6786SOL    HW221258   1.486   2.998   6.226
 6787SOL     OW21259   1.377   3.694   2.037
 6787SOL    HW121260   1.416   3.695   2.129
 6787SOL    HW221261   1.448   3.714   1.970
 6788SOL     OW21262   3.105   3.678   1.516
 6788SOL    HW121263   3.115   3.776   1.534
 6788SOL    HW221264   3.064   3.633   1.595
 6789SOL     OW21265   0.944   6.738   2.523
 6789SOL    HW121266   0.972   6.834   2.530
 6789SOL    HW221267   0.869   6.730   2.457
 6790SOL     OW21268   1.795   3.000   0.006
 6790SOL    HW121269   1.848   2.916   0.019
 6790SOL    HW221270   1.707   2.977   6.981
 6791SOL     OW21271   4.581   3.105   6.680
 6791SOL    HW121272   4.606   3.097   6.583
 6791SOL    HW221273   4.550   3.016   6.713
 6792SOL     OW21274   5.921   6.620   0.094
 6792SOL    HW121275   6.001   6.571   0.060
 6792SOL    HW221276   5.841   6.597   0.039
 6793SOL     OW21277   1.331   2.715   1.271
 6793SOL    HW121278   1.395   2.760   1.209
 6793SOL    HW221279   1.286   2.639   1.224
 6794SOL     OW21280   5.052   0.886   4.933
 6794SOL    HW121281   5.052   0.927   4.842
 6794SOL    HW221282   5.095   0.795   4.928
 6795SOL     OW21283   3.013   5.746   0.443
 6795SOL    HW121284   3.100   5.732   0.490
 6795SOL    HW221285   2.940   5.754   0.511
 6796SOL     OW21286   5.282   1.570   2.895
 6796SOL    HW121287   5.271   1.656   2.845
 6796SOL    HW221288   5.193   1.527   2.908
 6797SOL     OW21289   5.767   3.611   1.897
 6797SOL    HW121290   5.840   3.559   1.853
 6797SOL    HW221291   5.752   3.696   1.845
 6798SOL     OW21292   5.125   5.742   2.115
 6798SOL    HW121293   5.069   5.765   2.194
 6798SOL    HW221294   5.096   5.655   2.076
 6799SOL     OW21295   5.363   5.863   0.232
 6799SOL    HW121296   5.318   5.819   0.310
 6799SOL    HW221297   5.314   5.947   0.209
 6800SOL     OW21298   1.804   4.683   0.288
 6800SOL    HW121299   1.712   4.720   0.276
 6800SOL    HW221300   1.815   4.599   0.235
 6801SOL     OW21301   1.483   2.633   2.117
 6801SOL    HW121302   1.457   2.714   2.064
 6801SOL    HW221303   1.562   2.588   2.075
 6802SOL     OW21304   2.127   6.450   1.551
 6802SOL    HW121305   2.138   6.550   1.556
 6802SOL    HW221306   2.182   6.415   1.476
 6803SOL     OW21307   5.222   1.882   6.674
 6803SOL    HW121308   5.287   1.852   6.744
 6803SOL    HW221309   5.145   1.818   6.670
 6804SOL     OW21310   1.805   5.642   3.347
 6804SOL    HW121311   1.761   5.553   3.348
 6804SOL    HW221312   1.900   5.633   3.376
 6805SOL     OW21313   6.182   0.395   4.913
 6805SOL    HW121314   6.107   0.408   4.977
 6805SOL    HW221315   6.195   0.297   4.897
 6806SOL     OW21316   3.994   0.780   4.836
 6806SOL    HW121317   3.908   0.828   4.818
 6806SOL    HW221318   4.067   0.848   4.849
 6807SOL     OW21319   3.238   2.736   0.181
 6807SOL    HW121320   3.213   2.641   0.163
 6807SOL    HW221321   3.180   2.797   0.127
 6808SOL     OW21322   0.324   2.836   5.174
 6808SOL    HW121323   0.361   2.787   5.253
 6808SOL    HW221324   0.339   2.934   5.186
 6809SOL     OW21325   2.491   3.898   6.652
 6809SOL    HW121326   2.521   3.819   6.705
 6809SOL    HW221327   2.570   3.956   6.630
 6810SOL     OW21328   7.015   0.942   2.277
 6810SOL    HW121329   0.057   0.896   2.211
 6810SOL    HW221330   7.012   0.888   2.362
 6811SOL     OW21331   6.009   5.038   1.186
 6811SOL    HW121332   6.057   5.125   1.198
 6811SOL    HW221333   6.067   4.964   1.219
 6812SOL     OW21334   4.084   3.192   3.211
 6812SOL    HW121335   4.071   3.184   3.113
 6812SOL    HW221336   4.033   3.119   3.257
 6813SOL     OW21337   4.726   2.332   0.735
 6813SOL    HW121338   4.727   2.313   0.833
 6813SOL    HW221339   4.635   2.312   0.698
 6814SOL     OW21340   2.636   3.798   1.321
 6814SOL    HW121341   2.597   3.756   1.403
 6814SOL    HW221342   2.609   3.745   1.241
 6815SOL     OW21343   2.367   0.458   1.795
 6815SOL    HW121344   2.374   0.534   1.859
 6815SOL    HW221345   2.286   0.403   1.816
 6816SOL     OW21346   6.625   4.727   6.988
 6816SOL    HW121347   6.584   4.659   6.927
 6816SOL    HW221348   6.654   4.807   6.935
 6817SOL     OW21349   6.822   1.620   5.722
 6817SOL    HW121350   6.844   1.655   5.631
 6817SOL    HW221351   6.901   1.633   5.782
 6818SOL     OW21352   3.656   6.631   2.259
 6818SOL    HW121353   3.613   6.636   2.349
 6818SOL    HW221354   3.644   6.539   2.222
 6819SOL     OW21355   3.214   0.529   3.804
 6819SOL    HW121356   3.170   0.564   3.721
 6819SOL    HW221357   3.310   0.558   3.806
 6820SOL     OW21358   1.343   4.503   3.136
 6820SOL    HW121359   1.286   4.426   3.164
 6820SOL    HW221360   1.405   4.474   3.063
 6821SOL     OW21361   2.391   2.468   4.943
 6821SOL    HW121362   2.295   2.496   4.937
 6821SOL    HW221363   2.446   2.544   4.976
 6822SOL     OW21364   5.695   1.931   5.746
 6822SOL    HW121365   5.699   1.839   5.704
 6822SOL    HW221366   5.781   1.978   5.728
 6823SOL     OW21367   2.968   3.187   2.849
 6823SOL    HW121368   2.875   3.149   2.854
 6823SOL    HW221369   2.963   3.282   2.819
 6824SOL     OW21370   0.521   4.309   6.589
 6824SOL    HW121371   0.433   4.296   6.634
 6824SOL    HW221372   0.592   4.262   6.641
 6825SOL     OW21373   4.969   0.069   2.263
 6825SOL    HW121374   4.940   6.991   2.251
 6825SOL    HW221375   4.934   0.103   2.350
 6826SOL     OW21376   2.091   3.193   2.933
 6826SOL    HW121377   1.991   3.198   2.933
 6826SOL    HW221378   2.119   3.097   2.923
 6827SOL     OW21379   5.553   6.109   6.607
 6827SOL    HW121380   5.599   6.082   6.691
 6827SOL    HW221381   5.454   6.103   6.620
 6828SOL     OW21382   1.081   2.075   1.307
 6828SOL    HW121383   1.070   1.998   1.370
 6828SOL    HW221384   1.033   2.155   1.342
 6829SOL     OW21385   5.185   6.086   3.590
 6829SOL    HW121386   5.275   6.115   3.623
 6829SOL    HW221387   5.149   6.015   3.650
 6830SOL     OW21388   5.446   1.883   3.531
 6830SOL    HW121389   5.493   1.901   3.618
 6830SOL    HW221390   5.460   1.788   3.505
 6831SOL     OW21391   0.824   0.842   5.380
 6831SOL    HW121392   0.820   0.815   5.476
 6831SOL    HW221393   0.732   0.867   5.349
 6832SOL     OW21394   2.950   4.961   2.389
 6832SOL    HW121395   2.850   4.972   2.396
 6832SOL    HW221396   2.976   4.956   2.293
 6833SOL     OW21397   3.417   4.785   6.904
 6833SOL    HW121398   3.423   4.828   6.994
 6833SOL    HW221399   3.322   4.786   6.873
 6834SOL     OW21400   3.969   6.344   2.058
 6834SOL    HW121401   3.935   6.288   1.982
 6834SOL    HW221402   3.896   6.405   2.089
 6835SOL     OW21403   3.710   6.775   4.759
 6835SOL    HW121404   3.800   6.786   4.802
 6835SOL    HW221405   3.644   6.836   4.804
 6836SOL     OW21406   3.572   6.197   0.084
 6836SOL    HW121407   3.500   6.169   0.021
 6836SOL    HW221408   3.561   6.294   0.106
 6837SOL     OW21409   1.856   3.522   1.946
 6837SOL    HW121410   1.915   3.442   1.932
 6837SOL    HW221411   1.904   3.605   1.917
 6838SOL     OW21412   2.150   1.522   7.002
 6838SOL    HW121413   2.086   1.494   0.057
 6838SOL    HW221414   2.159   1.448   6.935
 6839SOL     OW21415   4.278   1.182   0.378
 6839SOL    HW121416   4.349   1.120   0.412
 6839SOL    HW221417   4.310   1.276   0.387
 6840SOL     OW21418   1.991   1.332   6.402
 6840SOL    HW121419   2.080   1.375   6.419
 6840SOL    HW221420   1.918   1.396   6.428
 6841SOL     OW21421   6.452   2.930   6.049
 6841SOL    HW121422   6.386   3.003   6.036
 6841SOL    HW221423   6.445   2.864   5.974
 6842SOL     OW21424   2.292   5.367   2.094
 6842SOL    HW121425   2.215   5.430   2.083
 6842SOL    HW221426   2.372   5.417   2.127
 6843SOL     OW21427   4.814   6.956   6.739
 6843SOL    HW121428   4.734   6.902   6.764
 6843SOL    HW221429   4.871   6.905   6.675
 6844SOL     OW21430   5.352   0.734   4.719
 6844SOL    HW121431   5.326   0.831   4.710
 6844SOL    HW221432   5.285   0.687   4.777
 6845SOL     OW21433   4.966   2.747   2.954
 6845SOL    HW121434   4.968   2.841   2.920
 6845SOL    HW221435   4.877   2.729   2.997
 6846SOL     OW21436   2.921   3.626   0.475
 6846SOL    HW121437   2.979   3.545   0.474
 6846SOL    HW221438   2.825   3.599   0.461
 6847SOL     OW21439   6.163   3.850   4.036
 6847SOL    HW121440   6.073   3.863   3.995
 6847SOL    HW221441   6.212   3.778   3.988
 6848SOL     OW21442   5.299   4.515   3.455
 6848SOL    HW121443   5.327   4.420   3.444
 6848SOL    HW221444   5.202   4.524   3.432
 6849SOL     OW21445   3.743   3.810   6.612
 6849SOL    HW121446   3.825   3.866   6.619
 6849SOL    HW221447   3.766   3.720   6.575
 6850SOL     OW21448   4.016   1.398   3.559
 6850SOL    HW121449   3.954   1.338   3.508
 6850SOL    HW221450   3.964   1.473   3.599
 6851SOL     OW21451   1.729   2.971   3.494
 6851SOL    HW121452   1.728   3.069   3.509
 6851SOL    HW221453   1.822   2.941   3.472
 6852SOL     OW21454   2.934   5.407   0.624
 6852SOL    HW121455   3.006   5.365   0.679
 6852SOL    HW221456   2.972   5.481   0.569
 6853SOL     OW21457   4.796   2.938   6.808
 6853SOL    HW121458   4.700   2.942   6.781
 6853SOL    HW221459   4.843   3.019   6.775
 6854SOL     OW21460   5.447   6.429   6.196
 6854SOL    HW121461   5.438   6.420   6.096
 6854SOL    HW221462   5.376   6.375   6.240
 6855SOL     OW21463   4.320   5.228   3.855
 6855SOL    HW121464   4.330   5.197   3.760
 6855SOL    HW221465   4.228   5.263   3.869
 6856SOL     OW21466   1.238   1.759   0.088
 6856SOL    HW121467   1.301   1.805   0.150
 6856SOL    HW221468   1.260   1.784   7.010
 6857SOL     OW21469   1.265   3.858   5.552
 6857SOL    HW121470   1.290   3.954   5.563
 6857SOL    HW221471   1.346   3.801   5.562
 6858SOL     OW21472   2.823   4.057   1.599
 6858SOL    HW121473   2.779   4.141   1.632
 6858SOL    HW221474   2.892   4.027   1.665
 6859SOL     OW21475   0.852   1.416   2.592
 6859SOL    HW121476   0.874   1.376   2.503
 6859SOL    HW221477   0.754   1.403   2.611
 6860SOL     OW21478   0.717   6.635   2.151
 6860SOL    HW121479   0.693   6.639   2.055
 6860SOL    HW221480   0.792   6.699   2.170
 6861SOL     OW21481   4.832   2.163   5.114
 6861SOL    HW121482   4.807   2.110   5.195
 6861SOL    HW221483   4.928   2.145   5.091
 6862SOL     OW21484   0.661   4.979   5.477
 6862SOL    HW121485   0.713   5.023   5.551
 6862SOL    HW221486   0.565   4.972   5.504
 6863SOL     OW21487   6.603   7.008   5.292
 6863SOL    HW121488   6.643   6.917   5.306
 6863SOL    HW221489   6.558   7.010   5.203
 6864SOL     OW21490   1.700   3.970   5.874
 6864SOL    HW121491   1.755   3.911   5.933
 6864SOL    HW221492   1.606   3.973   5.910
 6865SOL     OW21493   2.310   6.960   4.112
 6865SOL    HW121494   2.224   7.010   4.112
 6865SOL    HW221495   2.320   6.910   4.026
 6866SOL     OW21496   0.575   4.250   1.729
 6866SOL    HW121497   0.639   4.175   1.719
 6866SOL    HW221498   0.624   4.334   1.751
 6867SOL     OW21499   2.290   3.731   0.310
 6867SOL    HW121500   2.277   3.692   0.218
 6867SOL    HW221501   2.381   3.771   0.317
 6868SOL     OW21502   2.531   4.895   4.538
 6868SOL    HW121503   2.511   4.942   4.624
 6868SOL    HW221504   2.490   4.945   4.462
 6869SOL     OW21505   3.898   0.246   6.054
 6869SOL    HW121506   3.877   0.343   6.045
 6869SOL    HW221507   3.991   0.229   6.020
 6870SOL     OW21508   0.073   2.931   0.510
 6870SOL    HW121509   0.056   3.029   0.519
 6870SOL    HW221510   0.085   2.908   0.413
 6871SOL     OW21511   0.593   3.774   2.516
 6871SOL    HW121512   0.554   3.865   2.530
 6871SOL    HW221513   0.667   3.759   2.582
 6872SOL     OW21514   2.449   3.151   0.921
 6872SOL    HW121515   2.440   3.135   1.019
 6872SOL    HW221516   2.399   3.234   0.896
 6873SOL     OW21517   1.111   4.185   4.678
 6873SOL    HW121518   1.029   4.127   4.677
 6873SOL    HW221519   1.191   4.130   4.658
 6874SOL     OW21520   5.472   6.293   2.998
 6874SOL    HW121521   5.419   6.350   3.061
 6874SOL    HW221522   5.413   6.224   2.957
 6875SOL     OW21523   1.768   2.742   1.247
 6875SOL    HW121524   1.678   2.774   1.216
 6875SOL    HW221525   1.767   2.642   1.252
 6876SOL     OW21526   4.470   5.597   3.153
 6876SOL    HW121527   4.511   5.629   3.067
 6876SOL    HW221528   4.541   5.594   3.224
 6877SOL     OW21529   1.384   3.631   2.321
 6877SOL    HW121530   1.480   3.640   2.347
 6877SOL    HW221531   1.332   3.595   2.398
 6878SOL     OW21532   1.896   0.452   4.146
 6878SOL    HW121533   1.889   0.484   4.052
 6878SOL    HW221534   1.988   0.471   4.181
 6879SOL     OW21535   1.959   1.914   0.609
 6879SOL    HW121536   1.981   2.003   0.570
 6879SOL    HW221537   2.043   1.864   0.629
 6880SOL     OW21538   1.446   5.249   6.529
 6880SOL    HW121539   1.389   5.183   6.479
 6880SOL    HW221540   1.507   5.296   6.465
 6881SOL     OW21541   1.288   3.119   0.676
 6881SOL    HW121542   1.237   3.202   0.701
 6881SOL    HW221543   1.272   3.098   0.580
 6882SOL     OW21544   2.623   6.303   6.892
 6882SOL    HW121545   2.694   6.297   6.822
 6882SOL    HW221546   2.652   6.251   6.973
 6883SOL     OW21547   4.736   0.341   6.959
 6883SOL    HW121548   4.793   0.413   6.999
 6883SOL    HW221549   4.640   0.359   6.980
 6884SOL     OW21550   2.113   4.019   2.787
 6884SOL    HW121551   2.037   4.074   2.822
 6884SOL    HW221552   2.078   3.933   2.751
 6885SOL     OW21553   5.399   5.964   4.191
 6885SOL    HW121554   5.427   6.037   4.253
 6885SOL    HW221555   5.463   5.961   4.114
 6886SOL     OW21556   4.823   1.966   6.483
 6886SOL    HW121557   4.805   1.913   6.566
 6886SOL    HW221558   4.913   1.942   6.447
 6887SOL     OW21559   5.335   5.854   6.513
 6887SOL    HW121560   5.316   5.934   6.570
 6887SOL    HW221561   5.251   5.824   6.467
 6888SOL     OW21562   5.914   5.077   6.615
 6888SOL    HW121563   5.830   5.075   6.668
 6888SOL    HW221564   5.970   5.155   6.643
 6889SOL     OW21565   0.633   2.436   0.084
 6889SOL    HW121566   0.699   2.509   0.065
 6889SOL    HW221567   0.562   2.436   0.014
 6890SOL     OW21568   4.442   5.299   2.712
 6890SOL    HW121569   4.497   5.232   2.760
 6890SOL    HW221570   4.502   5.355   2.654
 6891SOL     OW21571   1.891   1.173   0.885
 6891SOL    HW121572   1.835   1.204   0.962
 6891SOL    HW221573   1.901   1.247   0.819
 6892SOL     OW21574   3.008   0.796   4.251
 6892SOL    HW121575   3.084   0.852   4.218
 6892SOL    HW221576   2.922   0.843   4.233
 6893SOL     OW21577   6.666   2.847   6.935
 6893SOL    HW121578   6.752   2.842   6.988
 6893SOL    HW221579   6.605   2.775   6.966
 6894SOL     OW21580   5.355   5.485   0.591
 6894SOL    HW121581   5.393   5.517   0.504
 6894SOL    HW221582   5.428   5.447   0.647
 6895SOL     OW21583   0.764   6.249   1.750
 6895SOL    HW121584   0.821   6.328   1.772
 6895SOL    HW221585   0.731   6.257   1.656
 6896SOL     OW21586   4.288   2.151   4.665
 6896SOL    HW121587   4.221   2.180   4.733
 6896SOL    HW221588   4.245   2.088   4.601
 6897SOL     OW21589   4.974   3.856   5.063
 6897SOL    HW121590   4.923   3.771   5.052
 6897SOL    HW221591   4.941   3.903   5.145
 6898SOL     OW21592   2.407   1.181   0.936
 6898SOL    HW121593   2.352   1.112   0.983
 6898SOL    HW221594   2.387   1.271   0.973
 6899SOL     OW21595   6.036   5.996   2.628
 6899SOL    HW121596   5.938   5.986   2.607
 6899SOL    HW221597   6.047   6.056   2.708
 6900SOL     OW21598   6.783   4.349   5.274
 6900SOL    HW121599   6.703   4.403   5.248
 6900SOL    HW221600   6.837   4.327   5.193
 6901SOL     OW21601   4.578   4.408   0.106
 6901SOL    HW121602   4.564   4.493   0.056
 6901SOL    HW221603   4.636   4.347   0.052
 6902SOL     OW21604   0.498   5.760   6.577
 6902SOL    HW121605   0.438   5.680   6.574
 6902SOL    HW221606   0.571   5.745   6.643
 6903SOL     OW21607   2.251   5.183   4.497
 6903SOL    HW121608   2.164   5.172   4.546
 6903SOL    HW221609   2.279   5.095   4.459
 6904SOL     OW21610   6.927   6.647   5.014
 6904SOL    HW121611   6.863   6.680   4.945
 6904SOL    HW221612   6.966   6.725   5.063
 6905SOL     OW21613   5.061   5.930   6.113
 6905SOL    HW121614   5.005   5.962   6.037
 6905SOL    HW221615   5.011   5.862   6.166
 6906SOL     OW21616   3.836   1.602   3.645
 6906SOL    HW121617   3.738   1.587   3.632
 6906SOL    HW221618   3.858   1.698   3.625
 6907SOL     OW21619   6.225   1.692   1.013
 6907SOL    HW121620   6.186   1.616   1.065
 6907SOL    HW221621   6.175   1.702   0.928
 6908SOL     OW21622   2.695   4.494   0.084
 6908SOL    HW121623   2.622   4.440   0.125
 6908SOL    HW221624   2.749   4.435   0.023
 6909SOL     OW21625   6.104   5.606   2.150
 6909SOL    HW121626   6.190   5.557   2.137
 6909SOL    HW221627   6.113   5.670   2.227
 6910SOL     OW21628   1.609   2.962   3.813
 6910SOL    HW121629   1.707   2.959   3.795
 6910SOL    HW221630   1.560   2.972   3.726
 6911SOL     OW21631   2.654   6.775   5.963
 6911SOL    HW121632   2.618   6.690   6.002
 6911SOL    HW221633   2.613   6.853   6.010
 6912SOL     OW21634   2.560   3.509   6.244
 6912SOL    HW121635   2.543   3.445   6.170
 6912SOL    HW221636   2.478   3.518   6.301
 6913SOL     OW21637   4.689   6.481   6.073
 6913SOL    HW121638   4.681   6.389   6.110
 6913SOL    HW221639   4.714   6.544   6.146
 6914SOL     OW21640   6.693   3.357   1.621
 6914SOL    HW121641   6.602   3.393   1.602
 6914SOL    HW221642   6.757   3.393   1.554
 6915SOL     OW21643   0.780   3.448   2.715
 6915SOL    HW121644   0.782   3.370   2.776
 6915SOL    HW221645   0.703   3.441   2.653
 6916SOL     OW21646   4.459   6.254   0.033
 6916SOL    HW121647   4.478   6.157   0.047
 6916SOL    HW221648   4.393   6.265   6.975
 6917SOL     OW21649   5.541   5.280   1.341
 6917SOL    HW121650   5.524   5.256   1.245
 6917SOL    HW221651   5.552   5.197   1.395
 6918SOL     OW21652   2.155   3.046   1.704
 6918SOL    HW121653   2.093   3.104   1.756
 6918SOL    HW221654   2.245   3.091   1.697
 6919SOL     OW21655   6.393   6.202   3.299
 6919SOL    HW121656   6.454   6.167   3.370
 6919SOL    HW221657   6.385   6.301   3.307
 6920SOL     OW21658   5.769   0.379   5.431
 6920SOL    HW121659   5.703   0.368   5.506
 6920SOL    HW221660   5.759   0.303   5.367
 6921SOL     OW21661   3.950   0.174   4.266
 6921SOL    HW121662   3.861   0.181   4.311
 6921SOL    HW221663   4.005   0.104   4.312
 6922SOL     OW21664   1.075   5.665   5.913
 6922SOL    HW121665   1.150   5.613   5.954
 6922SOL    HW221666   1.036   5.727   5.982
 6923SOL     OW21667   6.135   6.926   2.514
 6923SOL    HW121668   6.099   6.833   2.506
 6923SOL    HW221669   6.180   6.952   2.429
 6924SOL     OW21670   3.634   6.534   0.807
 6924SOL    HW121671   3.564   6.593   0.766
 6924SOL    HW221672   3.676   6.478   0.735
 6925SOL     OW21673   5.973   6.310   6.363
 6925SOL    HW121674   5.904   6.316   6.435
 6925SOL    HW221675   6.026   6.226   6.374
 6926SOL     OW21676   2.965   2.008   6.994
 6926SOL    HW121677   2.938   2.057   6.911
 6926SOL    HW221678   2.889   1.950   0.007
 6927SOL     OW21679   4.742   0.880   0.671
 6927SOL    HW121680   4.832   0.896   0.711
 6927SOL    HW221681   4.744   0.906   0.574
 6928SOL     OW21682   4.428   5.043   1.026
 6928SOL    HW121683   4.478   4.956   1.023
 6928SOL    HW221684   4.481   5.109   1.079
 6929SOL     OW21685   6.208   5.480   1.337
 6929SOL    HW121686   6.291   5.517   1.295
 6929SOL    HW221687   6.157   5.554   1.381
 6930SOL     OW21688   0.953   0.031   0.499
 6930SOL    HW121689   0.976   0.124   0.525
 6930SOL    HW221690   1.015   6.984   0.544
 6931SOL     OW21691   2.757   2.886   1.244
 6931SOL    HW121692   2.741   2.985   1.246
 6931SOL    HW221693   2.844   2.868   1.198
 6932SOL     OW21694   4.636   5.306   6.985
 6932SOL    HW121695   4.543   5.273   6.997
 6932SOL    HW221696   4.693   5.276   0.046
 6933SOL     OW21697   2.826   4.996   6.354
 6933SOL    HW121698   2.853   5.028   6.263
 6933SOL    HW221699   2.785   5.072   6.405
 6934SOL     OW21700   5.232   3.932   6.746
 6934SOL    HW121701   5.197   3.844   6.780
 6934SOL    HW221702   5.242   3.995   6.823
 6935SOL     OW21703   5.268   5.343   1.463
 6935SOL    HW121704   5.252   5.261   1.519
 6935SOL    HW221705   5.363   5.345   1.434
 6936SOL     OW21706   0.909   2.067   4.817
 6936SOL    HW121707   0.977   2.031   4.753
 6936SOL    HW221708   0.914   2.166   4.819
 6937SOL     OW21709   5.408   5.580   0.332
 6937SOL    HW121710   5.430   5.659   0.274
 6937SOL    HW221711   5.377   5.505   0.275
 6938SOL     OW21712   1.155   0.468   4.871
 6938SOL    HW121713   1.250   0.449   4.895
 6938SOL    HW221714   1.120   0.541   4.930
 6939SOL     OW21715   5.869   4.290   3.887
 6939SOL    HW121716   5.915   4.223   3.946
 6939SOL    HW221717   5.840   4.368   3.943
 6940SOL     OW21718   3.476   6.731   0.667
 6940SOL    HW121719   3.377   6.743   0.660
 6940SOL    HW221720   3.521   6.820   0.661
 6941SOL     OW21721   3.555   3.503   2.544
 6941SOL    HW121722   3.647   3.542   2.540
 6941SOL    HW221723   3.525   3.478   2.452
 6942SOL     OW21724   6.151   6.577   1.956
 6942SOL    HW121725   6.093   6.498   1.977
 6942SOL    HW221726   6.247   6.547   1.951
 6943SOL     OW21727   4.614   5.067   6.371
 6943SOL    HW121728   4.519   5.036   6.366
 6943SOL    HW221729   4.618   5.159   6.411
 6944SOL     OW21730   1.196   4.112   5.010
 6944SOL    HW121731   1.287   4.152   5.003
 6944SOL    HW221732   1.186   4.068   5.100
 6945SOL     OW21733   5.523   2.520   1.099
 6945SOL    HW121734   5.436   2.569   1.091
 6945SOL    HW221735   5.596   2.585   1.122
 6946SOL     OW21736   4.493   5.779   2.300
 6946SOL    HW121737   4.475   5.731   2.385
 6946SOL    HW221738   4.416   5.839   2.278
 6947SOL     OW21739   4.855   5.212   5.603
 6947SOL    HW121740   4.910   5.203   5.686
 6947SOL    HW221741   4.915   5.234   5.526
 6948SOL     OW21742   0.498   4.782   6.970
 6948SOL    HW121743   0.545   4.695   6.986
 6948SOL    HW221744   0.420   4.766   6.909
 6949SOL     OW21745   2.450   1.792   3.886
 6949SOL    HW121746   2.358   1.828   3.903
 6949SOL    HW221747   2.518   1.859   3.916
 6950SOL     OW21748   0.704   0.488   4.622
 6950SOL    HW121749   0.648   0.430   4.683
 6950SOL    HW221750   0.774   0.534   4.676
 6951SOL     OW21751   6.967   5.057   6.218
 6951SOL    HW121752   6.965   5.150   6.254
 6951SOL    HW221753   6.968   4.991   6.294
 6952SOL     OW21754   3.968   5.705   3.231
 6952SOL    HW121755   3.916   5.764   3.168
 6952SOL    HW221756   4.066   5.722   3.218
 6953SOL     OW21757   4.921   1.272   0.996
 6953SOL    HW121758   5.008   1.313   0.968
 6953SOL    HW221759   4.847   1.337   0.979
 6954SOL     OW21760   6.220   3.577   0.253
 6954SOL    HW121761   6.242   3.609   0.345
 6954SOL    HW221762   6.293   3.517   0.220
 6955SOL     OW21763   5.050   6.788   2.224
 6955SOL    HW121764   5.044   6.794   2.324
 6955SOL    HW221765   5.146   6.775   2.198
 6956SOL     OW21766   5.444   5.438   2.256
 6956SOL    HW121767   5.382   5.373   2.299
 6956SOL    HW221768   5.407   5.530   2.264
 6957SOL     OW21769   5.378   5.616   6.296
 6957SOL    HW121770   5.359   5.518   6.294
 6957SOL    HW221771   5.323   5.662   6.227
 6958SOL     OW21772   2.934   3.484   3.920
 6958SOL    HW121773   2.948   3.414   3.849
 6958SOL    HW221774   2.899   3.568   3.877
 6959SOL     OW21775   1.096   4.365   2.749
 6959SOL    HW121776   1.181   4.413   2.728
 6959SOL    HW221777   1.068   4.386   2.843
 6960SOL     OW21778   3.036   4.681   0.430
 6960SOL    HW121779   2.956   4.672   0.369
 6960SOL    HW221780   3.025   4.619   0.508
 6961SOL     OW21781   4.556   1.786   5.409
 6961SOL    HW121782   4.526   1.882   5.411
 6961SOL    HW221783   4.486   1.728   5.451
 6962SOL     OW21784   2.796   0.088   6.525
 6962SOL    HW121785   2.780   0.003   6.476
 6962SOL    HW221786   2.745   0.162   6.482
 6963SOL     OW21787   4.904   6.344   0.653
 6963SOL    HW121788   4.988   6.341   0.599
 6963SOL    HW221789   4.908   6.275   0.725
 6964SOL     OW21790   1.737   6.956   5.583
 6964SOL    HW121791   1.769   6.926   5.673
 6964SOL    HW221792   1.807   7.015   5.542
 6965SOL     OW21793   0.765   1.781   0.255
 6965SOL    HW121794   0.731   1.688   0.243
 6965SOL    HW221795   0.860   1.787   0.222
 6966SOL     OW21796   1.331   6.900   1.417
 6966SOL    HW121797   1.262   6.939   1.478
 6966SOL    HW221798   1.417   6.890   1.467
 6967SOL     OW21799   4.665   1.530   5.969
 6967SOL    HW121800   4.669   1.431   5.956
 6967SOL    HW221801   4.592   1.569   5.912
 6968SOL     OW21802   3.989   6.365   2.360
 6968SOL    HW121803   4.019   6.405   2.274
 6968SOL    HW221804   4.067   6.320   2.405
 6969SOL     OW21805   1.745   1.621   1.698
 6969SOL    HW121806   1.672   1.615   1.766
 6969SOL    HW221807   1.822   1.563   1.726
 6970SOL     OW21808   3.532   4.806   5.782
 6970SOL    HW121809   3.552   4.736   5.713
 6970SOL    HW221810   3.616   4.856   5.805
 6971SOL     OW21811   0.054   4.571   0.186
 6971SOL    HW121812   6.995   4.506   0.176
 6971SOL    HW221813   0.121   4.556   0.114
 6972SOL     OW21814   5.358   3.552   2.001
 6972SOL    HW121815   5.321   3.559   1.908
 6972SOL    HW221816   5.305   3.486   2.053
 6973SOL     OW21817   0.988   3.256   3.501
 6973SOL    HW121818   1.034   3.309   3.430
 6973SOL    HW221819   1.023   3.283   3.590
 6974SOL     OW21820   3.705   4.016   2.650
 6974SOL    HW121821   3.763   3.970   2.716
 6974SOL    HW221822   3.639   4.074   2.698
 6975SOL     OW21823   3.049   5.689   4.725
 6975SOL    HW121824   3.067   5.623   4.652
 6975SOL    HW221825   3.068   5.781   4.692
 6976SOL     OW21826   4.573   3.781   6.219
 6976SOL    HW121827   4.642   3.822   6.279
 6976SOL    HW221828   4.486   3.774   6.268
 6977SOL     OW21829   3.974   4.592   0.717
 6977SOL    HW121830   4.054   4.535   0.733
 6977SOL    HW221831   3.988   4.681   0.760
 6978SOL     OW21832   5.655   3.786   1.687
 6978SOL    HW121833   5.670   3.797   1.588
 6978SOL    HW221834   5.602   3.703   1.704
 6979SOL     OW21835   1.347   4.133   1.763
 6979SOL    HW121836   1.354   4.150   1.861
 6979SOL    HW221837   1.393   4.048   1.740
 6980SOL     OW21838   1.826   5.981   3.053
 6980SOL    HW121839   1.791   5.965   3.146
 6980SOL    HW221840   1.926   5.985   3.055
 6981SOL     OW21841   3.966   2.834   6.891
 6981SOL    HW121842   4.035   2.807   6.825
 6981SOL    HW221843   3.971   2.933   6.906
 6982SOL     OW21844   1.910   0.986   3.531
 6982SOL    HW121845   1.979   0.925   3.569
 6982SOL    HW221846   1.825   0.977   3.583
 6983SOL     OW21847   4.917   0.453   4.524
 6983SOL    HW121848   4.834   0.397   4.519
 6983SOL    HW221849   4.927   0.504   4.439
 6984SOL     OW21850   0.537   2.703   3.319
 6984SOL    HW121851   0.515   2.796   3.350
 6984SOL    HW221852   0.452   2.651   3.310
 6985SOL     OW21853   6.427   3.396   0.118
 6985SOL    HW121854   6.414   3.382   0.020
 6985SOL    HW221855   6.437   3.307   0.163
 6986SOL     OW21856   4.229   4.907   5.546
 6986SOL    HW121857   4.140   4.870   5.572
 6986SOL    HW221858   4.288   4.913   5.626
 6987SOL     OW21859   0.808   1.795   6.020
 6987SOL    HW121860   0.874   1.788   5.946
 6987SOL    HW221861   0.775   1.704   6.044
 6988SOL     OW21862   3.625   1.544   6.323
 6988SOL    HW121863   3.661   1.490   6.247
 6988SOL    HW221864   3.662   1.509   6.409
 6989SOL     OW21865   0.183   5.300   2.547
 6989SOL    HW121866   0.280   5.277   2.534
 6989SOL    HW221867   0.139   5.307   2.458
 6990SOL     OW21868   3.577   2.521   1.029
 6990SOL    HW121869   3.639   2.596   1.052
 6990SOL    HW221870   3.482   2.552   1.035
 6991SOL     OW21871   6.051   3.676   2.014
 6991SOL    HW121872   5.971   3.674   2.073
 6991SOL    HW221873   6.028   3.719   1.927
 6992SOL     OW21874   0.765   5.976   0.224
 6992SOL    HW121875   0.759   6.066   0.181
 6992SOL    HW221876   0.673   5.936   0.233
 6993SOL     OW21877   4.615   1.097   1.814
 6993SOL    HW121878   4.634   1.194   1.804
 6993SOL    HW221879   4.554   1.067   1.741
 6994SOL     OW21880   2.831   0.471   3.485
 6994SOL    HW121881   2.873   0.388   3.521
 6994SOL    HW221882   2.818   0.537   3.558
 6995SOL     OW21883   0.102   4.022   1.308
 6995SOL    HW121884   0.099   3.980   1.398
 6995SOL    HW221885   0.135   3.956   1.241
 6996SOL     OW21886   0.932   1.323   0.055
 6996SOL    HW121887   0.967   1.401   0.108
 6996SOL    HW221888   0.833   1.316   0.067
 6997SOL     OW21889   5.987   5.299   5.607
 6997SOL    HW121890   5.912   5.232   5.604
 6997SOL    HW221891   5.949   5.391   5.617
 6998SOL     OW21892   6.528   1.071   7.002
 6998SOL    HW121893   6.473   1.034   6.927
 6998SOL    HW221894   6.543   1.169   6.986
 6999SOL     OW21895   0.414   3.625   0.568
 6999SOL    HW121896   0.315   3.636   0.556
 6999SOL    HW221897   0.450   3.703   0.619
 7000SOL     OW21898   6.819   6.825   3.423
 7000SOL    HW121899   6.768   6.877   3.355
 7000SOL    HW221900   6.762   6.749   3.456
 7001SOL     OW21901   0.493   1.846   4.222
 7001SOL    HW121902   0.398   1.862   4.194
 7001SOL    HW221903   0.496   1.827   4.320
 7002SOL     OW21904   0.018   5.146   2.706
 7002SOL    HW121905   0.076   5.181   2.633
 7002SOL    HW221906   6.960   5.211   2.724
 7003SOL     OW21907   6.470   4.909   1.221
 7003SOL    HW121908   6.517   4.970   1.158
 7003SOL    HW221909   6.538   4.856   1.273
 7004SOL     OW21910   1.888   6.446   0.407
 7004SOL    HW121911   1.937   6.359   0.406
 7004SOL    HW221912   1.810   6.442   0.345
 7005SOL     OW21913   0.986   6.513   0.177
 7005SOL    HW121914   1.035   6.463   0.106
 7005SOL    HW221915   1.050   6.540   0.249
 7006SOL     OW21916   1.203   0.081   4.695
 7006SOL    HW121917   1.150   0.165   4.706
 7006SOL    HW221918   1.268   0.091   4.621
 7007SOL     OW21919   2.910   6.947   5.922
 7007SOL    HW121920   2.854   6.867   5.901
 7007SOL    HW221921   2.961   6.974   5.840
 7008SOL     OW21922   6.047   3.785   3.679
 7008SOL    HW121923   6.019   3.817   3.769
 7008SOL    HW221924   5.967   3.756   3.626
 7009SOL     OW21925   4.381   5.266   1.673
 7009SOL    HW121926   4.457   5.289   1.611
 7009SOL    HW221927   4.336   5.350   1.703
 7010SOL     OW21928   5.349   4.361   1.576
 7010SOL    HW121929   5.436   4.312   1.576
 7010SOL    HW221930   5.284   4.313   1.635
 7011SOL     OW21931   3.307   5.945   6.794
 7011SOL    HW121932   3.234   5.878   6.799
 7011SOL    HW221933   3.333   5.974   6.886
 7012SOL     OW21934   6.934   2.164   0.189
 7012SOL    HW121935   6.939   2.264   0.182
 7012SOL    HW221936   6.838   2.135   0.183
 7013SOL     OW21937   2.785   1.406   0.072
 7013SOL    HW121938   2.690   1.408   0.102
 7013SOL    HW221939   2.840   1.352   0.136
 7014SOL     OW21940   6.467   2.871   1.431
 7014SOL    HW121941   6.551   2.907   1.470
 7014SOL    HW221942   6.404   2.947   1.412
 7015SOL     OW21943   5.408   6.168   0.731
 7015SOL    HW121944   5.459   6.117   0.662
 7015SOL    HW221945   5.403   6.265   0.704
 7016SOL     OW21946   3.257   4.734   0.710
 7016SOL    HW121947   3.161   4.737   0.736
 7016SOL    HW221948   3.273   4.656   0.651
 7017SOL     OW21949   4.705   5.325   4.439
 7017SOL    HW121950   4.624   5.330   4.381
 7017SOL    HW221951   4.710   5.405   4.499
 7018SOL     OW21952   4.718   2.780   4.379
 7018SOL    HW121953   4.681   2.757   4.289
 7018SOL    HW221954   4.817   2.791   4.373
 7019SOL     OW21955   4.663   4.907   2.150
 7019SOL    HW121956   4.680   4.880   2.055
 7019SOL    HW221957   4.565   4.899   2.170
 7020SOL     OW21958   0.506   2.762   6.661
 7020SOL    HW121959   0.444   2.683   6.665
 7020SOL    HW221960   0.475   2.831   6.726
 7021SOL     OW21961   1.197   1.788   5.622
 7021SOL    HW121962   1.184   1.883   5.649
 7021SOL    HW221963   1.289   1.776   5.585
 7022SOL     OW21964   3.815   1.590   0.619
 7022SOL    HW121965   3.763   1.598   0.704
 7022SOL    HW221966   3.791   1.666   0.558
 7023SOL     OW21967   0.633   1.926   1.229
 7023SOL    HW121968   0.719   1.956   1.187
 7023SOL    HW221969   0.617   1.979   1.313
 7024SOL     OW21970   3.691   3.229   3.938
 7024SOL    HW121971   3.680   3.143   3.987
 7024SOL    HW221972   3.654   3.304   3.994
 7025SOL     OW21973   4.127   6.428   0.566
 7025SOL    HW121974   4.175   6.485   0.633
 7025SOL    HW221975   4.071   6.360   0.614
 7026SOL     OW21976   4.045   2.381   1.245
 7026SOL    HW121977   4.013   2.366   1.338
 7026SOL    HW221978   4.057   2.479   1.229
 7027SOL     OW21979   2.094   5.142   2.107
 7027SOL    HW121980   2.178   5.192   2.131
 7027SOL    HW221981   2.098   5.049   2.144
 7028SOL     OW21982   3.188   0.416   3.466
 7028SOL    HW121983   3.198   0.433   3.367
 7028SOL    HW221984   3.183   0.503   3.514
 7029SOL     OW21985   3.168   3.515   5.020
 7029SOL    HW121986   3.181   3.556   5.110
 7029SOL    HW221987   3.085   3.552   4.979
 7030SOL     OW21988   6.340   1.464   5.245
 7030SOL    HW121989   6.281   1.470   5.164
 7030SOL    HW221990   6.305   1.393   5.306
 7031SOL     OW21991   4.317   6.973   0.517
 7031SOL    HW121992   4.244   6.915   0.480
 7031SOL    HW221993   4.401   6.920   0.524
 7032SOL     OW21994   3.869   6.258   4.363
 7032SOL    HW121995   3.880   6.225   4.457
 7032SOL    HW221996   3.798   6.329   4.361
 7033SOL     OW21997   1.572   1.979   5.082
 7033SOL    HW121998   1.520   1.895   5.069
 7033SOL    HW221999   1.548   2.044   5.010
 7034SOL     OW22000   6.553   1.367   3.493
 7034SOL    HW122001   6.529   1.387   3.587
 7034SOL    HW222002   6.537   1.448   3.436
 7035SOL     OW22003   1.904   0.643   0.740
 7035SOL    HW122004   1.830   0.710   0.733
 7035SOL    HW222005   1.898   0.596   0.828
 7036SOL     OW22006   6.984   1.082   1.755
 7036SOL    HW122007   6.997   1.178   1.781
 7036SOL    HW222008   6.889   1.056   1.769
 7037SOL     OW22009   0.974   0.731   6.121
 7037SOL    HW122010   0.916   0.666   6.073
 7037SOL    HW222011   1.068   0.723   6.088
 7038SOL     OW22012   1.602   3.260   6.625
 7038SOL    HW122013   1.697   3.229   6.621
 7038SOL    HW222014   1.548   3.195   6.679
 7039SOL     OW22015   0.546   6.473   2.946
 7039SOL    HW122016   0.630   6.419   2.934
 7039SOL    HW222017   0.500   6.444   3.030
 7040SOL     OW22018   4.516   2.435   5.300
 7040SOL    HW122019   4.541   2.354   5.354
 7040SOL    HW222020   4.442   2.484   5.346
 7041SOL     OW22021   1.675   0.488   3.597
 7041SOL    HW122022   1.676   0.441   3.685
 7041SOL    HW222023   1.637   0.427   3.527
 7042SOL     OW22024   4.583   5.788   5.413
 7042SOL    HW122025   4.501   5.834   5.448
 7042SOL    HW222026   4.601   5.818   5.320
 7043SOL     OW22027   1.769   4.767   2.051
 7043SOL    HW122028   1.828   4.838   2.011
 7043SOL    HW222029   1.812   4.678   2.038
 7044SOL     OW22030   5.137   6.153   4.070
 7044SOL    HW122031   5.237   6.150   4.068
 7044SOL    HW222032   5.103   6.091   4.139
 7045SOL     OW22033   6.366   5.802   2.685
 7045SOL    HW122034   6.403   5.833   2.597
 7045SOL    HW222035   6.267   5.787   2.675
 7046SOL     OW22036   2.981   2.231   4.343
 7046SOL    HW122037   2.935   2.148   4.310
 7046SOL    HW222038   3.052   2.205   4.408
 7047SOL     OW22039   1.030   6.634   0.435
 7047SOL    HW122040   1.045   6.722   0.391
 7047SOL    HW222041   0.942   6.635   0.483
 7048SOL     OW22042   6.783   5.918   4.900
 7048SOL    HW122043   6.772   5.932   4.999
 7048SOL    HW222044   6.735   5.835   4.873
 7049SOL     OW22045   3.595   1.138   2.891
 7049SOL    HW122046   3.525   1.155   2.960
 7049SOL    HW222047   3.589   1.043   2.860
 7050SOL     OW22048   3.998   3.926   1.269
 7050SOL    HW122049   4.021   3.836   1.232
 7050SOL    HW222050   4.047   3.940   1.355
 7051SOL     OW22051   0.546   0.832   1.362
 7051SOL    HW122052   0.544   0.800   1.267
 7051SOL    HW222053   0.453   0.857   1.390
 7052SOL     OW22054   5.180   6.909   2.493
 7052SOL    HW122055   5.111   6.965   2.541
 7052SOL    HW222056   5.190   6.941   2.399
 7053SOL     OW22057   1.849   2.699   3.240
 7053SOL    HW122058   1.760   2.744   3.230
 7053SOL    HW222059   1.898   2.703   3.153
 7054SOL     OW22060   6.786   0.505   0.533
 7054SOL    HW122061   6.692   0.528   0.558
 7054SOL    HW222062   6.786   0.425   0.473
 7055SOL     OW22063   2.327   0.960   6.889
 7055SOL    HW122064   2.344   0.901   6.969
 7055SOL    HW222065   2.362   0.916   6.807
 7056SOL     OW22066   6.927   5.587   1.421
 7056SOL    HW122067   7.009   5.637   1.447
 7056SOL    HW222068   6.950   5.491   1.405
 7057SOL     OW22069   3.067   5.000   5.009
 7057SOL    HW122070   3.007   4.954   5.074
 7057SOL    HW222071   3.044   5.098   5.006
 7058SOL     OW22072   5.037   2.735   5.871
 7058SOL    HW122073   5.095   2.681   5.931
 7058SOL    HW222074   4.956   2.682   5.845
 7059SOL     OW22075   1.781   0.324   5.265
 7059SOL    HW122076   1.792   0.298   5.362
 7059SOL    HW222077   1.756   0.242   5.212
 7060SOL     OW22078   3.402   0.656   2.133
 7060SOL    HW122079   3.457   0.682   2.055
 7060SOL    HW222080   3.386   0.557   2.131
 7061SOL     OW22081   0.800   2.461   2.484
 7061SOL    HW122082   0.862   2.539   2.490
 7061SOL    HW222083   0.708   2.490   2.508
 7062SOL     OW22084   3.864   1.438   3.206
 7062SOL    HW122085   3.952   1.483   3.194
 7062SOL    HW222086   3.825   1.416   3.116
 7063SOL     OW22087   0.808   0.997   1.749
 7063SOL    HW122088   0.899   1.021   1.715
 7063SOL    HW222089   0.781   0.908   1.713
 7064SOL     OW22090   4.485   1.593   5.058
 7064SOL    HW122091   4.517   1.687   5.046
 7064SOL    HW222092   4.562   1.535   5.083
 7065SOL     OW22093   3.876   4.472   6.042
 7065SOL    HW122094   3.864   4.414   5.962
 7065SOL    HW222095   3.963   4.450   6.086
 7066SOL     OW22096   3.908   0.273   6.627
 7066SOL    HW122097   3.865   0.231   6.548
 7066SOL    HW222098   4.002   0.300   6.604
 7067SOL     OW22099   1.991   3.416   6.850
 7067SOL    HW122100   1.913   3.426   6.913
 7067SOL    HW222101   2.002   3.501   6.798
 7068SOL     OW22102   5.021   3.626   4.312
 7068SOL    HW122103   4.962   3.559   4.268
 7068SOL    HW222104   4.985   3.647   4.403
 7069SOL     OW22105   5.832   0.331   6.894
 7069SOL    HW122106   5.752   0.289   6.852
 7069SOL    HW222107   5.868   0.402   6.834
 7070SOL     OW22108   0.487   6.652   5.008
 7070SOL    HW122109   0.414   6.585   4.997
 7070SOL    HW222110   0.551   6.644   4.932
 7071SOL     OW22111   5.282   6.091   6.666
 7071SOL    HW122112   5.283   6.043   6.754
 7071SOL    HW222113   5.209   6.159   6.666
 7072SOL     OW22114   0.388   3.831   6.361
 7072SOL    HW122115   0.428   3.920   6.380
 7072SOL    HW222116   0.294   3.842   6.329
 7073SOL     OW22117   5.260   1.281   3.086
 7073SOL    HW122118   5.353   1.315   3.071
 7073SOL    HW222119   5.262   1.208   3.155
 7074SOL     OW22120   5.291   4.137   2.791
 7074SOL    HW122121   5.243   4.225   2.790
 7074SOL    HW222122   5.248   4.074   2.727
 7075SOL     OW22123   3.306   5.314   4.008
 7075SOL    HW122124   3.331   5.227   4.050
 7075SOL    HW222125   3.327   5.389   4.071
 7076SOL     OW22126   5.647   2.387   2.386
 7076SOL    HW122127   5.657   2.408   2.483
 7076SOL    HW222128   5.552   2.366   2.365
 7077SOL     OW22129   3.653   5.585   1.180
 7077SOL    HW122130   3.582   5.519   1.155
 7077SOL    HW222131   3.743   5.541   1.175
 7078SOL     OW22132   5.210   0.357   0.067
 7078SOL    HW122133   5.278   0.429   0.079
 7078SOL    HW222134   5.224   0.286   0.137
 7079SOL     OW22135   1.710   6.725   4.663
 7079SOL    HW122136   1.771   6.650   4.638
 7079SOL    HW222137   1.621   6.711   4.619
 7080SOL     OW22138   4.226   1.903   5.549
 7080SOL    HW122139   4.251   1.815   5.589
 7080SOL    HW222140   4.217   1.893   5.450
 7081SOL     OW22141   1.394   0.713   0.242
 7081SOL    HW122142   1.462   0.787   0.238
 7081SOL    HW222143   1.307   0.749   0.274
 7082SOL     OW22144   6.225   4.477   2.918
 7082SOL    HW122145   6.275   4.561   2.896
 7082SOL    HW222146   6.129   4.488   2.892
 7083SOL     OW22147   6.631   3.038   3.002
 7083SOL    HW122148   6.683   3.053   2.918
 7083SOL    HW222149   6.694   3.014   3.076
 7084SOL     OW22150   0.465   5.946   0.501
 7084SOL    HW122151   0.518   6.029   0.515
 7084SOL    HW222152   0.521   5.866   0.525
 7085SOL     OW22153   0.628   3.052   1.743
 7085SOL    HW122154   0.721   3.078   1.767
 7085SOL    HW222155   0.581   3.130   1.702
 7086SOL     OW22156   5.855   1.071   3.868
 7086SOL    HW122157   5.893   1.072   3.961
 7086SOL    HW222158   5.883   0.987   3.822
 7087SOL     OW22159   5.429   3.370   3.342
 7087SOL    HW122160   5.409   3.465   3.366
 7087SOL    HW222161   5.528   3.355   3.349
 7088SOL     OW22162   6.313   2.159   4.531
 7088SOL    HW122163   6.234   2.179   4.589
 7088SOL    HW222164   6.302   2.205   4.442
 7089SOL     OW22165   3.143   5.846   1.959
 7089SOL    HW122166   3.229   5.828   1.911
 7089SOL    HW222167   3.146   5.804   2.049
 7090SOL     OW22168   4.561   2.537   1.432
 7090SOL    HW122169   4.552   2.534   1.333
 7090SOL    HW222170   4.496   2.472   1.473
 7091SOL     OW22171   6.731   6.370   6.429
 7091SOL    HW122172   6.744   6.338   6.335
 7091SOL    HW222173   6.660   6.315   6.473
 7092SOL     OW22174   4.288   1.512   6.123
 7092SOL    HW122175   4.367   1.482   6.176
 7092SOL    HW222176   4.303   1.493   6.027
 7093SOL     OW22177   3.523   3.336   1.294
 7093SOL    HW122178   3.468   3.360   1.214
 7093SOL    HW222179   3.531   3.416   1.354
 7094SOL     OW22180   2.874   0.138   5.411
 7094SOL    HW122181   2.961   0.098   5.442
 7094SOL    HW222182   2.890   0.190   5.327
 7095SOL     OW22183   2.467   4.498   4.768
 7095SOL    HW122184   2.539   4.567   4.769
 7095SOL    HW222185   2.449   4.469   4.673
 7096SOL     OW22186   0.135   0.953   1.270
 7096SOL    HW122187   0.116   1.046   1.240
 7096SOL    HW222188   0.132   0.949   1.370
 7097SOL     OW22189   4.674   0.890   1.443
 7097SOL    HW122190   4.732   0.843   1.509
 7097SOL    HW222191   4.598   0.935   1.490
 7098SOL     OW22192   0.964   6.607   3.993
 7098SOL    HW122193   0.867   6.607   4.016
 7098SOL    HW222194   0.976   6.637   3.899
 7099SOL     OW22195   2.865   2.323   3.882
 7099SOL    HW122196   2.930   2.277   3.942
 7099SOL    HW222197   2.787   2.263   3.866
 7100SOL     OW22198   5.774   3.886   1.104
 7100SOL    HW122199   5.759   3.789   1.124
 7100SOL    HW222200   5.828   3.894   1.020
 7101SOL     OW22201   2.434   6.127   5.723
 7101SOL    HW122202   2.389   6.062   5.663
 7101SOL    HW222203   2.534   6.116   5.716
 7102SOL     OW22204   5.554   0.985   1.898
 7102SOL    HW122205   5.624   1.056   1.901
 7102SOL    HW222206   5.597   0.896   1.883
 7103SOL     OW22207   4.814   4.015   2.908
 7103SOL    HW122208   4.795   3.935   2.965
 7103SOL    HW222209   4.746   4.086   2.927
 7104SOL     OW22210   5.224   4.037   3.563
 7104SOL    HW122211   5.234   3.955   3.506
 7104SOL    HW222212   5.216   4.009   3.659
 7105SOL     OW22213   3.308   4.107   4.039
 7105SOL    HW122214   3.322   4.153   3.951
 7105SOL    HW222215   3.370   4.146   4.107
 7106SOL     OW22216   3.194   2.566   0.678
 7106SOL    HW122217   3.287   2.542   0.705
 7106SOL    HW222218   3.192   2.659   0.642
 7107SOL     OW22219   3.682   0.725   6.324
 7107SOL    HW122220   3.727   0.717   6.235
 7107SOL    HW222221   3.649   0.818   6.337
 7108SOL     OW22222   4.511   0.798   1.893
 7108SOL    HW122223   4.544   0.780   1.986
 7108SOL    HW222224   4.415   0.773   1.886
 7109SOL     OW22225   2.555   6.069   6.288
 7109SOL    HW122226   2.650   6.082   6.318
 7109SOL    HW222227   2.535   6.133   6.213
 7110SOL     OW22228   3.256   6.404   4.451
 7110SOL    HW122229   3.318   6.341   4.404
 7110SOL    HW222230   3.175   6.419   4.395
 7111SOL     OW22231   6.945   0.145   4.728
 7111SOL    HW122232   7.010   0.122   4.800
 7111SOL    HW222233   6.992   0.152   4.640
 7112SOL     OW22234   1.592   5.139   4.608
 7112SOL    HW122235   1.594   5.064   4.543
 7112SOL    HW222236   1.607   5.104   4.700
 7113SOL     OW22237   3.823   5.534   5.525
 7113SOL    HW122238   3.724   5.542   5.541
 7113SOL    HW222239   3.864   5.625   5.520
 7114SOL     OW22240   5.370   5.137   0.511
 7114SOL    HW122241   5.382   5.061   0.447
 7114SOL    HW222242   5.355   5.101   0.603
 7115SOL     OW22243   6.488   3.603   6.771
 7115SOL    HW122244   6.510   3.678   6.832
 7115SOL    HW222245   6.572   3.552   6.749
 7116SOL     OW22246   6.639   4.086   4.095
 7116SOL    HW122247   6.554   4.074   4.146
 7116SOL    HW222248   6.716   4.062   4.154
 7117SOL     OW22249   5.830   6.759   3.256
 7117SOL    HW122250   5.868   6.836   3.206
 7117SOL    HW222251   5.762   6.712   3.199
 7118SOL     OW22252   4.226   4.246   5.272
 7118SOL    HW122253   4.126   4.238   5.270
 7118SOL    HW222254   4.253   4.335   5.234
 7119SOL     OW22255   3.636   6.233   5.345
 7119SOL    HW122256   3.729   6.269   5.353
 7119SOL    HW222257   3.604   6.245   5.251
 7120SOL     OW22258   4.796   0.763   0.089
 7120SOL    HW122259   4.834   0.820   0.162
 7120SOL    HW222260   4.854   0.683   0.075
 7121SOL     OW22261   1.503   6.136   2.286
 7121SOL    HW122262   1.454   6.100   2.366
 7121SOL    HW222263   1.585   6.081   2.270
 7122SOL     OW22264   2.798   0.760   6.489
 7122SOL    HW122265   2.745   0.844   6.480
 7122SOL    HW222266   2.884   0.770   6.440
 7123SOL     OW22267   5.241   5.378   6.190
 7123SOL    HW122268   5.169   5.343   6.130
 7123SOL    HW222269   5.331   5.358   6.151
 7124SOL     OW22270   1.327   2.335   1.320
 7124SOL    HW122271   1.367   2.362   1.407
 7124SOL    HW222272   1.248   2.276   1.337
 7125SOL     OW22273   0.689   6.328   1.453
 7125SOL    HW122274   0.605   6.361   1.411
 7125SOL    HW222275   0.705   6.233   1.427
 7126SOL     OW22276   3.415   5.404   1.192
 7126SOL    HW122277   3.375   5.475   1.251
 7126SOL    HW222278   3.370   5.405   1.103
 7127SOL     OW22279   2.571   6.720   5.198
 7127SOL    HW122280   2.622   6.754   5.120
 7127SOL    HW222281   2.634   6.680   5.265
 7128SOL     OW22282   4.338   3.715   6.381
 7128SOL    HW122283   4.248   3.718   6.338
 7128SOL    HW222284   4.348   3.629   6.431
 7129SOL     OW22285   0.613   0.127   0.622
 7129SOL    HW122286   0.636   0.037   0.586
 7129SOL    HW222287   0.687   0.158   0.683
 7130SOL     OW22288   3.386   6.685   4.126
 7130SOL    HW122289   3.451   6.732   4.186
 7130SOL    HW222290   3.432   6.660   4.041
 7131SOL     OW22291   3.439   1.251   3.072
 7131SOL    HW122292   3.378   1.271   3.148
 7131SOL    HW222293   3.459   1.335   3.021
 7132SOL     OW22294   5.351   4.756   0.656
 7132SOL    HW122295   5.297   4.691   0.710
 7132SOL    HW222296   5.312   4.762   0.564
 7133SOL     OW22297   5.026   5.396   2.751
 7133SOL    HW122298   5.033   5.323   2.683
 7133SOL    HW222299   5.077   5.475   2.719
 7134SOL     OW22300   5.559   5.342   0.734
 7134SOL    HW122301   5.650   5.361   0.696
 7134SOL    HW222302   5.560   5.359   0.832
 7135SOL     OW22303   1.801   2.681   0.945
 7135SOL    HW122304   1.864   2.670   1.021
 7135SOL    HW222305   1.709   2.651   0.974
 7136SOL     OW22306   1.943   1.826   1.648
 7136SOL    HW122307   2.026   1.779   1.618
 7136SOL    HW222308   1.868   1.760   1.654
 7137SOL     OW22309   2.929   2.146   1.504
 7137SOL    HW122310   2.967   2.191   1.585
 7137SOL    HW222311   2.907   2.051   1.526
 7138SOL     OW22312   0.877   2.334   0.776
 7138SOL    HW122313   0.782   2.344   0.746
 7138SOL    HW222314   0.890   2.242   0.815
 7139SOL     OW22315   6.408   6.529   0.869
 7139SOL    HW122316   6.390   6.562   0.777
 7139SOL    HW222317   6.401   6.429   0.871
 7140SOL     OW22318   6.817   3.594   0.573
 7140SOL    HW122319   6.823   3.679   0.520
 7140SOL    HW222320   6.843   3.612   0.668
 7141SOL     OW22321   3.449   0.688   0.985
 7141SOL    HW122322   3.469   0.725   0.895
 7141SOL    HW222323   3.409   0.759   1.043
 7142SOL     OW22324   3.127   6.978   4.752
 7142SOL    HW122325   3.199   6.986   4.821
 7142SOL    HW222326   3.160   0.000   4.666
 7143SOL     OW22327   2.926   4.197   6.450
 7143SOL    HW122328   2.980   4.121   6.413
 7143SOL    HW222329   2.986   4.263   6.494
 7144SOL     OW22330   6.736   0.641   5.722
 7144SOL    HW122331   6.711   0.641   5.625
 7144SOL    HW222332   6.823   0.689   5.734
 7145SOL     OW22333   5.072   2.341   6.621
 7145SOL    HW122334   5.132   2.343   6.541
 7145SOL    HW222335   4.993   2.283   6.603
 7146SOL     OW22336   1.794   2.262   5.356
 7146SOL    HW122337   1.792   2.341   5.295
 7146SOL    HW222338   1.888   2.230   5.365
 7147SOL     OW22339   6.009   6.339   2.011
 7147SOL    HW122340   6.008   6.276   1.933
 7147SOL    HW222341   5.935   6.316   2.074
 7148SOL     OW22342   6.735   0.060   1.024
 7148SOL    HW122343   6.823   0.104   1.004
 7148SOL    HW222344   6.698   0.097   1.109
 7149SOL     OW22345   6.034   4.622   5.576
 7149SOL    HW122346   5.979   4.643   5.495
 7149SOL    HW222347   6.114   4.569   5.549
 7150SOL     OW22348   3.626   3.105   0.090
 7150SOL    HW122349   3.598   3.054   0.009
 7150SOL    HW222350   3.661   3.195   0.063
 7151SOL     OW22351   3.835   1.187   0.932
 7151SOL    HW122352   3.873   1.261   0.987
 7151SOL    HW222353   3.910   1.133   0.892
 7152SOL     OW22354   6.463   1.294   6.137
 7152SOL    HW122355   6.413   1.377   6.164
 7152SOL    HW222356   6.443   1.221   6.201
 7153SOL     OW22357   3.438   6.046   0.912
 7153SOL    HW122358   3.481   5.976   0.969
 7153SOL    HW222359   3.505   6.117   0.889
 7154SOL     OW22360   4.164   1.637   1.642
 7154SOL    HW122361   4.224   1.717   1.649
 7154SOL    HW222362   4.214   1.562   1.597
 7155SOL     OW22363   2.662   1.308   1.478
 7155SOL    HW122364   2.610   1.257   1.410
 7155SOL    HW222365   2.689   1.396   1.439
 7156SOL     OW22366   6.267   3.408   6.395
 7156SOL    HW122367   6.275   3.311   6.414
 7156SOL    HW222368   6.260   3.458   6.482
 7157SOL     OW22369   6.560   4.323   6.431
 7157SOL    HW122370   6.636   4.277   6.476
 7157SOL    HW222371   6.595   4.391   6.367
 7158SOL     OW22372   4.483   6.706   3.763
 7158SOL    HW122373   4.549   6.642   3.724
 7158SOL    HW222374   4.498   6.797   3.724
 7159SOL     OW22375   0.943   6.288   2.711
 7159SOL    HW122376   0.923   6.375   2.667
 7159SOL    HW222377   0.906   6.213   2.656
 7160SOL     OW22378   6.945   0.045   3.471
 7160SOL    HW122379   6.889   0.102   3.411
 7160SOL    HW222380   6.932   6.966   3.447
 7161SOL     OW22381   3.553   2.874   3.539
 7161SOL    HW122382   3.527   2.867   3.636
 7161SOL    HW222383   3.651   2.892   3.532
 7162SOL     OW22384   0.512   5.530   1.547
 7162SOL    HW122385   0.452   5.472   1.493
 7162SOL    HW222386   0.563   5.474   1.613
 7163SOL     OW22387   6.908   1.686   2.152
 7163SOL    HW122388   6.826   1.672   2.097
 7163SOL    HW222389   6.912   1.781   2.184
 7164SOL     OW22390   2.103   1.040   6.516
 7164SOL    HW122391   2.044   0.986   6.575
 7164SOL    HW222392   2.055   1.124   6.488
 7165SOL     OW22393   5.606   1.725   0.403
 7165SOL    HW122394   5.530   1.782   0.434
 7165SOL    HW222395   5.629   1.660   0.475
 7166SOL     OW22396   6.326   6.234   6.440
 7166SOL    HW122397   6.312   6.332   6.455
 7166SOL    HW222398   6.411   6.205   6.483
 7167SOL     OW22399   5.947   2.497   4.612
 7167SOL    HW122400   6.031   2.526   4.567
 7167SOL    HW222401   5.883   2.574   4.618
 7168SOL     OW22402   2.968   1.329   2.140
 7168SOL    HW122403   2.884   1.288   2.104
 7168SOL    HW222404   2.963   1.330   2.240
 7169SOL     OW22405   1.692   3.615   6.826
 7169SOL    HW122406   1.745   3.560   6.891
 7169SOL    HW222407   1.657   3.556   6.753
 7170SOL     OW22408   3.986   1.176   0.507
 7170SOL    HW122409   4.075   1.169   0.462
 7170SOL    HW222410   3.993   1.236   0.586
 7171SOL     OW22411   6.987   4.765   0.549
 7171SOL    HW122412   6.900   4.797   0.509
 7171SOL    HW222413   0.046   4.806   0.499
 7172SOL     OW22414   1.378   1.718   4.308
 7172SOL    HW122415   1.349   1.635   4.354
 7172SOL    HW222416   1.478   1.722   4.304
 7173SOL     OW22417   4.903   5.702   6.191
 7173SOL    HW122418   4.945   5.646   6.120
 7173SOL    HW222419   4.804   5.703   6.180
 7174SOL     OW22420   6.780   4.395   1.998
 7174SOL    HW122421   6.816   4.377   2.089
 7174SOL    HW222422   6.848   4.370   1.929
 7175SOL     OW22423   6.196   3.489   6.640
 7175SOL    HW122424   6.207   3.581   6.677
 7175SOL    HW222425   6.101   3.459   6.653
 7176SOL     OW22426   0.995   0.635   5.309
 7176SOL    HW122427   0.950   0.552   5.276
 7176SOL    HW222428   0.928   0.708   5.318
 7177SOL     OW22429   1.414   5.591   3.314
 7177SOL    HW122430   1.395   5.499   3.347
 7177SOL    HW222431   1.444   5.587   3.219
 7178SOL     OW22432   2.049   0.418   5.304
 7178SOL    HW122433   1.949   0.418   5.297
 7178SOL    HW222434   2.080   0.507   5.339
 7179SOL     OW22435   3.280   5.720   6.175
 7179SOL    HW122436   3.359   5.773   6.143
 7179SOL    HW222437   3.196   5.769   6.154
 7180SOL     OW22438   1.537   3.954   1.293
 7180SOL    HW122439   1.542   4.013   1.374
 7180SOL    HW222440   1.569   4.004   1.213
 7181SOL     OW22441   2.310   1.792   5.722
 7181SOL    HW122442   2.246   1.859   5.759
 7181SOL    HW222443   2.346   1.737   5.797
 7182SOL     OW22444   2.060   1.691   4.463
 7182SOL    HW122445   2.001   1.611   4.449
 7182SOL    HW222446   2.009   1.762   4.511
 7183SOL     OW22447   0.829   7.000   1.913
 7183SOL    HW122448   0.838   0.020   2.006
 7183SOL    HW222449   0.894   6.924   1.901
 7184SOL     OW22450   6.560   0.104   4.131
 7184SOL    HW122451   6.643   0.114   4.185
 7184SOL    HW222452   6.480   0.117   4.190
 7185SOL     OW22453   4.196   1.021   4.461
 7185SOL    HW122454   4.118   1.016   4.398
 7185SOL    HW222455   4.162   1.031   4.555
 7186SOL     OW22456   0.256   0.358   6.440
 7186SOL    HW122457   0.353   0.360   6.415
 7186SOL    HW222458   0.232   0.443   6.488
 7187SOL     OW22459   3.280   2.926   4.198
 7187SOL    HW122460   3.213   2.986   4.154
 7187SOL    HW222461   3.236   2.872   4.269
 7188SOL     OW22462   3.775   4.211   0.139
 7188SOL    HW122463   3.738   4.241   0.050
 7188SOL    HW222464   3.848   4.273   0.166
 7189SOL     OW22465   6.405   2.786   5.799
 7189SOL    HW122466   6.493   2.786   5.751
 7189SOL    HW222467   6.347   2.857   5.761
 7190SOL     OW22468   5.808   5.190   1.529
 7190SOL    HW122469   5.786   5.285   1.507
 7190SOL    HW222470   5.774   5.167   1.620
 7191SOL     OW22471   0.203   4.881   4.367
 7191SOL    HW122472   0.246   4.873   4.456
 7191SOL    HW222473   0.262   4.933   4.305
 7192SOL     OW22474   1.955   4.430   6.599
 7192SOL    HW122475   1.969   4.481   6.683
 7192SOL    HW222476   2.001   4.342   6.605
 7193SOL     OW22477   2.971   2.138   2.683
 7193SOL    HW122478   2.937   2.044   2.685
 7193SOL    HW222479   3.063   2.140   2.644
 7194SOL     OW22480   3.069   2.787   6.043
 7194SOL    HW122481   3.078   2.859   6.113
 7194SOL    HW222482   3.111   2.819   5.958
 7195SOL     OW22483   0.256   4.723   5.020
 7195SOL    HW122484   0.176   4.737   4.962
 7195SOL    HW222485   0.329   4.681   4.966
 7196SOL     OW22486   3.358   4.201   1.800
 7196SOL    HW122487   3.454   4.206   1.829
 7196SOL    HW222488   3.353   4.161   1.709
 7197SOL     OW22489   2.634   4.180   5.694
 7197SOL    HW122490   2.680   4.266   5.672
 7197SOL    HW222491   2.538   4.185   5.669
 7198SOL     OW22492   0.510   0.718   1.813
 7198SOL    HW122493   0.556   0.735   1.726
 7198SOL    HW222494   0.447   0.793   1.833
 7199SOL     OW22495   7.014   1.218   2.275
 7199SOL    HW122496   7.014   1.120   2.259
 7199SOL    HW222497   6.979   1.237   2.367
 7200SOL     OW22498   0.990   2.493   1.020
 7200SOL    HW122499   0.916   2.559   1.024
 7200SOL    HW222500   0.993   2.452   0.928
 7201SOL     OW22501   5.533   5.633   3.927
 7201SOL    HW122502   5.450   5.636   3.871
 7201SOL    HW222503   5.553   5.538   3.951
 7202SOL     OW22504   4.542   1.036   5.584
 7202SOL    HW122505   4.605   1.009   5.657
 7202SOL    HW222506   4.595   1.068   5.505
 7203SOL     OW22507   0.022   1.519   1.073
 7203SOL    HW122508   0.112   1.477   1.088
 7203SOL    HW222509   7.000   1.547   1.160
 7204SOL     OW22510   6.229   6.943   1.754
 7204SOL    HW122511   6.231   0.008   1.696
 7204SOL    HW222512   6.137   6.929   1.789
 7205SOL     OW22513   3.150   1.870   4.211
 7205SOL    HW122514   3.195   1.804   4.271
 7205SOL    HW222515   3.189   1.864   4.119
 7206SOL     OW22516   2.174   3.786   0.835
 7206SOL    HW122517   2.178   3.832   0.924
 7206SOL    HW222518   2.255   3.809   0.782
 7207SOL     OW22519   2.019   1.044   4.007
 7207SOL    HW122520   1.977   1.109   3.944
 7207SOL    HW222521   1.957   1.028   4.084
 7208SOL     OW22522   2.935   0.227   4.188
 7208SOL    HW122523   2.892   0.297   4.245
 7208SOL    HW222524   3.034   0.235   4.194
 7209SOL     OW22525   3.434   2.074   2.297
 7209SOL    HW122526   3.371   2.049   2.371
 7209SOL    HW222527   3.384   2.072   2.210
 7210SOL     OW22528   3.061   1.299   3.252
 7210SOL    HW122529   3.007   1.373   3.292
 7210SOL    HW222530   3.018   1.211   3.273
 7211SOL     OW22531   3.924   5.889   4.933
 7211SOL    HW122532   4.001   5.869   4.994
 7211SOL    HW222533   3.850   5.823   4.949
 7212SOL     OW22534   6.645   4.372   5.878
 7212SOL    HW122535   6.606   4.376   5.786
 7212SOL    HW222536   6.745   4.367   5.872
 7213SOL     OW22537   4.244   2.144   0.525
 7213SOL    HW122538   4.320   2.192   0.569
 7213SOL    HW222539   4.160   2.197   0.537
 7214SOL     OW22540   6.986   0.699   6.437
 7214SOL    HW122541   7.004   0.756   6.357
 7214SOL    HW222542   7.012   0.749   6.520
 7215SOL     OW22543   6.792   2.697   2.847
 7215SOL    HW122544   6.886   2.670   2.868
 7215SOL    HW222545   6.793   2.772   2.780
 7216SOL     OW22546   3.480   6.580   2.871
 7216SOL    HW122547   3.519   6.643   2.803
 7216SOL    HW222548   3.522   6.598   2.960
 7217SOL     OW22549   1.308   2.905   3.603
 7217SOL    HW122550   1.210   2.889   3.594
 7217SOL    HW222551   1.345   2.844   3.674
 7218SOL     OW22552   6.295   4.260   4.584
 7218SOL    HW122553   6.294   4.296   4.677
 7218SOL    HW222554   6.267   4.332   4.520
 7219SOL     OW22555   3.475   5.930   2.549
 7219SOL    HW122556   3.387   5.925   2.595
 7219SOL    HW222557   3.472   5.877   2.465
 7220SOL     OW22558   5.915   4.566   5.150
 7220SOL    HW122559   5.867   4.637   5.099
 7220SOL    HW222560   5.917   4.482   5.095
 7221SOL     OW22561   3.573   5.752   4.259
 7221SOL    HW122562   3.663   5.760   4.304
 7221SOL    HW222563   3.514   5.826   4.291
 7222SOL     OW22564   0.135   5.839   4.460
 7222SOL    HW122565   0.133   5.741   4.479
 7222SOL    HW222566   0.042   5.874   4.451
 7223SOL     OW22567   7.010   3.753   1.726
 7223SOL    HW122568   0.090   3.729   1.736
 7223SOL    HW222569   6.955   3.694   1.785
 7224SOL     OW22570   3.993   1.728   3.081
 7224SOL    HW122571   4.092   1.726   3.066
 7224SOL    HW222572   3.948   1.670   3.014
 7225SOL     OW22573   1.397   6.758   0.845
 7225SOL    HW122574   1.389   6.660   0.860
 7225SOL    HW222575   1.443   6.800   0.922
 7226SOL     OW22576   5.977   6.344   0.852
 7226SOL    HW122577   5.886   6.365   0.889
 7226SOL    HW222578   6.014   6.426   0.807
 7227SOL     OW22579   2.282   0.970   1.936
 7227SOL    HW122580   2.325   0.945   1.849
 7227SOL    HW222581   2.331   1.048   1.976
 7228SOL     OW22582   6.966   3.231   2.612
 7228SOL    HW122583   6.975   3.300   2.541
 7228SOL    HW222584   0.037   3.223   2.661
 7229SOL     OW22585   6.842   0.780   5.108
 7229SOL    HW122586   6.746   0.770   5.081
 7229SOL    HW222587   6.901   0.746   5.035
 7230SOL     OW22588   2.316   5.447   4.072
 7230SOL    HW122589   2.328   5.509   3.995
 7230SOL    HW222590   2.220   5.425   4.083
 7231SOL     OW22591   4.541   1.514   6.259
 7231SOL    HW122592   4.547   1.543   6.355
 7231SOL    HW222593   4.630   1.525   6.215
 7232SOL     OW22594   5.145   6.925   3.467
 7232SOL    HW122595   5.208   6.852   3.438
 7232SOL    HW222596   5.166   7.009   3.417
 7233SOL     OW22597   6.609   1.318   4.742
 7233SOL    HW122598   6.656   1.234   4.714
 7233SOL    HW222599   6.637   1.394   4.683
 7234SOL     OW22600   5.020   4.196   2.962
 7234SOL    HW122601   4.957   4.144   2.905
 7234SOL    HW222602   5.043   4.282   2.916
 7235SOL     OW22603   0.028   5.973   1.436
 7235SOL    HW122604   6.974   5.921   1.387
 7235SOL    HW222605   0.023   6.069   1.409
 7236SOL     OW22606   2.178   2.528   3.087
 7236SOL    HW122607   2.162   2.484   2.999
 7236SOL    HW222608   2.162   2.463   3.161
 7237SOL     OW22609   5.610   1.017   0.224
 7237SOL    HW122610   5.553   0.987   0.300
 7237SOL    HW222611   5.601   0.953   0.148
 7238SOL     OW22612   4.099   2.993   0.674
 7238SOL    HW122613   4.151   3.060   0.726
 7238SOL    HW222614   4.010   3.030   0.651
 7239SOL     OW22615   6.997   2.867   2.572
 7239SOL    HW122616   7.004   2.921   2.489
 7239SOL    HW222617   0.027   2.914   2.647
 7240SOL     OW22618   6.769   1.830   6.396
 7240SOL    HW122619   6.839   1.786   6.454
 7240SOL    HW222620   6.719   1.760   6.345
 7241SOL     OW22621   2.874   1.758   1.812
 7241SOL    HW122622   2.792   1.754   1.870
 7241SOL    HW222623   2.858   1.822   1.737
 7242SOL     OW22624   6.318   5.352   4.914
 7242SOL    HW122625   6.380   5.306   4.850
 7242SOL    HW222626   6.366   5.365   5.001
 7243SOL     OW22627   6.151   4.116   6.744
 7243SOL    HW122628   6.139   4.048   6.672
 7243SOL    HW222629   6.127   4.207   6.707
 7244SOL     OW22630   0.233   6.694   6.739
 7244SOL    HW122631   0.199   6.732   6.825
 7244SOL    HW222632   0.173   6.721   6.664
 7245SOL     OW22633   1.213   3.083   0.068
 7245SOL    HW122634   1.137   3.039   0.021
 7245SOL    HW222635   1.231   3.172   0.026
 7246SOL     OW22636   3.246   0.227   4.158
 7246SOL    HW122637   3.235   0.135   4.120
 7246SOL    HW222638   3.293   0.285   4.091
 7247SOL     OW22639   2.697   2.660   5.696
 7247SOL    HW122640   2.749   2.612   5.625
 7247SOL    HW222641   2.656   2.593   5.759
 7248SOL     OW22642   3.387   0.776   4.621
 7248SOL    HW122643   3.408   0.691   4.574
 7248SOL    HW222644   3.431   0.776   4.711
 7249SOL     OW22645   3.763   5.239   1.762
 7249SOL    HW122646   3.673   5.249   1.720
 7249SOL    HW222647   3.761   5.279   1.854
 7250SOL     OW22648   5.059   5.889   5.771
 7250SOL    HW122649   5.132   5.946   5.807
 7250SOL    HW222650   4.979   5.896   5.830
 7251SOL     OW22651   0.258   5.712   5.407
 7251SOL    HW122652   0.292   5.625   5.442
 7251SOL    HW222653   0.244   5.775   5.482
 7252SOL     OW22654   3.321   4.048   2.030
 7252SOL    HW122655   3.301   3.950   2.032
 7252SOL    HW222656   3.317   4.081   1.935
 7253SOL     OW22657   1.359   5.692   5.374
 7253SOL    HW122658   1.316   5.602   5.363
 7253SOL    HW222659   1.452   5.690   5.338
 7254SOL     OW22660   5.112   3.946   3.813
 7254SOL    HW122661   5.110   3.874   3.883
 7254SOL    HW222662   5.023   3.952   3.769
 7255SOL     OW22663   5.560   3.452   6.608
 7255SOL    HW122664   5.576   3.524   6.541
 7255SOL    HW222665   5.608   3.474   6.693
 7256SOL     OW22666   3.479   6.366   6.078
 7256SOL    HW122667   3.479   6.311   6.162
 7256SOL    HW222668   3.569   6.410   6.068
 7257SOL     OW22669   0.949   1.062   4.575
 7257SOL    HW122670   0.885   1.129   4.536
 7257SOL    HW222671   1.013   1.110   4.635
 7258SOL     OW22672   6.038   1.805   3.129
 7258SOL    HW122673   5.950   1.771   3.096
 7258SOL    HW222674   6.076   1.869   3.062
 7259SOL     OW22675   0.888   4.501   2.932
 7259SOL    HW122676   0.791   4.514   2.950
 7259SOL    HW222677   0.928   4.445   3.005
 7260SOL     OW22678   5.621   3.422   1.006
 7260SOL    HW122679   5.533   3.399   1.049
 7260SOL    HW222680   5.611   3.413   0.907
 7261SOL     OW22681   0.112   4.281   0.405
 7261SOL    HW122682   0.123   4.189   0.368
 7261SOL    HW222683   0.033   4.325   0.362
 7262SOL     OW22684   6.319   1.790   6.228
 7262SOL    HW122685   6.359   1.856   6.292
 7262SOL    HW222686   6.360   1.804   6.138
 7263SOL     OW22687   0.366   5.741   0.128
 7263SOL    HW122688   0.457   5.731   0.169
 7263SOL    HW222689   0.375   5.784   0.038
 7264SOL     OW22690   5.680   1.566   0.617
 7264SOL    HW122691   5.636   1.482   0.649
 7264SOL    HW222692   5.779   1.555   0.622
 7265SOL     OW22693   4.199   5.781   5.106
 7265SOL    HW122694   4.209   5.689   5.145
 7265SOL    HW222695   4.287   5.812   5.073
 7266SOL     OW22696   6.897   0.368   3.900
 7266SOL    HW122697   6.943   0.309   3.966
 7266SOL    HW222698   6.879   0.317   3.816
 7267SOL     OW22699   6.202   5.619   4.898
 7267SOL    HW122700   6.267   5.554   4.936
 7267SOL    HW222701   6.170   5.681   4.970
 7268SOL     OW22702   6.386   6.177   3.922
 7268SOL    HW122703   6.380   6.155   4.020
 7268SOL    HW222704   6.334   6.109   3.870
 7269SOL     OW22705   2.267   5.092   5.088
 7269SOL    HW122706   2.277   5.174   5.032
 7269SOL    HW222707   2.356   5.065   5.125
 7270SOL     OW22708   0.769   1.535   3.831
 7270SOL    HW122709   0.810   1.471   3.767
 7270SOL    HW222710   0.672   1.549   3.807
 7271SOL     OW22711   0.445   4.056   3.567
 7271SOL    HW122712   0.459   4.155   3.574
 7271SOL    HW222713   0.381   4.036   3.493
 7272SOL     OW22714   6.248   5.549   2.856
 7272SOL    HW122715   6.203   5.612   2.793
 7272SOL    HW222716   6.222   5.572   2.950
 7273SOL     OW22717   0.094   2.704   5.537
 7273SOL    HW122718   0.087   2.800   5.565
 7273SOL    HW222719   0.178   2.665   5.575
 7274SOL     OW22720   0.345   4.337   0.164
 7274SOL    HW122721   0.359   4.370   0.257
 7274SOL    HW222722   0.329   4.238   0.166
 7275SOL     OW22723   6.275   7.001   3.052
 7275SOL    HW122724   6.339   6.924   3.052
 7275SOL    HW222725   6.290   0.040   2.971
 7276SOL     OW22726   4.609   6.491   3.606
 7276SOL    HW122727   4.517   6.473   3.572
 7276SOL    HW222728   4.637   6.417   3.668
 7277SOL     OW22729   4.789   0.363   5.548
 7277SOL    HW122730   4.768   0.318   5.462
 7277SOL    HW222731   4.735   0.321   5.622
 7278SOL     OW22732   3.299   3.812   2.515
 7278SOL    HW122733   3.342   3.752   2.447
 7278SOL    HW222734   3.332   3.906   2.502
 7279SOL     OW22735   4.122   5.684   0.461
 7279SOL    HW122736   4.207   5.641   0.432
 7279SOL    HW222737   4.135   5.783   0.465
 7280SOL     OW22738   4.661   0.253   5.766
 7280SOL    HW122739   4.606   0.288   5.842
 7280SOL    HW222740   4.610   0.181   5.720
 7281SOL     OW22741   4.093   1.748   6.589
 7281SOL    HW122742   4.104   1.708   6.498
 7281SOL    HW222743   4.112   1.677   6.658
 7282SOL     OW22744   5.897   5.387   2.113
 7282SOL    HW122745   5.976   5.445   2.092
 7282SOL    HW222746   5.813   5.440   2.103
 7283SOL     OW22747   2.712   0.910   3.250
 7283SOL    HW122748   2.772   0.837   3.284
 7283SOL    HW222749   2.617   0.878   3.249
 7284SOL     OW22750   6.575   3.652   5.312
 7284SOL    HW122751   6.612   3.565   5.343
 7284SOL    HW222752   6.528   3.698   5.388
 7285SOL     OW22753   4.857   5.596   1.851
 7285SOL    HW122754   4.786   5.525   1.854
 7285SOL    HW222755   4.937   5.564   1.901
 7286SOL     OW22756   2.301   2.541   1.238
 7286SOL    HW122757   2.359   2.518   1.159
 7286SOL    HW222758   2.319   2.477   1.312
 7287SOL     OW22759   6.404   0.880   6.463
 7287SOL    HW122760   6.359   0.910   6.379
 7287SOL    HW222761   6.501   0.904   6.460
 7288SOL     OW22762   4.102   0.009   6.447
 7288SOL    HW122763   4.138   0.066   6.373
 7288SOL    HW222764   4.042   0.064   6.505
 7289SOL     OW22765   5.761   1.795   3.160
 7289SOL    HW122766   5.740   1.722   3.095
 7289SOL    HW222767   5.739   1.765   3.253
 7290SOL     OW22768   2.358   5.269   4.852
 7290SOL    HW122769   2.415   5.339   4.896
 7290SOL    HW222770   2.290   5.314   4.794
 7291SOL     OW22771   2.517   6.342   1.188
 7291SOL    HW122772   2.555   6.269   1.245
 7291SOL    HW222773   2.564   6.427   1.208
 7292SOL     OW22774   2.797   6.773   3.217
 7292SOL    HW122775   2.815   6.842   3.287
 7292SOL    HW222776   2.854   6.790   3.137
 7293SOL     OW22777   1.883   1.468   4.793
 7293SOL    HW122778   1.970   1.516   4.800
 7293SOL    HW222779   1.868   1.440   4.697
 7294SOL     OW22780   2.383   5.296   0.490
 7294SOL    HW122781   2.315   5.227   0.515
 7294SOL    HW222782   2.458   5.295   0.557
 7295SOL     OW22783   0.378   1.785   0.701
 7295SOL    HW122784   0.287   1.756   0.729
 7295SOL    HW222785   0.409   1.861   0.759
 7296SOL     OW22786   2.982   4.757   0.798
 7296SOL    HW122787   2.962   4.739   0.895
 7296SOL    HW222788   2.967   4.854   0.778
 7297SOL     OW22789   4.486   6.429   0.625
 7297SOL    HW122790   4.579   6.463   0.610
 7297SOL    HW222791   4.426   6.505   0.652
 7298SOL     OW22792   5.759   3.819   4.679
 7298SOL    HW122793   5.669   3.858   4.696
 7298SOL    HW222794   5.816   3.887   4.633
 7299SOL     OW22795   6.695   2.940   0.851
 7299SOL    HW122796   6.736   3.031   0.850
 7299SOL    HW222797   6.667   2.914   0.759
 7300SOL     OW22798   4.805   5.893   0.884
 7300SOL    HW122799   4.872   5.820   0.894
 7300SOL    HW222800   4.764   5.913   0.974
 7301SOL     OW22801   6.555   0.053   5.764
 7301SOL    HW122802   6.608   0.015   5.840
 7301SOL    HW222803   6.487   7.001   5.734
 7302SOL     OW22804   0.217   1.032   0.224
 7302SOL    HW122805   0.231   1.117   0.174
 7302SOL    HW222806   0.129   1.036   0.272
 7303SOL     OW22807   3.621   0.403   6.703
 7303SOL    HW122808   3.713   0.369   6.683
 7303SOL    HW222809   3.625   0.465   6.781
 7304SOL     OW22810   4.150   3.580   6.139
 7304SOL    HW122811   4.178   3.484   6.144
 7304SOL    HW222812   4.224   3.634   6.100
 7305SOL     OW22813   5.608   1.733   0.132
 7305SOL    HW122814   5.585   1.742   0.229
 7305SOL    HW222815   5.588   1.819   0.085
 7306SOL     OW22816   4.905   4.210   1.477
 7306SOL    HW122817   4.814   4.173   1.494
 7306SOL    HW222818   4.903   4.268   1.396
 7307SOL     OW22819   3.214   6.580   1.541
 7307SOL    HW122820   3.154   6.617   1.471
 7307SOL    HW222821   3.265   6.655   1.583
 7308SOL     OW22822   6.930   3.656   4.273
 7308SOL    HW122823   6.916   3.630   4.177
 7308SOL    HW222824   6.976   3.581   4.321
 7309SOL     OW22825   5.240   6.430   0.501
 7309SOL    HW122826   5.328   6.416   0.547
 7309SOL    HW222827   5.206   6.343   0.466
 7310SOL     OW22828   2.169   5.648   1.089
 7310SOL    HW122829   2.108   5.574   1.116
 7310SOL    HW222830   2.260   5.634   1.128
 7311SOL     OW22831   2.810   2.084   1.959
 7311SOL    HW122832   2.854   2.009   2.008
 7311SOL    HW222833   2.798   2.162   2.021
 7312SOL     OW22834   0.043   2.078   5.487
 7312SOL    HW122835   0.055   2.174   5.462
 7312SOL    HW222836   0.124   2.045   5.536
 7313SOL     OW22837   4.243   2.256   6.460
 7313SOL    HW122838   4.296   2.333   6.496
 7313SOL    HW222839   4.301   2.202   6.399
 7314SOL     OW22840   6.811   3.742   5.163
 7314SOL    HW122841   6.855   3.831   5.177
 7314SOL    HW222842   6.730   3.735   5.220
 7315SOL     OW22843   6.437   0.091   3.900
 7315SOL    HW122844   6.486   0.083   3.986
 7315SOL    HW222845   6.424   0.188   3.878
 7316SOL     OW22846   3.664   3.363   5.623
 7316SOL    HW122847   3.712   3.327   5.543
 7316SOL    HW222848   3.594   3.298   5.652
 7317SOL     OW22849   3.596   0.869   2.781
 7317SOL    HW122850   3.610   0.881   2.683
 7317SOL    HW222851   3.514   0.814   2.797
 7318SOL     OW22852   0.806   1.905   1.766
 7318SOL    HW122853   0.790   1.807   1.761
 7318SOL    HW222854   0.894   1.923   1.811
 7319SOL     OW22855   6.253   4.119   7.011
 7319SOL    HW122856   6.353   4.129   7.008
 7319SOL    HW222857   6.217   4.121   6.918
 7320SOL     OW22858   0.415   3.405   2.136
 7320SOL    HW122859   0.472   3.458   2.199
 7320SOL    HW222860   0.455   3.408   2.044
 7321SOL     OW22861   2.457   1.404   4.534
 7321SOL    HW122862   2.487   1.310   4.517
 7321SOL    HW222863   2.425   1.411   4.628
 7322SOL     OW22864   0.924   3.995   2.937
 7322SOL    HW122865   0.888   4.082   2.970
 7322SOL    HW222866   0.859   3.955   2.871
 7323SOL     OW22867   1.731   2.190   3.347
 7323SOL    HW122868   1.687   2.224   3.430
 7323SOL    HW222869   1.783   2.265   3.305
 7324SOL     OW22870   5.619   0.880   3.364
 7324SOL    HW122871   5.650   0.786   3.350
 7324SOL    HW222872   5.572   0.887   3.452
 7325SOL     OW22873   3.975   6.345   6.109
 7325SOL    HW122874   3.968   6.419   6.176
 7325SOL    HW222875   4.071   6.320   6.096
 7326SOL     OW22876   2.589   6.404   5.915
 7326SOL    HW122877   2.586   6.463   5.995
 7326SOL    HW222878   2.680   6.405   5.875
 7327SOL     OW22879   0.802   2.915   6.155
 7327SOL    HW122880   0.806   3.010   6.123
 7327SOL    HW222881   0.706   2.886   6.159
 7328SOL     OW22882   3.332   6.936   6.882
 7328SOL    HW122883   3.427   6.916   6.856
 7328SOL    HW222884   3.329   0.004   6.935
 7329SOL     OW22885   4.576   3.402   0.806
 7329SOL    HW122886   4.490   3.432   0.765
 7329SOL    HW222887   4.582   3.302   0.803
 7330SOL     OW22888   3.332   1.507   6.793
 7330SOL    HW122889   3.311   1.600   6.825
 7330SOL    HW222890   3.257   1.474   6.736
 7331SOL     OW22891   5.131   0.562   2.375
 7331SOL    HW122892   5.189   0.598   2.448
 7331SOL    HW222893   5.040   0.542   2.412
 7332SOL     OW22894   2.529   6.063   0.164
 7332SOL    HW122895   2.615   6.095   0.126
 7332SOL    HW222896   2.514   5.967   0.139
 7333SOL     OW22897   0.564   4.870   3.066
 7333SOL    HW122898   0.598   4.871   2.972
 7333SOL    HW222899   0.640   4.884   3.129
 7334SOL     OW22900   3.838   5.939   5.346
 7334SOL    HW122901   3.741   5.913   5.351
 7334SOL    HW222902   3.848   6.035   5.374
 7335SOL     OW22903   1.490   2.284   2.341
 7335SOL    HW122904   1.432   2.356   2.302
 7335SOL    HW222905   1.565   2.264   2.278
 7336SOL     OW22906   1.670   5.906   4.016
 7336SOL    HW122907   1.755   5.958   4.023
 7336SOL    HW222908   1.691   5.809   4.003
 7337SOL     OW22909   1.207   3.241   2.304
 7337SOL    HW122910   1.140   3.168   2.313
 7337SOL    HW222911   1.294   3.203   2.273
 7338SOL     OW22912   6.905   2.468   1.774
 7338SOL    HW122913   6.936   2.467   1.869
 7338SOL    HW222914   6.935   2.384   1.728
 7339SOL     OW22915   6.627   6.076   3.866
 7339SOL    HW122916   6.540   6.121   3.886
 7339SOL    HW222917   6.661   6.107   3.777
 7340SOL     OW22918   2.417   0.548   0.217
 7340SOL    HW122919   2.470   0.467   0.241
 7340SOL    HW222920   2.324   0.521   0.193
 7341SOL     OW22921   6.368   2.080   0.259
 7341SOL    HW122922   6.344   2.141   0.334
 7341SOL    HW222923   6.287   2.061   0.205
 7342SOL     OW22924   6.534   6.397   2.710
 7342SOL    HW122925   6.609   6.377   2.774
 7342SOL    HW222926   6.448   6.404   2.761
 7343SOL     OW22927   5.468   3.143   0.717
 7343SOL    HW122928   5.395   3.124   0.652
 7343SOL    HW222929   5.545   3.081   0.700
 7344SOL     OW22930   1.151   6.158   6.018
 7344SOL    HW122931   1.247   6.170   6.044
 7344SOL    HW222932   1.146   6.120   5.925
 7345SOL     OW22933   3.908   3.286   6.003
 7345SOL    HW122934   3.899   3.364   6.066
 7345SOL    HW222935   3.905   3.201   6.055
 7346SOL     OW22936   3.748   5.555   2.623
 7346SOL    HW122937   3.814   5.602   2.682
 7346SOL    HW222938   3.793   5.479   2.576
 7347SOL     OW22939   6.674   2.107   0.206
 7347SOL    HW122940   6.656   2.035   0.273
 7347SOL    HW222941   6.588   2.143   0.172
 7348SOL     OW22942   1.776   4.587   2.712
 7348SOL    HW122943   1.742   4.666   2.661
 7348SOL    HW222944   1.795   4.512   2.649
 7349SOL     OW22945   4.031   0.484   1.256
 7349SOL    HW122946   4.124   0.511   1.282
 7349SOL    HW222947   3.975   0.566   1.242
 7350SOL     OW22948   2.735   0.625   5.080
 7350SOL    HW122949   2.831   0.631   5.052
 7350SOL    HW222950   2.689   0.554   5.027
 7351SOL     OW22951   4.573   4.995   3.911
 7351SOL    HW122952   4.613   4.903   3.909
 7351SOL    HW222953   4.541   5.019   3.820
 7352SOL     OW22954   0.609   2.613   3.069
 7352SOL    HW122955   0.598   2.669   3.151
 7352SOL    HW222956   0.653   2.527   3.093
 7353SOL     OW22957   6.198   0.295   6.947
 7353SOL    HW122958   6.109   0.291   6.993
 7353SOL    HW222959   6.271   0.279   7.013
 7354SOL     OW22960   1.279   1.724   2.869
 7354SOL    HW122961   1.350   1.674   2.920
 7354SOL    HW222962   1.196   1.669   2.866
 7355SOL     OW22963   0.186   1.907   6.047
 7355SOL    HW122964   0.150   1.925   6.138
 7355SOL    HW222965   0.111   1.908   5.981
 7356SOL     OW22966   4.181   3.433   6.518
 7356SOL    HW122967   4.279   3.453   6.514
 7356SOL    HW222968   4.144   3.430   6.425
 7357SOL     OW22969   5.501   5.806   1.701
 7357SOL    HW122970   5.490   5.731   1.637
 7357SOL    HW222971   5.486   5.774   1.795
 7358SOL     OW22972   5.896   2.094   2.692
 7358SOL    HW122973   5.948   2.081   2.607
 7358SOL    HW222974   5.880   2.005   2.734
 7359SOL     OW22975   4.584   0.497   6.512
 7359SOL    HW122976   4.640   0.551   6.448
 7359SOL    HW222977   4.615   0.402   6.511
 7360SOL     OW22978   2.572   3.265   5.316
 7360SOL    HW122979   2.549   3.180   5.269
 7360SOL    HW222980   2.545   3.258   5.412
 7361SOL     OW22981   4.845   0.177   2.481
 7361SOL    HW122982   4.804   0.120   2.553
 7361SOL    HW222983   4.843   0.272   2.509
 7362SOL     OW22984   3.735   5.282   6.775
 7362SOL    HW122985   3.826   5.284   6.816
 7362SOL    HW222986   3.668   5.318   6.839
 7363SOL     OW22987   3.903   0.662   0.811
 7363SOL    HW122988   3.899   0.587   0.877
 7363SOL    HW222989   3.965   0.733   0.844
 7364SOL     OW22990   4.787   6.980   1.774
 7364SOL    HW122991   4.869   6.924   1.761
 7364SOL    HW222992   4.803   0.028   1.848
 7365SOL     OW22993   5.961   4.619   2.303
 7365SOL    HW122994   6.041   4.661   2.259
 7365SOL    HW222995   5.918   4.555   2.240
 7366SOL     OW22996   2.531   1.313   4.021
 7366SOL    HW122997   2.606   1.284   3.962
 7366SOL    HW222998   2.556   1.398   4.067
 7367SOL     OW22999   5.248   1.069   6.401
 7367SOL    HW123000   5.210   0.984   6.437
 7367SOL    HW223001   5.188   1.106   6.330
 7368SOL     OW23002   4.101   3.295   2.772
 7368SOL    HW123003   4.005   3.270   2.756
 7368SOL    HW223004   4.108   3.395   2.782
 7369SOL     OW23005   5.141   2.859   0.451
 7369SOL    HW123006   5.054   2.855   0.401
 7369SOL    HW223007   5.127   2.830   0.545
 7370SOL     OW23008   2.307   1.674   4.631
 7370SOL    HW123009   2.223   1.696   4.582
 7370SOL    HW223010   2.377   1.742   4.609
 7371SOL     OW23011   4.188   0.243   3.647
 7371SOL    HW123012   4.103   0.275   3.606
 7371SOL    HW223013   4.251   0.214   3.575
 7372SOL     OW23014   4.391   6.823   4.648
 7372SOL    HW123015   4.397   6.907   4.594
 7372SOL    HW223016   4.444   6.751   4.604
 7373SOL     OW23017   4.911   2.599   4.679
 7373SOL    HW123018   4.830   2.607   4.737
 7373SOL    HW223019   4.947   2.506   4.686
 7374SOL     OW23020   0.665   1.628   5.067
 7374SOL    HW123021   0.635   1.722   5.081
 7374SOL    HW223022   0.761   1.619   5.093
 7375SOL     OW23023   1.897   2.880   2.227
 7375SOL    HW123024   1.824   2.833   2.276
 7375SOL    HW223025   1.909   2.838   2.137
 7376SOL     OW23026   0.414   4.163   0.636
 7376SOL    HW123027   0.508   4.161   0.668
 7376SOL    HW223028   0.352   4.160   0.715
 7377SOL     OW23029   3.050   5.609   0.101
 7377SOL    HW123030   2.954   5.639   0.092
 7377SOL    HW223031   3.109   5.690   0.103
 7378SOL     OW23032   1.496   6.264   3.775
 7378SOL    HW123033   1.460   6.172   3.792
 7378SOL    HW223034   1.587   6.272   3.816
 7379SOL     OW23035   4.151   0.665   0.958
 7379SOL    HW123036   4.085   0.616   1.014
 7379SOL    HW223037   4.240   0.665   1.004
 7380SOL     OW23038   5.794   3.494   3.642
 7380SOL    HW123039   5.739   3.470   3.722
 7380SOL    HW223040   5.887   3.460   3.654
 7381SOL     OW23041   3.721   0.920   0.099
 7381SOL    HW123042   3.700   0.904   0.196
 7381SOL    HW223043   3.727   1.018   0.083
 7382SOL     OW23044   6.910   1.307   6.020
 7382SOL    HW123045   6.819   1.284   5.986
 7382SOL    HW223046   6.903   1.378   6.090
 7383SOL     OW23047   1.682   6.652   1.564
 7383SOL    HW123048   1.642   6.641   1.473
 7383SOL    HW223049   1.679   6.564   1.611
 7384SOL     OW23050   0.477   6.951   1.065
 7384SOL    HW123051   0.384   6.934   1.035
 7384SOL    HW223052   0.478   0.012   1.129
 7385SOL     OW23053   4.329   4.953   2.442
 7385SOL    HW123054   4.296   5.034   2.491
 7385SOL    HW223055   4.299   4.871   2.490
 7386SOL     OW23056   6.194   3.294   0.797
 7386SOL    HW123057   6.199   3.310   0.698
 7386SOL    HW223058   6.284   3.265   0.830
 7387SOL     OW23059   6.495   4.687   5.445
 7387SOL    HW123060   6.527   4.709   5.537
 7387SOL    HW223061   6.404   4.726   5.430
 7388SOL     OW23062   1.945   6.419   2.342
 7388SOL    HW123063   1.927   6.337   2.288
 7388SOL    HW223064   1.916   6.500   2.290
 7389SOL     OW23065   6.834   3.124   0.255
 7389SOL    HW123066   6.923   3.167   0.270
 7389SOL    HW223067   6.786   3.113   0.342
 7390SOL     OW23068   2.566   2.108   2.581
 7390SOL    HW123069   2.609   2.194   2.607
 7390SOL    HW223070   2.474   2.104   2.619
 7391SOL     OW23071   3.711   3.377   2.840
 7391SOL    HW123072   3.707   3.355   2.937
 7391SOL    HW223073   3.627   3.426   2.814
 7392SOL     OW23074   3.783   5.077   6.618
 7392SOL    HW123075   3.755   5.153   6.676
 7392SOL    HW223076   3.860   5.104   6.561
 7393SOL     OW23077   6.054   5.495   4.470
 7393SOL    HW123078   6.097   5.565   4.413
 7393SOL    HW223079   5.956   5.512   4.475
 7394SOL     OW23080   2.252   2.306   6.212
 7394SOL    HW123081   2.218   2.398   6.233
 7394SOL    HW223082   2.237   2.246   6.291
 7395SOL     OW23083   2.890   4.414   0.968
 7395SOL    HW123084   2.930   4.505   0.979
 7395SOL    HW223085   2.913   4.357   1.046
 7396SOL     OW23086   2.385   5.402   1.671
 7396SOL    HW123087   2.459   5.468   1.661
 7396SOL    HW223088   2.412   5.332   1.737
 7397SOL     OW23089   5.608   4.136   4.082
 7397SOL    HW123090   5.695   4.158   4.127
 7397SOL    HW223091   5.586   4.040   4.098
 7398SOL     OW23092   1.983   4.658   2.868
 7398SOL    HW123093   2.052   4.589   2.851
 7398SOL    HW223094   1.902   4.640   2.812
 7399SOL     OW23095   5.325   1.767   5.087
 7399SOL    HW123096   5.411   1.769   5.036
 7399SOL    HW223097   5.256   1.819   5.038
 7400SOL     OW23098   5.302   2.400   5.298
 7400SOL    HW123099   5.357   2.317   5.310
 7400SOL    HW223100   5.362   2.480   5.301
 7401SOL     OW23101   0.769   2.675   3.728
 7401SOL    HW123102   0.762   2.654   3.630
 7401SOL    HW223103   0.821   2.603   3.774
 7402SOL     OW23104   3.120   6.153   5.391
 7402SOL    HW123105   3.037   6.097   5.397
 7402SOL    HW223106   3.140   6.193   5.481
 7403SOL     OW23107   1.559   2.890   4.525
 7403SOL    HW123108   1.550   2.791   4.512
 7403SOL    HW223109   1.512   2.937   4.452
 7404SOL     OW23110   3.155   3.603   1.068
 7404SOL    HW123111   3.197   3.513   1.075
 7404SOL    HW223112   3.079   3.600   1.004
 7405SOL     OW23113   3.329   6.000   5.226
 7405SOL    HW123114   3.253   6.033   5.283
 7405SOL    HW223115   3.293   5.974   5.136
 7406SOL     OW23116   0.791   1.018   4.883
 7406SOL    HW123117   0.873   1.073   4.899
 7406SOL    HW223118   0.711   1.077   4.875
 7407SOL     OW23119   0.733   6.198   5.944
 7407SOL    HW123120   0.806   6.245   5.993
 7407SOL    HW223121   0.714   6.111   5.989
 7408SOL     OW23122   3.545   3.821   5.210
 7408SOL    HW123123   3.568   3.906   5.162
 7408SOL    HW223124   3.510   3.755   5.144
 7409SOL     OW23125   6.246   4.097   0.529
 7409SOL    HW123126   6.230   4.176   0.588
 7409SOL    HW223127   6.323   4.043   0.564
 7410SOL     OW23128   6.716   0.339   1.715
 7410SOL    HW123129   6.631   0.352   1.766
 7410SOL    HW223130   6.789   0.312   1.779
 7411SOL     OW23131   1.321   1.978   5.268
 7411SOL    HW123132   1.273   2.008   5.350
 7411SOL    HW223133   1.354   2.057   5.218
 7412SOL     OW23134   4.203   6.711   0.019
 7412SOL    HW123135   4.281   6.773   0.006
 7412SOL    HW223136   4.127   6.762   0.060
 7413SOL     OW23137   4.130   6.623   3.112
 7413SOL    HW123138   4.092   6.531   3.114
 7413SOL    HW223139   4.184   6.634   3.029
 7414SOL     OW23140   2.410   2.394   3.970
 7414SOL    HW123141   2.461   2.318   4.009
 7414SOL    HW223142   2.420   2.475   4.028
 7415SOL     OW23143   4.271   6.100   6.594
 7415SOL    HW123144   4.329   6.122   6.515
 7415SOL    HW223145   4.304   6.016   6.637
 7416SOL     OW23146   1.202   1.639   2.503
 7416SOL    HW123147   1.282   1.700   2.495
 7416SOL    HW223148   1.223   1.566   2.569
 7417SOL     OW23149   0.937   1.715   3.903
 7417SOL    HW123150   0.865   1.656   3.867
 7417SOL    HW223151   0.995   1.746   3.829
 7418SOL     OW23152   1.740   3.633   6.341
 7418SOL    HW123153   1.712   3.537   6.340
 7418SOL    HW223154   1.706   3.679   6.259
 7419SOL     OW23155   6.665   3.973   3.810
 7419SOL    HW123156   6.672   4.007   3.903
 7419SOL    HW223157   6.576   3.929   3.797
 7420SOL     OW23158   6.461   6.953   1.908
 7420SOL    HW123159   6.387   6.941   1.842
 7420SOL    HW223160   6.507   6.866   1.922
 7421SOL     OW23161   5.019   3.990   1.643
 7421SOL    HW123162   4.967   4.063   1.599
 7421SOL    HW223163   4.958   3.915   1.667
 7422SOL     OW23164   5.514   2.910   2.049
 7422SOL    HW123165   5.460   2.855   1.986
 7422SOL    HW223166   5.591   2.856   2.083
 7423SOL     OW23167   5.565   1.861   5.974
 7423SOL    HW123168   5.622   1.889   5.897
 7423SOL    HW223169   5.491   1.927   5.986
 7424SOL     OW23170   0.763   1.489   4.084
 7424SOL    HW123171   0.776   1.503   3.986
 7424SOL    HW223172   0.819   1.553   4.135
 7425SOL     OW23173   5.893   0.054   0.267
 7425SOL    HW123174   5.964   0.047   0.337
 7425SOL    HW223175   5.927   0.016   0.181
 7426SOL     OW23176   3.526   2.925   5.901
 7426SOL    HW123177   3.536   2.959   5.808
 7426SOL    HW223178   3.465   2.985   5.952
 7427SOL     OW23179   3.650   1.677   4.296
 7427SOL    HW123180   3.649   1.764   4.247
 7427SOL    HW223181   3.570   1.623   4.269
 7428SOL     OW23182   4.294   5.829   5.515
 7428SOL    HW123183   4.281   5.830   5.614
 7428SOL    HW223184   4.283   5.736   5.481
 7429SOL     OW23185   1.588   0.038   2.426
 7429SOL    HW123186   1.501   0.026   2.377
 7429SOL    HW223187   1.622   0.130   2.410
 7430SOL     OW23188   6.055   5.165   2.903
 7430SOL    HW123189   6.042   5.084   2.846
 7430SOL    HW223190   6.080   5.137   2.995
 7431SOL     OW23191   1.491   1.936   4.639
 7431SOL    HW123192   1.557   1.862   4.626
 7431SOL    HW223193   1.521   2.018   4.591
 7432SOL     OW23194   2.054   0.222   3.064
 7432SOL    HW123195   2.108   0.191   2.985
 7432SOL    HW223196   2.000   0.145   3.099
 7433SOL     OW23197   2.004   0.558   6.602
 7433SOL    HW123198   1.951   0.620   6.661
 7433SOL    HW223199   1.990   0.584   6.506
 7434SOL     OW23200   3.857   5.795   5.802
 7434SOL    HW123201   3.893   5.787   5.709
 7434SOL    HW223202   3.881   5.886   5.838
 7435SOL     OW23203   4.761   5.789   3.109
 7435SOL    HW123204   4.689   5.832   3.164
 7435SOL    HW223205   4.839   5.851   3.102
 7436SOL     OW23206   5.531   3.030   6.551
 7436SOL    HW123207   5.452   2.974   6.525
 7436SOL    HW223208   5.613   2.995   6.507
 7437SOL     OW23209   4.083   6.140   1.269
 7437SOL    HW123210   4.147   6.197   1.320
 7437SOL    HW223211   3.995   6.187   1.264
 7438SOL     OW23212   2.659   0.663   0.145
 7438SOL    HW123213   2.734   0.620   0.095
 7438SOL    HW223214   2.586   0.595   0.159
 7439SOL     OW23215   0.579   4.743   6.179
 7439SOL    HW123216   0.630   4.829   6.180
 7439SOL    HW223217   0.532   4.731   6.266
 7440SOL     OW23218   5.011   3.050   4.445
 7440SOL    HW123219   4.983   3.129   4.390
 7440SOL    HW223220   5.087   3.003   4.400
 7441SOL     OW23221   5.944   6.368   1.563
 7441SOL    HW123222   5.928   6.296   1.630
 7441SOL    HW223223   5.993   6.331   1.484
 7442SOL     OW23224   5.128   0.536   5.152
 7442SOL    HW123225   5.205   0.481   5.184
 7442SOL    HW223226   5.042   0.488   5.169
 7443SOL     OW23227   0.278   0.576   2.069
 7443SOL    HW123228   0.319   0.557   1.980
 7443SOL    HW223229   0.228   0.496   2.101
 7444SOL     OW23230   0.746   6.488   6.543
 7444SOL    HW123231   0.666   6.543   6.565
 7444SOL    HW223232   0.748   6.469   6.445
 7445SOL     OW23233   4.348   5.910   1.361
 7445SOL    HW123234   4.339   6.010   1.368
 7445SOL    HW223235   4.399   5.875   1.439
 7446SOL     OW23236   5.202   4.047   0.352
 7446SOL    HW123237   5.142   3.968   0.365
 7446SOL    HW223238   5.150   4.122   0.312
 7447SOL     OW23239   0.984   5.062   1.530
 7447SOL    HW123240   0.962   5.039   1.436
 7447SOL    HW223241   0.933   5.001   1.592
 7448SOL     OW23242   4.708   4.987   5.836
 7448SOL    HW123243   4.700   5.021   5.930
 7448SOL    HW223244   4.620   4.994   5.790
 7449SOL     OW23245   0.467   4.671   6.624
 7449SOL    HW123246   0.494   4.762   6.594
 7449SOL    HW223247   0.529   4.603   6.584
 7450SOL     OW23248   5.101   1.852   5.778
 7450SOL    HW123249   5.043   1.877   5.701
 7450SOL    HW223250   5.050   1.792   5.840
 7451SOL     OW23251   5.468   4.993   2.746
 7451SOL    HW123252   5.528   4.925   2.788
 7451SOL    HW223253   5.386   4.946   2.711
 7452SOL     OW23254   5.836   5.447   5.191
 7452SOL    HW123255   5.809   5.391   5.269
 7452SOL    HW223256   5.872   5.535   5.223
 7453SOL     OW23257   4.036   5.689   0.172
 7453SOL    HW123258   4.086   5.628   0.111
 7453SOL    HW223259   4.072   5.680   0.265
 7454SOL     OW23260   4.040   2.358   0.406
 7454SOL    HW123261   3.943   2.335   0.418
 7454SOL    HW223262   4.082   2.374   0.495
 7455SOL     OW23263   6.882   2.949   3.283
 7455SOL    HW123264   6.824   2.870   3.264
 7455SOL    HW223265   6.844   2.998   3.362
 7456SOL     OW23266   2.909   2.067   5.352
 7456SOL    HW123267   2.833   2.038   5.293
 7456SOL    HW223268   2.995   2.057   5.302
 7457SOL     OW23269   2.980   0.269   3.065
 7457SOL    HW123270   3.071   0.241   3.036
 7457SOL    HW223271   2.970   0.368   3.052
 7458SOL     OW23272   1.333   5.883   5.574
 7458SOL    HW123273   1.345   5.830   5.490
 7458SOL    HW223274   1.301   5.975   5.552
 7459SOL     OW23275   5.905   0.827   2.786
 7459SOL    HW123276   5.892   0.737   2.828
 7459SOL    HW223277   5.818   0.858   2.748
 7460SOL     OW23278   1.507   6.938   0.642
 7460SOL    HW123279   1.480   6.893   0.727
 7460SOL    HW223280   1.461   0.010   0.634
 7461SOL     OW23281   1.052   5.367   6.200
 7461SOL    HW123282   0.988   5.375   6.124
 7461SOL    HW223283   1.146   5.363   6.164
 7462SOL     OW23284   1.054   4.831   1.023
 7462SOL    HW123285   1.012   4.907   0.972
 7462SOL    HW223286   1.135   4.799   0.974
 7463SOL     OW23287   3.673   4.385   0.426
 7463SOL    HW123288   3.588   4.420   0.388
 7463SOL    HW223289   3.680   4.287   0.408
 7464SOL     OW23290   6.312   6.093   5.761
 7464SOL    HW123291   6.316   5.997   5.790
 7464SOL    HW223292   6.255   6.100   5.679
 7465SOL     OW23293   2.086   4.946   0.447
 7465SOL    HW123294   2.034   5.023   0.411
 7465SOL    HW223295   2.142   4.976   0.524
 7466SOL     OW23296   0.610   6.544   4.749
 7466SOL    HW123297   0.639   6.603   4.674
 7466SOL    HW223298   0.553   6.470   4.714
 7467SOL     OW23299   0.444   3.574   5.796
 7467SOL    HW123300   0.538   3.606   5.784
 7467SOL    HW223301   0.445   3.480   5.830
 7468SOL     OW23302   5.805   3.503   5.780
 7468SOL    HW123303   5.893   3.492   5.826
 7468SOL    HW223304   5.736   3.530   5.848
 7469SOL     OW23305   6.989   2.321   1.354
 7469SOL    HW123306   0.005   2.251   1.290
 7469SOL    HW223307   0.005   2.411   1.326
 7470SOL     OW23308   5.119   3.081   3.804
 7470SOL    HW123309   5.096   2.984   3.795
 7470SOL    HW223310   5.036   3.133   3.819
 7471SOL     OW23311   5.270   5.740   6.073
 7471SOL    HW123312   5.210   5.812   6.108
 7471SOL    HW223313   5.295   5.761   5.979
 7472SOL     OW23314   6.109   6.220   5.615
 7472SOL    HW123315   6.106   6.222   5.715
 7472SOL    HW223316   6.016   6.228   5.579
 7473SOL     OW23317   3.893   5.958   3.919
 7473SOL    HW123318   3.942   5.889   3.866
 7473SOL    HW223319   3.940   6.046   3.910
 7474SOL     OW23320   6.693   1.877   5.481
 7474SOL    HW123321   6.631   1.831   5.544
 7474SOL    HW223322   6.718   1.966   5.518
 7475SOL     OW23323   4.803   2.318   0.999
 7475SOL    HW123324   4.773   2.235   1.046
 7475SOL    HW223325   4.810   2.393   1.064
 7476SOL     OW23326   1.798   1.098   3.023
 7476SOL    HW123327   1.819   1.169   2.957
 7476SOL    HW223328   1.713   1.121   3.072
 7477SOL     OW23329   1.051   4.710   5.140
 7477SOL    HW123330   0.973   4.716   5.078
 7477SOL    HW223331   1.073   4.801   5.175
 7478SOL     OW23332   0.646   1.258   5.716
 7478SOL    HW123333   0.734   1.214   5.697
 7478SOL    HW223334   0.604   1.288   5.631
 7479SOL     OW23335   6.480   3.168   6.912
 7479SOL    HW123336   6.480   3.092   6.847
 7479SOL    HW223337   6.438   3.248   6.868
 7480SOL     OW23338   3.698   5.165   2.544
 7480SOL    HW123339   3.733   5.160   2.638
 7480SOL    HW223340   3.682   5.072   2.510
 7481SOL     OW23341   0.424   4.051   6.876
 7481SOL    HW123342   0.367   4.129   6.854
 7481SOL    HW223343   0.492   4.077   6.944
 7482SOL     OW23344   4.006   2.179   2.636
 7482SOL    HW123345   3.926   2.221   2.678
 7482SOL    HW223346   3.983   2.146   2.545
 7483SOL     OW23347   4.315   2.261   6.006
 7483SOL    HW123348   4.366   2.176   6.019
 7483SOL    HW223349   4.251   2.250   5.930
 7484SOL     OW23350   2.979   6.630   4.107
 7484SOL    HW123351   3.043   6.699   4.141
 7484SOL    HW223352   2.892   6.673   4.084
 7485SOL     OW23353   2.671   0.039   4.550
 7485SOL    HW123354   2.629   0.130   4.546
 7485SOL    HW223355   2.694   0.010   4.457
 7486SOL     OW23356   2.390   6.158   0.786
 7486SOL    HW123357   2.405   6.121   0.695
 7486SOL    HW223358   2.450   6.112   0.851
 7487SOL     OW23359   4.040   6.277   3.815
 7487SOL    HW123360   4.139   6.288   3.807
 7487SOL    HW223361   4.008   6.211   3.748
 7488SOL     OW23362   0.888   5.555   3.745
 7488SOL    HW123363   0.888   5.525   3.649
 7488SOL    HW223364   0.799   5.595   3.767
 7489SOL     OW23365   6.509   3.241   6.287
 7489SOL    HW123366   6.445   3.317   6.274
 7489SOL    HW223367   6.561   3.227   6.203
 7490SOL     OW23368   1.093   1.958   2.161
 7490SOL    HW123369   1.052   2.021   2.228
 7490SOL    HW223370   1.119   1.873   2.207
 7491SOL     OW23371   4.418   2.997   0.391
 7491SOL    HW123372   4.460   3.000   0.301
 7491SOL    HW223373   4.325   2.963   0.384
 7492SOL     OW23374   1.438   0.563   4.196
 7492SOL    HW123375   1.460   0.619   4.276
 7492SOL    HW223376   1.344   0.581   4.167
 7493SOL     OW23377   6.669   4.419   4.873
 7493SOL    HW123378   6.756   4.416   4.922
 7493SOL    HW223379   6.603   4.361   4.920
 7494SOL     OW23380   6.126   1.406   3.005
 7494SOL    HW123381   6.073   1.378   2.925
 7494SOL    HW223382   6.185   1.484   2.981
 7495SOL     OW23383   1.794   3.804   4.946
 7495SOL    HW123384   1.886   3.787   4.912
 7495SOL    HW223385   1.748   3.717   4.963
 7496SOL     OW23386   5.351   3.796   2.630
 7496SOL    HW123387   5.292   3.876   2.627
 7496SOL    HW223388   5.382   3.774   2.538
 7497SOL     OW23389   0.145   6.773   0.335
 7497SOL    HW123390   0.242   6.778   0.312
 7497SOL    HW223391   0.130   6.702   0.404
 7498SOL     OW23392   3.084   0.723   2.866
 7498SOL    HW123393   3.152   0.796   2.855
 7498SOL    HW223394   3.059   0.687   2.776
 7499SOL     OW23395   4.161   1.721   3.578
 7499SOL    HW123396   4.192   1.626   3.579
 7499SOL    HW223397   4.097   1.735   3.502
 7500SOL     OW23398   3.859   6.466   2.838
 7500SOL    HW123399   3.785   6.472   2.905
 7500SOL    HW223400   3.824   6.487   2.747
 7501SOL     OW23401   6.083   2.144   4.697
 7501SOL    HW123402   6.083   2.221   4.760
 7501SOL    HW223403   5.992   2.102   4.696
 7502SOL     OW23404   4.091   0.403   4.249
 7502SOL    HW123405   4.115   0.443   4.337
 7502SOL    HW223406   4.032   0.323   4.264
 7503SOL     OW23407   1.655   6.388   1.633
 7503SOL    HW123408   1.637   6.347   1.543
 7503SOL    HW223409   1.742   6.353   1.668
 7504SOL     OW23410   6.205   6.580   3.542
 7504SOL    HW123411   6.112   6.601   3.513
 7504SOL    HW223412   6.268   6.646   3.501
 7505SOL     OW23413   0.962   6.846   5.599
 7505SOL    HW123414   0.955   6.918   5.530
 7505SOL    HW223415   1.055   6.809   5.599
 7506SOL     OW23416   2.686   1.291   3.223
 7506SOL    HW123417   2.623   1.314   3.298
 7506SOL    HW223418   2.634   1.282   3.138
 7507SOL     OW23419   6.163   3.869   4.845
 7507SOL    HW123420   6.131   3.898   4.935
 7507SOL    HW223421   6.188   3.772   4.847
 7508SOL     OW23422   1.653   5.911   6.668
 7508SOL    HW123423   1.671   5.831   6.725
 7508SOL    HW223424   1.707   5.988   6.701
 7509SOL     OW23425   5.047   4.339   0.510
 7509SOL    HW123426   5.133   4.328   0.560
 7509SOL    HW223427   4.989   4.259   0.528
 7510SOL     OW23428   3.807   3.729   3.620
 7510SOL    HW123429   3.898   3.756   3.651
 7510SOL    HW223430   3.814   3.683   3.532
 7511SOL     OW23431   3.532   5.878   3.462
 7511SOL    HW123432   3.480   5.944   3.408
 7511SOL    HW223433   3.478   5.795   3.475
 7512SOL     OW23434   3.702   6.514   6.098
 7512SOL    HW123435   3.757   6.518   6.181
 7512SOL    HW223436   3.719   6.595   6.042
 7513SOL     OW23437   0.661   2.251   2.621
 7513SOL    HW123438   0.700   2.326   2.568
 7513SOL    HW223439   0.663   2.274   2.719
 7514SOL     OW23440   1.877   4.175   2.579
 7514SOL    HW123441   1.937   4.119   2.521
 7514SOL    HW223442   1.847   4.121   2.658
 7515SOL     OW23443   0.269   4.711   4.116
 7515SOL    HW123444   0.327   4.732   4.195
 7515SOL    HW223445   0.249   4.795   4.066
 7516SOL     OW23446   1.219   6.130   5.555
 7516SOL    HW123447   1.251   6.213   5.600
 7516SOL    HW223448   1.197   6.150   5.460
 7517SOL     OW23449   0.203   1.582   6.989
 7517SOL    HW123450   0.235   1.651   6.925
 7517SOL    HW223451   0.220   1.612   0.066
 7518SOL     OW23452   4.745   2.882   3.841
 7518SOL    HW123453   4.657   2.841   3.816
 7518SOL    HW223454   4.814   2.811   3.850
 7519SOL     OW23455   3.672   6.445   4.346
 7519SOL    HW123456   3.733   6.520   4.322
 7519SOL    HW223457   3.620   6.469   4.428
 7520SOL     OW23458   1.841   1.801   0.852
 7520SOL    HW123459   1.802   1.867   0.916
 7520SOL    HW223460   1.850   1.843   0.762
 7521SOL     OW23461   4.003   1.337   5.576
 7521SOL    HW123462   4.060   1.414   5.604
 7521SOL    HW223463   3.939   1.367   5.505
 7522SOL     OW23464   1.639   6.852   2.614
 7522SOL    HW123465   1.610   6.922   2.549
 7522SOL    HW223466   1.681   6.895   2.693
 7523SOL     OW23467   5.465   1.122   6.260
 7523SOL    HW123468   5.393   1.102   6.326
 7523SOL    HW223469   5.489   1.219   6.266
 7524SOL     OW23470   0.212   3.541   5.070
 7524SOL    HW123471   0.267   3.458   5.074
 7524SOL    HW223472   0.239   3.603   5.143
 7525SOL     OW23473   4.279   5.755   6.269
 7525SOL    HW123474   4.252   5.847   6.239
 7525SOL    HW223475   4.219   5.725   6.343
 7526SOL     OW23476   2.411   3.218   1.721
 7526SOL    HW123477   2.380   3.300   1.769
 7526SOL    HW223478   2.406   3.232   1.623
 7527SOL     OW23479   3.939   5.577   3.855
 7527SOL    HW123480   3.851   5.573   3.901
 7527SOL    HW223481   4.000   5.507   3.893
 7528SOL     OW23482   6.927   3.127   6.124
 7528SOL    HW123483   6.837   3.142   6.083
 7528SOL    HW223484   6.918   3.063   6.200
 7529SOL     OW23485   6.547   2.827   4.299
 7529SOL    HW123486   6.629   2.772   4.293
 7529SOL    HW223487   6.469   2.769   4.322
 7530SOL     OW23488   6.832   2.098   2.165
 7530SOL    HW123489   6.831   2.046   2.079
 7530SOL    HW223490   6.762   2.170   2.161
 7531SOL     OW23491   4.165   1.882   3.822
 7531SOL    HW123492   4.161   1.841   3.913
 7531SOL    HW223493   4.178   1.810   3.754
 7532SOL     OW23494   4.129   5.315   6.165
 7532SOL    HW123495   4.047   5.299   6.110
 7532SOL    HW223496   4.104   5.367   6.247
 7533SOL     OW23497   4.821   3.839   1.785
 7533SOL    HW123498   4.751   3.911   1.795
 7533SOL    HW223499   4.781   3.759   1.743
 7534SOL     OW23500   4.721   6.560   4.233
 7534SOL    HW123501   4.688   6.652   4.214
 7534SOL    HW223502   4.818   6.563   4.255
 7535SOL     OW23503   0.661   5.257   3.843
 7535SOL    HW123504   0.631   5.335   3.899
 7535SOL    HW223505   0.631   5.271   3.748
 7536SOL     OW23506   4.860   5.696   4.345
 7536SOL    HW123507   4.910   5.610   4.335
 7536SOL    HW223508   4.874   5.752   4.263
 7537SOL     OW23509   3.138   6.460   3.264
 7537SOL    HW123510   3.177   6.386   3.319
 7537SOL    HW223511   3.134   6.544   3.318
 7538SOL     OW23512   0.868   4.184   0.735
 7538SOL    HW123513   0.959   4.151   0.710
 7538SOL    HW223514   0.876   4.251   0.809
 7539SOL     OW23515   0.475   6.002   3.649
 7539SOL    HW123516   0.471   6.102   3.655
 7539SOL    HW223517   0.438   5.962   3.732
 7540SOL     OW23518   5.868   5.308   3.623
 7540SOL    HW123519   5.769   5.292   3.623
 7540SOL    HW223520   5.914   5.235   3.572
 7541SOL     OW23521   1.413   4.067   0.121
 7541SOL    HW123522   1.482   4.052   0.192
 7541SOL    HW223523   1.322   4.057   0.161
 7542SOL     OW23524   6.190   5.828   5.878
 7542SOL    HW123525   6.141   5.847   5.963
 7542SOL    HW223526   6.287   5.813   5.898
 7543SOL     OW23527   2.812   0.899   6.189
 7543SOL    HW123528   2.845   0.963   6.119
 7543SOL    HW223529   2.749   0.946   6.250
 7544SOL     OW23530   0.133   2.970   4.118
 7544SOL    HW123531   0.173   3.033   4.185
 7544SOL    HW223532   0.103   3.020   4.038
 7545SOL     OW23533   0.771   5.100   6.843
 7545SOL    HW123534   0.692   5.113   6.903
 7545SOL    HW223535   0.842   5.048   6.891
 7546SOL     OW23536   3.346   2.781   1.810
 7546SOL    HW123537   3.360   2.865   1.757
 7546SOL    HW223538   3.320   2.707   1.747
 7547SOL     OW23539   4.187   0.399   2.263
 7547SOL    HW123540   4.274   0.440   2.289
 7547SOL    HW223541   4.138   0.461   2.201
 7548SOL     OW23542   4.025   2.403   6.355
 7548SOL    HW123543   3.966   2.421   6.433
 7548SOL    HW223544   4.099   2.340   6.382
 7549SOL     OW23545   4.493   2.735   5.181
 7549SOL    HW123546   4.442   2.728   5.096
 7549SOL    HW223547   4.452   2.674   5.249
 7550SOL     OW23548   2.126   4.124   4.223
 7550SOL    HW123549   2.184   4.204   4.235
 7550SOL    HW223550   2.042   4.151   4.175
 7551SOL     OW23551   5.901   2.523   5.924
 7551SOL    HW123552   5.993   2.526   5.963
 7551SOL    HW223553   5.906   2.496   5.828
 7552SOL     OW23554   2.570   5.851   4.785
 7552SOL    HW123555   2.511   5.795   4.728
 7552SOL    HW223556   2.654   5.800   4.806
 7553SOL     OW23557   5.724   6.349   5.919
 7553SOL    HW123558   5.640   6.404   5.919
 7553SOL    HW223559   5.779   6.372   5.999
 7554SOL     OW23560   5.231   0.923   1.157
 7554SOL    HW123561   5.181   0.908   1.071
 7554SOL    HW223562   5.168   0.951   1.228
 7555SOL     OW23563   3.353   4.978   5.665
 7555SOL    HW123564   3.401   4.907   5.717
 7555SOL    HW223565   3.391   4.983   5.573
 7556SOL     OW23566   0.202   6.966   0.924
 7556SOL    HW123567   0.160   6.969   0.833
 7556SOL    HW223568   0.143   7.015   0.989
 7557SOL     OW23569   4.519   0.729   0.098
 7557SOL    HW123570   4.618   0.735   0.114
 7557SOL    HW223571   4.488   0.812   0.052
 7558SOL     OW23572   1.237   2.167   4.326
 7558SOL    HW123573   1.276   2.096   4.385
 7558SOL    HW223574   1.146   2.140   4.296
 7559SOL     OW23575   4.171   1.786   4.934
 7559SOL    HW123576   4.234   1.741   4.870
 7559SOL    HW223577   4.077   1.770   4.903
 7560SOL     OW23578   0.455   1.103   6.206
 7560SOL    HW123579   0.522   1.130   6.275
 7560SOL    HW223580   0.475   1.149   6.120
 7561SOL     OW23581   5.840   2.029   4.733
 7561SOL    HW123582   5.865   1.969   4.657
 7561SOL    HW223583   5.741   2.028   4.745
 7562SOL     OW23584   1.270   4.371   3.830
 7562SOL    HW123585   1.245   4.449   3.773
 7562SOL    HW223586   1.324   4.402   3.908
 7563SOL     OW23587   3.453   5.484   2.503
 7563SOL    HW123588   3.513   5.427   2.446
 7563SOL    HW223589   3.508   5.541   2.564
 7564SOL     OW23590   4.697   1.656   4.449
 7564SOL    HW123591   4.673   1.722   4.521
 7564SOL    HW223592   4.626   1.586   4.443
 7565SOL     OW23593   5.516   3.892   6.449
 7565SOL    HW123594   5.468   3.935   6.372
 7565SOL    HW223595   5.512   3.952   6.529
 7566SOL     OW23596   4.157   4.276   1.365
 7566SOL    HW123597   4.091   4.289   1.439
 7566SOL    HW223598   4.133   4.334   1.288
 7567SOL     OW23599   1.744   0.598   4.807
 7567SOL    HW123600   1.767   0.519   4.751
 7567SOL    HW223601   1.828   0.641   4.840
 7568SOL     OW23602   6.120   5.475   1.664
 7568SOL    HW123603   6.082   5.394   1.619
 7568SOL    HW223604   6.053   5.510   1.729
 7569SOL     OW23605   4.715   3.740   0.037
 7569SOL    HW123606   4.782   3.804   0.076
 7569SOL    HW223607   4.659   3.786   6.985
 7570SOL     OW23608   6.397   2.896   3.171
 7570SOL    HW123609   6.305   2.920   3.142
 7570SOL    HW223610   6.446   2.854   3.094
 7571SOL     OW23611   4.708   2.380   3.143
 7571SOL    HW123612   4.656   2.337   3.069
 7571SOL    HW223613   4.675   2.347   3.231
 7572SOL     OW23614   4.683   6.079   2.114
 7572SOL    HW123615   4.736   6.151   2.158
 7572SOL    HW223616   4.696   6.082   2.015
 7573SOL     OW23617   4.821   6.275   5.509
 7573SOL    HW123618   4.751   6.294   5.578
 7573SOL    HW223619   4.869   6.190   5.533
 7574SOL     OW23620   6.907   1.203   4.354
 7574SOL    HW123621   6.873   1.282   4.303
 7574SOL    HW223622   6.965   1.234   4.429
 7575SOL     OW23623   0.147   6.684   2.338
 7575SOL    HW123624   0.058   6.672   2.293
 7575SOL    HW223625   0.220   6.673   2.271
 7576SOL     OW23626   5.713   3.018   0.663
 7576SOL    HW123627   5.777   3.089   0.632
 7576SOL    HW223628   5.732   2.933   0.614
 7577SOL     OW23629   1.396   0.168   0.566
 7577SOL    HW123630   1.436   0.256   0.593
 7577SOL    HW223631   1.443   0.134   0.486
 7578SOL     OW23632   0.214   5.509   3.288
 7578SOL    HW123633   0.269   5.571   3.344
 7578SOL    HW223634   0.266   5.424   3.272
 7579SOL     OW23635   6.903   1.157   6.948
 7579SOL    HW123636   6.915   1.094   0.008
 7579SOL    HW223637   6.940   1.247   6.973
 7580SOL     OW23638   2.425   4.834   3.731
 7580SOL    HW123639   2.505   4.787   3.694
 7580SOL    HW223640   2.444   4.865   3.824
 7581SOL     OW23641   6.610   0.963   2.514
 7581SOL    HW123642   6.606   0.863   2.516
 7581SOL    HW223643   6.661   0.996   2.594
 7582SOL     OW23644   3.444   0.886   4.949
 7582SOL    HW123645   3.448   0.977   4.990
 7582SOL    HW223646   3.489   0.820   5.010
 7583SOL     OW23647   5.168   2.960   2.899
 7583SOL    HW123648   5.223   3.014   2.834
 7583SOL    HW223649   5.073   2.990   2.894
 7584SOL     OW23650   0.036   0.731   3.047
 7584SOL    HW123651   0.034   0.771   3.138
 7584SOL    HW223652   0.104   0.658   3.043
 7585SOL     OW23653   1.088   1.522   0.209
 7585SOL    HW123654   1.128   1.438   0.245
 7585SOL    HW223655   1.152   1.567   0.147
 7586SOL     OW23656   1.245   2.227   2.711
 7586SOL    HW123657   1.293   2.177   2.638
 7586SOL    HW223658   1.237   2.167   2.791
 7587SOL     OW23659   3.280   0.857   0.800
 7587SOL    HW123660   3.336   0.888   0.877
 7587SOL    HW223661   3.210   0.926   0.779
 7588SOL     OW23662   1.858   2.389   4.473
 7588SOL    HW123663   1.896   2.433   4.392
 7588SOL    HW223664   1.797   2.452   4.521
 7589SOL     OW23665   0.331   0.907   2.840
 7589SOL    HW123666   0.421   0.897   2.884
 7589SOL    HW223667   0.287   0.990   2.873
 7590SOL     OW23668   0.276   1.717   6.530
 7590SOL    HW123669   0.357   1.753   6.483
 7590SOL    HW223670   0.263   1.621   6.507
 7591SOL     OW23671   4.160   3.449   5.440
 7591SOL    HW123672   4.107   3.367   5.463
 7591SOL    HW223673   4.161   3.461   5.341
 7592SOL     OW23674   6.940   6.209   4.771
 7592SOL    HW123675   6.877   6.206   4.694
 7592SOL    HW223676   6.936   6.122   4.820
 7593SOL     OW23677   1.175   1.493   5.852
 7593SOL    HW123678   1.105   1.422   5.845
 7593SOL    HW223679   1.234   1.490   5.772
 7594SOL     OW23680   0.410   4.369   0.447
 7594SOL    HW123681   0.334   4.433   0.457
 7594SOL    HW223682   0.428   4.325   0.534
 7595SOL     OW23683   6.696   2.846   6.191
 7595SOL    HW123684   6.610   2.890   6.166
 7595SOL    HW223685   6.732   2.888   6.275
 7596SOL     OW23686   3.021   0.788   5.243
 7596SOL    HW123687   3.029   0.711   5.307
 7596SOL    HW223688   2.938   0.779   5.189
 7597SOL     OW23689   1.556   4.513   2.192
 7597SOL    HW123690   1.542   4.605   2.228
 7597SOL    HW223691   1.501   4.500   2.109
 7598SOL     OW23692   6.353   1.207   2.990
 7598SOL    HW123693   6.292   1.258   2.928
 7598SOL    HW223694   6.430   1.265   3.016
 7599SOL     OW23695   4.089   3.476   1.275
 7599SOL    HW123696   4.002   3.445   1.236
 7599SOL    HW223697   4.100   3.436   1.367
 7600SOL     OW23698   1.566   0.288   4.330
 7600SOL    HW123699   1.632   0.360   4.311
 7600SOL    HW223700   1.496   0.323   4.393
 7601SOL     OW23701   3.713   5.760   2.154
 7601SOL    HW123702   3.800   5.711   2.154
 7601SOL    HW223703   3.672   5.755   2.246
 7602SOL     OW23704   6.765   1.274   0.646
 7602SOL    HW123705   6.671   1.304   0.629
 7602SOL    HW223706   6.765   1.179   0.677
 7603SOL     OW23707   2.700   0.260   5.004
 7603SOL    HW123708   2.602   0.270   5.022
 7603SOL    HW223709   2.713   0.197   4.928
 7604SOL     OW23710   0.729   2.942   4.751
 7604SOL    HW123711   0.819   2.914   4.786
 7604SOL    HW223712   0.720   2.915   4.656
 7605SOL     OW23713   2.317   6.698   0.516
 7605SOL    HW123714   2.289   6.663   0.427
 7605SOL    HW223715   2.374   6.779   0.504
 7606SOL     OW23716   6.520   1.394   3.747
 7606SOL    HW123717   6.473   1.428   3.829
 7606SOL    HW223718   6.556   1.303   3.764
 7607SOL     OW23719   2.714   5.741   5.491
 7607SOL    HW123720   2.807   5.706   5.478
 7607SOL    HW223721   2.651   5.666   5.508
 7608SOL     OW23722   6.162   2.609   6.076
 7608SOL    HW123723   6.210   2.590   6.161
 7608SOL    HW223724   6.227   2.638   6.006
 7609SOL     OW23725   0.636   1.905   4.692
 7609SOL    HW123726   0.652   1.944   4.601
 7609SOL    HW223727   0.692   1.954   4.760
 7610SOL     OW23728   3.724   4.875   5.542
 7610SOL    HW123729   3.677   4.933   5.475
 7610SOL    HW223730   3.672   4.792   5.557
 7611SOL     OW23731   4.888   3.422   1.256
 7611SOL    HW123732   4.946   3.351   1.217
 7611SOL    HW223733   4.861   3.396   1.349
 7612SOL     OW23734   2.689   1.633   3.335
 7612SOL    HW123735   2.701   1.646   3.236
 7612SOL    HW223736   2.657   1.540   3.353
 7613SOL     OW23737   0.347   1.137   2.615
 7613SOL    HW123738   0.301   1.211   2.565
 7613SOL    HW223739   0.285   1.059   2.624
 7614SOL     OW23740   5.508   3.890   0.870
 7614SOL    HW123741   5.464   3.890   0.780
 7614SOL    HW223742   5.449   3.844   0.936
 7615SOL     OW23743   5.732   3.285   4.578
 7615SOL    HW123744   5.685   3.368   4.549
 7615SOL    HW223745   5.800   3.308   4.649
 7616SOL     OW23746   6.174   6.971   3.473
 7616SOL    HW123747   6.136   0.047   3.466
 7616SOL    HW223748   6.222   6.961   3.561
 7617SOL     OW23749   5.501   5.308   3.621
 7617SOL    HW123750   5.529   5.359   3.539
 7617SOL    HW223751   5.409   5.271   3.607
 7618SOL     OW23752   2.514   3.050   0.257
 7618SOL    HW123753   2.585   2.989   0.220
 7618SOL    HW223754   2.493   3.023   0.351
 7619SOL     OW23755   0.802   2.252   4.480
 7619SOL    HW123756   0.809   2.326   4.548
 7619SOL    HW223757   0.751   2.284   4.401
 7620SOL     OW23758   4.213   3.997   1.407
 7620SOL    HW123759   4.290   3.996   1.472
 7620SOL    HW223760   4.191   4.092   1.385
 7621SOL     OW23761   0.172   4.409   0.665
 7621SOL    HW123762   0.150   4.368   0.577
 7621SOL    HW223763   0.112   4.372   0.735
 7622SOL     OW23764   2.865   3.655   1.298
 7622SOL    HW123765   2.810   3.737   1.312
 7622SOL    HW223766   2.954   3.666   1.344
 7623SOL     OW23767   4.768   4.571   1.096
 7623SOL    HW123768   4.700   4.521   1.042
 7623SOL    HW223769   4.720   4.625   1.166
 7624SOL     OW23770   0.710   2.840   2.135
 7624SOL    HW123771   0.788   2.825   2.074
 7624SOL    HW223772   0.704   2.937   2.159
 7625SOL     OW23773   5.438   1.612   0.957
 7625SOL    HW123774   5.414   1.591   0.862
 7625SOL    HW223775   5.535   1.638   0.962
 7626SOL     OW23776   5.439   1.059   5.501
 7626SOL    HW123777   5.397   0.983   5.451
 7626SOL    HW223778   5.404   1.059   5.595
 7627SOL     OW23779   3.483   2.274   6.806
 7627SOL    HW123780   3.434   2.296   6.891
 7627SOL    HW223781   3.468   2.347   6.739
 7628SOL     OW23782   3.739   2.616   6.888
 7628SOL    HW123783   3.703   2.575   6.971
 7628SOL    HW223784   3.821   2.668   6.909
 7629SOL     OW23785   5.980   2.700   3.810
 7629SOL    HW123786   5.930   2.742   3.734
 7629SOL    HW223787   6.078   2.719   3.801
 7630SOL     OW23788   1.502   6.822   5.551
 7630SOL    HW123789   1.488   6.735   5.505
 7630SOL    HW223790   1.599   6.846   5.550
 7631SOL     OW23791   1.549   6.621   5.974
 7631SOL    HW123792   1.571   6.642   5.879
 7631SOL    HW223793   1.558   6.704   6.029
 7632SOL     OW23794   5.157   5.206   0.353
 7632SOL    HW123795   5.187   5.266   0.278
 7632SOL    HW223796   5.237   5.176   0.405
 7633SOL     OW23797   6.236   1.261   1.438
 7633SOL    HW123798   6.200   1.239   1.347
 7633SOL    HW223799   6.305   1.333   1.430
 7634SOL     OW23800   6.981   2.025   0.430
 7634SOL    HW123801   6.970   2.088   0.353
 7634SOL    HW223802   0.061   2.022   0.457
 7635SOL     OW23803   2.347   4.629   6.191
 7635SOL    HW123804   2.342   4.566   6.113
 7635SOL    HW223805   2.293   4.710   6.171
 7636SOL     OW23806   0.346   3.628   4.557
 7636SOL    HW123807   0.280   3.683   4.505
 7636SOL    HW223808   0.319   3.627   4.653
 7637SOL     OW23809   0.850   6.452   4.896
 7637SOL    HW123810   0.769   6.506   4.876
 7637SOL    HW223811   0.823   6.363   4.933
 7638SOL     OW23812   0.613   5.546   1.835
 7638SOL    HW123813   0.647   5.534   1.928
 7638SOL    HW223814   0.588   5.642   1.821
 7639SOL     OW23815   1.778   0.995   0.194
 7639SOL    HW123816   1.678   0.996   0.193
 7639SOL    HW223817   1.810   0.945   0.275
 7640SOL     OW23818   3.224   0.590   6.631
 7640SOL    HW123819   3.227   0.492   6.613
 7640SOL    HW223820   3.165   0.635   6.563
 7641SOL     OW23821   0.623   3.970   3.137
 7641SOL    HW123822   0.612   3.937   3.044
 7641SOL    HW223823   0.574   4.057   3.148
 7642SOL     OW23824   6.263   0.803   3.734
 7642SOL    HW123825   6.282   0.880   3.673
 7642SOL    HW223826   6.321   0.811   3.815
 7643SOL     OW23827   5.549   3.770   3.349
 7643SOL    HW123828   5.609   3.712   3.293
 7643SOL    HW223829   5.473   3.716   3.384
 7644SOL     OW23830   5.367   3.952   1.599
 7644SOL    HW123831   5.283   3.985   1.556
 7644SOL    HW223832   5.384   3.858   1.572
 7645SOL     OW23833   3.313   4.329   5.963
 7645SOL    HW123834   3.294   4.341   6.061
 7645SOL    HW223835   3.231   4.351   5.910
 7646SOL     OW23836   0.395   2.363   2.141
 7646SOL    HW123837   0.489   2.379   2.110
 7646SOL    HW223838   0.333   2.372   2.063
 7647SOL     OW23839   6.487   2.626   5.289
 7647SOL    HW123840   6.422   2.628   5.365
 7647SOL    HW223841   6.546   2.707   5.294
 7648SOL     OW23842   2.602   1.765   1.504
 7648SOL    HW123843   2.572   1.776   1.410
 7648SOL    HW223844   2.524   1.779   1.566
 7649SOL     OW23845   4.649   1.103   5.361
 7649SOL    HW123846   4.717   1.166   5.324
 7649SOL    HW223847   4.643   1.022   5.302
 7650SOL     OW23848   4.137   1.976   0.311
 7650SOL    HW123849   4.159   2.051   0.373
 7650SOL    HW223850   4.153   1.889   0.357
 7651SOL     OW23851   2.509   4.701   5.941
 7651SOL    HW123852   2.603   4.679   5.916
 7651SOL    HW223853   2.452   4.620   5.928
 7652SOL     OW23854   6.982   0.898   3.905
 7652SOL    HW123855   6.919   0.824   3.928
 7652SOL    HW223856   6.958   0.937   3.816
 7653SOL     OW23857   0.741   1.682   6.562
 7653SOL    HW123858   0.770   1.773   6.592
 7653SOL    HW223859   0.747   1.676   6.462
 7654SOL     OW23860   5.899   2.296   6.138
 7654SOL    HW123861   5.919   2.361   6.065
 7654SOL    HW223862   5.961   2.217   6.130
 7655SOL     OW23863   3.093   0.949   3.441
 7655SOL    HW123864   3.030   0.996   3.380
 7655SOL    HW223865   3.116   0.859   3.402
 7656SOL     OW23866   6.969   3.260   6.591
 7656SOL    HW123867   6.893   3.196   6.584
 7656SOL    HW223868   6.961   3.330   6.521
 7657SOL     OW23869   1.300   4.073   4.474
 7657SOL    HW123870   1.325   4.122   4.391
 7657SOL    HW223871   1.252   3.989   4.450
 7658SOL     OW23872   2.347   1.421   1.022
 7658SOL    HW123873   2.395   1.447   1.106
 7658SOL    HW223874   2.248   1.423   1.038
 7659SOL     OW23875   4.398   3.691   5.578
 7659SOL    HW123876   4.417   3.644   5.492
 7659SOL    HW223877   4.329   3.761   5.564
 7660SOL     OW23878   0.181   5.568   4.452
 7660SOL    HW123879   0.241   5.562   4.533
 7660SOL    HW223880   0.214   5.505   4.382
 7661SOL     OW23881   4.642   2.300   5.707
 7661SOL    HW123882   4.627   2.219   5.764
 7661SOL    HW223883   4.626   2.382   5.763
 7662SOL     OW23884   0.592   1.334   1.687
 7662SOL    HW123885   0.560   1.429   1.688
 7662SOL    HW223886   0.640   1.317   1.601
 7663SOL     OW23887   6.461   5.387   5.151
 7663SOL    HW123888   6.556   5.357   5.142
 7663SOL    HW223889   6.424   5.354   5.238
 7664SOL     OW23890   3.724   2.050   2.294
 7664SOL    HW123891   3.626   2.033   2.302
 7664SOL    HW223892   3.741   2.115   2.220
 7665SOL     OW23893   4.242   0.911   4.942
 7665SOL    HW123894   4.307   0.835   4.942
 7665SOL    HW223895   4.286   0.993   4.907
 7666SOL     OW23896   5.825   4.641   4.377
 7666SOL    HW123897   5.861   4.559   4.421
 7666SOL    HW223898   5.862   4.722   4.422
 7667SOL     OW23899   4.615   5.951   1.121
 7667SOL    HW123900   4.532   5.985   1.077
 7667SOL    HW223901   4.592   5.878   1.184
 7668SOL     OW23902   2.410   4.872   1.141
 7668SOL    HW123903   2.423   4.969   1.120
 7668SOL    HW223904   2.482   4.841   1.202
 7669SOL     OW23905   2.635   6.766   5.690
 7669SOL    HW123906   2.667   6.851   5.649
 7669SOL    HW223907   2.634   6.775   5.789
 7670SOL     OW23908   0.413   6.761   0.195
 7670SOL    HW123909   0.465   6.680   0.223
 7670SOL    HW223910   0.391   6.754   0.097
 7671SOL     OW23911   4.343   0.088   0.875
 7671SOL    HW123912   4.299   0.154   0.814
 7671SOL    HW223913   4.368   0.133   0.960
 7672SOL     OW23914   4.824   4.575   2.999
 7672SOL    HW123915   4.767   4.602   3.077
 7672SOL    HW223916   4.766   4.555   2.920
 7673SOL     OW23917   0.587   5.997   4.766
 7673SOL    HW123918   0.633   6.073   4.721
 7673SOL    HW223919   0.557   5.931   4.697
 7674SOL     OW23920   4.070   6.307   4.180
 7674SOL    HW123921   3.981   6.307   4.227
 7674SOL    HW223922   4.113   6.217   4.190
 7675SOL     OW23923   4.401   6.849   2.989
 7675SOL    HW123924   4.499   6.845   2.974
 7675SOL    HW223925   4.361   6.759   2.971
 7676SOL     OW23926   2.907   2.994   5.419
 7676SOL    HW123927   2.822   2.943   5.409
 7676SOL    HW223928   2.961   2.985   5.335
 7677SOL     OW23929   5.578   4.974   0.963
 7677SOL    HW123930   5.625   4.907   1.021
 7677SOL    HW223931   5.642   5.011   0.896
 7678SOL     OW23932   1.498   0.928   5.387
 7678SOL    HW123933   1.453   0.926   5.477
 7678SOL    HW223934   1.502   0.835   5.350
 7679SOL     OW23935   1.926   5.281   5.455
 7679SOL    HW123936   1.849   5.342   5.433
 7679SOL    HW223937   2.005   5.307   5.400
 7680SOL     OW23938   2.218   6.929   5.142
 7680SOL    HW123939   2.267   6.932   5.055
 7680SOL    HW223940   2.213   0.005   5.181
 7681SOL     OW23941   2.606   3.696   6.765
 7681SOL    HW123942   2.551   3.621   6.802
 7681SOL    HW223943   2.689   3.659   6.723
 7682SOL     OW23944   3.198   1.792   2.368
 7682SOL    HW123945   3.192   1.792   2.268
 7682SOL    HW223946   3.138   1.722   2.405
 7683SOL     OW23947   1.043   0.682   4.413
 7683SOL    HW123948   1.089   0.646   4.332
 7683SOL    HW223949   0.950   0.646   4.417
 7684SOL     OW23950   4.030   2.091   1.774
 7684SOL    HW123951   3.978   2.021   1.725
 7684SOL    HW223952   4.007   2.181   1.737
 7685SOL     OW23953   2.391   0.821   0.126
 7685SOL    HW123954   2.316   0.848   0.187
 7685SOL    HW223955   2.443   0.746   0.168
 7686SOL     OW23956   5.968   0.239   4.506
 7686SOL    HW123957   5.932   0.241   4.599
 7686SOL    HW223958   6.008   0.149   4.487
 7687SOL     OW23959   5.058   4.867   5.127
 7687SOL    HW123960   5.071   4.824   5.037
 7687SOL    HW223961   4.989   4.816   5.178
 7688SOL     OW23962   0.598   5.141   6.341
 7688SOL    HW123963   0.668   5.069   6.333
 7688SOL    HW223964   0.620   5.199   6.419
 7689SOL     OW23965   4.599   0.403   1.362
 7689SOL    HW123966   4.623   0.305   1.359
 7689SOL    HW223967   4.618   0.438   1.454
 7690SOL     OW23968   6.123   5.791   1.355
 7690SOL    HW123969   6.186   5.843   1.298
 7690SOL    HW223970   6.162   5.779   1.447
 7691SOL     OW23971   4.621   4.504   2.826
 7691SOL    HW123972   4.663   4.431   2.773
 7691SOL    HW223973   4.572   4.566   2.764
 7692SOL     OW23974   2.538   6.904   2.072
 7692SOL    HW123975   2.449   6.930   2.109
 7692SOL    HW223976   2.529   6.817   2.023
 7693SOL     OW23977   2.489   2.046   0.777
 7693SOL    HW123978   2.459   2.074   0.869
 7693SOL    HW223979   2.530   1.955   0.782
 7694SOL     OW23980   5.908   2.095   5.634
 7694SOL    HW123981   5.851   2.174   5.656
 7694SOL    HW223982   5.899   2.074   5.537
 7695SOL     OW23983   5.141   0.362   2.707
 7695SOL    HW123984   5.224   0.417   2.704
 7695SOL    HW223985   5.162   0.272   2.745
 7696SOL     OW23986   0.444   2.704   6.360
 7696SOL    HW123987   0.488   2.715   6.449
 7696SOL    HW223988   0.373   2.773   6.348
 7697SOL     OW23989   4.426   6.870   2.526
 7697SOL    HW123990   4.329   6.889   2.511
 7697SOL    HW223991   4.478   6.902   2.446
 7698SOL     OW23992   6.482   2.411   6.998
 7698SOL    HW123993   6.447   2.318   6.983
 7698SOL    HW223994   6.571   2.406   0.027
 7699SOL     OW23995   4.088   5.532   5.956
 7699SOL    HW123996   4.028   5.454   5.969
 7699SOL    HW223997   4.073   5.599   6.029
 7700SOL     OW23998   5.158   5.644   2.765
 7700SOL    HW123999   5.139   5.729   2.716
 7700SOL    HW224000   5.253   5.642   2.794
 7701SOL     OW24001   0.114   2.799   6.132
 7701SOL    HW124002   0.124   2.836   6.224
 7701SOL    HW224003   0.168   2.716   6.123
 7702SOL     OW24004   4.384   0.192   4.771
 7702SOL    HW124005   4.368   0.155   4.679
 7702SOL    HW224006   4.421   0.284   4.764
 7703SOL     OW24007   6.541   6.589   5.193
 7703SOL    HW124008   6.552   6.626   5.101
 7703SOL    HW224009   6.445   6.567   5.209
 7704SOL     OW24010   6.915   1.912   4.525
 7704SOL    HW124011   6.976   1.838   4.556
 7704SOL    HW224012   6.842   1.924   4.592
 7705SOL     OW24013   1.293   4.767   0.470
 7705SOL    HW124014   1.337   4.834   0.530
 7705SOL    HW224015   1.246   4.815   0.396
 7706SOL     OW24016   3.624   2.970   2.211
 7706SOL    HW124017   3.556   2.913   2.164
 7706SOL    HW224018   3.650   3.046   2.152
 7707SOL     OW24019   6.437   4.529   6.563
 7707SOL    HW124020   6.478   4.440   6.545
 7707SOL    HW224021   6.387   4.559   6.482
 7708SOL     OW24022   2.419   0.125   4.687
 7708SOL    HW124023   2.420   0.184   4.606
 7708SOL    HW224024   2.471   0.041   4.666
 7709SOL     OW24025   0.279   5.146   1.593
 7709SOL    HW124026   0.220   5.125   1.514
 7709SOL    HW224027   0.373   5.121   1.571
 7710SOL     OW24028   0.568   3.618   0.964
 7710SOL    HW124029   0.502   3.692   0.948
 7710SOL    HW224030   0.637   3.619   0.891
 7711SOL     OW24031   0.032   5.161   5.160
 7711SOL    HW124032   0.014   5.224   5.236
 7711SOL    HW224033   6.968   5.104   5.144
 7712SOL     OW24034   6.928   4.466   5.511
 7712SOL    HW124035   7.003   4.401   5.497
 7712SOL    HW224036   6.886   4.487   5.423
 7713SOL     OW24037   2.152   4.683   0.195
 7713SOL    HW124038   2.172   4.714   0.102
 7713SOL    HW224039   2.237   4.669   0.245
 7714SOL     OW24040   6.490   0.841   5.488
 7714SOL    HW124041   6.527   0.878   5.403
 7714SOL    HW224042   6.512   0.743   5.494
 7715SOL     OW24043   2.869   2.611   5.990
 7715SOL    HW124044   2.833   2.642   5.902
 7715SOL    HW224045   2.955   2.659   6.009
 7716SOL     OW24046   1.295   5.645   5.698
 7716SOL    HW124047   1.317   5.724   5.641
 7716SOL    HW224048   1.217   5.667   5.756
 7717SOL     OW24049   0.847   1.887   6.682
 7717SOL    HW124050   0.890   1.848   6.763
 7717SOL    HW224051   0.901   1.965   6.650
 7718SOL     OW24052   1.408   3.787   2.815
 7718SOL    HW124053   1.357   3.705   2.790
 7718SOL    HW224054   1.506   3.766   2.816
 7719SOL     OW24055   2.094   4.354   4.972
 7719SOL    HW124056   2.021   4.303   5.017
 7719SOL    HW224057   2.182   4.327   5.010
 7720SOL     OW24058   5.550   1.204   0.010
 7720SOL    HW124059   5.521   1.298   0.029
 7720SOL    HW224060   5.564   1.155   0.096
 7721SOL     OW24061   0.490   0.653   2.206
 7721SOL    HW124062   0.464   0.705   2.287
 7721SOL    HW224063   0.409   0.612   2.165
 7722SOL     OW24064   2.105   6.307   3.336
 7722SOL    HW124065   2.160   6.376   3.289
 7722SOL    HW224066   2.011   6.311   3.303
 7723SOL     OW24067   4.517   4.268   0.536
 7723SOL    HW124068   4.511   4.197   0.466
 7723SOL    HW224069   4.538   4.226   0.624
 7724SOL     OW24070   2.231   3.922   2.079
 7724SOL    HW124071   2.278   3.998   2.035
 7724SOL    HW224072   2.257   3.918   2.176
 7725SOL     OW24073   5.178   2.979   3.455
 7725SOL    HW124074   5.163   3.075   3.481
 7725SOL    HW224075   5.148   2.964   3.361
 7726SOL     OW24076   0.502   3.153   6.278
 7726SOL    HW124077   0.514   3.091   6.355
 7726SOL    HW224078   0.430   3.220   6.299
 7727SOL     OW24079   5.186   2.001   2.198
 7727SOL    HW124080   5.280   1.976   2.220
 7727SOL    HW224081   5.147   1.933   2.134
 7728SOL     OW24082   1.999   3.546   4.556
 7728SOL    HW124083   2.023   3.631   4.603
 7728SOL    HW224084   2.047   3.469   4.600
 7729SOL     OW24085   6.839   2.084   4.241
 7729SOL    HW124086   6.874   2.178   4.244
 7729SOL    HW224087   6.891   2.028   4.306
 7730SOL     OW24088   6.526   4.235   4.993
 7730SOL    HW124089   6.473   4.157   4.960
 7730SOL    HW224090   6.464   4.310   5.017
 7731SOL     OW24091   6.570   6.786   6.766
 7731SOL    HW124092   6.668   6.803   6.755
 7731SOL    HW224093   6.518   6.847   6.706
 7732SOL     OW24094   4.207   0.290   6.087
 7732SOL    HW124095   4.163   0.296   6.176
 7732SOL    HW224096   4.176   0.365   6.029
 7733SOL     OW24097   6.262   5.662   2.385
 7733SOL    HW124098   6.330   5.659   2.311
 7733SOL    HW224099   6.236   5.569   2.409
 7734SOL     OW24100   3.442   3.670   5.005
 7734SOL    HW124101   3.362   3.610   5.006
 7734SOL    HW224102   3.422   3.751   4.950
 7735SOL     OW24103   6.698   6.155   0.685
 7735SOL    HW124104   6.698   6.088   0.612
 7735SOL    HW224105   6.680   6.110   0.773
 7736SOL     OW24106   2.452   3.361   0.535
 7736SOL    HW124107   2.423   3.265   0.536
 7736SOL    HW224108   2.375   3.419   0.563
 7737SOL     OW24109   3.826   4.562   1.197
 7737SOL    HW124110   3.773   4.545   1.113
 7737SOL    HW224111   3.799   4.651   1.235
 7738SOL     OW24112   2.421   6.625   6.789
 7738SOL    HW124113   2.475   6.606   6.870
 7738SOL    HW224114   2.477   6.673   6.721
 7739SOL     OW24115   1.427   1.879   0.245
 7739SOL    HW124116   1.521   1.848   0.231
 7739SOL    HW224117   1.426   1.952   0.314
 7740SOL     OW24118   1.902   0.737   5.108
 7740SOL    HW124119   1.861   0.828   5.103
 7740SOL    HW224120   1.976   0.730   5.041
 7741SOL     OW24121   1.824   4.224   5.846
 7741SOL    HW124122   1.793   4.129   5.837
 7741SOL    HW224123   1.923   4.225   5.860
 7742SOL     OW24124   3.936   1.313   4.280
 7742SOL    HW124125   3.909   1.401   4.240
 7742SOL    HW224126   4.034   1.316   4.302
 7743SOL     OW24127   5.008   2.191   5.582
 7743SOL    HW124128   4.959   2.278   5.592
 7743SOL    HW224129   5.078   2.183   5.653
 7744SOL     OW24130   0.190   6.417   4.582
 7744SOL    HW124131   0.115   6.431   4.648
 7744SOL    HW224132   0.268   6.377   4.629
 7745SOL     OW24133   2.245   0.011   0.965
 7745SOL    HW124134   2.327   6.973   0.979
 7745SOL    HW224135   2.217   0.006   0.869
 7746SOL     OW24136   1.348   6.363   1.107
 7746SOL    HW124137   1.369   6.420   1.027
 7746SOL    HW224138   1.255   6.383   1.139
 7747SOL     OW24139   1.233   6.092   0.195
 7747SOL    HW124140   1.294   6.057   0.267
 7747SOL    HW224141   1.268   6.179   0.161
 7748SOL     OW24142   4.142   2.212   5.825
 7748SOL    HW124143   4.080   2.134   5.828
 7748SOL    HW224144   4.107   2.280   5.761
 7749SOL     OW24145   3.754   3.551   3.814
 7749SOL    HW124146   3.688   3.564   3.888
 7749SOL    HW224147   3.759   3.633   3.758
 7750SOL     OW24148   6.311   3.940   5.445
 7750SOL    HW124149   6.265   3.915   5.360
 7750SOL    HW224150   6.369   4.020   5.429
 7751SOL     OW24151   6.705   0.925   5.336
 7751SOL    HW124152   6.733   0.850   5.277
 7751SOL    HW224153   6.725   1.013   5.291
 7752SOL     OW24154   6.375   5.434   5.755
 7752SOL    HW124155   6.336   5.466   5.841
 7752SOL    HW224156   6.328   5.351   5.726
 7753SOL     OW24157   2.271   0.889   4.669
 7753SOL    HW124158   2.201   0.959   4.682
 7753SOL    HW224159   2.360   0.925   4.695
 7754SOL     OW24160   5.944   1.082   2.007
 7754SOL    HW124161   5.883   1.012   2.045
 7754SOL    HW224162   5.903   1.118   1.922
 7755SOL     OW24163   0.753   5.853   5.743
 7755SOL    HW124164   0.701   5.887   5.821
 7755SOL    HW224165   0.822   5.920   5.717
 7756SOL     OW24166   3.719   5.373   2.018
 7756SOL    HW124167   3.635   5.427   2.007
 7756SOL    HW224168   3.717   5.328   2.107
 7757SOL     OW24169   4.645   6.292   5.719
 7757SOL    HW124170   4.553   6.328   5.707
 7757SOL    HW224171   4.645   6.219   5.787
 7758SOL     OW24172   2.351   2.174   5.737
 7758SOL    HW124173   2.439   2.166   5.690
 7758SOL    HW224174   2.284   2.217   5.676
 7759SOL     OW24175   1.983   0.689   4.418
 7759SOL    HW124176   2.006   0.785   4.402
 7759SOL    HW224177   2.016   0.634   4.341
 7760SOL     OW24178   5.070   3.072   2.280
 7760SOL    HW124179   5.138   3.106   2.346
 7760SOL    HW224180   5.074   2.972   2.277
 7761SOL     OW24181   3.443   6.508   6.960
 7761SOL    HW124182   3.513   6.503   6.888
 7761SOL    HW224183   3.488   6.521   0.032
 7762SOL     OW24184   3.929   1.445   0.398
 7762SOL    HW124185   3.960   1.356   0.432
 7762SOL    HW224186   3.905   1.503   0.475
 7763SOL     OW24187   1.710   1.535   0.424
 7763SOL    HW124188   1.705   1.631   0.450
 7763SOL    HW224189   1.782   1.522   0.356
 7764SOL     OW24190   3.446   2.852   2.407
 7764SOL    HW124191   3.354   2.886   2.384
 7764SOL    HW224192   3.508   2.869   2.330
 7765SOL     OW24193   6.623   2.115   2.994
 7765SOL    HW124194   6.717   2.110   2.960
 7765SOL    HW224195   6.566   2.163   2.929
 7766SOL     OW24196   6.725   2.511   6.797
 7766SOL    HW124197   6.733   2.448   6.720
 7766SOL    HW224198   6.749   2.464   6.881
 7767SOL     OW24199   4.411   5.924   4.301
 7767SOL    HW124200   4.458   5.847   4.258
 7767SOL    HW224201   4.476   5.977   4.355
 7768SOL     OW24202   3.954   4.983   2.176
 7768SOL    HW124203   3.875   4.949   2.228
 7768SOL    HW224204   3.937   4.969   2.078
 7769SOL     OW24205   5.398   1.919   1.315
 7769SOL    HW124206   5.336   1.961   1.382
 7769SOL    HW224207   5.493   1.935   1.343
 7770SOL     OW24208   3.090   5.061   1.167
 7770SOL    HW124209   3.166   5.012   1.125
 7770SOL    HW224210   3.092   5.047   1.266
 7771SOL     OW24211   2.413   2.152   6.002
 7771SOL    HW124212   2.369   2.209   6.071
 7771SOL    HW224213   2.385   2.181   5.911
 7772SOL     OW24214   4.980   0.547   4.273
 7772SOL    HW124215   5.023   0.638   4.269
 7772SOL    HW224216   5.032   0.483   4.216
 7773SOL     OW24217   4.242   3.826   5.971
 7773SOL    HW124218   4.311   3.826   5.898
 7773SOL    HW224219   4.268   3.891   6.041
 7774SOL     OW24220   4.991   1.632   6.373
 7774SOL    HW124221   5.054   1.556   6.361
 7774SOL    HW224222   4.897   1.601   6.358
 7775SOL     OW24223   3.126   6.660   2.140
 7775SOL    HW124224   3.042   6.713   2.130
 7775SOL    HW224225   3.125   6.584   2.075
 7776SOL     OW24226   3.702   3.264   6.744
 7776SOL    HW124227   3.696   3.279   6.842
 7776SOL    HW224228   3.626   3.311   6.698
 7777SOL     OW24229   2.425   1.197   6.688
 7777SOL    HW124230   2.440   1.159   6.597
 7777SOL    HW224231   2.383   1.127   6.747
 7778SOL     OW24232   5.369   0.600   0.133
 7778SOL    HW124233   5.285   0.650   0.152
 7778SOL    HW224234   5.432   0.611   0.210
 7779SOL     OW24235   4.202   2.742   0.765
 7779SOL    HW124236   4.176   2.832   0.729
 7779SOL    HW224237   4.301   2.740   0.782
 7780SOL     OW24238   2.353   6.108   4.966
 7780SOL    HW124239   2.431   6.087   5.026
 7780SOL    HW224240   2.383   6.106   4.871
 7781SOL     OW24241   1.088   4.667   4.605
 7781SOL    HW124242   1.172   4.706   4.642
 7781SOL    HW224243   1.075   4.698   4.511
 7782SOL     OW24244   2.497   4.266   6.065
 7782SOL    HW124245   2.569   4.200   6.046
 7782SOL    HW224246   2.523   4.322   6.143
 7783SOL     OW24247   2.445   5.446   6.624
 7783SOL    HW124248   2.500   5.529   6.632
 7783SOL    HW224249   2.389   5.452   6.541
 7784SOL     OW24250   0.448   2.438   6.896
 7784SOL    HW124251   0.417   2.533   6.894
 7784SOL    HW224252   0.411   2.389   6.817
 7785SOL     OW24253   2.359   6.255   4.168
 7785SOL    HW124254   2.272   6.205   4.171
 7785SOL    HW224255   2.369   6.309   4.251
 7786SOL     OW24256   3.061   4.383   5.330
 7786SOL    HW124257   3.141   4.432   5.366
 7786SOL    HW224258   3.018   4.439   5.258
 7787SOL     OW24259   2.198   2.786   5.099
 7787SOL    HW124260   2.258   2.861   5.070
 7787SOL    HW224261   2.186   2.788   5.198
 7788SOL     OW24262   1.078   1.686   0.539
 7788SOL    HW124263   1.013   1.612   0.558
 7788SOL    HW224264   1.139   1.659   0.464
 7789SOL     OW24265   2.297   0.687   1.539
 7789SOL    HW124266   2.314   0.600   1.586
 7789SOL    HW224267   2.380   0.743   1.542
 7790SOL     OW24268   5.162   3.252   2.821
 7790SOL    HW124269   5.065   3.276   2.811
 7790SOL    HW224270   5.200   3.302   2.899
 7791SOL     OW24271   1.772   5.278   4.439
 7791SOL    HW124272   1.728   5.324   4.362
 7791SOL    HW224273   1.703   5.230   4.493
 7792SOL     OW24274   2.600   5.839   6.156
 7792SOL    HW124275   2.533   5.766   6.169
 7792SOL    HW224276   2.565   5.924   6.195
 7793SOL     OW24277   1.208   1.175   6.127
 7793SOL    HW124278   1.177   1.111   6.057
 7793SOL    HW224279   1.268   1.127   6.191
 7794SOL     OW24280   5.610   5.683   4.235
 7794SOL    HW124281   5.591   5.724   4.324
 7794SOL    HW224282   5.636   5.755   4.170
 7795SOL     OW24283   2.297   4.536   5.349
 7795SOL    HW124284   2.222   4.470   5.355
 7795SOL    HW224285   2.291   4.585   5.262
 7796SOL     OW24286   3.594   4.060   3.254
 7796SOL    HW124287   3.661   4.097   3.190
 7796SOL    HW224288   3.563   3.970   3.222
 7797SOL     OW24289   6.912   6.967   2.721
 7797SOL    HW124290   6.884   6.914   2.641
 7797SOL    HW224291   6.919   6.906   2.800
 7798SOL     OW24292   3.273   5.730   0.194
 7798SOL    HW124293   3.258   5.755   0.289
 7798SOL    HW224294   3.371   5.729   0.175
 7799SOL     OW24295   0.626   4.573   1.657
 7799SOL    HW124296   0.555   4.606   1.719
 7799SOL    HW224297   0.699   4.529   1.710
 7800SOL     OW24298   0.293   5.506   1.859
 7800SOL    HW124299   0.389   5.506   1.832
 7800SOL    HW224300   0.286   5.504   1.958
 7801SOL     OW24301   3.016   1.882   6.651
 7801SOL    HW124302   3.109   1.873   6.686
 7801SOL    HW224303   2.987   1.978   6.659
 7802SOL     OW24304   5.522   2.443   1.861
 7802SOL    HW124305   5.587   2.488   1.799
 7802SOL    HW224306   5.537   2.476   1.954
 7803SOL     OW24307   4.032   4.124   5.595
 7803SOL    HW124308   4.078   4.161   5.676
 7803SOL    HW224309   3.960   4.187   5.566
 7804SOL     OW24310   5.246   2.082   5.723
 7804SOL    HW124311   5.342   2.091   5.695
 7804SOL    HW224312   5.228   1.987   5.750
 7805SOL     OW24313   5.211   3.414   2.196
 7805SOL    HW124314   5.123   3.456   2.215
 7805SOL    HW224315   5.268   3.416   2.279
 7806SOL     OW24316   5.740   2.992   6.345
 7806SOL    HW124317   5.756   3.068   6.283
 7806SOL    HW224318   5.827   2.956   6.378
 7807SOL     OW24319   0.050   3.890   6.067
 7807SOL    HW124320   0.099   3.847   5.991
 7807SOL    HW224321   0.088   3.856   6.153
 7808SOL     OW24322   1.104   0.826   4.650
 7808SOL    HW124323   1.059   0.747   4.608
 7808SOL    HW224324   1.056   0.910   4.623
 7809SOL     OW24325   2.830   5.553   4.466
 7809SOL    HW124326   2.747   5.511   4.502
 7809SOL    HW224327   2.827   5.652   4.484
 7810SOL     OW24328   2.609   0.696   6.246
 7810SOL    HW124329   2.681   0.766   6.236
 7810SOL    HW224330   2.608   0.663   6.340
 7811SOL     OW24331   5.726   4.314   4.465
 7811SOL    HW124332   5.626   4.319   4.456
 7811SOL    HW224333   5.756   4.371   4.541
 7812SOL     OW24334   1.956   1.475   3.549
 7812SOL    HW124335   1.974   1.378   3.534
 7812SOL    HW224336   1.885   1.485   3.619
 7813SOL     OW24337   6.919   2.881   0.094
 7813SOL    HW124338   6.930   2.791   0.134
 7813SOL    HW224339   6.885   2.945   0.164
 7814SOL     OW24340   6.912   3.532   3.168
 7814SOL    HW124341   6.938   3.570   3.079
 7814SOL    HW224342   6.812   3.527   3.174
 7815SOL     OW24343   6.255   1.476   6.185
 7815SOL    HW124344   6.166   1.459   6.142
 7815SOL    HW224345   6.242   1.493   6.283
 7816SOL     OW24346   1.160   3.903   4.838
 7816SOL    HW124347   1.176   3.979   4.901
 7816SOL    HW224348   1.067   3.869   4.848
 7817SOL     OW24349   5.216   4.334   4.704
 7817SOL    HW124350   5.219   4.421   4.655
 7817SOL    HW224351   5.124   4.319   4.740
 7818SOL     OW24352   5.398   6.300   1.816
 7818SOL    HW124353   5.303   6.268   1.818
 7818SOL    HW224354   5.458   6.228   1.850
 7819SOL     OW24355   0.013   2.266   1.621
 7819SOL    HW124356   0.040   2.171   1.633
 7819SOL    HW224357   0.008   2.287   1.523
 7820SOL     OW24358   1.807   1.134   6.585
 7820SOL    HW124359   1.858   1.209   6.627
 7820SOL    HW224360   1.749   1.171   6.512
 7821SOL     OW24361   3.113   5.276   1.615
 7821SOL    HW124362   3.160   5.356   1.652
 7821SOL    HW224363   3.026   5.304   1.575
 7822SOL     OW24364   1.601   5.718   5.267
 7822SOL    HW124365   1.631   5.812   5.249
 7822SOL    HW224366   1.616   5.663   5.185
 7823SOL     OW24367   1.483   4.713   4.932
 7823SOL    HW124368   1.463   4.674   5.021
 7823SOL    HW224369   1.575   4.684   4.903
 7824SOL     OW24370   0.648   3.157   4.923
 7824SOL    HW124371   0.684   3.083   4.866
 7824SOL    HW224372   0.612   3.230   4.864
 7825SOL     OW24373   3.017   1.424   6.222
 7825SOL    HW124374   2.933   1.462   6.185
 7825SOL    HW224375   2.995   1.356   6.292
 7826SOL     OW24376   0.087   2.683   6.652
 7826SOL    HW124377   0.099   2.583   6.654
 7826SOL    HW224378   0.002   2.707   6.697
 7827SOL     OW24379   0.099   6.314   4.315
 7827SOL    HW124380   0.003   6.306   4.342
 7827SOL    HW224381   0.152   6.348   4.392
 7828SOL     OW24382   0.705   4.120   0.018
 7828SOL    HW124383   0.727   4.218   0.020
 7828SOL    HW224384   0.633   4.101   0.085
 7829SOL     OW24385   3.764   2.407   0.752
 7829SOL    HW124386   3.808   2.497   0.755
 7829SOL    HW224387   3.824   2.340   0.796
 7830SOL     OW24388   2.718   4.767   4.263
 7830SOL    HW124389   2.787   4.798   4.198
 7830SOL    HW224390   2.763   4.734   4.346
 7831SOL     OW24391   1.505   1.399   0.301
 7831SOL    HW124392   1.568   1.459   0.350
 7831SOL    HW224393   1.546   1.371   0.215
 7832SOL     OW24394   6.075   0.830   4.364
 7832SOL    HW124395   6.019   0.802   4.442
 7832SOL    HW224396   6.056   0.926   4.343
 7833SOL     OW24397   2.091   0.931   4.389
 7833SOL    HW124398   2.081   0.936   4.488
 7833SOL    HW224399   2.159   0.997   4.358
 7834SOL     OW24400   6.126   3.233   4.490
 7834SOL    HW124401   6.205   3.171   4.488
 7834SOL    HW224402   6.067   3.215   4.412
 7835SOL     OW24403   4.202   1.910   5.227
 7835SOL    HW124404   4.135   1.881   5.159
 7835SOL    HW224405   4.269   1.971   5.184
 7836SOL     OW24406   3.784   3.863   4.919
 7836SOL    HW124407   3.806   3.851   4.822
 7836SOL    HW224408   3.711   3.931   4.928
 7837SOL     OW24409   6.101   5.494   6.603
 7837SOL    HW124410   6.114   5.419   6.538
 7837SOL    HW224411   6.026   5.552   6.571
 7838SOL     OW24412   5.631   5.543   1.354
 7838SOL    HW124413   5.724   5.544   1.316
 7838SOL    HW224414   5.596   5.450   1.353
 7839SOL     OW24415   5.764   3.660   4.049
 7839SOL    HW124416   5.809   3.572   4.033
 7839SOL    HW224417   5.664   3.647   4.048
 7840SOL     OW24418   1.840   2.924   4.100
 7840SOL    HW124419   1.833   2.910   4.001
 7840SOL    HW224420   1.893   3.007   4.118
 7841SOL     OW24421   4.846   2.207   6.261
 7841SOL    HW124422   4.830   2.187   6.357
 7841SOL    HW224423   4.863   2.122   6.211
 7842SOL     OW24424   1.747   1.312   1.957
 7842SOL    HW124425   1.676   1.307   1.888
 7842SOL    HW224426   1.836   1.292   1.915
 7843SOL     OW24427   0.155   6.672   2.865
 7843SOL    HW124428   0.075   6.719   2.903
 7843SOL    HW224429   0.210   6.737   2.813
 7844SOL     OW24430   3.462   1.526   2.936
 7844SOL    HW124431   3.499   1.610   2.975
 7844SOL    HW224432   3.503   1.509   2.847
 7845SOL     OW24433   6.675   2.695   0.998
 7845SOL    HW124434   6.690   2.782   0.950
 7845SOL    HW224435   6.764   2.654   1.020
 7846SOL     OW24436   0.787   2.720   0.527
 7846SOL    HW124437   0.834   2.683   0.446
 7846SOL    HW224438   0.767   2.817   0.512
 7847SOL     OW24439   5.587   3.156   4.768
 7847SOL    HW124440   5.489   3.179   4.765
 7847SOL    HW224441   5.632   3.195   4.687
 7848SOL     OW24442   3.237   4.830   1.040
 7848SOL    HW124443   3.199   4.744   1.074
 7848SOL    HW224444   3.316   4.811   0.981
 7849SOL     OW24445   4.430   4.300   6.195
 7849SOL    HW124446   4.520   4.342   6.182
 7849SOL    HW224447   4.436   4.202   6.175
 7850SOL     OW24448   0.447   0.883   4.010
 7850SOL    HW124449   0.533   0.931   3.993
 7850SOL    HW224450   0.430   0.819   3.936
 7851SOL     OW24451   0.696   4.247   2.038
 7851SOL    HW124452   0.746   4.189   2.102
 7851SOL    HW224453   0.626   4.193   1.991
 7852SOL     OW24454   1.041   2.293   6.332
 7852SOL    HW124455   0.943   2.275   6.320
 7852SOL    HW224456   1.094   2.219   6.292
 7853SOL     OW24457   4.100   2.991   1.777
 7853SOL    HW124458   4.059   2.977   1.867
 7853SOL    HW224459   4.198   3.011   1.788
 7854SOL     OW24460   5.183   2.588   6.734
 7854SOL    HW124461   5.158   2.605   6.830
 7854SOL    HW224462   5.119   2.523   6.694
 7855SOL     OW24463   5.039   6.816   4.326
 7855SOL    HW124464   5.006   6.905   4.355
 7855SOL    HW224465   5.060   6.760   4.406
 7856SOL     OW24466   2.139   6.398   4.744
 7856SOL    HW124467   2.191   6.482   4.731
 7856SOL    HW224468   2.108   6.392   4.839
 7857SOL     OW24469   5.310   4.133   1.017
 7857SOL    HW124470   5.303   4.061   1.087
 7857SOL    HW224471   5.369   4.101   0.943
 7858SOL     OW24472   0.797   5.375   5.562
 7858SOL    HW124473   0.794   5.444   5.635
 7858SOL    HW224474   0.772   5.285   5.600
 7859SOL     OW24475   5.349   2.726   0.319
 7859SOL    HW124476   5.316   2.654   0.257
 7859SOL    HW224477   5.271   2.774   0.359
 7860SOL     OW24478   2.686   0.561   4.307
 7860SOL    HW124479   2.784   0.558   4.327
 7860SOL    HW224480   2.664   0.648   4.263
 7861SOL     OW24481   2.797   6.280   0.621
 7861SOL    HW124482   2.738   6.346   0.667
 7861SOL    HW224483   2.887   6.278   0.665
 7862SOL     OW24484   2.771   6.071   0.429
 7862SOL    HW124485   2.675   6.051   0.447
 7862SOL    HW224486   2.798   6.153   0.479
 7863SOL     OW24487   6.821   4.557   3.442
 7863SOL    HW124488   6.878   4.493   3.389
 7863SOL    HW224489   6.829   4.536   3.539
 7864SOL     OW24490   2.172   6.632   4.972
 7864SOL    HW124491   2.262   6.667   4.948
 7864SOL    HW224492   2.141   6.674   5.057
 7865SOL     OW24493   5.625   5.680   3.606
 7865SOL    HW124494   5.648   5.600   3.549
 7865SOL    HW224495   5.589   5.648   3.694
 7866SOL     OW24496   0.852   6.669   5.820
 7866SOL    HW124497   0.861   6.738   5.749
 7866SOL    HW224498   0.770   6.688   5.875
 7867SOL     OW24499   5.440   6.174   3.635
 7867SOL    HW124500   5.480   6.089   3.599
 7867SOL    HW224501   5.503   6.215   3.700
 7868SOL     OW24502   3.544   6.277   1.199
 7868SOL    HW124503   3.638   6.245   1.208
 7868SOL    HW224504   3.527   6.351   1.264
 7869SOL     OW24505   5.272   4.564   6.077
 7869SOL    HW124506   5.360   4.558   6.030
 7869SOL    HW224507   5.210   4.495   6.040
 7870SOL     OW24508   5.481   6.274   5.345
 7870SOL    HW124509   5.569   6.294   5.301
 7870SOL    HW224510   5.408   6.319   5.294
 7871SOL     OW24511   4.709   1.449   1.446
 7871SOL    HW124512   4.767   1.529   1.462
 7871SOL    HW224513   4.764   1.374   1.410
 7872SOL     OW24514   1.921   6.182   2.678
 7872SOL    HW124515   1.843   6.147   2.626
 7872SOL    HW224516   1.926   6.281   2.669
 7873SOL     OW24517   6.509   0.992   0.242
 7873SOL    HW124518   6.504   1.004   0.143
 7873SOL    HW224519   6.587   0.934   0.265
 7874SOL     OW24520   5.524   2.233   1.060
 7874SOL    HW124521   5.492   2.214   0.967
 7874SOL    HW224522   5.550   2.329   1.068
 7875SOL     OW24523   4.975   4.040   6.917
 7875SOL    HW124524   4.980   3.967   6.850
 7875SOL    HW224525   4.897   4.100   6.896
 7876SOL     OW24526   0.938   0.099   2.156
 7876SOL    HW124527   0.909   0.078   2.249
 7876SOL    HW224528   0.951   0.198   2.147
 7877SOL     OW24529   0.364   2.358   3.043
 7877SOL    HW124530   0.358   2.423   3.118
 7877SOL    HW224531   0.381   2.407   2.958
 7878SOL     OW24532   4.364   5.040   3.630
 7878SOL    HW124533   4.297   4.966   3.616
 7878SOL    HW224534   4.450   5.015   3.586
 7879SOL     OW24535   2.643   4.701   3.372
 7879SOL    HW124536   2.589   4.617   3.371
 7879SOL    HW224537   2.611   4.763   3.300
 7880SOL     OW24538   1.529   4.219   2.009
 7880SOL    HW124539   1.591   4.143   1.990
 7880SOL    HW224540   1.492   4.210   2.101
 7881SOL     OW24541   5.157   4.035   4.205
 7881SOL    HW124542   5.219   3.970   4.161
 7881SOL    HW224543   5.063   4.015   4.180
 7882SOL     OW24544   1.582   2.805   0.655
 7882SOL    HW124545   1.567   2.768   0.747
 7882SOL    HW224546   1.493   2.826   0.613
 7883SOL     OW24547   1.371   1.313   5.274
 7883SOL    HW124548   1.348   1.217   5.260
 7883SOL    HW224549   1.288   1.363   5.299
 7884SOL     OW24550   0.636   3.158   4.296
 7884SOL    HW124551   0.697   3.214   4.241
 7884SOL    HW224552   0.548   3.149   4.249
 7885SOL     OW24553   6.031   6.030   0.201
 7885SOL    HW124554   5.950   6.031   0.142
 7885SOL    HW224555   6.113   6.047   0.146
 7886SOL     OW24556   4.725   5.003   6.761
 7886SOL    HW124557   4.767   5.037   6.677
 7886SOL    HW224558   4.645   5.058   6.783
 7887SOL     OW24559   5.218   1.746   0.184
 7887SOL    HW124560   5.224   1.679   0.258
 7887SOL    HW224561   5.255   1.706   0.100
 7888SOL     OW24562   5.076   0.825   4.295
 7888SOL    HW124563   5.157   0.813   4.353
 7888SOL    HW224564   4.997   0.848   4.353
 7889SOL     OW24565   0.943   6.790   2.159
 7889SOL    HW124566   0.962   6.888   2.159
 7889SOL    HW224567   1.012   6.742   2.214
 7890SOL     OW24568   1.367   3.117   3.085
 7890SOL    HW124569   1.452   3.137   3.134
 7890SOL    HW224570   1.290   3.162   3.131
 7891SOL     OW24571   2.071   4.920   2.270
 7891SOL    HW124572   2.143   4.898   2.336
 7891SOL    HW224573   1.989   4.868   2.293
 7892SOL     OW24574   1.784   2.161   5.782
 7892SOL    HW124575   1.697   2.208   5.774
 7892SOL    HW224576   1.858   2.228   5.791
 7893SOL     OW24577   6.088   6.374   1.096
 7893SOL    HW124578   6.060   6.368   1.000
 7893SOL    HW224579   6.184   6.345   1.105
 7894SOL     OW24580   3.002   7.006   1.403
 7894SOL    HW124581   2.965   0.045   1.329
 7894SOL    HW224582   3.003   0.043   1.488
 7895SOL     OW24583   0.191   1.468   4.259
 7895SOL    HW124584   0.200   1.418   4.345
 7895SOL    HW224585   0.256   1.432   4.193
 7896SOL     OW24586   4.681   2.749   5.838
 7896SOL    HW124587   4.679   2.663   5.889
 7896SOL    HW224588   4.590   2.791   5.839
 7897SOL     OW24589   3.073   3.009   6.209
 7897SOL    HW124590   3.055   3.105   6.189
 7897SOL    HW224591   3.121   3.002   6.296
 7898SOL     OW24592   4.230   2.274   3.605
 7898SOL    HW124593   4.184   2.219   3.674
 7898SOL    HW224594   4.279   2.214   3.542
 7899SOL     OW24595   5.788   1.827   2.826
 7899SOL    HW124596   5.764   1.916   2.862
 7899SOL    HW224597   5.728   1.757   2.865
 7900SOL     OW24598   1.677   5.003   0.782
 7900SOL    HW124599   1.647   4.981   0.689
 7900SOL    HW224600   1.633   4.942   0.847
 7901SOL     OW24601   5.984   6.425   6.880
 7901SOL    HW124602   6.049   6.354   6.853
 7901SOL    HW224603   5.963   6.484   6.802
 7902SOL     OW24604   4.412   3.687   6.923
 7902SOL    HW124605   4.425   3.738   6.838
 7902SOL    HW224606   4.320   3.707   6.959
 7903SOL     OW24607   0.009   1.757   6.538
 7903SOL    HW124608   7.011   1.856   6.546
 7903SOL    HW224609   0.107   1.740   6.530
 7904SOL     OW24610   6.692   0.668   2.829
 7904SOL    HW124611   6.791   0.677   2.843
 7904SOL    HW224612   6.675   0.626   2.740
 7905SOL     OW24613   4.069   0.940   1.099
 7905SOL    HW124614   4.015   0.856   1.089
 7905SOL    HW224615   4.122   0.956   1.016
 7906SOL     OW24616   6.069   5.864   6.931
 7906SOL    HW124617   6.095   5.769   6.950
 7906SOL    HW224618   6.042   5.872   6.835
 7907SOL     OW24619   6.570   2.750   2.414
 7907SOL    HW124620   6.566   2.774   2.316
 7907SOL    HW224621   6.576   2.651   2.424
 7908SOL     OW24622   6.369   2.393   3.782
 7908SOL    HW124623   6.357   2.303   3.824
 7908SOL    HW224624   6.291   2.412   3.723
 7909SOL     OW24625   4.633   4.710   5.045
 7909SOL    HW124626   4.685   4.678   4.966
 7909SOL    HW224627   4.606   4.805   5.032
 7910SOL     OW24628   5.376   3.188   5.807
 7910SOL    HW124629   5.414   3.272   5.846
 7910SOL    HW224630   5.437   3.152   5.737
 7911SOL     OW24631   5.822   4.524   0.145
 7911SOL    HW124632   5.880   4.460   0.195
 7911SOL    HW224633   5.737   4.539   0.196
 7912SOL     OW24634   6.382   4.831   6.031
 7912SOL    HW124635   6.406   4.914   5.981
 7912SOL    HW224636   6.457   4.765   6.024
 7913SOL     OW24637   6.733   5.750   6.047
 7913SOL    HW124638   6.652   5.809   6.039
 7913SOL    HW224639   6.732   5.702   6.134
 7914SOL     OW24640   6.629   4.314   1.675
 7914SOL    HW124641   6.549   4.374   1.676
 7914SOL    HW224642   6.691   4.339   1.749
 7915SOL     OW24643   3.597   1.575   3.217
 7915SOL    HW124644   3.683   1.526   3.232
 7915SOL    HW224645   3.614   1.655   3.160
 7916SOL     OW24646   5.149   3.678   5.402
 7916SOL    HW124647   5.060   3.713   5.372
 7916SOL    HW224648   5.159   3.694   5.501
 7917SOL     OW24649   3.119   3.686   4.065
 7917SOL    HW124650   3.186   3.748   4.024
 7917SOL    HW224651   3.054   3.656   3.996
 7918SOL     OW24652   6.398   1.748   2.665
 7918SOL    HW124653   6.476   1.805   2.689
 7918SOL    HW224654   6.356   1.712   2.749
 7919SOL     OW24655   6.076   4.916   2.097
 7919SOL    HW124656   6.072   4.983   2.022
 7919SOL    HW224657   6.146   4.847   2.076
 7920SOL     OW24658   1.057   5.298   1.882
 7920SOL    HW124659   1.006   5.315   1.797
 7920SOL    HW224660   1.150   5.333   1.872
 7921SOL     OW24661   2.866   6.776   1.502
 7921SOL    HW124662   2.917   6.712   1.446
 7921SOL    HW224663   2.896   6.869   1.482
 7922SOL     OW24664   0.925   5.009   6.633
 7922SOL    HW124665   0.882   5.046   6.715
 7922SOL    HW224666   0.956   5.084   6.574
 7923SOL     OW24667   1.751   1.942   3.206
 7923SOL    HW124668   1.752   2.021   3.267
 7923SOL    HW224669   1.759   1.858   3.260
 7924SOL     OW24670   2.013   6.946   3.801
 7924SOL    HW124671   2.001   6.852   3.769
 7924SOL    HW224672   1.940   7.003   3.763
 7925SOL     OW24673   6.639   1.364   6.425
 7925SOL    HW124674   6.550   1.319   6.429
 7925SOL    HW224675   6.628   1.455   6.383
 7926SOL     OW24676   3.878   0.161   1.687
 7926SOL    HW124677   3.898   0.111   1.603
 7926SOL    HW224678   3.887   0.099   1.765
 7927SOL     OW24679   4.897   5.308   4.695
 7927SOL    HW124680   4.828   5.236   4.700
 7927SOL    HW224681   4.862   5.385   4.642
 7928SOL     OW24682   1.499   5.194   1.379
 7928SOL    HW124683   1.453   5.260   1.439
 7928SOL    HW224684   1.431   5.134   1.337
 7929SOL     OW24685   3.517   4.183   4.205
 7929SOL    HW124686   3.597   4.170   4.147
 7929SOL    HW224687   3.536   4.147   4.296
 7930SOL     OW24688   4.905   6.033   3.766
 7930SOL    HW124689   4.857   6.096   3.826
 7930SOL    HW224690   4.847   5.953   3.748
 7931SOL     OW24691   2.231   1.798   0.585
 7931SOL    HW124692   2.329   1.805   0.601
 7931SOL    HW224693   2.210   1.827   0.492
 7932SOL     OW24694   2.480   6.929   1.304
 7932SOL    HW124695   2.386   6.893   1.300
 7932SOL    HW224696   2.494   6.992   1.227
 7933SOL     OW24697   1.676   0.641   0.088
 7933SOL    HW124698   1.736   0.693   0.149
 7933SOL    HW224699   1.604   0.701   0.053
 7934SOL     OW24700   2.754   3.641   6.389
 7934SOL    HW124701   2.680   3.592   6.342
 7934SOL    HW224702   2.731   3.738   6.394
 7935SOL     OW24703   4.400   6.195   1.394
 7935SOL    HW124704   4.319   6.253   1.396
 7935SOL    HW224705   4.474   6.242   1.347
 7936SOL     OW24706   4.294   5.994   3.333
 7936SOL    HW124707   4.393   5.983   3.322
 7936SOL    HW224708   4.273   6.019   3.427
 7937SOL     OW24709   6.263   6.356   5.425
 7937SOL    HW124710   6.206   6.329   5.502
 7937SOL    HW224711   6.337   6.291   5.413
 7938SOL     OW24712   5.203   5.275   4.681
 7938SOL    HW124713   5.234   5.273   4.586
 7938SOL    HW224714   5.104   5.257   4.684
 7939SOL     OW24715   1.041   1.161   4.933
 7939SOL    HW124716   1.107   1.208   4.874
 7939SOL    HW224717   1.001   1.226   4.996
 7940SOL     OW24718   1.411   5.484   0.988
 7940SOL    HW124719   1.496   5.464   1.036
 7940SOL    HW224720   1.404   5.583   0.973
 7941SOL     OW24721   0.689   0.503   0.646
 7941SOL    HW124722   0.766   0.444   0.672
 7941SOL    HW224723   0.722   0.576   0.587
 7942SOL     OW24724   0.804   0.883   1.347
 7942SOL    HW124725   0.840   0.819   1.415
 7942SOL    HW224726   0.705   0.873   1.341
 7943SOL     OW24727   5.275   1.732   1.168
 7943SOL    HW124728   5.331   1.806   1.205
 7943SOL    HW224729   5.317   1.694   1.086
 7944SOL     OW24730   1.008   4.773   1.887
 7944SOL    HW124731   1.045   4.718   1.961
 7944SOL    HW224732   0.979   4.862   1.922
 7945SOL     OW24733   4.934   6.446   2.005
 7945SOL    HW124734   4.889   6.520   2.054
 7945SOL    HW224735   4.984   6.389   2.070
 7946SOL     OW24736   1.561   2.330   5.825
 7946SOL    HW124737   1.633   2.390   5.791
 7946SOL    HW224738   1.510   2.377   5.897
 7947SOL     OW24739   3.767   3.575   6.469
 7947SOL    HW124740   3.791   3.495   6.523
 7947SOL    HW224741   3.694   3.552   6.405
 7948SOL     OW24742   6.972   6.183   0.577
 7948SOL    HW124743   6.905   6.149   0.643
 7948SOL    HW224744   6.999   6.276   0.601
 7949SOL     OW24745   5.454   4.347   4.418
 7949SOL    HW124746   5.473   4.367   4.322
 7949SOL    HW224747   5.461   4.432   4.471
 7950SOL     OW24748   3.450   4.870   4.254
 7950SOL    HW124749   3.529   4.912   4.297
 7950SOL    HW224750   3.428   4.784   4.300
 7951SOL     OW24751   3.473   3.324   0.987
 7951SOL    HW124752   3.378   3.317   1.020
 7951SOL    HW224753   3.501   3.237   0.948
 7952SOL     OW24754   5.673   3.173   1.165
 7952SOL    HW124755   5.591   3.184   1.110
 7952SOL    HW224756   5.753   3.197   1.111
 7953SOL     OW24757   2.019   2.738   3.009
 7953SOL    HW124758   2.072   2.816   3.043
 7953SOL    HW224759   2.059   2.653   3.041
 7954SOL     OW24760   4.005   5.093   5.101
 7954SOL    HW124761   3.928   5.155   5.115
 7954SOL    HW224762   4.081   5.143   5.059
 7955SOL     OW24763   1.045   6.826   6.216
 7955SOL    HW124764   1.066   6.874   6.131
 7955SOL    HW224765   0.948   6.801   6.218
 7956SOL     OW24766   6.118   0.097   3.776
 7956SOL    HW124767   6.042   0.065   3.832
 7956SOL    HW224768   6.199   0.040   3.794
 7957SOL     OW24769   0.727   2.270   1.180
 7957SOL    HW124770   0.797   2.338   1.161
 7957SOL    HW224771   0.736   2.239   1.275
 7958SOL     OW24772   2.777   5.486   2.877
 7958SOL    HW124773   2.782   5.484   2.977
 7958SOL    HW224774   2.802   5.577   2.844
 7959SOL     OW24775   5.775   5.048   0.752
 7959SOL    HW124776   5.867   5.051   0.791
 7959SOL    HW224777   5.767   5.117   0.680
 7960SOL     OW24778   2.670   2.223   1.123
 7960SOL    HW124779   2.610   2.173   1.185
 7960SOL    HW224780   2.736   2.276   1.177
 7961SOL     OW24781   1.702   5.267   6.334
 7961SOL    HW124782   1.634   5.245   6.264
 7961SOL    HW224783   1.718   5.186   6.391
 7962SOL     OW24784   1.166   0.679   2.507
 7962SOL    HW124785   1.262   0.703   2.495
 7962SOL    HW224786   1.114   0.708   2.426
 7963SOL     OW24787   0.126   0.422   5.020
 7963SOL    HW124788   0.180   0.422   5.104
 7963SOL    HW224789   0.031   0.399   5.041
 7964SOL     OW24790   5.929   5.597   3.487
 7964SOL    HW124791   5.925   5.516   3.545
 7964SOL    HW224792   5.979   5.670   3.534
 7965SOL     OW24793   5.533   1.479   0.044
 7965SOL    HW124794   5.518   1.479   6.962
 7965SOL    HW224795   5.550   1.573   0.074
 7966SOL     OW24796   0.172   4.900   3.950
 7966SOL    HW124797   0.076   4.908   3.975
 7966SOL    HW224798   0.178   4.868   3.855
 7967SOL     OW24799   3.093   6.259   2.550
 7967SOL    HW124800   3.186   6.237   2.520
 7967SOL    HW224801   3.069   6.351   2.520
 7968SOL     OW24802   2.025   1.576   2.045
 7968SOL    HW124803   2.119   1.597   2.070
 7968SOL    HW224804   1.965   1.596   2.122
 7969SOL     OW24805   2.663   2.079   3.351
 7969SOL    HW124806   2.731   2.060   3.422
 7969SOL    HW224807   2.604   2.153   3.381
 7970SOL     OW24808   0.749   4.242   3.161
 7970SOL    HW124809   0.681   4.252   3.088
 7970SOL    HW224810   0.704   4.204   3.242
 7971SOL     OW24811   2.704   1.519   1.292
 7971SOL    HW124812   2.649   1.602   1.281
 7971SOL    HW224813   2.796   1.543   1.324
 7972SOL     OW24814   0.401   4.646   1.801
 7972SOL    HW124815   0.434   4.657   1.894
 7972SOL    HW224816   0.338   4.721   1.779
 7973SOL     OW24817   4.710   2.812   3.230
 7973SOL    HW124818   4.685   2.766   3.145
 7973SOL    HW224819   4.691   2.751   3.307
 7974SOL     OW24820   5.096   0.390   4.091
 7974SOL    HW124821   5.107   0.395   3.992
 7974SOL    HW224822   5.094   0.294   4.120
 7975SOL     OW24823   2.959   1.224   4.278
 7975SOL    HW124824   2.956   1.323   4.289
 7975SOL    HW224825   2.982   1.181   4.365
 7976SOL     OW24826   0.813   5.562   6.435
 7976SOL    HW124827   0.790   5.566   6.337
 7976SOL    HW224828   0.793   5.650   6.478
 7977SOL     OW24829   5.454   6.035   1.845
 7977SOL    HW124830   5.357   6.012   1.851
 7977SOL    HW224831   5.500   5.971   1.784
 7978SOL     OW24832   4.435   2.824   5.794
 7978SOL    HW124833   4.391   2.811   5.705
 7978SOL    HW224834   4.408   2.912   5.832
 7979SOL     OW24835   3.734   6.856   4.487
 7979SOL    HW124836   3.728   6.833   4.584
 7979SOL    HW224837   3.707   6.952   4.473
 7980SOL     OW24838   3.321   6.380   1.022
 7980SOL    HW124839   3.247   6.317   1.045
 7980SOL    HW224840   3.408   6.343   1.055
 7981SOL     OW24841   1.122   5.365   2.697
 7981SOL    HW124842   1.154   5.424   2.770
 7981SOL    HW224843   1.025   5.345   2.711
 7982SOL     OW24844   6.515   3.002   1.117
 7982SOL    HW124845   6.512   2.930   1.047
 7982SOL    HW224846   6.596   2.989   1.174
 7983SOL     OW24847   5.070   2.665   2.686
 7983SOL    HW124848   5.106   2.758   2.672
 7983SOL    HW224849   5.025   2.660   2.776
 7984SOL     OW24850   0.380   1.837   1.996
 7984SOL    HW124851   0.405   1.919   2.048
 7984SOL    HW224852   0.295   1.799   2.034
 7985SOL     OW24853   0.185   1.707   2.102
 7985SOL    HW124854   0.201   1.625   2.047
 7985SOL    HW224855   0.091   1.707   2.137
 7986SOL     OW24856   3.914   1.327   0.021
 7986SOL    HW124857   3.915   1.409   0.078
 7986SOL    HW224858   3.991   1.268   0.046
 7987SOL     OW24859   0.722   3.270   4.539
 7987SOL    HW124860   0.696   3.220   4.456
 7987SOL    HW224861   0.812   3.240   4.570
 7988SOL     OW24862   2.863   1.673   4.636
 7988SOL    HW124863   2.794   1.602   4.645
 7988SOL    HW224864   2.855   1.737   4.713
 7989SOL     OW24865   2.886   2.688   5.398
 7989SOL    HW124866   2.836   2.622   5.454
 7989SOL    HW224867   2.823   2.761   5.370
 7990SOL     OW24868   1.592   2.300   4.960
 7990SOL    HW124869   1.557   2.343   4.877
 7990SOL    HW224870   1.551   2.343   5.040
 7991SOL     OW24871   0.801   3.195   5.615
 7991SOL    HW124872   0.770   3.170   5.707
 7991SOL    HW224873   0.895   3.164   5.602
 7992SOL     OW24874   2.813   1.056   0.604
 7992SOL    HW124875   2.760   1.050   0.689
 7992SOL    HW224876   2.754   1.037   0.526
 7993SOL     OW24877   1.938   6.472   6.761
 7993SOL    HW124878   1.924   6.506   6.668
 7993SOL    HW224879   2.033   6.445   6.773
 7994SOL     OW24880   5.749   0.964   3.127
 7994SOL    HW124881   5.843   0.930   3.130
 7994SOL    HW224882   5.698   0.930   3.206
 7995SOL     OW24883   2.925   5.224   3.673
 7995SOL    HW124884   3.014   5.270   3.665
 7995SOL    HW224885   2.860   5.284   3.719
 7996SOL     OW24886   3.628   0.030   5.168
 7996SOL    HW124887   3.696   6.976   5.145
 7996SOL    HW224888   3.674   0.116   5.187
 7997SOL     OW24889   5.584   2.581   1.443
 7997SOL    HW124890   5.657   2.548   1.502
 7997SOL    HW224891   5.607   2.563   1.348
 7998SOL     OW24892   5.960   4.996   6.927
 7998SOL    HW124893   6.018   5.062   6.878
 7998SOL    HW224894   5.892   4.959   6.863
 7999SOL     OW24895   2.185   0.149   5.307
 7999SOL    HW124896   2.137   0.236   5.292
 7999SOL    HW224897   2.283   0.162   5.295
 8000SOL     OW24898   6.363   6.844   5.370
 8000SOL    HW124899   6.457   6.855   5.401
 8000SOL    HW224900   6.347   6.748   5.346
 8001SOL     OW24901   1.717   0.051   1.119
 8001SOL    HW124902   1.790   0.105   1.163
 8001SOL    HW224903   1.739   6.970   1.127
 8002SOL     OW24904   5.799   2.859   5.254
 8002SOL    HW124905   5.831   2.773   5.295
 8002SOL    HW224906   5.772   2.842   5.160
 8003SOL     OW24907   3.378   4.953   3.366
 8003SOL    HW124908   3.380   4.853   3.364
 8003SOL    HW224909   3.469   4.989   3.387
 8004SOL     OW24910   1.947   3.819   2.609
 8004SOL    HW124911   1.866   3.861   2.567
 8004SOL    HW224912   2.021   3.814   2.542
 8005SOL     OW24913   3.104   0.941   1.762
 8005SOL    HW124914   3.190   0.959   1.809
 8005SOL    HW224915   3.122   0.899   1.673
 8006SOL     OW24916   3.175   6.085   0.307
 8006SOL    HW124917   3.166   6.165   0.249
 8006SOL    HW224918   3.098   6.023   0.291
 8007SOL     OW24919   0.442   0.317   4.392
 8007SOL    HW124920   0.485   0.240   4.439
 8007SOL    HW224921   0.480   0.326   4.300
 8008SOL     OW24922   6.373   6.686   0.589
 8008SOL    HW124923   6.414   6.777   0.578
 8008SOL    HW224924   6.275   6.692   0.568
 8009SOL     OW24925   7.001   6.764   3.660
 8009SOL    HW124926   0.073   6.743   3.618
 8009SOL    HW224927   6.936   6.792   3.589
 8010SOL     OW24928   2.171   2.493   7.010
 8010SOL    HW124929   2.120   2.499   0.079
 8010SOL    HW224930   2.237   2.567   7.006
 8011SOL     OW24931   3.142   2.065   0.383
 8011SOL    HW124932   3.101   1.974   0.377
 8011SOL    HW224933   3.135   2.099   0.477
 8012SOL     OW24934   2.834   6.779   1.779
 8012SOL    HW124935   2.851   6.760   1.683
 8012SOL    HW224936   2.908   6.835   1.816
 8013SOL     OW24937   6.403   4.033   4.859
 8013SOL    HW124938   6.455   4.039   4.773
 8013SOL    HW224939   6.328   3.968   4.847
 8014SOL     OW24940   2.050   6.683   0.276
 8014SOL    HW124941   2.123   6.715   0.217
 8014SOL    HW224942   2.056   6.583   0.286
 8015SOL     OW24943   2.340   2.705   6.989
 8015SOL    HW124944   2.310   2.753   6.907
 8015SOL    HW224945   2.432   2.668   6.975
 8016SOL     OW24946   4.018   6.883   0.638
 8016SOL    HW124947   3.995   6.953   0.706
 8016SOL    HW224948   4.085   6.820   0.676
 8017SOL     OW24949   5.813   4.765   4.999
 8017SOL    HW124950   5.734   4.827   5.006
 8017SOL    HW224951   5.866   4.789   4.918
 8018SOL     OW24952   5.554   2.023   4.792
 8018SOL    HW124953   5.517   2.072   4.872
 8018SOL    HW224954   5.545   1.925   4.806
 8019SOL     OW24955   2.841   5.841   0.625
 8019SOL    HW124956   2.783   5.918   0.596
 8019SOL    HW224957   2.893   5.867   0.706
 8020SOL     OW24958   5.243   5.590   6.884
 8020SOL    HW124959   5.330   5.566   6.925
 8020SOL    HW224960   5.240   5.557   6.790
 8021SOL     OW24961   0.667   0.592   1.101
 8021SOL    HW124962   0.762   0.620   1.112
 8021SOL    HW224963   0.627   0.639   1.022
 8022SOL     OW24964   4.412   6.236   2.893
 8022SOL    HW124965   4.363   6.246   2.979
 8022SOL    HW224966   4.382   6.307   2.829
 8023SOL     OW24967   5.966   6.689   2.699
 8023SOL    HW124968   6.033   6.671   2.627
 8023SOL    HW224969   5.905   6.763   2.670
 8024SOL     OW24970   4.514   5.227   5.131
 8024SOL    HW124971   4.496   5.235   5.033
 8024SOL    HW224972   4.428   5.229   5.182
 8025SOL     OW24973   4.218   5.590   7.013
 8025SOL    HW124974   4.280   5.653   0.042
 8025SOL    HW224975   4.259   5.559   6.927
 8026SOL     OW24976   1.301   3.054   0.427
 8026SOL    HW124977   1.315   2.964   0.387
 8026SOL    HW224978   1.222   3.098   0.382
 8027SOL     OW24979   4.812   1.983   5.326
 8027SOL    HW124980   4.725   1.962   5.371
 8027SOL    HW224981   4.886   1.984   5.393
 8028SOL     OW24982   5.383   4.419   6.944
 8028SOL    HW124983   5.321   4.341   6.948
 8028SOL    HW224984   5.331   4.504   6.943
 8029SOL     OW24985   3.951   4.061   0.783
 8029SOL    HW124986   4.001   4.063   0.870
 8029SOL    HW224987   3.955   4.152   0.741
 8030SOL     OW24988   5.709   4.177   6.385
 8030SOL    HW124989   5.661   4.260   6.358
 8030SOL    HW224990   5.728   4.181   6.484
 8031SOL     OW24991   3.817   5.250   1.406
 8031SOL    HW124992   3.722   5.263   1.437
 8031SOL    HW224993   3.845   5.331   1.354
 8032SOL     OW24994   5.465   3.658   5.793
 8032SOL    HW124995   5.497   3.623   5.705
 8032SOL    HW224996   5.380   3.612   5.819
 8033SOL     OW24997   5.973   2.921   6.872
 8033SOL    HW124998   5.915   2.870   6.935
 8033SOL    HW224999   6.029   2.986   6.923
 8034SOL     OW25000   5.536   6.948   4.953
 8034SOL    HW125001   5.577   6.897   5.029
 8034SOL    HW225002   5.542   0.029   4.971
 8035SOL     OW25003   5.883   6.930   6.515
 8035SOL    HW125004   5.813   6.983   6.561
 8035SOL    HW225005   5.842   6.875   6.442
 8036SOL     OW25006   1.826   4.467   1.857
 8036SOL    HW125007   1.743   4.418   1.885
 8036SOL    HW225008   1.870   4.505   1.938
 8037SOL     OW25009   1.833   2.968   1.072
 8037SOL    HW125010   1.752   2.935   1.122
 8037SOL    HW225011   1.915   2.932   1.116
 8038SOL     OW25012   0.327   2.321   4.274
 8038SOL    HW125013   0.267   2.389   4.232
 8038SOL    HW225014   0.381   2.364   4.346
 8039SOL     OW25015   2.872   0.018   3.326
 8039SOL    HW125016   2.916   0.106   3.311
 8039SOL    HW225017   2.799   0.028   3.393
 8040SOL     OW25018   6.841   5.828   1.305
 8040SOL    HW125019   6.748   5.801   1.279
 8040SOL    HW225020   6.887   5.751   1.348
 8041SOL     OW25021   4.383   1.452   0.418
 8041SOL    HW125022   4.481   1.455   0.439
 8041SOL    HW225023   4.369   1.471   0.321
 8042SOL     OW25024   3.000   3.272   1.540
 8042SOL    HW125025   2.973   3.182   1.574
 8042SOL    HW225026   2.992   3.339   1.614
 8043SOL     OW25027   2.584   6.686   1.908
 8043SOL    HW125028   2.661   6.690   1.846
 8043SOL    HW225029   2.599   6.614   1.976
 8044SOL     OW25030   2.921   3.741   1.875
 8044SOL    HW125031   2.975   3.824   1.892
 8044SOL    HW225032   2.983   3.663   1.864
 8045SOL     OW25033   5.637   2.497   3.131
 8045SOL    HW125034   5.724   2.448   3.141
 8045SOL    HW225035   5.655   2.590   3.098
 8046SOL     OW25036   6.738   5.021   6.070
 8046SOL    HW125037   6.750   4.944   6.007
 8046SOL    HW225038   6.824   5.041   6.116
 8047SOL     OW25039   3.506   6.063   4.542
 8047SOL    HW125040   3.434   6.020   4.597
 8047SOL    HW225041   3.591   6.068   4.596
 8048SOL     OW25042   6.552   0.199   5.453
 8048SOL    HW125043   6.630   0.253   5.419
 8048SOL    HW225044   6.550   0.110   5.407
 8049SOL     OW25045   1.184   6.032   0.618
 8049SOL    HW125046   1.233   6.111   0.580
 8049SOL    HW225047   1.242   5.984   0.682
 8050SOL     OW25048   1.990   2.870   1.307
 8050SOL    HW125049   2.074   2.835   1.349
 8050SOL    HW225050   1.928   2.794   1.289
 8051SOL     OW25051   4.533   0.856   3.835
 8051SOL    HW125052   4.456   0.805   3.797
 8051SOL    HW225053   4.606   0.862   3.767
 8052SOL     OW25054   2.727   1.431   2.816
 8052SOL    HW125055   2.823   1.458   2.812
 8052SOL    HW225056   2.705   1.399   2.909
 8053SOL     OW25057   3.802   3.689   2.410
 8053SOL    HW125058   3.871   3.712   2.341
 8053SOL    HW225059   3.847   3.664   2.495
 8054SOL     OW25060   4.241   6.462   4.838
 8054SOL    HW125061   4.285   6.551   4.848
 8054SOL    HW225062   4.147   6.475   4.806
 8055SOL     OW25063   1.688   6.690   6.389
 8055SOL    HW125064   1.748   6.767   6.366
 8055SOL    HW225065   1.593   6.720   6.387
 8056SOL     OW25066   4.548   1.726   2.933
 8056SOL    HW125067   4.559   1.813   2.884
 8056SOL    HW225068   4.515   1.657   2.869
 8057SOL     OW25069   3.237   6.857   3.122
 8057SOL    HW125070   3.268   6.764   3.138
 8057SOL    HW225071   3.278   6.918   3.190
 8058SOL     OW25072   2.646   1.274   2.597
 8058SOL    HW125073   2.682   1.308   2.684
 8058SOL    HW225074   2.568   1.329   2.569
 8059SOL     OW25075   2.928   1.637   4.092
 8059SOL    HW125076   2.899   1.611   4.000
 8059SOL    HW225077   3.004   1.702   4.086
 8060SOL     OW25078   0.590   1.278   4.099
 8060SOL    HW125079   0.491   1.285   4.091
 8060SOL    HW225080   0.630   1.369   4.103
 8061SOL     OW25081   6.822   5.041   2.294
 8061SOL    HW125082   6.791   5.076   2.382
 8061SOL    HW225083   6.915   5.004   2.303
 8062SOL     OW25084   2.011   4.187   3.247
 8062SOL    HW125085   2.013   4.286   3.237
 8062SOL    HW225086   1.979   4.162   3.338
 8063SOL     OW25087   3.364   3.039   0.049
 8063SOL    HW125088   3.445   3.096   0.063
 8063SOL    HW225089   3.392   2.943   0.040
 8064SOL     OW25090   6.821   3.806   0.076
 8064SOL    HW125091   6.902   3.793   0.019
 8064SOL    HW225092   6.740   3.814   0.018
 8065SOL     OW25093   4.653   0.369   5.298
 8065SOL    HW125094   4.598   0.445   5.333
 8065SOL    HW225095   4.598   0.316   5.233
 8066SOL     OW25096   1.679   0.337   1.371
 8066SOL    HW125097   1.600   0.367   1.318
 8066SOL    HW225098   1.733   0.417   1.397
 8067SOL     OW25099   5.065   2.782   2.365
 8067SOL    HW125100   5.106   2.759   2.277
 8067SOL    HW225101   5.025   2.700   2.406
 8068SOL     OW25102   1.208   4.429   4.529
 8068SOL    HW125103   1.178   4.358   4.593
 8068SOL    HW225104   1.159   4.514   4.549
 8069SOL     OW25105   1.384   6.691   1.640
 8069SOL    HW125106   1.436   6.657   1.562
 8069SOL    HW225107   1.443   6.747   1.698
 8070SOL     OW25108   3.847   6.739   1.103
 8070SOL    HW125109   3.945   6.758   1.091
 8070SOL    HW225110   3.815   6.785   1.186
 8071SOL     OW25111   3.977   6.246   6.871
 8071SOL    HW125112   3.940   6.339   6.874
 8071SOL    HW225113   4.034   6.230   6.951
 8072SOL     OW25114   5.437   1.171   0.555
 8072SOL    HW125115   5.488   1.210   0.631
 8072SOL    HW225116   5.450   1.228   0.473
 8073SOL     OW25117   4.152   6.402   5.750
 8073SOL    HW125118   4.081   6.420   5.819
 8073SOL    HW225119   4.145   6.471   5.678
 8074SOL     OW25120   3.487   3.687   6.958
 8074SOL    HW125121   3.530   3.600   6.979
 8074SOL    HW225122   3.528   3.759   7.014
 8075SOL     OW25123   0.373   1.800   3.033
 8075SOL    HW125124   0.369   1.894   3.000
 8075SOL    HW225125   0.302   1.746   2.988
 8076SOL     OW25126   6.071   3.097   5.910
 8076SOL    HW125127   6.028   3.012   5.941
 8076SOL    HW225128   6.016   3.137   5.837
 8077SOL     OW25129   1.595   0.606   1.053
 8077SOL    HW125130   1.538   0.688   1.049
 8077SOL    HW225131   1.553   0.539   1.114
 8078SOL     OW25132   6.234   3.360   0.541
 8078SOL    HW125133   6.302   3.297   0.504
 8078SOL    HW225134   6.254   3.453   0.509
 8079SOL     OW25135   6.409   2.311   2.424
 8079SOL    HW125136   6.326   2.361   2.450
 8079SOL    HW225137   6.396   2.213   2.441
 8080SOL     OW25138   3.340   4.943   0.197
 8080SOL    HW125139   3.326   5.015   0.265
 8080SOL    HW225140   3.265   4.944   0.131
 8081SOL     OW25141   6.015   0.694   5.273
 8081SOL    HW125142   6.044   0.776   5.321
 8081SOL    HW225143   5.915   0.691   5.270
 8082SOL     OW25144   6.852   2.946   3.907
 8082SOL    HW125145   6.771   2.889   3.920
 8082SOL    HW225146   6.931   2.902   3.949
 8083SOL     OW25147   4.561   2.346   4.224
 8083SOL    HW125148   4.590   2.254   4.199
 8083SOL    HW225149   4.542   2.349   4.322
 8084SOL     OW25150   6.891   0.479   1.332
 8084SOL    HW125151   6.946   0.556   1.300
 8084SOL    HW225152   6.946   0.421   1.392
 8085SOL     OW25153   5.337   1.516   1.567
 8085SOL    HW125154   5.356   1.418   1.566
 8085SOL    HW225155   5.422   1.566   1.550
 8086SOL     OW25156   3.226   0.323   5.376
 8086SOL    HW125157   3.293   0.250   5.367
 8086SOL    HW225158   3.228   0.381   5.295
 8087SOL     OW25159   2.776   2.583   1.521
 8087SOL    HW125160   2.724   2.668   1.509
 8087SOL    HW225161   2.874   2.602   1.516
 8088SOL     OW25162   4.290   1.179   2.843
 8088SOL    HW125163   4.374   1.224   2.874
 8088SOL    HW225164   4.214   1.208   2.901
 8089SOL     OW25165   6.160   3.116   7.013
 8089SOL    HW125166   6.250   3.146   6.980
 8089SOL    HW225167   6.098   3.194   0.001
 8090SOL     OW25168   4.162   2.184   5.521
 8090SOL    HW125169   4.232   2.232   5.572
 8090SOL    HW225170   4.181   2.086   5.522
 8091SOL     OW25171   3.090   4.825   5.676
 8091SOL    HW125172   3.019   4.876   5.627
 8091SOL    HW225173   3.177   4.874   5.669
 8092SOL     OW25174   1.560   1.535   4.607
 8092SOL    HW125175   1.618   1.617   4.606
 8092SOL    HW225176   1.570   1.488   4.519
 8093SOL     OW25177   5.822   6.110   1.368
 8093SOL    HW125178   5.788   6.122   1.461
 8093SOL    HW225179   5.904   6.166   1.356
 8094SOL     OW25180   0.905   3.946   5.836
 8094SOL    HW125181   0.875   3.894   5.756
 8094SOL    HW225182   0.975   4.012   5.808
 8095SOL     OW25183   5.239   3.532   3.913
 8095SOL    HW125184   5.267   3.491   4.000
 8095SOL    HW225185   5.240   3.463   3.841
 8096SOL     OW25186   3.604   6.339   1.870
 8096SOL    HW125187   3.600   6.414   1.804
 8096SOL    HW225188   3.551   6.262   1.835
 8097SOL     OW25189   5.173   1.063   3.599
 8097SOL    HW125190   5.099   1.030   3.658
 8097SOL    HW225191   5.195   0.994   3.531
 8098SOL     OW25192   2.577   6.773   3.736
 8098SOL    HW125193   2.493   6.826   3.750
 8098SOL    HW225194   2.656   6.829   3.759
 8099SOL     OW25195   4.672   6.547   4.978
 8099SOL    HW125196   4.677   6.519   5.074
 8099SOL    HW225197   4.680   6.467   4.919
 8100SOL     OW25198   0.443   6.580   1.117
 8100SOL    HW125199   0.485   6.607   1.203
 8100SOL    HW225200   0.360   6.633   1.103
 8101SOL     OW25201   1.442   6.020   3.079
 8101SOL    HW125202   1.472   6.115   3.069
 8101SOL    HW225203   1.498   5.961   3.022
 8102SOL     OW25204   6.870   5.858   5.840
 8102SOL    HW125205   6.815   5.825   5.917
 8102SOL    HW225206   6.965   5.830   5.853
 8103SOL     OW25207   3.361   1.372   2.557
 8103SOL    HW125208   3.401   1.290   2.599
 8103SOL    HW225209   3.423   1.450   2.571
 8104SOL     OW25210   2.785   6.854   6.425
 8104SOL    HW125211   2.801   6.775   6.484
 8104SOL    HW225212   2.836   6.843   6.340
 8105SOL     OW25213   2.129   2.145   3.139
 8105SOL    HW125214   2.089   2.217   3.196
 8105SOL    HW225215   2.120   2.057   3.185
 8106SOL     OW25216   1.350   4.124   4.190
 8106SOL    HW125217   1.282   4.198   4.196
 8106SOL    HW225218   1.438   4.163   4.164
 8107SOL     OW25219   1.960   6.120   6.225
 8107SOL    HW125220   1.897   6.178   6.278
 8107SOL    HW225221   2.043   6.171   6.205
 8108SOL     OW25222   0.735   2.913   4.026
 8108SOL    HW125223   0.646   2.873   4.048
 8108SOL    HW225224   0.732   2.954   3.935
 8109SOL     OW25225   1.610   5.268   5.011
 8109SOL    HW125226   1.652   5.181   5.037
 8109SOL    HW225227   1.625   5.284   4.913
 8110SOL     OW25228   2.207   5.145   0.657
 8110SOL    HW125229   2.121   5.177   0.698
 8110SOL    HW225230   2.251   5.080   0.719
 8111SOL     OW25231   2.673   5.465   4.045
 8111SOL    HW125232   2.605   5.396   4.068
 8111SOL    HW225233   2.629   5.544   4.003
 8112SOL     OW25234   2.979   1.004   4.806
 8112SOL    HW125235   2.885   0.991   4.839
 8112SOL    HW225236   3.042   0.952   4.862
 8113SOL     OW25237   3.673   2.403   6.096
 8113SOL    HW125238   3.578   2.431   6.082
 8113SOL    HW225239   3.685   2.376   6.192
 8114SOL     OW25240   2.597   3.008   1.652
 8114SOL    HW125241   2.527   3.068   1.691
 8114SOL    HW225242   2.559   2.957   1.575
 8115SOL     OW25243   3.648   1.035   1.113
 8115SOL    HW125244   3.667   1.080   1.025
 8115SOL    HW225245   3.710   1.071   1.183
 8116SOL     OW25246   5.977   0.530   5.496
 8116SOL    HW125247   5.903   0.462   5.491
 8116SOL    HW225248   5.974   0.588   5.415
 8117SOL     OW25249   1.777   1.753   5.791
 8117SOL    HW125250   1.718   1.823   5.750
 8117SOL    HW225251   1.824   1.702   5.719
 8118SOL     OW25252   0.913   3.532   4.817
 8118SOL    HW125253   0.963   3.525   4.731
 8118SOL    HW225254   0.940   3.457   4.878
 8119SOL     OW25255   1.069   6.319   2.457
 8119SOL    HW125256   1.088   6.221   2.452
 8119SOL    HW225257   1.021   6.347   2.374
 8120SOL     OW25258   4.383   3.906   1.719
 8120SOL    HW125259   4.465   3.860   1.685
 8120SOL    HW225260   4.405   4.001   1.741
 8121SOL     OW25261   5.814   0.319   2.946
 8121SOL    HW125262   5.732   0.327   2.890
 8121SOL    HW225263   5.867   0.239   2.918
 8122SOL     OW25264   6.663   6.420   2.443
 8122SOL    HW125265   6.631   6.332   2.478
 8122SOL    HW225266   6.608   6.493   2.482
 8123SOL     OW25267   1.115   6.438   6.955
 8123SOL    HW125268   1.169   6.509   6.911
 8123SOL    HW225269   1.059   6.391   6.886
 8124SOL     OW25270   0.700   5.725   2.510
 8124SOL    HW125271   0.632   5.798   2.500
 8124SOL    HW225272   0.791   5.765   2.517
 8125SOL     OW25273   5.376   5.153   3.259
 8125SOL    HW125274   5.373   5.155   3.159
 8125SOL    HW225275   5.339   5.239   3.295
 8126SOL     OW25276   5.458   4.958   2.239
 8126SOL    HW125277   5.468   4.860   2.249
 8126SOL    HW225278   5.521   5.005   2.301
 8127SOL     OW25279   2.517   4.847   0.338
 8127SOL    HW125280   2.596   4.898   0.372
 8127SOL    HW225281   2.482   4.891   0.256
 8128SOL     OW25282   3.934   2.321   5.347
 8128SOL    HW125283   3.945   2.239   5.291
 8128SOL    HW225284   3.970   2.401   5.298
 8129SOL     OW25285   4.971   0.290   6.510
 8129SOL    HW125286   5.000   0.385   6.520
 8129SOL    HW225287   4.932   0.258   6.597
 8130SOL     OW25288   2.140   6.407   0.096
 8130SOL    HW125289   2.040   6.410   0.096
 8130SOL    HW225290   2.170   6.318   0.064
 8131SOL     OW25291   2.222   1.479   0.585
 8131SOL    HW125292   2.197   1.491   0.680
 8131SOL    HW225293   2.154   1.522   0.526
 8132SOL     OW25294   6.397   4.860   3.862
 8132SOL    HW125295   6.353   4.771   3.871
 8132SOL    HW225296   6.342   4.929   3.909
 8133SOL     OW25297   1.040   5.774   1.819
 8133SOL    HW125298   1.071   5.866   1.842
 8133SOL    HW225299   1.116   5.722   1.780
 8134SOL     OW25300   2.199   2.285   2.692
 8134SOL    HW125301   2.142   2.237   2.625
 8134SOL    HW225302   2.244   2.362   2.648
 8135SOL     OW25303   4.428   5.944   1.928
 8135SOL    HW125304   4.440   5.907   2.020
 8135SOL    HW225305   4.421   6.044   1.932
 8136SOL     OW25306   4.530   5.674   1.258
 8136SOL    HW125307   4.432   5.674   1.237
 8136SOL    HW225308   4.542   5.683   1.357
 8137SOL     OW25309   2.322   4.046   5.462
 8137SOL    HW125310   2.270   3.965   5.488
 8137SOL    HW225311   2.386   4.023   5.389
 8138SOL     OW25312   4.931   0.937   3.723
 8138SOL    HW125313   4.836   0.939   3.692
 8138SOL    HW225314   4.965   0.843   3.718
 8139SOL     OW25315   1.999   2.670   3.774
 8139SOL    HW125316   1.926   2.685   3.707
 8139SOL    HW225317   2.083   2.645   3.727
 8140SOL     OW25318   4.163   0.307   0.835
 8140SOL    HW125319   4.246   0.340   0.881
 8140SOL    HW225320   4.144   0.364   0.755
 8141SOL     OW25321   4.717   0.957   4.879
 8141SOL    HW125322   4.717   1.041   4.824
 8141SOL    HW225323   4.810   0.936   4.909
 8142SOL     OW25324   1.780   5.900   0.958
 8142SOL    HW125325   1.833   5.972   1.003
 8142SOL    HW225326   1.837   5.819   0.948
 8143SOL     OW25327   6.360   4.718   0.360
 8143SOL    HW125328   6.447   4.753   0.324
 8143SOL    HW225329   6.284   4.756   0.306
 8144SOL     OW25330   7.014   4.993   6.662
 8144SOL    HW125331   6.995   4.948   6.574
 8144SOL    HW225332   6.989   4.932   6.737
 8145SOL     OW25333   5.498   5.830   6.812
 8145SOL    HW125334   5.552   5.760   6.859
 8145SOL    HW225335   5.501   5.814   6.714
 8146SOL     OW25336   5.943   0.508   4.395
 8146SOL    HW125337   5.870   0.516   4.327
 8146SOL    HW225338   5.968   0.412   4.407
 8147SOL     OW25339   1.563   0.619   6.064
 8147SOL    HW125340   1.613   0.705   6.071
 8147SOL    HW225341   1.626   0.542   6.069
 8148SOL     OW25342   4.628   4.791   0.012
 8148SOL    HW125343   4.625   4.742   6.942
 8148SOL    HW225344   4.586   4.881   0.002
 8149SOL     OW25345   1.183   5.874   5.281
 8149SOL    HW125346   1.237   5.935   5.223
 8149SOL    HW225347   1.243   5.804   5.321
 8150SOL     OW25348   0.698   3.262   0.878
 8150SOL    HW125349   0.711   3.177   0.929
 8150SOL    HW225350   0.600   3.279   0.866
 8151SOL     OW25351   6.462   5.454   3.216
 8151SOL    HW125352   6.446   5.365   3.173
 8151SOL    HW225353   6.560   5.468   3.227
 8152SOL     OW25354   4.811   1.327   3.695
 8152SOL    HW125355   4.808   1.427   3.701
 8152SOL    HW225356   4.773   1.298   3.607
 8153SOL     OW25357   0.549   1.157   2.834
 8153SOL    HW125358   0.477   1.154   2.904
 8153SOL    HW225359   0.508   1.148   2.743
 8154SOL     OW25360   1.777   0.597   3.108
 8154SOL    HW125361   1.757   0.507   3.146
 8154SOL    HW225362   1.860   0.592   3.052
 8155SOL     OW25363   2.132   5.398   2.511
 8155SOL    HW125364   2.068   5.334   2.466
 8155SOL    HW225365   2.104   5.411   2.606
 8156SOL     OW25366   6.759   5.308   1.387
 8156SOL    HW125367   6.755   5.209   1.402
 8156SOL    HW225368   6.837   5.330   1.329
 8157SOL     OW25369   0.232   3.168   5.520
 8157SOL    HW125370   0.285   3.245   5.485
 8157SOL    HW225371   0.193   3.117   5.444
 8158SOL     OW25372   5.730   5.370   6.626
 8158SOL    HW125373   5.823   5.352   6.657
 8158SOL    HW225374   5.702   5.462   6.654
 8159SOL     OW25375   3.264   6.394   5.618
 8159SOL    HW125376   3.165   6.402   5.603
 8159SOL    HW225377   3.309   6.479   5.589
 8160SOL     OW25378   4.900   1.007   3.327
 8160SOL    HW125379   4.869   0.990   3.420
 8160SOL    HW225380   4.858   0.941   3.265
 8161SOL     OW25381   5.593   3.128   1.743
 8161SOL    HW125382   5.583   3.031   1.722
 8161SOL    HW225383   5.503   3.168   1.758
 8162SOL     OW25384   0.123   5.516   6.200
 8162SOL    HW125385   0.140   5.534   6.297
 8162SOL    HW225386   0.080   5.597   6.159
 8163SOL     OW25387   4.476   4.540   5.414
 8163SOL    HW125388   4.514   4.578   5.499
 8163SOL    HW225389   4.392   4.490   5.435
 8164SOL     OW25390   4.807   1.694   0.605
 8164SOL    HW125391   4.906   1.694   0.613
 8164SOL    HW225392   4.772   1.786   0.626
 8165SOL     OW25393   6.709   1.464   6.745
 8165SOL    HW125394   6.804   1.490   6.726
 8165SOL    HW225395   6.700   1.365   6.744
 8166SOL     OW25396   1.933   1.787   4.906
 8166SOL    HW125397   1.927   1.745   4.997
 8166SOL    HW225398   1.887   1.875   4.907
 8167SOL     OW25399   1.004   2.635   4.542
 8167SOL    HW125400   1.050   2.721   4.518
 8167SOL    HW225401   1.024   2.567   4.472
 8168SOL     OW25402   2.647   0.988   2.137
 8168SOL    HW125403   2.666   1.018   2.231
 8168SOL    HW225404   2.584   1.053   2.094
 8169SOL     OW25405   5.341   2.563   0.697
 8169SOL    HW125406   5.294   2.491   0.646
 8169SOL    HW225407   5.412   2.604   0.638
 8170SOL     OW25408   6.253   5.092   2.373
 8170SOL    HW125409   6.184   5.038   2.422
 8170SOL    HW225410   6.241   5.080   2.275
 8171SOL     OW25411   2.140   1.055   0.901
 8171SOL    HW125412   2.119   0.974   0.846
 8171SOL    HW225413   2.059   1.113   0.909
 8172SOL     OW25414   0.664   2.718   0.991
 8172SOL    HW125415   0.569   2.702   1.016
 8172SOL    HW225416   0.720   2.725   1.074
 8173SOL     OW25417   5.951   1.329   2.333
 8173SOL    HW125418   5.865   1.323   2.283
 8173SOL    HW225419   5.943   1.279   2.419
 8174SOL     OW25420   2.686   4.919   2.772
 8174SOL    HW125421   2.693   4.853   2.846
 8174SOL    HW225422   2.676   5.011   2.810
 8175SOL     OW25423   0.406   1.548   4.784
 8175SOL    HW125424   0.476   1.526   4.851
 8175SOL    HW225425   0.329   1.485   4.795
 8176SOL     OW25426   2.668   4.149   0.618
 8176SOL    HW125427   2.621   4.231   0.650
 8176SOL    HW225428   2.757   4.175   0.580
 8177SOL     OW25429   3.787   0.894   3.169
 8177SOL    HW125430   3.717   0.959   3.196
 8177SOL    HW225431   3.821   0.846   3.251
 8178SOL     OW25432   2.304   6.739   1.260
 8178SOL    HW125433   2.232   6.765   1.325
 8178SOL    HW225434   2.265   6.681   1.189
 8179SOL     OW25435   5.628   1.227   3.573
 8179SOL    HW125436   5.674   1.148   3.613
 8179SOL    HW225437   5.562   1.196   3.504
 8180SOL     OW25438   4.875   6.481   6.995
 8180SOL    HW125439   4.853   6.559   0.038
 8180SOL    HW225440   4.946   6.426   0.020
 8181SOL     OW25441   0.698   1.130   0.613
 8181SOL    HW125442   0.650   1.045   0.636
 8181SOL    HW225443   0.727   1.126   0.517
 8182SOL     OW25444   2.894   3.589   4.924
 8182SOL    HW125445   2.805   3.590   4.969
 8182SOL    HW225446   2.933   3.681   4.924
 8183SOL     OW25447   0.422   0.299   5.017
 8183SOL    HW125448   0.430   0.236   5.094
 8183SOL    HW225449   0.361   0.375   5.041
 8184SOL     OW25450   0.175   6.071   6.712
 8184SOL    HW125451   0.100   6.037   6.769
 8184SOL    HW225452   0.149   6.067   6.616
 8185SOL     OW25453   0.996   6.012   0.050
 8185SOL    HW125454   0.950   5.970   0.128
 8185SOL    HW225455   1.085   6.048   0.078
 8186SOL     OW25456   1.224   5.467   6.825
 8186SOL    HW125457   1.211   5.523   6.744
 8186SOL    HW225458   1.213   5.523   6.907
 8187SOL     OW25459   0.495   0.882   5.673
 8187SOL    HW125460   0.433   0.880   5.595
 8187SOL    HW225461   0.464   0.816   5.742
 8188SOL     OW25462   2.252   2.712   3.702
 8188SOL    HW125463   2.315   2.647   3.660
 8188SOL    HW225464   2.295   2.753   3.782
 8189SOL     OW25465   5.463   4.705   3.807
 8189SOL    HW125466   5.544   4.651   3.784
 8189SOL    HW225467   5.425   4.744   3.723
 8190SOL     OW25468   6.314   3.451   3.299
 8190SOL    HW125469   6.402   3.412   3.329
 8190SOL    HW225470   6.244   3.380   3.301
 8191SOL     OW25471   3.349   5.430   0.885
 8191SOL    HW125472   3.398   5.426   0.798
 8191SOL    HW225473   3.254   5.401   0.871
 8192SOL     OW25474   1.160   4.873   3.480
 8192SOL    HW125475   1.221   4.842   3.553
 8192SOL    HW225476   1.076   4.909   3.519
 8193SOL     OW25477   0.771   4.335   4.669
 8193SOL    HW125478   0.804   4.415   4.719
 8193SOL    HW225479   0.836   4.312   4.597
 8194SOL     OW25480   4.794   6.296   1.473
 8194SOL    HW125481   4.766   6.200   1.476
 8194SOL    HW225482   4.809   6.330   1.566
 8195SOL     OW25483   5.390   6.491   3.182
 8195SOL    HW125484   5.297   6.485   3.144
 8195SOL    HW225485   5.397   6.430   3.261
 8196SOL     OW25486   5.059   0.816   0.374
 8196SOL    HW125487   5.062   0.746   0.446
 8196SOL    HW225488   5.077   0.906   0.414
 8197SOL     OW25489   4.781   1.558   2.675
 8197SOL    HW125490   4.696   1.553   2.727
 8197SOL    HW225491   4.785   1.484   2.608
 8198SOL     OW25492   1.347   0.217   2.538
 8198SOL    HW125493   1.416   0.252   2.602
 8198SOL    HW225494   1.267   0.276   2.539
 8199SOL     OW25495   5.575   2.983   5.959
 8199SOL    HW125496   5.670   2.952   5.959
 8199SOL    HW225497   5.572   3.083   5.958
 8200SOL     OW25498   4.245   2.823   1.043
 8200SOL    HW125499   4.329   2.793   0.996
 8200SOL    HW225500   4.217   2.912   1.007
 8201SOL     OW25501   6.710   6.761   5.341
 8201SOL    HW125502   6.656   6.682   5.311
 8201SOL    HW225503   6.720   6.759   5.440
 8202SOL     OW25504   0.904   6.053   1.901
 8202SOL    HW125505   1.002   6.057   1.880
 8202SOL    HW225506   0.853   6.103   1.831
 8203SOL     OW25507   1.123   3.462   1.360
 8203SOL    HW125508   1.109   3.448   1.458
 8203SOL    HW225509   1.057   3.407   1.309
 8204SOL     OW25510   3.441   3.090   0.865
 8204SOL    HW125511   3.422   3.024   0.937
 8204SOL    HW225512   3.474   3.043   0.783
 8205SOL     OW25513   1.232   3.555   0.879
 8205SOL    HW125514   1.274   3.475   0.923
 8205SOL    HW225515   1.303   3.610   0.835
 8206SOL     OW25516   3.652   0.579   6.907
 8206SOL    HW125517   3.623   0.551   6.999
 8206SOL    HW225518   3.616   0.670   6.887
 8207SOL     OW25519   3.899   2.997   5.020
 8207SOL    HW125520   3.930   3.089   5.041
 8207SOL    HW225521   3.904   2.981   4.921
 8208SOL     OW25522   2.169   0.749   0.705
 8208SOL    HW125523   2.213   0.764   0.794
 8208SOL    HW225524   2.078   0.710   0.719
 8209SOL     OW25525   6.350   1.073   5.494
 8209SOL    HW125526   6.356   1.123   5.580
 8209SOL    HW225527   6.402   0.988   5.501
 8210SOL     OW25528   1.555   2.943   6.898
 8210SOL    HW125529   1.484   2.919   6.964
 8210SOL    HW225530   1.513   2.992   6.821
 8211SOL     OW25531   3.224   4.497   1.010
 8211SOL    HW125532   3.291   4.561   0.973
 8211SOL    HW225533   3.222   4.505   1.109
 8212SOL     OW25534   1.491   2.536   3.456
 8212SOL    HW125535   1.547   2.547   3.538
 8212SOL    HW225536   1.501   2.616   3.398
 8213SOL     OW25537   7.005   5.330   1.259
 8213SOL    HW125538   0.075   5.379   1.254
 8213SOL    HW225539   0.002   5.241   1.302
 8214SOL     OW25540   5.057   4.224   3.382
 8214SOL    HW125541   4.980   4.265   3.333
 8214SOL    HW225542   5.040   4.226   3.480
 8215SOL     OW25543   3.197   5.277   4.614
 8215SOL    HW125544   3.252   5.239   4.689
 8215SOL    HW225545   3.102   5.252   4.627
 8216SOL     OW25546   4.477   4.488   3.760
 8216SOL    HW125547   4.383   4.461   3.782
 8216SOL    HW225548   4.538   4.460   3.835
 8217SOL     OW25549   2.478   6.263   0.347
 8217SOL    HW125550   2.437   6.192   0.404
 8217SOL    HW225551   2.552   6.224   0.293
 8218SOL     OW25552   0.594   1.366   0.024
 8218SOL    HW125553   0.505   1.321   0.014
 8218SOL    HW225554   0.612   1.423   6.960
 8219SOL     OW25555   6.371   2.024   6.358
 8219SOL    HW125556   6.439   2.085   6.399
 8219SOL    HW225557   6.280   2.051   6.390
 8220SOL     OW25558   3.550   3.171   3.106
 8220SOL    HW125559   3.543   3.079   3.066
 8220SOL    HW225560   3.645   3.202   3.101
 8221SOL     OW25561   5.090   5.618   3.507
 8221SOL    HW125562   5.169   5.640   3.449
 8221SOL    HW225563   5.009   5.665   3.471
 8222SOL     OW25564   5.451   1.904   2.246
 8222SOL    HW125565   5.483   1.897   2.341
 8222SOL    HW225566   5.530   1.916   2.186
 8223SOL     OW25567   0.419   4.803   5.921
 8223SOL    HW125568   0.495   4.747   5.952
 8223SOL    HW225569   0.355   4.818   5.997
 8224SOL     OW25570   1.198   2.826   3.962
 8224SOL    HW125571   1.252   2.759   3.910
 8224SOL    HW225572   1.234   2.917   3.945
 8225SOL     OW25573   4.892   1.608   0.099
 8225SOL    HW125574   4.924   1.691   0.054
 8225SOL    HW225575   4.851   1.631   0.187
 8226SOL     OW25576   5.132   0.829   0.892
 8226SOL    HW125577   5.187   0.815   0.810
 8226SOL    HW225578   5.116   0.740   0.936
 8227SOL     OW25579   6.473   2.808   3.415
 8227SOL    HW125580   6.558   2.786   3.366
 8227SOL    HW225581   6.398   2.813   3.350
 8228SOL     OW25582   6.573   2.864   5.253
 8228SOL    HW125583   6.564   2.921   5.334
 8228SOL    HW225584   6.539   2.913   5.173
 8229SOL     OW25585   3.644   5.256   0.195
 8229SOL    HW125586   3.663   5.163   0.166
 8229SOL    HW225587   3.644   5.261   0.295
 8230SOL     OW25588   5.552   0.504   4.666
 8230SOL    HW125589   5.457   0.532   4.654
 8230SOL    HW225590   5.556   0.406   4.682
 8231SOL     OW25591   5.365   5.820   0.533
 8231SOL    HW125592   5.350   5.819   0.632
 8231SOL    HW225593   5.296   5.762   0.489
 8232SOL     OW25594   3.752   1.756   6.911
 8232SOL    HW125595   3.846   1.786   6.897
 8232SOL    HW225596   3.692   1.835   6.918
 8233SOL     OW25597   0.568   5.344   6.133
 8233SOL    HW125598   0.473   5.355   6.102
 8233SOL    HW225599   0.569   5.287   6.215
 8234SOL     OW25600   3.078   2.734   6.860
 8234SOL    HW125601   3.017   2.761   6.935
 8234SOL    HW225602   3.087   2.810   6.796
 8235SOL     OW25603   4.448   3.539   1.384
 8235SOL    HW125604   4.408   3.487   1.459
 8235SOL    HW225605   4.408   3.631   1.382
 8236SOL     OW25606   6.305   2.889   0.101
 8236SOL    HW125607   6.346   2.842   0.023
 8236SOL    HW225608   6.248   2.964   0.067
 8237SOL     OW25609   4.040   6.123   5.465
 8237SOL    HW125610   4.002   6.196   5.409
 8237SOL    HW225611   4.095   6.062   5.408
 8238SOL     OW25612   1.766   2.848   6.406
 8238SOL    HW125613   1.697   2.873   6.338
 8238SOL    HW225614   1.724   2.793   6.478
 8239SOL     OW25615   6.982   1.319   5.699
 8239SOL    HW125616   0.010   1.404   5.673
 8239SOL    HW225617   6.883   1.335   5.708
 8240SOL     OW25618   3.689   4.090   2.986
 8240SOL    HW125619   3.631   4.121   2.911
 8240SOL    HW225620   3.765   4.037   2.951
 8241SOL     OW25621   3.700   6.868   0.151
 8241SOL    HW125622   3.609   6.854   0.189
 8241SOL    HW225623   3.697   6.941   0.083
 8242SOL     OW25624   0.972   4.694   5.383
 8242SOL    HW125625   0.989   4.678   5.286
 8242SOL    HW225626   0.874   4.688   5.401
 8243SOL     OW25627   0.586   3.277   5.451
 8243SOL    HW125628   0.658   3.256   5.517
 8243SOL    HW225629   0.527   3.197   5.439
 8244SOL     OW25630   0.659   6.386   3.859
 8244SOL    HW125631   0.653   6.293   3.895
 8244SOL    HW225632   0.621   6.451   3.925
 8245SOL     OW25633   4.063   2.109   1.226
 8245SOL    HW125634   4.082   2.205   1.247
 8245SOL    HW225635   4.054   2.057   1.311
 8246SOL     OW25636   5.302   3.320   6.110
 8246SOL    HW125637   5.210   3.323   6.070
 8246SOL    HW225638   5.318   3.230   6.151
 8247SOL     OW25639   0.761   0.180   1.751
 8247SOL    HW125640   0.808   0.106   1.798
 8247SOL    HW225641   0.824   0.225   1.688
 8248SOL     OW25642   5.466   4.271   3.872
 8248SOL    HW125643   5.521   4.221   3.939
 8248SOL    HW225644   5.388   4.215   3.845
 8249SOL     OW25645   1.511   4.679   3.810
 8249SOL    HW125646   1.596   4.723   3.779
 8249SOL    HW225647   1.528   4.631   3.896
 8250SOL     OW25648   4.125   3.576   2.715
 8250SOL    HW125649   4.140   3.655   2.655
 8250SOL    HW225650   4.097   3.608   2.805
 8251SOL     OW25651   5.574   1.487   4.918
 8251SOL    HW125652   5.525   1.401   4.925
 8251SOL    HW225653   5.673   1.468   4.915
 8252SOL     OW25654   1.791   2.438   5.698
 8252SOL    HW125655   1.865   2.417   5.762
 8252SOL    HW225656   1.817   2.516   5.641
 8253SOL     OW25657   3.344   2.853   5.236
 8253SOL    HW125658   3.309   2.762   5.258
 8253SOL    HW225659   3.273   2.921   5.254
 8254SOL     OW25660   4.034   4.772   3.863
 8254SOL    HW125661   4.105   4.747   3.929
 8254SOL    HW225662   3.963   4.825   3.909
 8255SOL     OW25663   4.154   6.055   4.189
 8255SOL    HW125664   4.121   5.966   4.157
 8255SOL    HW225665   4.239   6.044   4.239
 8256SOL     OW25666   6.385   1.469   4.578
 8256SOL    HW125667   6.417   1.533   4.648
 8256SOL    HW225668   6.287   1.452   4.591
 8257SOL     OW25669   5.486   4.921   3.393
 8257SOL    HW125670   5.446   4.990   3.333
 8257SOL    HW225671   5.529   4.849   3.338
 8258SOL     OW25672   4.001   1.560   0.168
 8258SOL    HW125673   3.980   1.530   0.261
 8258SOL    HW225674   3.986   1.659   0.161
 8259SOL     OW25675   3.587   2.144   3.468
 8259SOL    HW125676   3.539   2.081   3.529
 8259SOL    HW225677   3.686   2.132   3.477
 8260SOL     OW25678   2.681   6.762   0.565
 8260SOL    HW125679   2.645   6.671   0.545
 8260SOL    HW225680   2.663   6.784   0.661
 8261SOL     OW25681   5.409   1.274   1.675
 8261SOL    HW125682   5.394   1.176   1.692
 8261SOL    HW225683   5.505   1.289   1.650
 8262SOL     OW25684   0.894   3.106   1.797
 8262SOL    HW125685   0.915   3.120   1.894
 8262SOL    HW225686   0.979   3.111   1.744
 8263SOL     OW25687   6.381   1.321   1.160
 8263SOL    HW125688   6.415   1.372   1.081
 8263SOL    HW225689   6.456   1.306   1.224
 8264SOL     OW25690   1.791   5.440   2.779
 8264SOL    HW125691   1.857   5.513   2.760
 8264SOL    HW225692   1.839   5.353   2.790
 8265SOL     OW25693   1.656   0.409   2.030
 8265SOL    HW125694   1.703   0.491   2.063
 8265SOL    HW225695   1.598   0.433   1.952
 8266SOL     OW25696   3.272   6.695   2.347
 8266SOL    HW125697   3.211   6.691   2.268
 8266SOL    HW225698   3.337   6.770   2.335
 8267SOL     OW25699   1.570   3.240   1.304
 8267SOL    HW125700   1.587   3.185   1.222
 8267SOL    HW225701   1.516   3.321   1.280
 8268SOL     OW25702   2.296   6.720   5.904
 8268SOL    HW125703   2.269   6.697   5.997
 8268SOL    HW225704   2.330   6.815   5.902
 8269SOL     OW25705   5.488   1.498   1.267
 8269SOL    HW125706   5.402   1.546   1.279
 8269SOL    HW225707   5.560   1.564   1.245
 8270SOL     OW25708   3.382   5.994   4.114
 8270SOL    HW125709   3.436   6.067   4.156
 8270SOL    HW225710   3.314   6.033   4.053
 8271SOL     OW25711   0.132   1.493   3.246
 8271SOL    HW125712   0.204   1.527   3.306
 8271SOL    HW225713   0.074   1.429   3.297
 8272SOL     OW25714   4.031   1.123   2.545
 8272SOL    HW125715   3.978   1.040   2.529
 8272SOL    HW225716   4.045   1.170   2.458
 8273SOL     OW25717   3.037   6.957   0.937
 8273SOL    HW125718   3.056   6.927   0.844
 8273SOL    HW225719   2.976   6.892   0.982
 8274SOL     OW25720   4.863   5.281   2.935
 8274SOL    HW125721   4.783   5.237   2.895
 8274SOL    HW225722   4.922   5.316   2.862
 8275SOL     OW25723   4.986   1.981   6.140
 8275SOL    HW125724   5.044   1.935   6.208
 8275SOL    HW225725   5.043   2.044   6.086
 8276SOL     OW25726   0.980   2.092   4.267
 8276SOL    HW125727   0.915   2.100   4.343
 8276SOL    HW225728   0.953   2.153   4.193
 8277SOL     OW25729   6.934   0.007   6.614
 8277SOL    HW125730   0.002   0.057   6.594
 8277SOL    HW225731   6.891   0.045   6.696
 8278SOL     OW25732   2.419   2.030   0.503
 8278SOL    HW125733   2.507   2.039   0.456
 8278SOL    HW225734   2.431   2.043   0.601
 8279SOL     OW25735   0.655   6.334   4.456
 8279SOL    HW125736   0.723   6.323   4.383
 8279SOL    HW225737   0.581   6.393   4.424
 8280SOL     OW25738   3.370   2.732   6.027
 8280SOL    HW125739   3.443   2.774   5.973
 8280SOL    HW225740   3.387   2.749   6.124
 8281SOL     OW25741   0.326   6.130   1.610
 8281SOL    HW125742   0.310   6.128   1.512
 8281SOL    HW225743   0.317   6.037   1.647
 8282SOL     OW25744   5.318   2.729   6.270
 8282SOL    HW125745   5.396   2.791   6.269
 8282SOL    HW225746   5.347   2.639   6.238
 8283SOL     OW25747   1.630   3.805   6.140
 8283SOL    HW125748   1.683   3.757   6.071
 8283SOL    HW225749   1.654   3.902   6.138
 8284SOL     OW25750   6.619   4.362   2.326
 8284SOL    HW125751   6.691   4.399   2.384
 8284SOL    HW225752   6.549   4.319   2.383
 8285SOL     OW25753   4.022   3.231   5.075
 8285SOL    HW125754   3.999   3.315   5.125
 8285SOL    HW225755   4.042   3.158   5.141
 8286SOL     OW25756   6.494   2.376   6.168
 8286SOL    HW125757   6.424   2.381   6.096
 8286SOL    HW225758   6.550   2.459   6.166
 8287SOL     OW25759   1.025   5.718   4.692
 8287SOL    HW125760   1.051   5.782   4.620
 8287SOL    HW225761   1.023   5.766   4.780
 8288SOL     OW25762   2.140   2.937   2.812
 8288SOL    HW125763   2.196   2.861   2.845
 8288SOL    HW225764   2.073   2.902   2.747
 8289SOL     OW25765   1.059   0.266   0.546
 8289SOL    HW125766   1.147   0.256   0.592
 8289SOL    HW225767   1.056   0.354   0.498
 8290SOL     OW25768   6.186   1.918   0.653
 8290SOL    HW125769   6.092   1.933   0.623
 8290SOL    HW225770   6.228   2.005   0.676
 8291SOL     OW25771   4.040   6.806   6.148
 8291SOL    HW125772   4.087   6.781   6.062
 8291SOL    HW225773   3.983   6.886   6.132
 8292SOL     OW25774   3.339   6.268   6.771
 8292SOL    HW125775   3.395   6.188   6.792
 8292SOL    HW225776   3.352   6.338   6.841
 8293SOL     OW25777   4.447   6.490   5.923
 8293SOL    HW125778   4.455   6.401   5.876
 8293SOL    HW225779   4.532   6.509   5.971
 8294SOL     OW25780   5.949   2.573   6.578
 8294SOL    HW125781   6.046   2.553   6.590
 8294SOL    HW225782   5.938   2.666   6.541
 8295SOL     OW25783   5.297   4.293   1.323
 8295SOL    HW125784   5.371   4.318   1.260
 8295SOL    HW225785   5.330   4.300   1.418
 8296SOL     OW25786   1.569   5.753   7.002
 8296SOL    HW125787   1.513   5.780   6.924
 8296SOL    HW225788   1.606   5.835   0.029
 8297SOL     OW25789   6.150   2.365   3.580
 8297SOL    HW125790   6.144   2.291   3.513
 8297SOL    HW225791   6.071   2.426   3.568
 8298SOL     OW25792   4.858   1.070   1.681
 8298SOL    HW125793   4.760   1.062   1.699
 8298SOL    HW225794   4.904   1.102   1.764
 8299SOL     OW25795   6.462   3.170   1.845
 8299SOL    HW125796   6.516   3.164   1.761
 8299SOL    HW225797   6.391   3.099   1.844
 8300SOL     OW25798   0.517   4.658   4.814
 8300SOL    HW125799   0.596   4.709   4.780
 8300SOL    HW225800   0.548   4.577   4.863
 8301SOL     OW25801   4.451   2.867   1.560
 8301SOL    HW125802   4.356   2.834   1.561
 8301SOL    HW225803   4.496   2.839   1.645
 8302SOL     OW25804   6.230   6.451   6.599
 8302SOL    HW125805   6.296   6.487   6.665
 8302SOL    HW225806   6.180   6.375   6.639
 8303SOL     OW25807   0.288   0.208   4.800
 8303SOL    HW125808   0.320   0.249   4.885
 8303SOL    HW225809   0.290   0.276   4.727
 8304SOL     OW25810   0.700   4.006   6.251
 8304SOL    HW125811   0.611   3.961   6.243
 8304SOL    HW225812   0.725   4.047   6.164
 8305SOL     OW25813   3.629   5.278   4.043
 8305SOL    HW125814   3.603   5.298   3.949
 8305SOL    HW225815   3.555   5.228   4.088
 8306SOL     OW25816   0.982   3.310   5.017
 8306SOL    HW125817   0.961   3.367   5.096
 8306SOL    HW225818   0.933   3.223   5.024
 8307SOL     OW25819   3.686   5.542   0.461
 8307SOL    HW125820   3.772   5.501   0.432
 8307SOL    HW225821   3.660   5.614   0.396
 8308SOL     OW25822   3.808   6.718   1.643
 8308SOL    HW125823   3.798   6.774   1.725
 8308SOL    HW225824   3.893   6.744   1.596
 8309SOL     OW25825   5.744   6.060   2.371
 8309SOL    HW125826   5.726   6.017   2.460
 8309SOL    HW225827   5.837   6.095   2.370
 8310SOL     OW25828   0.688   5.018   0.433
 8310SOL    HW125829   0.723   5.059   0.517
 8310SOL    HW225830   0.632   5.084   0.384
 8311SOL     OW25831   6.751   0.838   6.757
 8311SOL    HW125832   6.674   0.900   6.744
 8311SOL    HW225833   6.733   0.779   6.835
 8312SOL     OW25834   5.423   6.537   1.653
 8312SOL    HW125835   5.470   6.450   1.665
 8312SOL    HW225836   5.324   6.522   1.649
 8313SOL     OW25837   3.709   1.363   2.997
 8313SOL    HW125838   3.680   1.274   2.963
 8313SOL    HW225839   3.632   1.427   2.992
 8314SOL     OW25840   5.843   0.115   1.953
 8314SOL    HW125841   5.909   0.041   1.960
 8314SOL    HW225842   5.777   0.108   2.028
 8315SOL     OW25843   4.950   3.399   0.644
 8315SOL    HW125844   4.889   3.320   0.643
 8315SOL    HW225845   4.904   3.475   0.690
 8316SOL     OW25846   1.350   4.414   0.934
 8316SOL    HW125847   1.325   4.466   1.017
 8316SOL    HW225848   1.338   4.473   0.854
 8317SOL     OW25849   1.930   4.416   2.480
 8317SOL    HW125850   1.913   4.403   2.382
 8317SOL    HW225851   1.927   4.328   2.526
 8318SOL     OW25852   3.928   1.314   4.777
 8318SOL    HW125853   3.981   1.398   4.765
 8318SOL    HW225854   3.870   1.299   4.698
 8319SOL     OW25855   3.329   1.029   5.570
 8319SOL    HW125856   3.236   1.007   5.540
 8319SOL    HW225857   3.394   0.972   5.519
 8320SOL     OW25858   2.942   4.670   1.072
 8320SOL    HW125859   2.973   4.697   1.164
 8320SOL    HW225860   2.844   4.687   1.064
 8321SOL     OW25861   0.715   0.717   0.402
 8321SOL    HW125862   0.672   0.629   0.385
 8321SOL    HW225863   0.762   0.747   0.319
 8322SOL     OW25864   0.182   0.227   0.251
 8322SOL    HW125865   0.131   0.146   0.280
 8322SOL    HW225866   0.267   0.198   0.205
 8323SOL     OW25867   0.760   0.826   2.792
 8323SOL    HW125868   0.684   0.839   2.857
 8323SOL    HW225869   0.847   0.833   2.841
 8324SOL     OW25870   6.120   0.943   2.276
 8324SOL    HW125871   6.114   1.035   2.236
 8324SOL    HW225872   6.090   0.947   2.372
 8325SOL     OW25873   3.536   2.890   4.138
 8325SOL    HW125874   3.584   2.970   4.174
 8325SOL    HW225875   3.437   2.901   4.151
 8326SOL     OW25876   4.299   3.077   5.871
 8326SOL    HW125877   4.230   3.132   5.824
 8326SOL    HW225878   4.373   3.137   5.903
 8327SOL     OW25879   5.700   2.564   6.302
 8327SOL    HW125880   5.731   2.480   6.347
 8327SOL    HW225881   5.675   2.632   6.371
 8328SOL     OW25882   2.258   3.103   6.158
 8328SOL    HW125883   2.320   3.029   6.184
 8328SOL    HW225884   2.195   3.121   6.233
 8329SOL     OW25885   6.991   2.855   5.317
 8329SOL    HW125886   0.046   2.821   5.377
 8329SOL    HW225887   6.959   2.781   5.257
 8330SOL     OW25888   1.574   6.430   0.615
 8330SOL    HW125889   1.573   6.527   0.591
 8330SOL    HW225890   1.647   6.413   0.681
 8331SOL     OW25891   2.945   0.825   1.386
 8331SOL    HW125892   2.906   0.736   1.363
 8331SOL    HW225893   3.018   0.813   1.453
 8332SOL     OW25894   4.512   5.187   1.956
 8332SOL    HW125895   4.425   5.149   1.987
 8332SOL    HW225896   4.550   5.128   1.884
 8333SOL     OW25897   0.823   5.695   0.407
 8333SOL    HW125898   0.885   5.765   0.441
 8333SOL    HW225899   0.778   5.728   0.323
 8334SOL     OW25900   6.752   1.844   3.777
 8334SOL    HW125901   6.724   1.799   3.862
 8334SOL    HW225902   6.672   1.864   3.722
 8335SOL     OW25903   6.065   5.928   5.641
 8335SOL    HW125904   6.096   5.909   5.734
 8335SOL    HW225905   6.059   6.027   5.627
 8336SOL     OW25906   0.562   1.659   1.937
 8336SOL    HW125907   0.642   1.676   1.996
 8336SOL    HW225908   0.495   1.732   1.951
 8337SOL     OW25909   0.717   6.210   2.341
 8337SOL    HW125910   0.778   6.156   2.399
 8337SOL    HW225911   0.702   6.299   2.382
 8338SOL     OW25912   2.199   5.109   1.440
 8338SOL    HW125913   2.205   5.073   1.533
 8338SOL    HW225914   2.222   5.037   1.375
 8339SOL     OW25915   5.826   1.447   2.780
 8339SOL    HW125916   5.892   1.372   2.780
 8339SOL    HW225917   5.770   1.442   2.697
 8340SOL     OW25918   4.937   4.078   0.575
 8340SOL    HW125919   5.024   4.028   0.569
 8340SOL    HW225920   4.938   4.138   0.655
 8341SOL     OW25921   1.809   6.786   1.070
 8341SOL    HW125922   1.892   6.730   1.067
 8341SOL    HW225923   1.770   6.791   0.978
 8342SOL     OW25924   3.676   0.720   0.667
 8342SOL    HW125925   3.674   0.820   0.675
 8342SOL    HW225926   3.747   0.683   0.727
 8343SOL     OW25927   1.198   5.648   6.602
 8343SOL    HW125928   1.150   5.734   6.622
 8343SOL    HW225929   1.186   5.625   6.506
 8344SOL     OW25930   4.278   6.341   6.106
 8344SOL    HW125931   4.331   6.377   6.030
 8344SOL    HW225932   4.288   6.401   6.186
 8345SOL     OW25933   5.986   1.336   3.236
 8345SOL    HW125934   6.003   1.240   3.255
 8345SOL    HW225935   6.029   1.360   3.149
 8346SOL     OW25936   2.757   4.964   0.969
 8346SOL    HW125937   2.781   4.868   0.984
 8346SOL    HW225938   2.738   5.007   1.057
 8347SOL     OW25939   2.875   6.755   5.280
 8347SOL    HW125940   2.949   6.707   5.233
 8347SOL    HW225941   2.828   6.814   5.215
 8348SOL     OW25942   1.374   0.723   1.220
 8348SOL    HW125943   1.403   0.804   1.169
 8348SOL    HW225944   1.288   0.743   1.268
 8349SOL     OW25945   6.331   3.629   0.478
 8349SOL    HW125946   6.423   3.608   0.512
 8349SOL    HW225947   6.287   3.693   0.540
 8350SOL     OW25948   6.100   0.922   5.390
 8350SOL    HW125949   6.047   1.004   5.411
 8350SOL    HW225950   6.197   0.940   5.410
 8351SOL     OW25951   3.185   6.088   3.914
 8351SOL    HW125952   3.178   6.139   3.828
 8351SOL    HW225953   3.154   5.994   3.899
 8352SOL     OW25954   6.678   6.813   2.314
 8352SOL    HW125955   6.620   6.757   2.372
 8352SOL    HW225956   6.671   6.909   2.342
 8353SOL     OW25957   6.248   3.575   1.819
 8353SOL    HW125958   6.158   3.609   1.846
 8353SOL    HW225959   6.310   3.652   1.805
 8354SOL     OW25960   3.076   1.268   6.992
 8354SOL    HW125961   3.041   1.346   6.941
 8354SOL    HW225962   3.047   1.183   6.947
 8355SOL     OW25963   3.263   0.094   0.056
 8355SOL    HW125964   3.197   0.082   0.130
 8355SOL    HW225965   3.233   0.167   7.012
 8356SOL     OW25966   1.586   6.040   0.158
 8356SOL    HW125967   1.666   5.981   0.175
 8356SOL    HW225968   1.517   6.023   0.228
 8357SOL     OW25969   4.129   5.797   4.651
 8357SOL    HW125970   4.153   5.701   4.665
 8357SOL    HW225971   4.187   5.855   4.708
 8358SOL     OW25972   1.900   2.691   5.595
 8358SOL    HW125973   1.978   2.728   5.646
 8358SOL    HW225974   1.830   2.761   5.586
 8359SOL     OW25975   4.304   5.462   4.179
 8359SOL    HW125976   4.240   5.530   4.215
 8359SOL    HW225977   4.336   5.403   4.254
 8360SOL     OW25978   4.671   6.805   2.840
 8360SOL    HW125979   4.672   6.833   2.744
 8360SOL    HW225980   4.682   6.705   2.846
 8361SOL     OW25981   1.575   0.970   2.900
 8361SOL    HW125982   1.555   0.945   2.994
 8361SOL    HW225983   1.544   1.064   2.883
 8362SOL     OW25984   2.279   2.239   0.224
 8362SOL    HW125985   2.226   2.205   0.302
 8362SOL    HW225986   2.367   2.274   0.256
 8363SOL     OW25987   0.521   3.024   0.342
 8363SOL    HW125988   0.479   2.976   0.419
 8363SOL    HW225989   0.460   3.095   0.310
 8364SOL     OW25990   5.906   3.632   3.093
 8364SOL    HW125991   5.914   3.728   3.068
 8364SOL    HW225992   5.992   3.585   3.072
 8365SOL     OW25993   1.491   3.306   0.144
 8365SOL    HW125994   1.454   3.249   0.217
 8365SOL    HW225995   1.508   3.398   0.179
 8366SOL     OW25996   4.748   6.277   2.693
 8366SOL    HW125997   4.694   6.201   2.656
 8366SOL    HW225998   4.833   6.242   2.732
 8367SOL     OW25999   4.803   6.269   3.702
 8367SOL    HW126000   4.728   6.214   3.664
 8367SOL    HW226001   4.889   6.218   3.695
 8368SOL     OW26002   2.366   5.401   5.946
 8368SOL    HW126003   2.337   5.408   5.851
 8368SOL    HW226004   2.335   5.314   5.984
 8369SOL     OW26005   2.443   1.447   7.012
 8369SOL    HW126006   2.347   1.460   0.020
 8369SOL    HW226007   2.462   1.349   7.006
 8370SOL     OW26008   1.536   1.893   6.237
 8370SOL    HW126009   1.508   1.798   6.223
 8370SOL    HW226010   1.617   1.913   6.183
 8371SOL     OW26011   1.312   2.756   0.529
 8371SOL    HW126012   1.227   2.785   0.484
 8371SOL    HW226013   1.292   2.684   0.596
 8372SOL     OW26014   6.969   0.578   2.450
 8372SOL    HW126015   6.922   0.534   2.528
 8372SOL    HW226016   6.980   0.676   2.469
 8373SOL     OW26017   1.148   6.014   5.796
 8373SOL    HW126018   1.166   6.045   5.702
 8373SOL    HW226019   1.215   5.945   5.822
 8374SOL     OW26020   6.694   0.690   6.984
 8374SOL    HW126021   6.745   0.605   6.996
 8374SOL    HW226022   6.734   0.762   0.024
 8375SOL     OW26023   3.436   6.989   6.215
 8375SOL    HW126024   3.442   0.028   6.298
 8375SOL    HW226025   3.384   6.906   6.235
 8376SOL     OW26026   2.838   0.378   3.920
 8376SOL    HW126027   2.829   0.469   3.961
 8376SOL    HW226028   2.883   0.316   3.985
 8377SOL     OW26029   6.387   5.009   1.781
 8377SOL    HW126030   6.391   4.910   1.794
 8377SOL    HW226031   6.316   5.031   1.715
 8378SOL     OW26032   5.547   3.253   3.100
 8378SOL    HW126033   5.608   3.299   3.035
 8378SOL    HW226034   5.500   3.321   3.156
 8379SOL     OW26035   6.362   3.429   1.601
 8379SOL    HW126036   6.349   3.330   1.611
 8379SOL    HW226037   6.302   3.477   1.665
 8380SOL     OW26038   5.318   1.771   2.541
 8380SOL    HW126039   5.415   1.796   2.541
 8380SOL    HW226040   5.286   1.760   2.635
 8381SOL     OW26041   1.275   5.495   4.592
 8381SOL    HW126042   1.256   5.554   4.514
 8381SOL    HW226043   1.191   5.478   4.643
 8382SOL     OW26044   1.187   2.651   2.660
 8382SOL    HW126045   1.121   2.702   2.715
 8382SOL    HW226046   1.244   2.715   2.608
 8383SOL     OW26047   2.845   2.148   6.801
 8383SOL    HW126048   2.883   2.240   6.812
 8383SOL    HW226049   2.763   2.153   6.743
 8384SOL     OW26050   0.035   6.597   1.953
 8384SOL    HW126051   0.042   6.522   2.018
 8384SOL    HW226052   0.122   6.647   1.951
 8385SOL     OW26053   4.922   2.591   2.485
 8385SOL    HW126054   4.938   2.494   2.465
 8385SOL    HW226055   4.973   2.617   2.566
 8386SOL     OW26056   0.509   4.007   2.612
 8386SOL    HW126057   0.580   4.073   2.585
 8386SOL    HW226058   0.433   4.056   2.653
 8387SOL     OW26059   0.699   1.958   1.528
 8387SOL    HW126060   0.735   1.925   1.615
 8387SOL    HW226061   0.624   1.898   1.498
 8388SOL     OW26062   2.757   0.039   2.014
 8388SOL    HW126063   2.675   6.999   2.020
 8388SOL    HW226064   2.731   0.132   1.988
 8389SOL     OW26065   5.107   3.191   2.067
 8389SOL    HW126066   5.070   3.128   2.136
 8389SOL    HW226067   5.153   3.267   2.114
 8390SOL     OW26068   4.681   1.905   5.692
 8390SOL    HW126069   4.649   1.969   5.762
 8390SOL    HW226070   4.610   1.893   5.623
 8391SOL     OW26071   6.190   0.886   0.954
 8391SOL    HW126072   6.252   0.835   0.894
 8391SOL    HW226073   6.204   0.984   0.941
 8392SOL     OW26074   5.972   3.135   4.286
 8392SOL    HW126075   5.896   3.157   4.224
 8392SOL    HW226076   6.048   3.099   4.233
 8393SOL     OW26077   4.800   0.156   1.572
 8393SOL    HW126078   4.725   0.151   1.506
 8393SOL    HW226079   4.792   0.080   1.637
 8394SOL     OW26080   6.377   4.081   2.340
 8394SOL    HW126081   6.398   4.089   2.243
 8394SOL    HW226082   6.414   3.995   2.376
 8395SOL     OW26083   2.560   1.004   5.143
 8395SOL    HW126084   2.541   1.099   5.166
 8395SOL    HW226085   2.476   0.951   5.146
 8396SOL     OW26086   4.191   5.516   4.806
 8396SOL    HW126087   4.239   5.583   4.863
 8396SOL    HW226088   4.257   5.462   4.754
 8397SOL     OW26089   6.468   0.920   3.482
 8397SOL    HW126090   6.471   0.940   3.580
 8397SOL    HW226091   6.452   1.005   3.432
 8398SOL     OW26092   5.582   2.258   5.911
 8398SOL    HW126093   5.616   2.227   6.000
 8398SOL    HW226094   5.501   2.314   5.925
 8399SOL     OW26095   0.165   5.874   0.746
 8399SOL    HW126096   0.222   5.945   0.786
 8399SOL    HW226097   0.182   5.868   0.647
 8400SOL     OW26098   1.237   2.253   4.009
 8400SOL    HW126099   1.273   2.211   4.093
 8400SOL    HW226100   1.308   2.310   3.968
 8401SOL     OW26101   2.943   0.548   5.979
 8401SOL    HW126102   2.961   0.462   6.026
 8401SOL    HW226103   3.009   0.617   6.011
 8402SOL     OW26104   4.106   0.970   5.868
 8402SOL    HW126105   4.091   1.010   5.778
 8402SOL    HW226106   4.102   1.042   5.938
 8403SOL     OW26107   5.932   4.860   4.767
 8403SOL    HW126108   6.015   4.875   4.713
 8403SOL    HW226109   5.854   4.902   4.719
 8404SOL     OW26110   1.985   1.732   6.454
 8404SOL    HW126111   2.011   1.804   6.390
 8404SOL    HW226112   1.898   1.756   6.498
 8405SOL     OW26113   3.696   1.099   5.255
 8405SOL    HW126114   3.768   1.059   5.199
 8405SOL    HW226115   3.721   1.194   5.277
 8406SOL     OW26116   5.127   0.893   6.572
 8406SOL    HW126117   5.205   0.835   6.551
 8406SOL    HW226118   5.104   0.885   6.669
 8407SOL     OW26119   3.560   6.583   3.900
 8407SOL    HW126120   3.628   6.613   3.966
 8407SOL    HW226121   3.590   6.606   3.807
 8408SOL     OW26122   4.930   0.448   1.251
 8408SOL    HW126123   4.843   0.406   1.225
 8408SOL    HW226124   4.995   0.440   1.175
 8409SOL     OW26125   4.688   2.721   2.512
 8409SOL    HW126126   4.708   2.816   2.491
 8409SOL    HW226127   4.769   2.665   2.494
 8410SOL     OW26128   0.001   1.978   1.741
 8410SOL    HW126129   0.081   2.028   1.776
 8410SOL    HW226130   0.023   1.881   1.736
 8411SOL     OW26131   1.355   5.903   0.813
 8411SOL    HW126132   1.348   5.967   0.889
 8411SOL    HW226133   1.449   5.867   0.809
 8412SOL     OW26134   2.994   2.853   0.073
 8412SOL    HW126135   3.043   2.932   0.035
 8412SOL    HW226136   2.896   2.868   0.066
 8413SOL     OW26137   4.073   5.167   5.422
 8413SOL    HW126138   4.122   5.082   5.438
 8413SOL    HW226139   3.997   5.175   5.487
 8414SOL     OW26140   0.982   1.188   2.702
 8414SOL    HW126141   0.930   1.270   2.680
 8414SOL    HW226142   1.070   1.213   2.741
 8415SOL     OW26143   2.595   0.432   4.713
 8415SOL    HW126144   2.601   0.530   4.698
 8415SOL    HW226145   2.536   0.413   4.791
 8416SOL     OW26146   6.497   1.724   5.110
 8416SOL    HW126147   6.492   1.624   5.107
 8416SOL    HW226148   6.448   1.757   5.191
 8417SOL     OW26149   1.295   3.767   4.640
 8417SOL    HW126150   1.231   3.815   4.700
 8417SOL    HW226151   1.389   3.782   4.671
 8418SOL     OW26152   0.881   5.933   2.847
 8418SOL    HW126153   0.954   5.865   2.843
 8418SOL    HW226154   0.889   5.986   2.931
 8419SOL     OW26155   5.569   0.919   4.119
 8419SOL    HW126156   5.556   0.930   4.021
 8419SOL    HW226157   5.580   1.010   4.161
 8420SOL     OW26158   3.239   0.009   2.359
 8420SOL    HW126159   3.248   0.100   2.401
 8420SOL    HW226160   3.251   0.017   2.260
 8421SOL     OW26161   3.944   6.086   6.193
 8421SOL    HW126162   3.953   6.185   6.183
 8421SOL    HW226163   3.887   6.050   6.119
 8422SOL     OW26164   4.650   2.606   3.468
 8422SOL    HW126165   4.581   2.538   3.441
 8422SOL    HW226166   4.630   2.638   3.560
 8423SOL     OW26167   5.579   4.738   6.231
 8423SOL    HW126168   5.600   4.669   6.300
 8423SOL    HW226169   5.564   4.694   6.142
 8424SOL     OW26170   2.220   0.250   3.674
 8424SOL    HW126171   2.205   0.341   3.712
 8424SOL    HW226172   2.150   0.229   3.606
 8425SOL     OW26173   3.326   3.708   3.338
 8425SOL    HW126174   3.397   3.739   3.276
 8425SOL    HW226175   3.237   3.717   3.294
 8426SOL     OW26176   3.656   2.907   1.851
 8426SOL    HW126177   3.565   2.896   1.890
 8426SOL    HW226178   3.724   2.902   1.924
 8427SOL     OW26179   3.026   3.591   3.574
 8427SOL    HW126180   3.100   3.533   3.541
 8427SOL    HW226181   2.938   3.545   3.559
 8428SOL     OW26182   6.971   0.954   0.952
 8428SOL    HW126183   6.937   0.936   1.044
 8428SOL    HW226184   0.009   0.877   0.921
 8429SOL     OW26185   1.468   5.647   6.630
 8429SOL    HW126186   1.371   5.622   6.633
 8429SOL    HW226187   1.504   5.628   6.538
 8430SOL     OW26188   4.465   6.398   4.656
 8430SOL    HW126189   4.457   6.327   4.586
 8430SOL    HW226190   4.400   6.380   4.730
 8431SOL     OW26191   3.038   3.748   5.717
 8431SOL    HW126192   3.127   3.786   5.690
 8431SOL    HW226193   3.053   3.661   5.765
 8432SOL     OW26194   6.430   5.962   6.715
 8432SOL    HW126195   6.361   5.895   6.687
 8432SOL    HW226196   6.391   6.020   6.786
 8433SOL     OW26197   5.024   2.711   0.646
 8433SOL    HW126198   5.015   2.630   0.704
 8433SOL    HW226199   4.977   2.788   0.689
 8434SOL     OW26200   2.116   5.358   5.295
 8434SOL    HW126201   2.095   5.354   5.197
 8434SOL    HW226202   2.176   5.436   5.313
 8435SOL     OW26203   4.993   1.145   2.988
 8435SOL    HW126204   4.954   1.192   3.067
 8435SOL    HW226205   5.092   1.134   3.001
 8436SOL     OW26206   2.313   6.681   2.744
 8436SOL    HW126207   2.293   6.745   2.818
 8436SOL    HW226208   2.358   6.600   2.782
 8437SOL     OW26209   2.158   3.002   2.228
 8437SOL    HW126210   2.124   3.084   2.182
 8437SOL    HW226211   2.081   2.943   2.253
 8438SOL     OW26212   1.533   4.392   2.535
 8438SOL    HW126213   1.615   4.344   2.566
 8438SOL    HW226214   1.552   4.434   2.446
 8439SOL     OW26215   5.772   5.911   3.652
 8439SOL    HW126216   5.727   5.832   3.611
 8439SOL    HW226217   5.871   5.904   3.639
 8440SOL     OW26218   1.721   1.307   3.389
 8440SOL    HW126219   1.674   1.353   3.314
 8440SOL    HW226220   1.797   1.253   3.353
 8441SOL     OW26221   5.684   0.576   5.278
 8441SOL    HW126222   5.702   0.505   5.346
 8441SOL    HW226223   5.586   0.590   5.270
 8442SOL     OW26224   3.586   1.517   5.437
 8442SOL    HW126225   3.607   1.426   5.472
 8442SOL    HW226226   3.669   1.558   5.399
 8443SOL     OW26227   1.802   4.647   3.099
 8443SOL    HW126228   1.879   4.711   3.095
 8443SOL    HW226229   1.751   4.651   3.013
 8444SOL     OW26230   5.012   5.330   3.480
 8444SOL    HW126231   4.935   5.328   3.416
 8444SOL    HW226232   5.046   5.424   3.487
 8445SOL     OW26233   4.300   6.258   6.838
 8445SOL    HW126234   4.302   6.317   6.757
 8445SOL    HW226235   4.283   6.163   6.810
 8446SOL     OW26236   0.488   6.091   5.499
 8446SOL    HW126237   0.439   6.163   5.450
 8446SOL    HW226238   0.547   6.132   5.569
 8447SOL     OW26239   4.336   1.542   3.070
 8447SOL    HW126240   4.276   1.545   3.150
 8447SOL    HW226241   4.410   1.608   3.081
 8448SOL     OW26242   4.747   6.765   3.190
 8448SOL    HW126243   4.823   6.803   3.243
 8448SOL    HW226244   4.783   6.716   3.111
 8449SOL     OW26245   1.780   2.439   2.947
 8449SOL    HW126246   1.871   2.409   2.921
 8449SOL    HW226247   1.753   2.517   2.889
 8450SOL     OW26248   6.842   0.698   0.359
 8450SOL    HW126249   6.809   0.633   0.428
 8450SOL    HW226250   6.935   0.674   0.333
 8451SOL     OW26251   4.776   2.241   1.404
 8451SOL    HW126252   4.761   2.302   1.481
 8451SOL    HW226253   4.862   2.192   1.415
 8452SOL     OW26254   5.240   1.841   5.335
 8452SOL    HW126255   5.212   1.936   5.350
 8452SOL    HW226256   5.293   1.834   5.251
 8453SOL     OW26257   0.225   6.080   0.318
 8453SOL    HW126258   0.294   6.009   0.302
 8453SOL    HW226259   0.144   6.038   0.361
 8454SOL     OW26260   0.676   4.317   0.338
 8454SOL    HW126261   0.681   4.217   0.338
 8454SOL    HW226262   0.583   4.346   0.362
 8455SOL     OW26263   0.839   0.409   2.801
 8455SOL    HW126264   0.762   0.431   2.861
 8455SOL    HW226265   0.830   0.457   2.714
 8456SOL     OW26266   5.844   1.345   3.757
 8456SOL    HW126267   5.837   1.245   3.765
 8456SOL    HW226268   5.831   1.372   3.662
 8457SOL     OW26269   6.053   6.072   4.452
 8457SOL    HW126270   6.096   6.009   4.388
 8457SOL    HW226271   6.080   6.048   4.546
 8458SOL     OW26272   0.200   0.299   6.800
 8458SOL    HW126273   0.141   0.237   6.851
 8458SOL    HW226274   0.200   0.274   6.703
 8459SOL     OW26275   1.778   5.630   3.053
 8459SOL    HW126276   1.758   5.532   3.045
 8459SOL    HW226277   1.742   5.665   3.139
 8460SOL     OW26278   3.246   4.132   4.937
 8460SOL    HW126279   3.168   4.104   4.881
 8460SOL    HW226280   3.216   4.152   5.030
 8461SOL     OW26281   6.242   3.656   3.806
 8461SOL    HW126282   6.172   3.697   3.748
 8461SOL    HW226283   6.198   3.609   3.883
 8462SOL     OW26284   2.346   2.562   1.654
 8462SOL    HW126285   2.294   2.646   1.643
 8462SOL    HW226286   2.333   2.527   1.747
 8463SOL     OW26287   5.437   1.012   2.520
 8463SOL    HW126288   5.399   0.980   2.606
 8463SOL    HW226289   5.424   1.111   2.512
 8464SOL     OW26290   5.860   2.752   4.700
 8464SOL    HW126291   5.791   2.776   4.769
 8464SOL    HW226292   5.896   2.835   4.659
 8465SOL     OW26293   1.512   2.668   0.383
 8465SOL    HW126294   1.428   2.682   0.435
 8465SOL    HW226295   1.577   2.740   0.404
 8466SOL     OW26296   1.068   6.297   3.349
 8466SOL    HW126297   0.998   6.311   3.279
 8466SOL    HW226298   1.099   6.385   3.384
 8467SOL     OW26299   3.025   5.695   0.980
 8467SOL    HW126300   2.998   5.732   0.891
 8467SOL    HW226301   2.971   5.613   1.000
 8468SOL     OW26302   4.463   1.870   6.676
 8468SOL    HW126303   4.372   1.903   6.652
 8468SOL    HW226304   4.520   1.947   6.703
 8469SOL     OW26305   3.289   2.594   6.931
 8469SOL    HW126306   3.371   2.648   6.949
 8469SOL    HW226307   3.215   2.655   6.902
 8470SOL     OW26308   2.786   3.131   6.483
 8470SOL    HW126309   2.691   3.158   6.498
 8470SOL    HW226310   2.846   3.187   6.540
 8471SOL     OW26311   3.670   0.929   4.119
 8471SOL    HW126312   3.663   0.898   4.213
 8471SOL    HW226313   3.688   1.027   4.117
 8472SOL     OW26314   1.452   6.403   4.475
 8472SOL    HW126315   1.437   6.492   4.517
 8472SOL    HW226316   1.366   6.368   4.438
 8473SOL     OW26317   6.697   5.262   6.980
 8473SOL    HW126318   6.683   5.170   0.002
 8473SOL    HW226319   6.632   5.277   6.906
 8474SOL     OW26320   3.568   3.971   1.572
 8474SOL    HW126321   3.602   3.913   1.645
 8474SOL    HW226322   3.637   4.041   1.550
 8475SOL     OW26323   5.707   1.593   2.957
 8475SOL    HW126324   5.621   1.555   2.990
 8475SOL    HW226325   5.750   1.528   2.895
 8476SOL     OW26326   4.625   0.611   2.103
 8476SOL    HW126327   4.635   0.558   2.020
 8476SOL    HW226328   4.708   0.664   2.120
 8477SOL     OW26329   2.807   1.065   1.408
 8477SOL    HW126330   2.804   1.107   1.498
 8477SOL    HW226331   2.859   0.979   1.413
 8478SOL     OW26332   1.157   0.086   5.714
 8478SOL    HW126333   1.078   0.064   5.771
 8478SOL    HW226334   1.194   0.175   5.741
 8479SOL     OW26335   5.748   1.026   1.185
 8479SOL    HW126336   5.827   0.973   1.155
 8479SOL    HW226337   5.668   0.966   1.189
 8480SOL     OW26338   2.616   1.256   1.201
 8480SOL    HW126339   2.669   1.186   1.152
 8480SOL    HW226340   2.674   1.336   1.215
 8481SOL     OW26341   3.826   0.636   4.236
 8481SOL    HW126342   3.858   0.655   4.143
 8481SOL    HW226343   3.747   0.693   4.257
 8482SOL     OW26344   1.648   7.003   2.012
 8482SOL    HW126345   1.578   6.944   1.972
 8482SOL    HW226346   1.688   6.959   2.092
 8483SOL     OW26347   4.098   6.117   0.998
 8483SOL    HW126348   4.103   6.122   1.098
 8483SOL    HW226349   4.016   6.067   0.971
 8484SOL     OW26350   0.626   5.264   4.446
 8484SOL    HW126351   0.572   5.198   4.497
 8484SOL    HW226352   0.714   5.279   4.493
 8485SOL     OW26353   2.274   3.045   6.666
 8485SOL    HW126354   2.247   3.139   6.684
 8485SOL    HW226355   2.343   3.016   6.733
 8486SOL     OW26356   5.165   0.892   2.316
 8486SOL    HW126357   5.163   0.987   2.284
 8486SOL    HW226358   5.249   0.876   2.367
 8487SOL     OW26359   4.765   0.080   0.580
 8487SOL    HW126360   4.724   0.162   0.620
 8487SOL    HW226361   4.783   0.096   0.483
 8488SOL     OW26362   4.827   3.170   4.285
 8488SOL    HW126363   4.832   3.084   4.235
 8488SOL    HW226364   4.733   3.185   4.316
 8489SOL     OW26365   4.699   4.753   1.902
 8489SOL    HW126366   4.658   4.670   1.938
 8489SOL    HW226367   4.632   4.802   1.846
 8490SOL     OW26368   4.433   5.202   2.324
 8490SOL    HW126369   4.387   5.171   2.241
 8490SOL    HW226370   4.365   5.213   2.398
 8491SOL     OW26371   2.428   0.661   2.417
 8491SOL    HW126372   2.364   0.591   2.448
 8491SOL    HW226373   2.377   0.738   2.377
 8492SOL     OW26374   6.018   3.335   5.007
 8492SOL    HW126375   6.081   3.313   4.933
 8492SOL    HW226376   5.924   3.320   4.975
 8493SOL     OW26377   4.477   1.770   6.947
 8493SOL    HW126378   4.566   1.808   6.969
 8493SOL    HW226379   4.461   1.776   6.848
 8494SOL     OW26380   3.646   5.324   6.142
 8494SOL    HW126381   3.636   5.413   6.188
 8494SOL    HW226382   3.556   5.281   6.135
 8495SOL     OW26383   6.960   2.743   1.326
 8495SOL    HW126384   6.901   2.709   1.399
 8495SOL    HW226385   6.956   2.681   1.248
 8496SOL     OW26386   0.140   2.717   3.917
 8496SOL    HW126387   0.134   2.780   3.994
 8496SOL    HW226388   0.223   2.734   3.865
 8497SOL     OW26389   5.717   5.749   3.026
 8497SOL    HW126390   5.778   5.822   2.994
 8497SOL    HW226391   5.735   5.730   3.122
 8498SOL     OW26392   0.431   0.881   0.867
 8498SOL    HW126393   0.425   0.930   0.779
 8498SOL    HW226394   0.420   0.783   0.851
 8499SOL     OW26395   3.433   3.939   6.269
 8499SOL    HW126396   3.517   3.967   6.315
 8499SOL    HW226397   3.446   3.944   6.170
 8500SOL     OW26398   2.907   6.543   6.089
 8500SOL    HW126399   2.874   6.483   6.017
 8500SOL    HW226400   2.968   6.492   6.150
 8501SOL     OW26401   1.483   3.526   6.554
 8501SOL    HW126402   1.497   3.470   6.472
 8501SOL    HW226403   1.487   3.469   6.635
 8502SOL     OW26404   6.275   0.131   1.543
 8502SOL    HW126405   6.248   0.222   1.574
 8502SOL    HW226406   6.368   0.133   1.506
 8503SOL     OW26407   2.855   4.778   3.522
 8503SOL    HW126408   2.790   4.725   3.468
 8503SOL    HW226409   2.948   4.753   3.495
 8504SOL     OW26410   1.609   5.341   3.115
 8504SOL    HW126411   1.575   5.366   3.024
 8504SOL    HW226412   1.531   5.324   3.175
 8505SOL     OW26413   4.885   3.307   3.484
 8505SOL    HW126414   4.914   3.220   3.525
 8505SOL    HW226415   4.829   3.288   3.403
 8506SOL     OW26416   1.654   6.475   0.271
 8506SOL    HW126417   1.592   6.457   0.195
 8506SOL    HW226418   1.611   6.446   0.356
 8507SOL     OW26419   1.340   0.917   5.601
 8507SOL    HW126420   1.312   0.827   5.569
 8507SOL    HW226421   1.309   0.931   5.695
 8508SOL     OW26422   0.614   2.034   5.727
 8508SOL    HW126423   0.632   2.011   5.822
 8508SOL    HW226424   0.681   1.989   5.668
 8509SOL     OW26425   6.466   2.102   4.765
 8509SOL    HW126426   6.404   2.046   4.821
 8509SOL    HW226427   6.419   2.129   4.680
 8510SOL     OW26428   5.481   6.184   2.443
 8510SOL    HW126429   5.568   6.146   2.411
 8510SOL    HW226430   5.496   6.232   2.529
 8511SOL     OW26431   6.429   4.743   1.824
 8511SOL    HW126432   6.513   4.698   1.856
 8511SOL    HW226433   6.410   4.715   1.730
 8512SOL     OW26434   5.710   2.339   0.137
 8512SOL    HW126435   5.712   2.403   0.214
 8512SOL    HW226436   5.649   2.263   0.158
 8513SOL     OW26437   6.189   4.876   1.328
 8513SOL    HW126438   6.276   4.917   1.304
 8513SOL    HW226439   6.202   4.778   1.348
 8514SOL     OW26440   2.734   2.003   4.834
 8514SOL    HW126441   2.808   2.060   4.869
 8514SOL    HW226442   2.646   2.046   4.854
 8515SOL     OW26443   0.994   0.621   0.858
 8515SOL    HW126444   1.060   0.641   0.785
 8515SOL    HW226445   0.950   0.706   0.887
 8516SOL     OW26446   6.160   2.611   2.324
 8516SOL    HW126447   6.239   2.663   2.354
 8516SOL    HW226448   6.149   2.620   2.226
 8517SOL     OW26449   1.353   2.780   5.270
 8517SOL    HW126450   1.371   2.866   5.223
 8517SOL    HW226451   1.256   2.755   5.259
 8518SOL     OW26452   5.155   4.631   6.576
 8518SOL    HW126453   5.252   4.633   6.601
 8518SOL    HW226454   5.142   4.566   6.501
 8519SOL     OW26455   1.481   3.793   0.936
 8519SOL    HW126456   1.460   3.753   0.847
 8519SOL    HW226457   1.572   3.835   0.932
 8520SOL     OW26458   4.174   3.580   4.983
 8520SOL    HW126459   4.203   3.516   4.911
 8520SOL    HW226460   4.134   3.662   4.941
 8521SOL     OW26461   1.565   5.897   5.714
 8521SOL    HW126462   1.616   5.811   5.708
 8521SOL    HW226463   1.480   5.890   5.662
 8522SOL     OW26464   1.424   6.477   0.871
 8522SOL    HW126465   1.517   6.466   0.838
 8522SOL    HW226466   1.362   6.421   0.816
 8523SOL     OW26467   2.663   0.333   6.458
 8523SOL    HW126468   2.648   0.353   6.361
 8523SOL    HW226469   2.600   0.387   6.513
 8524SOL     OW26470   1.528   5.778   4.672
 8524SOL    HW126471   1.585   5.762   4.752
 8524SOL    HW226472   1.497   5.873   4.671
 8525SOL     OW26473   0.223   4.828   1.612
 8525SOL    HW126474   0.130   4.819   1.578
 8525SOL    HW226475   0.283   4.856   1.537
 8526SOL     OW26476   2.524   6.513   0.560
 8526SOL    HW126477   2.436   6.551   0.589
 8526SOL    HW226478   2.510   6.460   0.476
 8527SOL     OW26479   3.318   0.347   6.053
 8527SOL    HW126480   3.320   0.329   6.152
 8527SOL    HW226481   3.284   0.266   6.006
 8528SOL     OW26482   5.196   2.242   0.034
 8528SOL    HW126483   5.219   2.238   6.954
 8528SOL    HW226484   5.225   2.157   0.079
 8529SOL     OW26485   1.071   6.299   6.447
 8529SOL    HW126486   1.035   6.352   6.524
 8529SOL    HW226487   1.145   6.240   6.479
 8530SOL     OW26488   2.971   3.837   4.316
 8530SOL    HW126489   2.890   3.834   4.258
 8530SOL    HW226490   2.995   3.744   4.345
 8531SOL     OW26491   6.739   5.728   3.106
 8531SOL    HW126492   6.813   5.775   3.057
 8531SOL    HW226493   6.659   5.722   3.047
 8532SOL     OW26494   3.197   6.091   4.407
 8532SOL    HW126495   3.162   6.095   4.314
 8532SOL    HW226496   3.295   6.114   4.407
 8533SOL     OW26497   1.148   6.543   6.090
 8533SOL    HW126498   1.184   6.535   6.183
 8533SOL    HW226499   1.145   6.640   6.064
 8534SOL     OW26500   4.227   2.344   3.951
 8534SOL    HW126501   4.172   2.293   4.018
 8534SOL    HW226502   4.213   2.305   3.860
 8535SOL     OW26503   6.004   1.082   3.319
 8535SOL    HW126504   5.917   1.074   3.367
 8535SOL    HW226505   6.012   1.008   3.253
 8536SOL     OW26506   0.138   0.873   4.381
 8536SOL    HW126507   0.154   0.862   4.282
 8536SOL    HW226508   0.041   0.885   4.398
 8537SOL     OW26509   0.036   0.960   2.873
 8537SOL    HW126510   6.964   1.004   2.885
 8537SOL    HW226511   0.043   0.883   2.936
 8538SOL     OW26512   1.259   2.658   0.165
 8538SOL    HW126513   1.291   2.586   0.104
 8538SOL    HW226514   1.312   2.741   0.149
 8539SOL     OW26515   6.611   2.669   3.024
 8539SOL    HW126516   6.688   2.673   2.960
 8539SOL    HW226517   6.571   2.578   3.021
 8540SOL     OW26518   4.282   0.123   0.257
 8540SOL    HW126519   4.284   0.122   0.357
 8540SOL    HW226520   4.298   0.216   0.224
 8541SOL     OW26521   2.169   2.300   3.579
 8541SOL    HW126522   2.233   2.258   3.644
 8541SOL    HW226523   2.077   2.264   3.595
 8542SOL     OW26524   3.921   4.019   6.609
 8542SOL    HW126525   4.002   3.965   6.588
 8542SOL    HW226526   3.899   4.078   6.532
 8543SOL     OW26527   1.857   2.506   6.912
 8543SOL    HW126528   1.897   2.539   6.997
 8543SOL    HW226529   1.919   2.442   6.868
 8544SOL     OW26530   5.532   2.344   4.213
 8544SOL    HW126531   5.462   2.333   4.284
 8544SOL    HW226532   5.489   2.353   4.124
 8545SOL     OW26533   5.161   6.539   4.916
 8545SOL    HW126534   5.136   6.621   4.968
 8545SOL    HW226535   5.236   6.560   4.854
 8546SOL     OW26536   4.933   1.518   4.516
 8546SOL    HW126537   4.843   1.560   4.501
 8546SOL    HW226538   4.998   1.555   4.450
 8547SOL     OW26539   0.975   4.753   3.303
 8547SOL    HW126540   1.016   4.806   3.378
 8547SOL    HW226541   0.964   4.658   3.332
 8548SOL     OW26542   5.555   1.085   5.240
 8548SOL    HW126543   5.532   1.176   5.206
 8548SOL    HW226544   5.538   1.081   5.339
 8549SOL     OW26545   6.598   3.434   4.563
 8549SOL    HW126546   6.548   3.368   4.507
 8549SOL    HW226547   6.615   3.517   4.509
 8550SOL     OW26548   1.325   4.613   6.609
 8550SOL    HW126549   1.389   4.657   6.672
 8550SOL    HW226550   1.377   4.570   6.534
 8551SOL     OW26551   3.348   4.035   6.908
 8551SOL    HW126552   3.377   4.018   6.814
 8551SOL    HW226553   3.296   3.956   6.942
 8552SOL     OW26554   2.048   6.639   3.980
 8552SOL    HW126555   2.141   6.676   3.989
 8552SOL    HW226556   2.044   6.550   4.026
 8553SOL     OW26557   5.148   6.724   0.764
 8553SOL    HW126558   5.179   6.629   0.761
 8553SOL    HW226559   5.179   6.772   0.682
 8554SOL     OW26560   6.894   3.956   6.867
 8554SOL    HW126561   6.809   3.999   6.838
 8554SOL    HW226562   6.912   3.876   6.809
 8555SOL     OW26563   1.430   6.674   3.765
 8555SOL    HW126564   1.445   6.760   3.717
 8555SOL    HW226565   1.429   6.690   3.863
 8556SOL     OW26566   6.155   0.562   3.671
 8556SOL    HW126567   6.171   0.494   3.743
 8556SOL    HW226568   6.219   0.638   3.683
 8557SOL     OW26569   0.042   0.321   1.471
 8557SOL    HW126570   0.030   0.248   1.538
 8557SOL    HW226571   0.120   0.299   1.411
 8558SOL     OW26572   1.253   5.098   2.079
 8558SOL    HW126573   1.234   5.043   1.997
 8558SOL    HW226574   1.205   5.185   2.073
 8559SOL     OW26575   1.391   0.138   1.298
 8559SOL    HW126576   1.461   0.111   1.363
 8559SOL    HW226577   1.352   0.056   1.255
 8560SOL     OW26578   6.402   1.872   0.476
 8560SOL    HW126579   6.396   1.942   0.405
 8560SOL    HW226580   6.317   1.870   0.529
 8561SOL     OW26581   4.432   6.329   3.468
 8561SOL    HW126582   4.500   6.256   3.463
 8561SOL    HW226583   4.430   6.378   3.381
 8562SOL     OW26584   3.407   6.361   3.945
 8562SOL    HW126585   3.450   6.446   3.914
 8562SOL    HW226586   3.393   6.365   4.044
 8563SOL     OW26587   2.961   2.377   6.801
 8563SOL    HW126588   2.934   2.472   6.786
 8563SOL    HW226589   3.044   2.375   6.857
 8564SOL     OW26590   1.177   6.883   3.574
 8564SOL    HW126591   1.202   6.978   3.556
 8564SOL    HW226592   1.251   6.823   3.544
 8565SOL     OW26593   3.577   6.683   1.031
 8565SOL    HW126594   3.591   6.636   0.943
 8565SOL    HW226595   3.650   6.658   1.094
 8566SOL     OW26596   1.810   2.670   3.539
 8566SOL    HW126597   1.885   2.721   3.496
 8566SOL    HW226598   1.724   2.696   3.497
 8567SOL     OW26599   5.187   1.174   1.460
 8567SOL    HW126600   5.115   1.120   1.415
 8567SOL    HW226601   5.254   1.112   1.501
 8568SOL     OW26602   5.795   1.208   0.308
 8568SOL    HW126603   5.782   1.306   0.291
 8568SOL    HW226604   5.713   1.158   0.279
 8569SOL     OW26605   4.256   1.310   4.513
 8569SOL    HW126606   4.251   1.212   4.532
 8569SOL    HW226607   4.223   1.328   4.420
 8570SOL     OW26608   0.467   4.060   0.168
 8570SOL    HW126609   0.453   4.041   0.265
 8570SOL    HW226610   0.415   3.995   0.113
 8571SOL     OW26611   0.171   4.362   4.837
 8571SOL    HW126612   0.250   4.421   4.821
 8571SOL    HW226613   0.202   4.270   4.861
 8572SOL     OW26614   2.517   4.951   5.174
 8572SOL    HW126615   2.559   4.977   5.260
 8572SOL    HW226616   2.565   4.870   5.137
 8573SOL     OW26617   3.199   5.820   5.798
 8573SOL    HW126618   3.161   5.853   5.885
 8573SOL    HW226619   3.282   5.872   5.777
 8574SOL     OW26620   1.036   3.741   5.457
 8574SOL    HW126621   1.117   3.787   5.493
 8574SOL    HW226622   1.047   3.642   5.467
 8575SOL     OW26623   3.312   2.494   0.342
 8575SOL    HW126624   3.288   2.590   0.358
 8575SOL    HW226625   3.231   2.436   0.355
 8576SOL     OW26626   1.594   7.016   1.509
 8576SOL    HW126627   1.614   0.067   1.581
 8576SOL    HW226628   1.676   7.002   1.453
 8577SOL     OW26629   6.319   5.964   3.135
 8577SOL    HW126630   6.388   5.915   3.081
 8577SOL    HW226631   6.355   6.053   3.163
 8578SOL     OW26632   4.230   6.857   3.507
 8578SOL    HW126633   4.239   6.860   3.607
 8578SOL    HW226634   4.263   6.769   3.473
 8579SOL     OW26635   1.398   5.289   3.280
 8579SOL    HW126636   1.324   5.313   3.343
 8579SOL    HW226637   1.453   5.215   3.320
 8580SOL     OW26638   1.715   5.251   0.555
 8580SOL    HW126639   1.718   5.349   0.535
 8580SOL    HW226640   1.639   5.232   0.617
 8581SOL     OW26641   3.329   1.907   1.311
 8581SOL    HW126642   3.373   1.898   1.222
 8581SOL    HW226643   3.382   1.970   1.369
 8582SOL     OW26644   3.979   4.278   1.592
 8582SOL    HW126645   3.960   4.365   1.636
 8582SOL    HW226646   4.066   4.241   1.626
 8583SOL     OW26647   6.232   0.568   6.056
 8583SOL    HW126648   6.281   0.533   6.136
 8583SOL    HW226649   6.289   0.558   5.975
 8584SOL     OW26650   6.561   5.942   0.500
 8584SOL    HW126651   6.639   5.883   0.518
 8584SOL    HW226652   6.478   5.886   0.491
 8585SOL     OW26653   0.052   0.850   0.095
 8585SOL    HW126654   0.111   0.922   0.133
 8585SOL    HW226655   6.974   0.881   0.096
 8586SOL     OW26656   3.903   5.432   3.131
 8586SOL    HW126657   3.959   5.360   3.171
 8586SOL    HW226658   3.938   5.521   3.159
 8587SOL     OW26659   0.217   2.088   1.913
 8587SOL    HW126660   0.288   2.021   1.933
 8587SOL    HW226661   0.259   2.178   1.901
 8588SOL     OW26662   4.910   2.588   0.132
 8588SOL    HW126663   4.974   2.540   0.193
 8588SOL    HW226664   4.817   2.557   0.151
 8589SOL     OW26665   3.475   2.056   4.661
 8589SOL    HW126666   3.432   2.102   4.739
 8589SOL    HW226667   3.469   1.957   4.674
 8590SOL     OW26668   5.942   4.866   5.360
 8590SOL    HW126669   5.966   4.922   5.439
 8590SOL    HW226670   6.025   4.834   5.315
 8591SOL     OW26671   1.343   3.283   6.934
 8591SOL    HW126672   1.405   3.314   7.006
 8591SOL    HW226673   1.315   3.361   6.878
 8592SOL     OW26674   6.013   4.111   0.155
 8592SOL    HW126675   6.014   4.209   0.170
 8592SOL    HW226676   6.100   4.083   0.113
 8593SOL     OW26677   1.096   0.572   2.860
 8593SOL    HW126678   1.087   0.668   2.832
 8593SOL    HW226679   1.009   0.525   2.846
 8594SOL     OW26680   3.322   3.806   4.409
 8594SOL    HW126681   3.397   3.871   4.425
 8594SOL    HW226682   3.239   3.856   4.384
 8595SOL     OW26683   1.483   1.967   2.691
 8595SOL    HW126684   1.578   1.982   2.720
 8595SOL    HW226685   1.425   1.955   2.771
 8596SOL     OW26686   6.396   5.339   1.529
 8596SOL    HW126687   6.329   5.399   1.485
 8596SOL    HW226688   6.348   5.270   1.583
 8597SOL     OW26689   2.783   1.277   0.846
 8597SOL    HW126690   2.707   1.212   0.847
 8597SOL    HW226691   2.844   1.258   0.922
 8598SOL     OW26692   5.593   5.430   1.006
 8598SOL    HW126693   5.660   5.503   1.021
 8598SOL    HW226694   5.621   5.348   1.057
 8599SOL     OW26695   1.669   2.855   3.118
 8599SOL    HW126696   1.704   2.786   3.055
 8599SOL    HW226697   1.653   2.940   3.067
 8600SOL     OW26698   6.358   4.367   6.820
 8600SOL    HW126699   6.291   4.405   6.883
 8600SOL    HW226700   6.318   4.360   6.728
 8601SOL     OW26701   0.233   6.943   4.635
 8601SOL    HW126702   0.264   7.014   4.698
 8601SOL    HW226703   0.174   6.982   4.565
 8602SOL     OW26704   2.758   5.604   2.115
 8602SOL    HW126705   2.781   5.697   2.141
 8602SOL    HW226706   2.675   5.604   2.059
 8603SOL     OW26707   4.176   3.250   0.456
 8603SOL    HW126708   4.170   3.153   0.430
 8603SOL    HW226709   4.244   3.295   0.397
 8604SOL     OW26710   5.330   2.719   3.566
 8604SOL    HW126711   5.310   2.629   3.526
 8604SOL    HW226712   5.244   2.769   3.580
 8605SOL     OW26713   2.280   6.347   2.699
 8605SOL    HW126714   2.346   6.412   2.736
 8605SOL    HW226715   2.258   6.372   2.605
 8606SOL     OW26716   4.024   4.526   5.518
 8606SOL    HW126717   4.043   4.439   5.564
 8606SOL    HW226718   3.947   4.515   5.456
 8607SOL     OW26719   4.562   5.755   1.529
 8607SOL    HW126720   4.660   5.758   1.512
 8607SOL    HW226721   4.545   5.756   1.627
 8608SOL     OW26722   4.503   5.746   1.785
 8608SOL    HW126723   4.594   5.750   1.826
 8608SOL    HW226724   4.449   5.824   1.815
 8609SOL     OW26725   3.247   0.525   5.575
 8609SOL    HW126726   3.264   0.440   5.525
 8609SOL    HW226727   3.316   0.536   5.646
 8610SOL     OW26728   0.611   6.138   3.976
 8610SOL    HW126729   0.624   6.041   3.954
 8610SOL    HW226730   0.515   6.155   3.998
 8611SOL     OW26731   1.496   2.022   4.169
 8611SOL    HW126732   1.499   2.117   4.198
 8611SOL    HW226733   1.405   2.001   4.131
 8612SOL     OW26734   4.279   2.889   5.578
 8612SOL    HW126735   4.216   2.931   5.645
 8612SOL    HW226736   4.352   2.953   5.557
 8613SOL     OW26737   1.694   1.323   1.046
 8613SOL    HW126738   1.677   1.399   0.983
 8613SOL    HW226739   1.637   1.245   1.019
 8614SOL     OW26740   1.131   2.010   3.237
 8614SOL    HW126741   1.152   2.081   3.304
 8614SOL    HW226742   1.100   2.053   3.152
 8615SOL     OW26743   4.241   2.244   5.248
 8615SOL    HW126744   4.201   2.232   5.339
 8615SOL    HW226745   4.213   2.332   5.210
 8616SOL     OW26746   1.114   4.529   0.406
 8616SOL    HW126747   1.174   4.603   0.438
 8616SOL    HW226748   1.095   4.466   0.481
 8617SOL     OW26749   6.251   2.660   1.212
 8617SOL    HW126750   6.348   2.680   1.222
 8617SOL    HW226751   6.235   2.561   1.223
 8618SOL     OW26752   4.643   0.091   3.285
 8618SOL    HW126753   4.564   0.039   3.251
 8618SOL    HW226754   4.690   0.038   3.355
 8619SOL     OW26755   4.448   4.974   6.951
 8619SOL    HW126756   4.426   5.050   7.012
 8619SOL    HW226757   4.368   4.953   6.894
 8620SOL     OW26758   6.493   6.532   3.023
 8620SOL    HW126759   6.425   6.550   2.952
 8620SOL    HW226760   6.519   6.436   3.021
 8621SOL     OW26761   5.721   0.607   3.348
 8621SOL    HW126762   5.706   0.518   3.304
 8621SOL    HW226763   5.813   0.608   3.388
 8622SOL     OW26764   4.881   5.241   0.139
 8622SOL    HW126765   4.849   5.268   0.229
 8622SOL    HW226766   4.948   5.309   0.106
 8623SOL     OW26767   0.087   3.833   2.854
 8623SOL    HW126768   0.012   3.897   2.870
 8623SOL    HW226769   0.053   3.739   2.861
 8624SOL     OW26770   0.493   4.288   3.064
 8624SOL    HW126771   0.490   4.289   3.164
 8624SOL    HW226772   0.413   4.241   3.029
 8625SOL     OW26773   3.685   0.621   4.675
 8625SOL    HW126774   3.725   0.616   4.584
 8625SOL    HW226775   3.608   0.558   4.681
 8626SOL     OW26776   3.056   3.862   3.557
 8626SOL    HW126777   3.043   3.763   3.551
 8626SOL    HW226778   3.152   3.884   3.536
 8627SOL     OW26779   1.633   0.227   6.980
 8627SOL    HW126780   1.609   0.159   6.911
 8627SOL    HW226781   1.555   0.287   6.996
 8628SOL     OW26782   5.361   0.734   6.804
 8628SOL    HW126783   5.268   0.700   6.816
 8628SOL    HW226784   5.426   0.664   6.833
 8629SOL     OW26785   1.463   3.953   3.890
 8629SOL    HW126786   1.528   4.028   3.875
 8629SOL    HW226787   1.454   3.936   3.988
 8630SOL     OW26788   5.633   4.493   3.780
 8630SOL    HW126789   5.689   4.503   3.862
 8630SOL    HW226790   5.567   4.419   3.794
 8631SOL     OW26791   3.757   5.746   5.125
 8631SOL    HW126792   3.662   5.773   5.140
 8631SOL    HW226793   3.813   5.777   5.203
 8632SOL     OW26794   3.957   0.239   3.416
 8632SOL    HW126795   4.012   0.319   3.394
 8632SOL    HW226796   3.860   0.260   3.403
 8633SOL     OW26797   6.130   1.098   3.819
 8633SOL    HW126798   6.163   1.073   3.728
 8633SOL    HW226799   6.031   1.102   3.819
 8634SOL     OW26800   6.746   5.113   2.042
 8634SOL    HW126801   6.779   5.090   2.133
 8634SOL    HW226802   6.811   5.173   1.996
 8635SOL     OW26803   5.953   3.660   5.513
 8635SOL    HW126804   5.938   3.659   5.414
 8635SOL    HW226805   5.941   3.753   5.548
 8636SOL     OW26806   6.743   5.643   0.750
 8636SOL    HW126807   6.692   5.706   0.808
 8636SOL    HW226808   6.697   5.554   0.748
 8637SOL     OW26809   2.109   0.512   1.052
 8637SOL    HW126810   2.181   0.550   0.995
 8637SOL    HW226811   2.140   0.427   1.093
 8638SOL     OW26812   3.350   5.128   0.442
 8638SOL    HW126813   3.360   5.056   0.512
 8638SOL    HW226814   3.253   5.149   0.430
 8639SOL     OW26815   6.387   3.937   1.443
 8639SOL    HW126816   6.325   3.974   1.512
 8639SOL    HW226817   6.422   3.849   1.473
 8640SOL     OW26818   4.895   5.404   0.907
 8640SOL    HW126819   4.855   5.477   0.962
 8640SOL    HW226820   4.960   5.444   0.841
 8641SOL     OW26821   6.168   4.219   3.187
 8641SOL    HW126822   6.131   4.297   3.237
 8641SOL    HW226823   6.260   4.241   3.154
 8642SOL     OW26824   4.379   1.290   1.592
 8642SOL    HW126825   4.300   1.294   1.652
 8642SOL    HW226826   4.463   1.297   1.645
 8643SOL     OW26827   4.887   0.370   5.885
 8643SOL    HW126828   4.944   0.435   5.836
 8643SOL    HW226829   4.802   0.355   5.834
 8644SOL     OW26830   5.974   3.004   4.976
 8644SOL    HW126831   6.041   3.075   4.996
 8644SOL    HW226832   5.883   3.037   5.002
 8645SOL     OW26833   5.843   4.673   1.359
 8645SOL    HW126834   5.857   4.660   1.261
 8645SOL    HW226835   5.860   4.769   1.382
 8646SOL     OW26836   5.494   0.901   0.478
 8646SOL    HW126837   5.556   0.846   0.534
 8646SOL    HW226838   5.466   0.982   0.530
 8647SOL     OW26839   4.376   5.048   0.330
 8647SOL    HW126840   4.283   5.054   0.366
 8647SOL    HW226841   4.426   4.976   0.378
 8648SOL     OW26842   5.464   1.257   3.912
 8648SOL    HW126843   5.484   1.346   3.870
 8648SOL    HW226844   5.365   1.244   3.913
 8649SOL     OW26845   6.765   4.223   5.514
 8649SOL    HW126846   6.734   4.235   5.420
 8649SOL    HW226847   6.827   4.298   5.538
 8650SOL     OW26848   2.065   5.008   3.476
 8650SOL    HW126849   2.163   4.990   3.486
 8650SOL    HW226850   2.022   4.932   3.427
 8651SOL     OW26851   3.441   1.166   0.254
 8651SOL    HW126852   3.374   1.121   0.313
 8651SOL    HW226853   3.521   1.193   0.308
 8652SOL     OW26854   2.053   3.636   3.371
 8652SOL    HW126855   2.085   3.543   3.389
 8652SOL    HW226856   2.084   3.697   3.444
 8653SOL     OW26857   0.370   2.695   6.921
 8653SOL    HW126858   0.419   2.775   6.957
 8653SOL    HW226859   0.292   2.726   6.867
 8654SOL     OW26860   0.756   0.160   3.385
 8654SOL    HW126861   0.795   0.117   3.466
 8654SOL    HW226862   0.772   0.259   3.388
 8655SOL     OW26863   6.261   6.215   4.798
 8655SOL    HW126864   6.211   6.256   4.875
 8655SOL    HW226865   6.232   6.120   4.787
 8656SOL     OW26866   6.311   1.126   0.963
 8656SOL    HW126867   6.300   1.218   1.001
 8656SOL    HW226868   6.403   1.093   0.982
 8657SOL     OW26869   4.428   4.120   6.857
 8657SOL    HW126870   4.421   4.144   6.954
 8657SOL    HW226871   4.370   4.041   6.838
 8658SOL     OW26872   5.903   5.636   6.487
 8658SOL    HW126873   5.873   5.717   6.437
 8658SOL    HW226874   5.850   5.556   6.457
 8659SOL     OW26875   5.476   0.708   4.267
 8659SOL    HW126876   5.539   0.765   4.213
 8659SOL    HW226877   5.450   0.627   4.214
 8660SOL     OW26878   5.760   3.812   0.768
 8660SOL    HW126879   5.733   3.806   0.672
 8660SOL    HW226880   5.678   3.827   0.824
 8661SOL     OW26881   0.056   3.998   1.618
 8661SOL    HW126882   0.156   3.989   1.615
 8661SOL    HW226883   0.017   3.921   1.668
 8662SOL     OW26884   6.782   6.812   0.981
 8662SOL    HW126885   6.817   6.796   1.073
 8662SOL    HW226886   6.768   6.910   0.967
 8663SOL     OW26887   2.581   5.568   0.454
 8663SOL    HW126888   2.585   5.495   0.523
 8663SOL    HW226889   2.672   5.607   0.443
 8664SOL     OW26890   4.587   5.845   6.913
 8664SOL    HW126891   4.590   5.905   6.993
 8664SOL    HW226892   4.681   5.822   6.887
 8665SOL     OW26893   5.051   5.630   5.724
 8665SOL    HW126894   5.056   5.730   5.718
 8665SOL    HW226895   5.115   5.590   5.659
 8666SOL     OW26896   5.280   2.560   4.567
 8666SOL    HW126897   5.350   2.613   4.519
 8666SOL    HW226898   5.224   2.622   4.622
 8667SOL     OW26899   4.737   1.307   4.335
 8667SOL    HW126900   4.813   1.277   4.392
 8667SOL    HW226901   4.724   1.243   4.259
 8668SOL     OW26902   4.173   1.931   4.458
 8668SOL    HW126903   4.084   1.920   4.500
 8668SOL    HW226904   4.210   1.842   4.434
 8669SOL     OW26905   3.873   0.341   5.503
 8669SOL    HW126906   3.926   0.425   5.516
 8669SOL    HW226907   3.776   0.361   5.515
 8670SOL     OW26908   3.301   5.449   4.427
 8670SOL    HW126909   3.290   5.368   4.484
 8670SOL    HW226910   3.212   5.478   4.391
 8671SOL     OW26911   5.882   6.746   3.733
 8671SOL    HW126912   5.785   6.758   3.755
 8671SOL    HW226913   5.932   6.727   3.817
 8672SOL     OW26914   3.658   5.000   4.353
 8672SOL    HW126915   3.681   5.082   4.301
 8672SOL    HW226916   3.741   4.945   4.367
 8673SOL     OW26917   6.151   2.174   0.880
 8673SOL    HW126918   6.224   2.243   0.875
 8673SOL    HW226919   6.187   2.091   0.922
 8674SOL     OW26920   6.754   0.056   2.912
 8674SOL    HW126921   6.808   0.023   2.834
 8674SOL    HW226922   6.664   0.085   2.879
 8675SOL     OW26923   2.102   1.143   2.817
 8675SOL    HW126924   2.139   1.063   2.865
 8675SOL    HW226925   2.021   1.115   2.765
 8676SOL     OW26926   4.405   7.009   2.756
 8676SOL    HW126927   4.406   6.956   2.840
 8676SOL    HW226928   4.398   6.947   2.678
 8677SOL     OW26929   2.376   4.459   5.926
 8677SOL    HW126930   2.435   4.380   5.948
 8677SOL    HW226931   2.315   4.435   5.851
 8678SOL     OW26932   0.922   0.437   6.736
 8678SOL    HW126933   0.929   0.530   6.773
 8678SOL    HW226934   0.918   0.442   6.636
 8679SOL     OW26935   6.275   2.290   5.511
 8679SOL    HW126936   6.203   2.349   5.548
 8679SOL    HW226937   6.307   2.328   5.424
 8680SOL     OW26938   1.190   3.725   0.089
 8680SOL    HW126939   1.232   3.811   0.118
 8680SOL    HW226940   1.131   3.743   0.010
 8681SOL     OW26941   4.131   4.160   0.444
 8681SOL    HW126942   4.058   4.204   0.496
 8681SOL    HW226943   4.118   4.061   0.447
 8682SOL     OW26944   2.538   6.196   3.000
 8682SOL    HW126945   2.524   6.222   2.904
 8682SOL    HW226946   2.634   6.172   3.014
 8683SOL     OW26947   0.153   3.103   0.928
 8683SOL    HW126948   0.160   3.142   1.020
 8683SOL    HW226949   0.105   3.015   0.933
 8684SOL     OW26950   5.919   3.431   4.744
 8684SOL    HW126951   6.009   3.418   4.704
 8684SOL    HW226952   5.914   3.522   4.785
 8685SOL     OW26953   0.667   2.405   6.559
 8685SOL    HW126954   0.688   2.330   6.622
 8685SOL    HW226955   0.568   2.413   6.548
 8686SOL     OW26956   6.874   2.068   2.913
 8686SOL    HW126957   6.930   2.117   2.846
 8686SOL    HW226958   6.908   1.975   2.923
 8687SOL     OW26959   3.733   6.865   2.514
 8687SOL    HW126960   3.809   6.837   2.572
 8687SOL    HW226961   3.730   6.965   2.509
 8688SOL     OW26962   2.365   0.361   1.494
 8688SOL    HW126963   2.355   0.261   1.491
 8688SOL    HW226964   2.427   0.385   1.569
 8689SOL     OW26965   4.659   5.800   0.244
 8689SOL    HW126966   4.613   5.768   0.327
 8689SOL    HW226967   4.688   5.721   0.190
 8690SOL     OW26968   0.523   1.377   3.095
 8690SOL    HW126969   0.504   1.441   3.020
 8690SOL    HW226970   0.474   1.406   3.177
 8691SOL     OW26971   5.267   2.203   6.791
 8691SOL    HW126972   5.214   2.277   6.750
 8691SOL    HW226973   5.260   2.121   6.734
 8692SOL     OW26974   2.385   2.159   3.697
 8692SOL    HW126975   2.339   2.073   3.674
 8692SOL    HW226976   2.417   2.203   3.613
 8693SOL     OW26977   5.519   1.930   1.052
 8693SOL    HW126978   5.463   1.961   1.129
 8693SOL    HW226979   5.593   1.996   1.036
 8694SOL     OW26980   4.792   6.862   5.990
 8694SOL    HW126981   4.746   6.909   6.066
 8694SOL    HW226982   4.724   6.823   5.929
 8695SOL     OW26983   4.902   4.103   6.120
 8695SOL    HW126984   4.982   4.077   6.066
 8695SOL    HW226985   4.932   4.138   6.209
 8696SOL     OW26986   2.231   5.912   1.072
 8696SOL    HW126987   2.331   5.913   1.067
 8696SOL    HW226988   2.200   5.822   1.104
 8697SOL     OW26989   6.628   4.090   0.404
 8697SOL    HW126990   6.663   4.109   0.495
 8697SOL    HW226991   6.571   4.166   0.373
 8698SOL     OW26992   5.409   6.201   4.381
 8698SOL    HW126993   5.464   6.249   4.312
 8698SOL    HW226994   5.312   6.217   4.363
 8699SOL     OW26995   1.491   1.634   5.734
 8699SOL    HW126996   1.532   1.692   5.664
 8699SOL    HW226997   1.411   1.588   5.697
 8700SOL     OW26998   3.071   1.046   5.356
 8700SOL    HW126999   3.037   0.953   5.342
 8700SOL    HW227000   3.087   1.089   5.267
 8701SOL     OW27001   0.695   1.245   4.769
 8701SOL    HW127002   0.629   1.282   4.833
 8701SOL    HW227003   0.770   1.310   4.757
 8702SOL     OW27004   5.481   5.264   6.986
 8702SOL    HW127005   5.580   5.252   6.989
 8702SOL    HW227006   5.445   5.225   6.901
 8703SOL     OW27007   2.687   5.691   1.008
 8703SOL    HW127008   2.734   5.772   0.972
 8703SOL    HW227009   2.744   5.648   1.078
 8704SOL     OW27010   0.201   4.709   2.307
 8704SOL    HW127011   0.171   4.634   2.247
 8704SOL    HW227012   0.294   4.735   2.283
 8705SOL     OW27013   4.961   0.379   6.132
 8705SOL    HW127014   4.988   0.474   6.150
 8705SOL    HW227015   4.947   0.366   6.034
 8706SOL     OW27016   5.264   2.007   0.143
 8706SOL    HW127017   5.255   1.908   0.148
 8706SOL    HW227018   5.309   2.040   0.226
 8707SOL     OW27019   4.828   2.693   6.247
 8707SOL    HW127020   4.787   2.723   6.333
 8707SOL    HW227021   4.873   2.771   6.203
 8708SOL     OW27022   3.954   1.298   1.395
 8708SOL    HW127023   4.049   1.327   1.385
 8708SOL    HW227024   3.909   1.353   1.465
 8709SOL     OW27025   6.715   4.114   0.663
 8709SOL    HW127026   6.736   4.188   0.727
 8709SOL    HW227027   6.748   4.027   0.701
 8710SOL     OW27028   1.908   3.641   2.800
 8710SOL    HW127029   1.938   3.709   2.733
 8710SOL    HW227030   1.984   3.581   2.824
 8711SOL     OW27031   6.780   1.000   3.170
 8711SOL    HW127032   6.695   0.950   3.185
 8711SOL    HW227033   6.776   1.087   3.219
 8712SOL     OW27034   3.495   1.175   4.825
 8712SOL    HW127035   3.450   1.237   4.889
 8712SOL    HW227036   3.588   1.157   4.856
 8713SOL     OW27037   6.672   4.791   3.902
 8713SOL    HW127038   6.580   4.831   3.905
 8713SOL    HW227039   6.667   4.693   3.920
 8714SOL     OW27040   1.464   0.558   5.474
 8714SOL    HW127041   1.504   0.594   5.390
 8714SOL    HW227042   1.370   0.591   5.483
 8715SOL     OW27043   6.364   2.047   1.702
 8715SOL    HW127044   6.416   2.114   1.755
 8715SOL    HW227045   6.427   1.983   1.657
 8716SOL     OW27046   0.989   1.209   1.490
 8716SOL    HW127047   1.055   1.282   1.477
 8716SOL    HW227048   1.029   1.136   1.547
 8717SOL     OW27049   4.190   3.697   1.741
 8717SOL    HW127050   4.256   3.772   1.736
 8717SOL    HW227051   4.178   3.670   1.837
 8718SOL     OW27052   6.476   2.987   5.033
 8718SOL    HW127053   6.452   2.970   4.938
 8718SOL    HW227054   6.565   3.033   5.037
 8719SOL     OW27055   1.016   0.253   5.289
 8719SOL    HW127056   1.109   0.265   5.252
 8719SOL    HW227057   0.955   0.321   5.249
 8720SOL     OW27058   5.584   4.133   5.598
 8720SOL    HW127059   5.635   4.218   5.608
 8720SOL    HW227060   5.581   4.107   5.501
 8721SOL     OW27061   6.840   2.504   4.610
 8721SOL    HW127062   6.771   2.434   4.629
 8721SOL    HW227063   6.862   2.552   4.695
 8722SOL     OW27064   3.684   2.564   0.537
 8722SOL    HW127065   3.767   2.618   0.521
 8722SOL    HW227066   3.705   2.487   0.596
 8723SOL     OW27067   6.689   5.588   1.223
 8723SOL    HW127068   6.747   5.574   1.304
 8723SOL    HW227069   6.737   5.555   1.142
 8724SOL     OW27070   5.461   0.363   5.662
 8724SOL    HW127071   5.446   0.265   5.652
 8724SOL    HW227072   5.514   0.380   5.745
 8725SOL     OW27073   1.961   6.889   0.423
 8725SOL    HW127074   1.910   6.837   0.492
 8725SOL    HW227075   2.013   6.825   0.366
 8726SOL     OW27076   5.709   0.521   1.600
 8726SOL    HW127077   5.738   0.450   1.665
 8726SOL    HW227078   5.717   0.611   1.642
 8727SOL     OW27079   6.685   6.424   1.569
 8727SOL    HW127080   6.705   6.384   1.480
 8727SOL    HW227081   6.703   6.522   1.567
 8728SOL     OW27082   2.678   6.676   4.740
 8728SOL    HW127083   2.728   6.590   4.753
 8728SOL    HW227084   2.732   6.752   4.775
 8729SOL     OW27085   4.382   5.667   3.610
 8729SOL    HW127086   4.410   5.639   3.701
 8729SOL    HW227087   4.290   5.632   3.591
 8730SOL     OW27088   0.113   6.127   1.977
 8730SOL    HW127089   0.168   6.056   2.021
 8730SOL    HW227090   0.170   6.208   1.962
 8731SOL     OW27091   1.215   1.998   2.886
 8731SOL    HW127092   1.229   1.899   2.883
 8731SOL    HW227093   1.129   2.018   2.931
 8732SOL     OW27094   5.689   3.613   1.406
 8732SOL    HW127095   5.642   3.525   1.393
 8732SOL    HW227096   5.642   3.684   1.354
 8733SOL     OW27097   1.152   6.509   1.685
 8733SOL    HW127098   1.211   6.589   1.669
 8733SOL    HW227099   1.140   6.459   1.600
 8734SOL     OW27100   6.937   6.036   1.084
 8734SOL    HW127101   6.906   5.956   1.135
 8734SOL    HW227102   6.957   6.111   1.148
 8735SOL     OW27103   6.672   1.720   6.868
 8735SOL    HW127104   6.745   1.788   6.858
 8735SOL    HW227105   6.693   1.640   6.812
 8736SOL     OW27106   0.777   4.631   6.820
 8736SOL    HW127107   0.827   4.692   6.882
 8736SOL    HW227108   0.686   4.613   6.857
 8737SOL     OW27109   3.742   5.812   6.396
 8737SOL    HW127110   3.668   5.801   6.463
 8737SOL    HW227111   3.710   5.783   6.306
 8738SOL     OW27112   1.473   3.712   3.743
 8738SOL    HW127113   1.401   3.673   3.684
 8738SOL    HW227114   1.441   3.799   3.780
 8739SOL     OW27115   0.090   3.770   5.471
 8739SOL    HW127116   7.009   3.787   5.484
 8739SOL    HW227117   0.121   3.702   5.537
 8740SOL     OW27118   2.934   6.869   0.092
 8740SOL    HW127119   2.840   6.837   0.083
 8740SOL    HW227120   2.943   6.961   0.055
 8741SOL     OW27121   1.719   3.413   2.742
 8741SOL    HW127122   1.743   3.349   2.815
 8741SOL    HW227123   1.791   3.482   2.733
 8742SOL     OW27124   4.514   6.921   1.464
 8742SOL    HW127125   4.432   6.864   1.461
 8742SOL    HW227126   4.595   6.863   1.476
 8743SOL     OW27127   2.825   5.343   2.212
 8743SOL    HW127128   2.801   5.440   2.209
 8743SOL    HW227129   2.878   5.319   2.131
 8744SOL     OW27130   4.390   2.740   6.197
 8744SOL    HW127131   4.412   2.643   6.196
 8744SOL    HW227132   4.293   2.753   6.217
 8745SOL     OW27133   6.354   2.606   5.538
 8745SOL    HW127134   6.359   2.702   5.512
 8745SOL    HW227135   6.437   2.579   5.587
 8746SOL     OW27136   5.013   4.946   5.476
 8746SOL    HW127137   4.946   4.889   5.428
 8746SOL    HW227138   5.005   5.040   5.443
 8747SOL     OW27139   1.490   2.526   4.274
 8747SOL    HW127140   1.553   2.587   4.228
 8747SOL    HW227141   1.396   2.559   4.261
 8748SOL     OW27142   1.252   0.887   6.897
 8748SOL    HW127143   1.175   0.931   6.943
 8748SOL    HW227144   1.238   0.889   6.798
 8749SOL     OW27145   4.043   0.507   3.427
 8749SOL    HW127146   4.054   0.524   3.329
 8749SOL    HW227147   4.122   0.542   3.477
 8750SOL     OW27148   1.937   1.675   5.170
 8750SOL    HW127149   2.032   1.691   5.194
 8750SOL    HW227150   1.883   1.661   5.253
 8751SOL     OW27151   1.132   0.039   2.525
 8751SOL    HW127152   1.179   6.973   2.495
 8751SOL    HW227153   1.199   0.109   2.549
 8752SOL     OW27154   1.890   2.986   5.954
 8752SOL    HW127155   1.914   2.940   5.869
 8752SOL    HW227156   1.906   2.924   6.031
 8753SOL     OW27157   5.069   1.529   4.750
 8753SOL    HW127158   5.008   1.540   4.671
 8753SOL    HW227159   5.092   1.432   4.760
 8754SOL     OW27160   1.877   2.005   5.998
 8754SOL    HW127161   1.862   1.908   6.018
 8754SOL    HW227162   1.852   2.024   5.903
 8755SOL     OW27163   2.435   1.340   0.454
 8755SOL    HW127164   2.404   1.267   0.394
 8755SOL    HW227165   2.365   1.412   0.458
 8756SOL     OW27166   2.184   3.070   3.939
 8756SOL    HW127167   2.206   3.040   3.846
 8756SOL    HW227168   2.196   2.993   4.002
 8757SOL     OW27169   4.743   6.384   4.739
 8757SOL    HW127170   4.790   6.472   4.741
 8757SOL    HW227171   4.657   6.393   4.689
 8758SOL     OW27172   6.344   6.716   1.656
 8758SOL    HW127173   6.286   6.794   1.677
 8758SOL    HW227174   6.287   6.638   1.631
 8759SOL     OW27175   4.746   0.656   5.591
 8759SOL    HW127176   4.795   0.703   5.518
 8759SOL    HW227177   4.783   0.564   5.602
 8760SOL     OW27178   1.849   1.516   4.163
 8760SOL    HW127179   1.918   1.588   4.159
 8760SOL    HW227180   1.766   1.547   4.116
 8761SOL     OW27181   4.379   6.942   0.024
 8761SOL    HW127182   4.354   7.006   0.096
 8761SOL    HW227183   4.471   6.965   7.007
 8762SOL     OW27184   1.255   4.041   1.231
 8762SOL    HW127185   1.281   3.952   1.194
 8762SOL    HW227186   1.304   4.113   1.182
 8763SOL     OW27187   0.202   6.480   5.992
 8763SOL    HW127188   0.107   6.471   5.961
 8763SOL    HW227189   0.263   6.447   5.920
 8764SOL     OW27190   4.369   1.729   4.399
 8764SOL    HW127191   4.449   1.786   4.421
 8764SOL    HW227192   4.399   1.635   4.384
 8765SOL     OW27193   5.842   0.253   4.234
 8765SOL    HW127194   5.800   0.162   4.223
 8765SOL    HW227195   5.900   0.253   4.316
 8766SOL     OW27196   2.072   4.905   2.662
 8766SOL    HW127197   2.113   4.814   2.669
 8766SOL    HW227198   2.144   4.973   2.645
 8767SOL     OW27199   4.289   0.639   3.488
 8767SOL    HW127200   4.295   0.716   3.424
 8767SOL    HW227201   4.213   0.655   3.551
 8768SOL     OW27202   2.080   2.834   0.393
 8768SOL    HW127203   2.118   2.895   0.324
 8768SOL    HW227204   2.064   2.884   0.478
 8769SOL     OW27205   2.022   0.025   5.942
 8769SOL    HW127206   2.095   0.089   5.969
 8769SOL    HW227207   1.933   0.070   5.953
 8770SOL     OW27208   5.380   3.084   1.487
 8770SOL    HW127209   5.346   3.099   1.579
 8770SOL    HW227210   5.382   3.170   1.437
 8771SOL     OW27211   1.466   1.298   6.491
 8771SOL    HW127212   1.461   1.363   6.414
 8771SOL    HW227213   1.380   1.299   6.541
 8772SOL     OW27214   5.751   1.156   6.366
 8772SOL    HW127215   5.702   1.234   6.328
 8772SOL    HW227216   5.747   1.159   6.466
 8773SOL     OW27217   2.542   2.239   2.903
 8773SOL    HW127218   2.512   2.244   2.998
 8773SOL    HW227219   2.479   2.181   2.851
 8774SOL     OW27220   1.116   1.413   1.095
 8774SOL    HW127221   1.127   1.318   1.065
 8774SOL    HW227222   1.020   1.438   1.093
 8775SOL     OW27223   6.407   0.109   3.304
 8775SOL    HW127224   6.337   0.056   3.256
 8775SOL    HW227225   6.384   0.114   3.401
 8776SOL     OW27226   3.597   2.976   5.150
 8776SOL    HW127227   3.604   3.040   5.074
 8776SOL    HW227228   3.503   2.940   5.155
 8777SOL     OW27229   6.585   6.191   1.826
 8777SOL    HW127230   6.535   6.244   1.757
 8777SOL    HW227231   6.619   6.107   1.784
 8778SOL     OW27232   0.577   1.964   3.825
 8778SOL    HW127233   0.608   1.885   3.879
 8778SOL    HW227234   0.533   2.030   3.885
 8779SOL     OW27235   0.847   4.758   0.662
 8779SOL    HW127236   0.812   4.741   0.755
 8779SOL    HW227237   0.943   4.785   0.667
 8780SOL     OW27238   1.175   5.648   4.359
 8780SOL    HW127239   1.084   5.609   4.341
 8780SOL    HW227240   1.220   5.667   4.272
 8781SOL     OW27241   0.742   2.022   2.895
 8781SOL    HW127242   0.697   1.996   2.980
 8781SOL    HW227243   0.736   2.121   2.882
 8782SOL     OW27244   4.444   1.239   3.197
 8782SOL    HW127245   4.367   1.283   3.151
 8782SOL    HW227246   4.528   1.291   3.177
 8783SOL     OW27247   5.942   3.763   4.233
 8783SOL    HW127248   6.039   3.771   4.211
 8783SOL    HW227249   5.902   3.689   4.179
 8784SOL     OW27250   5.625   5.186   5.621
 8784SOL    HW127251   5.608   5.088   5.622
 8784SOL    HW227252   5.632   5.220   5.715
 8785SOL     OW27253   5.880   4.472   6.750
 8785SOL    HW127254   5.830   4.451   6.834
 8785SOL    HW227255   5.883   4.571   6.737
 8786SOL     OW27256   1.895   7.015   0.151
 8786SOL    HW127257   1.985   0.018   0.190
 8786SOL    HW227258   1.838   6.970   0.220
 8787SOL     OW27259   1.378   3.785   1.164
 8787SOL    HW127260   1.434   3.842   1.225
 8787SOL    HW227261   1.419   3.784   1.073
 8788SOL     OW27262   0.794   1.567   5.400
 8788SOL    HW127263   0.876   1.602   5.446
 8788SOL    HW227264   0.818   1.489   5.343
 8789SOL     OW27265   6.981   0.559   6.767
 8789SOL    HW127266   6.907   0.623   6.751
 8789SOL    HW227267   6.962   0.473   6.719
 8790SOL     OW27268   5.953   1.840   6.993
 8790SOL    HW127269   5.904   1.761   6.955
 8790SOL    HW227270   5.930   1.922   6.940
 8791SOL     OW27271   4.818   6.496   5.797
 8791SOL    HW127272   4.783   6.535   5.882
 8791SOL    HW227273   4.753   6.430   5.761
 8792SOL     OW27274   5.010   6.988   2.702
 8792SOL    HW127275   4.929   6.979   2.645
 8792SOL    HW227276   4.984   6.977   2.798
 8793SOL     OW27277   1.590   5.884   3.630
 8793SOL    HW127278   1.533   5.895   3.549
 8793SOL    HW227279   1.648   5.964   3.641
 8794SOL     OW27280   1.570   0.309   2.351
 8794SOL    HW127281   1.586   0.404   2.380
 8794SOL    HW227282   1.488   0.274   2.398
 8795SOL     OW27283   1.838   5.987   5.547
 8795SOL    HW127284   1.874   6.076   5.518
 8795SOL    HW227285   1.746   5.999   5.584
 8796SOL     OW27286   4.443   2.265   5.554
 8796SOL    HW127287   4.520   2.247   5.615
 8796SOL    HW227288   4.393   2.345   5.587
 8797SOL     OW27289   0.443   6.858   6.933
 8797SOL    HW127290   0.505   6.910   6.991
 8797SOL    HW227291   0.460   6.880   6.837
 8798SOL     OW27292   4.828   3.553   5.592
 8798SOL    HW127293   4.806   3.624   5.659
 8798SOL    HW227294   4.805   3.586   5.500
 8799SOL     OW27295   2.853   5.123   3.404
 8799SOL    HW127296   2.901   5.157   3.485
 8799SOL    HW227297   2.916   5.069   3.348
 8800SOL     OW27298   4.239   4.922   6.789
 8800SOL    HW127299   4.278   4.891   6.702
 8800SOL    HW227300   4.139   4.919   6.783
 8801SOL     OW27301   2.623   1.241   4.929
 8801SOL    HW127302   2.697   1.209   4.871
 8801SOL    HW227303   2.659   1.267   5.019
 8802SOL     OW27304   3.055   5.981   2.418
 8802SOL    HW127305   2.971   5.954   2.370
 8802SOL    HW227306   3.030   6.032   2.500
 8803SOL     OW27307   3.109   5.342   0.009
 8803SOL    HW127308   3.095   5.436   0.040
 8803SOL    HW227309   3.140   5.286   0.085
 8804SOL     OW27310   4.773   0.655   0.835
 8804SOL    HW127311   4.781   0.687   0.930
 8804SOL    HW227312   4.744   0.731   0.777
 8805SOL     OW27313   0.245   0.466   3.057
 8805SOL    HW127314   0.173   0.436   2.995
 8805SOL    HW227315   0.298   0.387   3.087
 8806SOL     OW27316   1.531   4.674   6.776
 8806SOL    HW127317   1.624   4.705   6.756
 8806SOL    HW227318   1.529   4.574   6.777
 8807SOL     OW27319   0.608   6.267   6.323
 8807SOL    HW127320   0.646   6.354   6.292
 8807SOL    HW227321   0.556   6.281   6.407
 8808SOL     OW27322   5.235   1.382   0.935
 8808SOL    HW127323   5.285   1.312   0.884
 8808SOL    HW227324   5.241   1.362   1.032
 8809SOL     OW27325   5.833   3.612   1.120
 8809SOL    HW127326   5.905   3.560   1.074
 8809SOL    HW227327   5.750   3.558   1.125
 8810SOL     OW27328   3.703   1.183   4.249
 8810SOL    HW127329   3.666   1.180   4.342
 8810SOL    HW227330   3.796   1.220   4.251
 8811SOL     OW27331   1.530   1.548   2.730
 8811SOL    HW127332   1.558   1.642   2.711
 8811SOL    HW227333   1.448   1.526   2.676
 8812SOL     OW27334   2.005   1.146   0.578
 8812SOL    HW127335   1.941   1.194   0.637
 8812SOL    HW227336   2.098   1.155   0.616
 8813SOL     OW27337   2.158   6.563   1.968
 8813SOL    HW127338   2.120   6.473   1.989
 8813SOL    HW227339   2.256   6.563   1.985
 8814SOL     OW27340   6.176   0.927   6.211
 8814SOL    HW127341   6.127   0.840   6.200
 8814SOL    HW227342   6.110   1.003   6.208
 8815SOL     OW27343   0.105   6.188   2.770
 8815SOL    HW127344   0.153   6.113   2.725
 8815SOL    HW227345   0.021   6.209   2.721
 8816SOL     OW27346   1.341   6.095   1.039
 8816SOL    HW127347   1.365   6.054   1.127
 8816SOL    HW227348   1.342   6.195   1.047
 8817SOL     OW27349   1.531   5.220   5.309
 8817SOL    HW127350   1.470   5.258   5.378
 8817SOL    HW227351   1.596   5.291   5.279
 8818SOL     OW27352   0.251   5.387   4.210
 8818SOL    HW127353   0.232   5.304   4.263
 8818SOL    HW227354   0.260   5.364   4.114
 8819SOL     OW27355   4.334   6.482   4.331
 8819SOL    HW127356   4.323   6.427   4.248
 8819SOL    HW227357   4.268   6.557   4.330
 8820SOL     OW27358   1.327   1.900   3.715
 8820SOL    HW127359   1.260   1.972   3.733
 8820SOL    HW227360   1.398   1.903   3.786
 8821SOL     OW27361   2.427   0.789   6.666
 8821SOL    HW127362   2.385   0.793   6.576
 8821SOL    HW227363   2.389   0.712   6.717
 8822SOL     OW27364   0.414   2.047   3.562
 8822SOL    HW127365   0.341   2.070   3.498
 8822SOL    HW227366   0.377   2.047   3.655
 8823SOL     OW27367   1.569   6.069   1.303
 8823SOL    HW127368   1.639   5.999   1.292
 8823SOL    HW227369   1.478   6.027   1.296
 8824SOL     OW27370   3.402   3.699   0.920
 8824SOL    HW127371   3.467   3.669   0.990
 8824SOL    HW227372   3.308   3.691   0.955
 8825SOL     OW27373   0.935   1.488   2.201
 8825SOL    HW127374   0.908   1.446   2.288
 8825SOL    HW227375   0.917   1.425   2.126
 8826SOL     OW27376   4.763   1.612   6.693
 8826SOL    HW127377   4.701   1.662   6.633
 8826SOL    HW227378   4.718   1.596   6.781
 8827SOL     OW27379   1.511   1.490   3.574
 8827SOL    HW127380   1.567   1.410   3.557
 8827SOL    HW227381   1.495   1.539   3.488
 8828SOL     OW27382   3.325   6.996   2.901
 8828SOL    HW127383   3.310   6.954   2.811
 8828SOL    HW227384   3.281   6.941   2.972
 8829SOL     OW27385   0.231   1.941   0.469
 8829SOL    HW127386   0.295   1.886   0.524
 8829SOL    HW227387   0.273   2.029   0.447
 8830SOL     OW27388   0.771   1.871   0.806
 8830SOL    HW127389   0.808   1.786   0.845
 8830SOL    HW227390   0.784   1.871   0.707
 8831SOL     OW27391   6.767   0.970   2.906
 8831SOL    HW127392   6.721   0.880   2.904
 8831SOL    HW227393   6.788   0.993   3.001
 8832SOL     OW27394   6.284   0.753   2.442
 8832SOL    HW127395   6.259   0.836   2.492
 8832SOL    HW227396   6.208   0.725   2.384
 8833SOL     OW27397   2.154   4.972   3.994
 8833SOL    HW127398   2.147   4.891   3.936
 8833SOL    HW227399   2.192   5.048   3.941
 8834SOL     OW27400   5.881   3.716   5.221
 8834SOL    HW127401   5.784   3.705   5.197
 8834SOL    HW227402   5.926   3.627   5.219
 8835SOL     OW27403   0.094   0.152   6.181
 8835SOL    HW127404   0.052   0.242   6.179
 8835SOL    HW227405   0.056   0.095   6.108
 8836SOL     OW27406   4.421   1.360   0.117
 8836SOL    HW127407   4.359   1.433   0.145
 8836SOL    HW227408   4.389   1.321   0.030
 8837SOL     OW27409   0.017   1.362   1.850
 8837SOL    HW127410   0.017   1.390   1.946
 8837SOL    HW227411   6.970   1.420   1.799
 8838SOL     OW27412   2.613   4.974   3.483
 8838SOL    HW127413   2.687   5.025   3.439
 8838SOL    HW227414   2.618   4.878   3.457
 8839SOL     OW27415   6.609   6.887   4.011
 8839SOL    HW127416   6.699   6.902   3.970
 8839SOL    HW227417   6.586   6.964   4.070
 8840SOL     OW27418   5.866   2.426   1.865
 8840SOL    HW127419   5.863   2.379   1.953
 8840SOL    HW227420   5.858   2.524   1.879
 8841SOL     OW27421   1.314   1.462   5.607
 8841SOL    HW127422   1.311   1.363   5.593
 8841SOL    HW227423   1.334   1.508   5.521
 8842SOL     OW27424   2.381   2.793   1.908
 8842SOL    HW127425   2.347   2.865   1.848
 8842SOL    HW227426   2.447   2.736   1.859
 8843SOL     OW27427   0.949   2.997   5.141
 8843SOL    HW127428   0.891   2.938   5.197
 8843SOL    HW227429   1.026   3.030   5.196
 8844SOL     OW27430   6.729   1.186   6.235
 8844SOL    HW127431   6.714   1.222   6.327
 8844SOL    HW227432   6.667   1.231   6.171
 8845SOL     OW27433   5.694   4.406   6.930
 8845SOL    HW127434   5.597   4.381   6.934
 8845SOL    HW227435   5.715   4.472   7.002
 8846SOL     OW27436   1.815   4.697   4.145
 8846SOL    HW127437   1.874   4.731   4.219
 8846SOL    HW227438   1.730   4.661   4.184
 8847SOL     OW27439   3.367   0.395   2.094
 8847SOL    HW127440   3.398   0.317   2.148
 8847SOL    HW227441   3.267   0.401   2.100
 8848SOL     OW27442   1.301   0.580   3.065
 8848SOL    HW127443   1.241   0.575   2.985
 8848SOL    HW227444   1.364   0.503   3.064
 8849SOL     OW27445   2.749   6.568   1.205
 8849SOL    HW127446   2.674   6.624   1.170
 8849SOL    HW227447   2.796   6.523   1.129
 8850SOL     OW27448   3.487   2.584   6.458
 8850SOL    HW127449   3.402   2.551   6.499
 8850SOL    HW227450   3.533   2.509   6.411
 8851SOL     OW27451   1.212   3.601   2.785
 8851SOL    HW127452   1.249   3.519   2.741
 8851SOL    HW227453   1.225   3.594   2.884
 8852SOL     OW27454   0.992   1.872   6.205
 8852SOL    HW127455   0.904   1.871   6.157
 8852SOL    HW227456   1.063   1.836   6.145
 8853SOL     OW27457   3.919   0.626   0.545
 8853SOL    HW127458   3.938   0.715   0.505
 8853SOL    HW227459   3.906   0.636   0.644
 8854SOL     OW27460   1.067   3.578   4.583
 8854SOL    HW127461   1.101   3.484   4.576
 8854SOL    HW227462   1.136   3.635   4.627
 8855SOL     OW27463   5.783   5.689   0.893
 8855SOL    HW127464   5.828   5.775   0.920
 8855SOL    HW227465   5.687   5.707   0.872
 8856SOL     OW27466   0.332   5.879   5.954
 8856SOL    HW127467   0.252   5.839   5.911
 8856SOL    HW227468   0.318   5.976   5.969
 8857SOL     OW27469   6.468   1.567   5.463
 8857SOL    HW127470   6.435   1.505   5.534
 8857SOL    HW227471   6.420   1.547   5.377
 8858SOL     OW27472   6.237   5.416   4.656
 8858SOL    HW127473   6.163   5.432   4.590
 8858SOL    HW227474   6.204   5.434   4.748
 8859SOL     OW27475   0.810   0.445   3.465
 8859SOL    HW127476   0.899   0.430   3.508
 8859SOL    HW227477   0.805   0.538   3.429
 8860SOL     OW27478   0.041   2.918   2.158
 8860SOL    HW127479   6.991   2.983   2.192
 8860SOL    HW227480   0.042   2.920   2.058
 8861SOL     OW27481   4.580   2.037   1.967
 8861SOL    HW127482   4.492   2.007   2.004
 8861SOL    HW227483   4.605   2.124   2.011
 8862SOL     OW27484   4.741   5.046   5.136
 8862SOL    HW127485   4.665   5.109   5.151
 8862SOL    HW227486   4.763   5.041   5.039
 8863SOL     OW27487   2.230   4.152   3.476
 8863SOL    HW127488   2.274   4.153   3.566
 8863SOL    HW227489   2.134   4.179   3.486
 8864SOL     OW27490   6.041   1.757   5.261
 8864SOL    HW127491   6.092   1.671   5.261
 8864SOL    HW227492   5.964   1.750   5.324
 8865SOL     OW27493   2.225   1.368   6.727
 8865SOL    HW127494   2.213   1.425   6.645
 8865SOL    HW227495   2.297   1.301   6.710
 8866SOL     OW27496   6.053   6.050   2.092
 8866SOL    HW127497   6.086   6.074   2.183
 8866SOL    HW227498   5.969   5.996   2.099
 8867SOL     OW27499   6.175   4.035   2.697
 8867SOL    HW127500   6.108   3.967   2.668
 8867SOL    HW227501   6.208   4.086   2.618
 8868SOL     OW27502   0.138   3.382   3.198
 8868SOL    HW127503   0.052   3.390   3.248
 8868SOL    HW227504   0.158   3.468   3.151
 8869SOL     OW27505   3.522   6.748   3.196
 8869SOL    HW127506   3.564   6.785   3.113
 8869SOL    HW227507   3.566   6.788   3.276
 8870SOL     OW27508   1.440   0.597   3.311
 8870SOL    HW127509   1.426   0.604   3.212
 8870SOL    HW227510   1.405   0.680   3.355
 8871SOL     OW27511   0.304   0.491   2.561
 8871SOL    HW127512   0.225   0.469   2.504
 8871SOL    HW227513   0.292   0.581   2.602
 8872SOL     OW27514   0.121   5.474   4.825
 8872SOL    HW127515   0.167   5.391   4.792
 8872SOL    HW227516   0.190   5.538   4.860
 8873SOL     OW27517   1.750   1.301   2.227
 8873SOL    HW127518   1.733   1.306   2.129
 8873SOL    HW227519   1.818   1.370   2.252
 8874SOL     OW27520   3.692   6.306   0.578
 8874SOL    HW127521   3.652   6.226   0.533
 8874SOL    HW227522   3.775   6.334   0.530
 8875SOL     OW27523   6.950   3.176   3.743
 8875SOL    HW127524   6.891   3.139   3.672
 8875SOL    HW227525   6.946   3.118   3.824
 8876SOL     OW27526   3.592   1.167   6.439
 8876SOL    HW127527   3.607   1.124   6.528
 8876SOL    HW227528   3.516   1.122   6.392
 8877SOL     OW27529   1.799   4.222   1.269
 8877SOL    HW127530   1.772   4.146   1.210
 8877SOL    HW227531   1.855   4.286   1.217
 8878SOL     OW27532   5.090   3.877   0.925
 8878SOL    HW127533   5.036   3.817   0.866
 8878SOL    HW227534   5.041   3.891   1.011
 8879SOL     OW27535   5.665   4.861   2.887
 8879SOL    HW127536   5.708   4.950   2.902
 8879SOL    HW227537   5.687   4.800   2.963
 8880SOL     OW27538   4.299   0.566   4.146
 8880SOL    HW127539   4.380   0.508   4.149
 8880SOL    HW227540   4.217   0.511   4.159
 8881SOL     OW27541   4.144   4.766   4.645
 8881SOL    HW127542   4.071   4.761   4.713
 8881SOL    HW227543   4.232   4.745   4.688
 8882SOL     OW27544   4.518   0.387   0.582
 8882SOL    HW127545   4.440   0.326   0.567
 8882SOL    HW227546   4.553   0.374   0.674
 8883SOL     OW27547   6.744   6.184   4.578
 8883SOL    HW127548   6.734   6.112   4.509
 8883SOL    HW227549   6.655   6.204   4.619
 8884SOL     OW27550   5.187   3.484   5.126
 8884SOL    HW127551   5.149   3.391   5.121
 8884SOL    HW227552   5.168   3.523   5.215
 8885SOL     OW27553   6.305   5.838   0.403
 8885SOL    HW127554   6.237   5.895   0.358
 8885SOL    HW227555   6.287   5.835   0.501
 8886SOL     OW27556   3.883   5.331   6.031
 8886SOL    HW127557   3.871   5.289   5.941
 8886SOL    HW227558   3.797   5.327   6.082
 8887SOL     OW27559   4.740   1.232   1.243
 8887SOL    HW127560   4.792   1.212   1.160
 8887SOL    HW227561   4.661   1.171   1.249
 8888SOL     OW27562   2.597   1.729   3.064
 8888SOL    HW127563   2.640   1.819   3.060
 8888SOL    HW227564   2.535   1.725   3.142
 8889SOL     OW27565   0.124   6.074   6.452
 8889SOL    HW127566   0.031   6.049   6.426
 8889SOL    HW227567   0.188   6.002   6.423
 8890SOL     OW27568   0.307   6.481   0.658
 8890SOL    HW127569   0.327   6.578   0.671
 8890SOL    HW227570   0.338   6.430   0.738
 8891SOL     OW27571   5.998   3.720   6.904
 8891SOL    HW127572   6.002   3.817   6.929
 8891SOL    HW227573   5.996   3.664   6.987
 8892SOL     OW27574   3.217   5.317   3.715
 8892SOL    HW127575   3.308   5.311   3.675
 8892SOL    HW227576   3.222   5.299   3.813
 8893SOL     OW27577   1.344   5.218   4.726
 8893SOL    HW127578   1.419   5.186   4.668
 8893SOL    HW227579   1.354   5.317   4.741
 8894SOL     OW27580   4.527   1.738   0.373
 8894SOL    HW127581   4.576   1.666   0.421
 8894SOL    HW227582   4.429   1.718   0.373
 8895SOL     OW27583   0.072   3.797   1.155
 8895SOL    HW127584   0.020   3.754   1.228
 8895SOL    HW227585   0.071   3.738   1.074
 8896SOL     OW27586   0.333   2.656   4.854
 8896SOL    HW127587   0.331   2.575   4.795
 8896SOL    HW227588   0.259   2.649   4.922
 8897SOL     OW27589   2.144   3.875   3.491
 8897SOL    HW127590   2.201   3.957   3.492
 8897SOL    HW227591   2.105   3.861   3.582
 8898SOL     OW27592   4.808   4.319   2.731
 8898SOL    HW127593   4.790   4.239   2.673
 8898SOL    HW227594   4.829   4.397   2.673
 8899SOL     OW27595   0.777   3.860   5.098
 8899SOL    HW127596   0.768   3.960   5.091
 8899SOL    HW227597   0.731   3.828   5.181
 8900SOL     OW27598   4.813   2.223   4.085
 8900SOL    HW127599   4.887   2.216   4.019
 8900SOL    HW227600   4.829   2.301   4.146
 8901SOL     OW27601   1.813   2.985   4.509
 8901SOL    HW127602   1.717   2.961   4.496
 8901SOL    HW227603   1.821   3.085   4.519
 8902SOL     OW27604   0.571   4.559   0.749
 8902SOL    HW127605   0.640   4.511   0.696
 8902SOL    HW227606   0.512   4.611   0.688
 8903SOL     OW27607   1.707   6.590   5.490
 8903SOL    HW127608   1.745   6.637   5.411
 8903SOL    HW227609   1.612   6.565   5.472
 8904SOL     OW27610   0.263   0.626   3.383
 8904SOL    HW127611   0.303   0.651   3.295
 8904SOL    HW227612   0.177   0.577   3.368
 8905SOL     OW27613   1.667   3.609   2.391
 8905SOL    HW127614   1.674   3.527   2.334
 8905SOL    HW227615   1.759   3.642   2.413
 8906SOL     OW27616   6.377   0.090   0.699
 8906SOL    HW127617   6.436   0.064   0.622
 8906SOL    HW227618   6.368   0.012   0.761
 8907SOL     OW27619   3.391   2.902   4.602
 8907SOL    HW127620   3.426   2.808   4.603
 8907SOL    HW227621   3.361   2.927   4.694
 8908SOL     OW27622   1.020   5.381   0.095
 8908SOL    HW127623   0.951   5.360   0.165
 8908SOL    HW227624   1.075   5.300   0.077
 8909SOL     OW27625   2.833   0.413   0.008
 8909SOL    HW127626   2.925   0.449   0.023
 8909SOL    HW227627   2.821   0.394   6.928
 8910SOL     OW27628   2.280   1.332   3.876
 8910SOL    HW127629   2.373   1.360   3.898
 8910SOL    HW227630   2.217   1.407   3.898
 8911SOL     OW27631   4.417   2.036   3.800
 8911SOL    HW127632   4.418   2.038   3.900
 8911SOL    HW227633   4.336   1.988   3.769
 8912SOL     OW27634   3.351   3.851   4.844
 8912SOL    HW127635   3.314   3.942   4.860
 8912SOL    HW227636   3.294   3.802   4.778
 8913SOL     OW27637   5.209   6.534   6.741
 8913SOL    HW127638   5.297   6.502   6.704
 8913SOL    HW227639   5.225   6.588   6.823
 8914SOL     OW27640   4.317   5.519   6.765
 8914SOL    HW127641   4.407   5.546   6.732
 8914SOL    HW227642   4.250   5.587   6.736
 8915SOL     OW27643   1.415   1.487   3.978
 8915SOL    HW127644   1.369   1.479   3.890
 8915SOL    HW227645   1.348   1.488   4.052
 8916SOL     OW27646   4.327   0.945   0.105
 8916SOL    HW127647   4.261   1.013   0.137
 8916SOL    HW227648   4.396   0.990   0.048
 8917SOL     OW27649   5.675   1.978   0.355
 8917SOL    HW127650   5.721   2.003   0.269
 8917SOL    HW227651   5.692   1.881   0.374
 8918SOL     OW27652   1.027   3.801   2.700
 8918SOL    HW127653   1.051   3.896   2.718
 8918SOL    HW227654   1.101   3.741   2.733
 8919SOL     OW27655   6.036   3.902   0.859
 8919SOL    HW127656   6.010   3.989   0.817
 8919SOL    HW227657   5.969   3.832   0.835
 8920SOL     OW27658   6.382   1.700   0.211
 8920SOL    HW127659   6.396   1.746   0.299
 8920SOL    HW227660   6.416   1.757   0.137
 8921SOL     OW27661   1.736   2.671   1.568
 8921SOL    HW127662   1.758   2.648   1.473
 8921SOL    HW227663   1.821   2.681   1.620
 8922SOL     OW27664   3.610   0.024   3.534
 8922SOL    HW127665   3.647   6.999   3.617
 8922SOL    HW227666   3.618   0.123   3.540
 8923SOL     OW27667   1.812   2.030   4.941
 8923SOL    HW127668   1.796   2.123   4.906
 8923SOL    HW227669   1.758   2.015   5.023
 8924SOL     OW27670   5.139   5.617   5.291
 8924SOL    HW127671   5.170   5.705   5.255
 8924SOL    HW227672   5.200   5.588   5.365
 8925SOL     OW27673   0.979   0.337   3.114
 8925SOL    HW127674   1.036   0.328   3.195
 8925SOL    HW227675   1.034   0.324   3.032
 8926SOL     OW27676   5.983   2.852   6.429
 8926SOL    HW127677   6.076   2.885   6.445
 8926SOL    HW227678   5.975   2.821   6.334
 8927SOL     OW27679   0.710   0.976   5.954
 8927SOL    HW127680   0.773   0.977   6.032
 8927SOL    HW227681   0.761   0.996   5.870
 8928SOL     OW27682   2.105   6.178   5.080
 8928SOL    HW127683   2.194   6.149   5.046
 8928SOL    HW227684   2.083   6.268   5.041
 8929SOL     OW27685   6.555   2.703   4.684
 8929SOL    HW127686   6.599   2.671   4.768
 8929SOL    HW227687   6.604   2.667   4.604
 8930SOL     OW27688   1.626   4.314   3.187
 8930SOL    HW127689   1.662   4.329   3.094
 8930SOL    HW227690   1.685   4.359   3.253
 8931SOL     OW27691   3.813   2.261   1.111
 8931SOL    HW127692   3.900   2.294   1.149
 8931SOL    HW227693   3.828   2.231   1.017
 8932SOL     OW27694   0.134   3.097   3.517
 8932SOL    HW127695   0.167   3.003   3.509
 8932SOL    HW227696   0.038   3.096   3.547
 8933SOL     OW27697   3.487   1.622   5.675
 8933SOL    HW127698   3.544   1.585   5.748
 8933SOL    HW227699   3.526   1.595   5.586
 8934SOL     OW27700   2.991   5.823   3.515
 8934SOL    HW127701   2.978   5.916   3.552
 8934SOL    HW227702   3.045   5.769   3.579
 8935SOL     OW27703   0.138   4.356   1.016
 8935SOL    HW127704   0.090   4.414   0.951
 8935SOL    HW227705   0.228   4.395   1.035
 8936SOL     OW27706   2.192   2.895   0.132
 8936SOL    HW127707   2.242   2.824   0.084
 8936SOL    HW227708   2.182   2.975   0.073
 8937SOL     OW27709   0.615   5.885   5.978
 8937SOL    HW127710   0.516   5.891   5.974
 8937SOL    HW227711   0.647   5.912   6.069
 8938SOL     OW27712   5.871   5.318   1.219
 8938SOL    HW127713   5.962   5.295   1.185
 8938SOL    HW227714   5.853   5.415   1.203
 8939SOL     OW27715   5.336   1.605   4.719
 8939SOL    HW127716   5.254   1.552   4.698
 8939SOL    HW227717   5.342   1.619   4.817
 8940SOL     OW27718   6.016   0.848   3.121
 8940SOL    HW127719   6.105   0.871   3.082
 8940SOL    HW227720   6.000   0.750   3.112
 8941SOL     OW27721   5.208   2.325   6.392
 8941SOL    HW127722   5.133   2.355   6.334
 8941SOL    HW227723   5.295   2.354   6.353
 8942SOL     OW27724   0.516   2.239   5.329
 8942SOL    HW127725   0.480   2.224   5.237
 8942SOL    HW227726   0.608   2.200   5.335
 8943SOL     OW27727   5.321   3.741   0.999
 8943SOL    HW127728   5.357   3.756   1.090
 8943SOL    HW227729   5.233   3.789   0.989
 8944SOL     OW27730   4.280   5.592   0.687
 8944SOL    HW127731   4.306   5.568   0.780
 8944SOL    HW227732   4.235   5.682   0.687
 8945SOL     OW27733   2.635   0.830   4.252
 8945SOL    HW127734   2.585   0.875   4.178
 8945SOL    HW227735   2.703   0.894   4.289
 8946SOL     OW27736   3.237   1.771   4.467
 8946SOL    HW127737   3.312   1.799   4.526
 8946SOL    HW227738   3.236   1.671   4.460
 8947SOL     OW27739   4.223   3.923   5.525
 8947SOL    HW127740   4.166   4.005   5.537
 8947SOL    HW227741   4.187   3.868   5.450
 8948SOL     OW27742   5.874   4.977   3.604
 8948SOL    HW127743   5.886   4.925   3.520
 8948SOL    HW227744   5.782   5.016   3.606
 8949SOL     OW27745   2.258   6.073   0.135
 8949SOL    HW127746   2.358   6.075   0.143
 8949SOL    HW227747   2.232   6.044   0.043
 8950SOL     OW27748   4.467   2.461   3.994
 8950SOL    HW127749   4.383   2.412   3.968
 8950SOL    HW227750   4.507   2.418   4.074
 8951SOL     OW27751   1.566   2.676   5.431
 8951SOL    HW127752   1.584   2.579   5.448
 8951SOL    HW227753   1.490   2.685   5.366
 8952SOL     OW27754   0.291   1.267   2.361
 8952SOL    HW127755   0.210   1.250   2.305
 8952SOL    HW227756   0.345   1.341   2.320
 8953SOL     OW27757   2.025   2.952   6.737
 8953SOL    HW127758   2.121   2.965   6.714
 8953SOL    HW227759   1.972   3.032   6.709
 8954SOL     OW27760   1.671   5.886   6.394
 8954SOL    HW127761   1.657   5.899   6.492
 8954SOL    HW227762   1.727   5.804   6.378
 8955SOL     OW27763   6.350   3.948   3.530
 8955SOL    HW127764   6.259   3.984   3.550
 8955SOL    HW227765   6.413   4.023   3.514
 8956SOL     OW27766   0.958   0.480   5.862
 8956SOL    HW127767   1.032   0.439   5.809
 8956SOL    HW227768   0.872   0.434   5.840
 8957SOL     OW27769   3.121   4.834   2.647
 8957SOL    HW127770   3.067   4.912   2.616
 8957SOL    HW227771   3.100   4.754   2.590
 8958SOL     OW27772   1.656   6.668   4.332
 8958SOL    HW127773   1.641   6.571   4.312
 8958SOL    HW227774   1.753   6.689   4.325
 8959SOL     OW27775   1.744   4.342   0.226
 8959SOL    HW127776   1.843   4.347   0.212
 8959SOL    HW227777   1.725   4.293   0.311
 8960SOL     OW27778   3.903   5.502   1.290
 8960SOL    HW127779   3.990   5.472   1.331
 8960SOL    HW227780   3.892   5.601   1.304
 8961SOL     OW27781   1.178   2.121   3.761
 8961SOL    HW127782   1.224   2.161   3.840
 8961SOL    HW227783   1.120   2.191   3.718
 8962SOL     OW27784   5.751   0.343   3.251
 8962SOL    HW127785   5.775   0.296   3.166
 8962SOL    HW227786   5.809   0.310   3.326
 8963SOL     OW27787   6.199   0.586   4.220
 8963SOL    HW127788   6.143   0.666   4.239
 8963SOL    HW227789   6.142   0.504   4.221
 8964SOL     OW27790   5.154   4.434   2.448
 8964SOL    HW127791   5.095   4.359   2.416
 8964SOL    HW227792   5.239   4.434   2.395
 8965SOL     OW27793   1.456   5.260   1.965
 8965SOL    HW127794   1.538   5.226   1.920
 8965SOL    HW227795   1.421   5.190   2.028
 8966SOL     OW27796   2.027   2.636   5.923
 8966SOL    HW127797   2.064   2.649   6.014
 8966SOL    HW227798   2.065   2.704   5.861
 8967SOL     OW27799   4.433   0.780   0.341
 8967SOL    HW127800   4.383   0.703   0.380
 8967SOL    HW227801   4.462   0.757   0.248
 8968SOL     OW27802   4.718   6.035   1.469
 8968SOL    HW127803   4.761   5.945   1.460
 8968SOL    HW227804   4.624   6.023   1.504
 8969SOL     OW27805   6.440   0.653   4.340
 8969SOL    HW127806   6.502   0.713   4.290
 8969SOL    HW227807   6.367   0.622   4.279
 8970SOL     OW27808   3.739   1.687   1.465
 8970SOL    HW127809   3.819   1.733   1.427
 8970SOL    HW227810   3.676   1.755   1.502
 8971SOL     OW27811   4.246   5.163   2.581
 8971SOL    HW127812   4.305   5.197   2.654
 8971SOL    HW227813   4.151   5.178   2.605
 8972SOL     OW27814   5.399   6.681   5.443
 8972SOL    HW127815   5.471   6.709   5.507
 8972SOL    HW227816   5.363   6.592   5.471
 8973SOL     OW27817   1.315   4.352   0.149
 8973SOL    HW127818   1.357   4.320   0.064
 8973SOL    HW227819   1.215   4.343   0.143
 8974SOL     OW27820   0.547   3.623   5.040
 8974SOL    HW127821   0.594   3.603   4.954
 8974SOL    HW227822   0.594   3.578   5.115
 8975SOL     OW27823   3.204   6.806   0.686
 8975SOL    HW127824   3.111   6.778   0.665
 8975SOL    HW227825   3.234   6.875   0.620
 8976SOL     OW27826   1.675   5.548   4.255
 8976SOL    HW127827   1.639   5.455   4.252
 8976SOL    HW227828   1.667   5.589   4.164
 8977SOL     OW27829   6.318   1.569   5.923
 8977SOL    HW127830   6.241   1.627   5.896
 8977SOL    HW227831   6.316   1.555   6.022
 8978SOL     OW27832   5.556   6.944   0.542
 8978SOL    HW127833   5.571   6.957   0.444
 8978SOL    HW227834   5.512   0.008   0.580
 8979SOL     OW27835   1.921   4.047   4.961
 8979SOL    HW127836   1.934   4.028   5.059
 8979SOL    HW227837   1.859   3.979   4.922
 8980SOL     OW27838   3.833   2.951   4.629
 8980SOL    HW127839   3.773   2.939   4.708
 8980SOL    HW227840   3.787   2.917   4.547
 8981SOL     OW27841   3.626   1.369   5.116
 8981SOL    HW127842   3.717   1.395   5.151
 8981SOL    HW227843   3.566   1.448   5.116
 8982SOL     OW27844   2.996   4.511   0.647
 8982SOL    HW127845   2.967   4.588   0.704
 8982SOL    HW227846   3.027   4.436   0.705
 8983SOL     OW27847   4.349   5.451   0.464
 8983SOL    HW127848   4.391   5.523   0.410
 8983SOL    HW227849   4.318   5.488   0.551
 8984SOL     OW27850   2.086   6.061   3.154
 8984SOL    HW127851   2.183   6.063   3.129
 8984SOL    HW227852   2.056   6.154   3.176
 8985SOL     OW27853   4.209   2.830   6.728
 8985SOL    HW127854   4.241   2.823   6.633
 8985SOL    HW227855   4.256   2.763   6.785
 8986SOL     OW27856   3.988   4.782   3.001
 8986SOL    HW127857   3.899   4.807   2.962
 8986SOL    HW227858   3.974   4.717   3.076
 8987SOL     OW27859   5.648   5.887   2.195
 8987SOL    HW127860   5.577   5.818   2.205
 8987SOL    HW227861   5.652   5.944   2.277
 8988SOL     OW27862   0.513   5.501   4.264
 8988SOL    HW127863   0.559   5.414   4.281
 8988SOL    HW227864   0.423   5.484   4.223
 8989SOL     OW27865   4.318   2.843   6.464
 8989SOL    HW127866   4.334   2.937   6.433
 8989SOL    HW227867   4.402   2.790   6.453
 8990SOL     OW27868   0.079   5.107   3.477
 8990SOL    HW127869   0.011   5.161   3.427
 8990SOL    HW227870   0.171   5.128   3.442
 8991SOL     OW27871   1.355   2.453   5.249
 8991SOL    HW127872   1.273   2.439   5.193
 8991SOL    HW227873   1.330   2.445   5.346
 8992SOL     OW27874   6.282   2.041   6.728
 8992SOL    HW127875   6.381   2.039   6.741
 8992SOL    HW227876   6.238   2.071   6.813
 8993SOL     OW27877   4.421   2.475   6.475
 8993SOL    HW127878   4.466   2.560   6.502
 8993SOL    HW227879   4.404   2.476   6.377
 8994SOL     OW27880   1.951   4.468   4.341
 8994SOL    HW127881   1.986   4.535   4.406
 8994SOL    HW227882   2.018   4.452   4.269
 8995SOL     OW27883   0.033   1.682   1.713
 8995SOL    HW127884   6.962   1.646   1.745
 8995SOL    HW227885   0.103   1.667   1.782
 8996SOL     OW27886   5.497   4.064   6.207
 8996SOL    HW127887   5.575   4.066   6.271
 8996SOL    HW227888   5.507   4.137   6.140
 8997SOL     OW27889   5.482   1.167   4.861
 8997SOL    HW127890   5.527   1.223   4.791
 8997SOL    HW227891   5.552   1.120   4.917
 8998SOL     OW27892   6.024   4.356   4.744
 8998SOL    HW127893   6.009   4.400   4.655
 8998SOL    HW227894   5.993   4.261   4.739
 8999SOL     OW27895   4.986   6.729   6.143
 8999SOL    HW127896   4.980   6.768   6.234
 8999SOL    HW227897   4.923   6.776   6.081
 9000SOL     OW27898   2.161   4.546   1.525
 9000SOL    HW127899   2.164   4.447   1.514
 9000SOL    HW227900   2.073   4.572   1.565
 9001SOL     OW27901   0.141   5.080   2.040
 9001SOL    HW127902   0.077   5.003   2.038
 9001SOL    HW227903   0.121   5.142   1.964
 9002SOL     OW27904   1.222   4.124   6.027
 9002SOL    HW127905   1.158   4.133   5.950
 9002SOL    HW227906   1.176   4.150   6.112
 9003SOL     OW27907   5.734   1.656   1.261
 9003SOL    HW127908   5.753   1.733   1.321
 9003SOL    HW227909   5.720   1.688   1.167
 9004SOL     OW27910   4.063   4.796   0.495
 9004SOL    HW127911   4.059   4.893   0.469
 9004SOL    HW227912   3.970   4.760   0.502
 9005SOL     OW27913   5.289   1.062   5.735
 9005SOL    HW127914   5.307   0.963   5.727
 9005SOL    HW227915   5.193   1.076   5.760
 9006SOL     OW27916   3.992   0.089   0.826
 9006SOL    HW127917   3.915   0.139   0.786
 9006SOL    HW227918   4.063   0.154   0.853
 9007SOL     OW27919   2.499   1.562   2.831
 9007SOL    HW127920   2.594   1.535   2.814
 9007SOL    HW227921   2.487   1.584   2.928
 9008SOL     OW27922   0.315   5.731   2.781
 9008SOL    HW127923   0.303   5.781   2.695
 9008SOL    HW227924   0.401   5.758   2.824
 9009SOL     OW27925   3.921   5.597   0.643
 9009SOL    HW127926   3.989   5.615   0.572
 9009SOL    HW227927   3.931   5.502   0.674
 9010SOL     OW27928   1.587   6.915   3.920
 9010SOL    HW127929   1.642   6.982   3.970
 9010SOL    HW227930   1.533   6.861   3.985
 9011SOL     OW27931   4.432   0.599   3.008
 9011SOL    HW127932   4.396   0.628   2.919
 9011SOL    HW227933   4.369   0.534   3.051
 9012SOL     OW27934   2.345   5.652   0.330
 9012SOL    HW127935   2.418   5.641   0.397
 9012SOL    HW227936   2.268   5.700   0.372
 9013SOL     OW27937   1.655   6.407   4.276
 9013SOL    HW127938   1.678   6.310   4.270
 9013SOL    HW227939   1.591   6.421   4.352
 9014SOL     OW27940   6.086   2.332   2.187
 9014SOL    HW127941   6.007   2.390   2.207
 9014SOL    HW227942   6.142   2.376   2.117
 9015SOL     OW27943   5.535   2.227   0.439
 9015SOL    HW127944   5.562   2.319   0.412
 9015SOL    HW227945   5.616   2.169   0.448
 9016SOL     OW27946   5.816   5.399   5.942
 9016SOL    HW127947   5.862   5.456   5.874
 9016SOL    HW227948   5.738   5.448   5.980
 9017SOL     OW27949   3.346   0.753   5.311
 9017SOL    HW127950   3.398   0.714   5.235
 9017SOL    HW227951   3.291   0.681   5.353
 9018SOL     OW27952   4.094   3.018   6.540
 9018SOL    HW127953   4.167   3.052   6.480
 9018SOL    HW227954   4.132   2.954   6.606
 9019SOL     OW27955   0.911   2.669   3.006
 9019SOL    HW127956   0.909   2.643   3.103
 9019SOL    HW227957   0.863   2.756   2.994
 9020SOL     OW27958   6.408   5.795   1.796
 9020SOL    HW127959   6.358   5.839   1.870
 9020SOL    HW227960   6.492   5.754   1.833
 9021SOL     OW27961   0.053   0.565   4.137
 9021SOL    HW127962   0.099   0.654   4.142
 9021SOL    HW227963   0.119   0.494   4.112
 9022SOL     OW27964   4.090   2.461   6.755
 9022SOL    HW127965   4.018   2.498   6.696
 9022SOL    HW227966   4.053   2.442   6.845
 9023SOL     OW27967   4.540   3.246   1.289
 9023SOL    HW127968   4.495   3.159   1.310
 9023SOL    HW227969   4.472   3.320   1.290
 9024SOL     OW27970   1.488   5.153   6.178
 9024SOL    HW127971   1.469   5.227   6.113
 9024SOL    HW227972   1.523   5.073   6.129
 9025SOL     OW27973   0.378   5.645   0.905
 9025SOL    HW127974   0.315   5.599   0.842
 9025SOL    HW227975   0.325   5.689   0.978
 9026SOL     OW27976   3.878   1.835   0.214
 9026SOL    HW127977   3.845   1.912   0.160
 9026SOL    HW227978   3.976   1.846   0.231
 9027SOL     OW27979   0.713   3.626   3.838
 9027SOL    HW127980   0.643   3.617   3.769
 9027SOL    HW227981   0.723   3.540   3.888
 9028SOL     OW27982   3.594   3.861   5.484
 9028SOL    HW127983   3.689   3.892   5.485
 9028SOL    HW227984   3.563   3.848   5.390
 9029SOL     OW27985   4.121   0.132   4.746
 9029SOL    HW127986   4.176   0.094   4.672
 9029SOL    HW227987   4.178   0.188   4.805
 9030SOL     OW27988   2.712   2.458   3.677
 9030SOL    HW127989   2.740   2.549   3.648
 9030SOL    HW227990   2.776   2.423   3.745
 9031SOL     OW27991   4.676   0.297   4.534
 9031SOL    HW127992   4.592   0.336   4.573
 9031SOL    HW227993   4.652   0.236   4.459
 9032SOL     OW27994   4.633   3.545   1.686
 9032SOL    HW127995   4.662   3.499   1.602
 9032SOL    HW227996   4.689   3.512   1.762
 9033SOL     OW27997   1.205   5.488   2.922
 9033SOL    HW127998   1.304   5.492   2.908
 9033SOL    HW227999   1.186   5.478   3.019
 9034SOL     OW28000   3.187   6.297   4.706
 9034SOL    HW128001   3.115   6.254   4.651
 9034SOL    HW228002   3.266   6.317   4.648
 9035SOL     OW28003   1.604   4.843   0.504
 9035SOL    HW128004   1.618   4.885   0.414
 9035SOL    HW228005   1.687   4.794   0.531
 9036SOL     OW28006   1.531   3.741   5.676
 9036SOL    HW128007   1.522   3.811   5.747
 9036SOL    HW228008   1.521   3.650   5.717
 9037SOL     OW28009   0.689   2.318   3.170
 9037SOL    HW128010   0.784   2.316   3.200
 9037SOL    HW228011   0.630   2.284   3.243
 9038SOL     OW28012   4.627   3.380   6.335
 9038SOL    HW128013   4.643   3.463   6.388
 9038SOL    HW228014   4.573   3.401   6.254
 9039SOL     OW28015   2.872   5.139   6.953
 9039SOL    HW128016   2.896   5.229   6.988
 9039SOL    HW228017   2.911   5.128   6.862
 9040SOL     OW28018   1.933   1.923   1.250
 9040SOL    HW128019   1.894   1.939   1.160
 9040SOL    HW228020   1.868   1.872   1.306
 9041SOL     OW28021   0.154   2.401   0.898
 9041SOL    HW128022   0.065   2.403   0.852
 9041SOL    HW228023   0.215   2.468   0.855
 9042SOL     OW28024   3.674   5.732   6.163
 9042SOL    HW128025   3.623   5.667   6.220
 9042SOL    HW228026   3.612   5.774   6.097
 9043SOL     OW28027   3.013   1.221   0.236
 9043SOL    HW128028   2.939   1.155   0.252
 9043SOL    HW228029   3.048   1.209   0.143
 9044SOL     OW28030   0.890   0.411   6.465
 9044SOL    HW128031   0.847   0.326   6.435
 9044SOL    HW228032   0.857   0.487   6.408
 9045SOL     OW28033   4.240   0.620   2.785
 9045SOL    HW128034   4.273   0.547   2.726
 9045SOL    HW228035   4.170   0.584   2.847
 9046SOL     OW28036   3.188   3.849   2.803
 9046SOL    HW128037   3.238   3.846   2.717
 9046SOL    HW228038   3.099   3.804   2.792
 9047SOL     OW28039   1.478   4.215   5.941
 9047SOL    HW128040   1.553   4.176   5.994
 9047SOL    HW228041   1.393   4.165   5.961
 9048SOL     OW28042   6.322   2.368   5.913
 9048SOL    HW128043   6.226   2.350   5.935
 9048SOL    HW228044   6.358   2.291   5.861
 9049SOL     OW28045   3.129   6.552   6.433
 9049SOL    HW128046   3.076   6.637   6.432
 9049SOL    HW228047   3.081   6.483   6.377
 9050SOL     OW28048   0.344   4.194   1.300
 9050SOL    HW128049   0.247   4.195   1.324
 9050SOL    HW228050   0.389   4.275   1.338
 9051SOL     OW28051   2.592   1.862   1.217
 9051SOL    HW128052   2.678   1.903   1.185
 9051SOL    HW228053   2.530   1.934   1.248
 9052SOL     OW28054   1.725   3.127   4.979
 9052SOL    HW128055   1.630   3.111   5.007
 9052SOL    HW228056   1.769   3.188   5.045
 9053SOL     OW28057   1.807   1.634   1.105
 9053SOL    HW128058   1.790   1.675   1.015
 9053SOL    HW228059   1.903   1.649   1.131
 9054SOL     OW28060   2.777   5.644   3.453
 9054SOL    HW128061   2.844   5.716   3.439
 9054SOL    HW228062   2.775   5.584   3.373
 9055SOL     OW28063   0.441   4.093   4.659
 9055SOL    HW128064   0.368   4.136   4.712
 9055SOL    HW228065   0.464   4.152   4.580
 9056SOL     OW28066   6.619   1.902   2.787
 9056SOL    HW128067   6.625   2.001   2.801
 9056SOL    HW228068   6.628   1.856   2.876
 9057SOL     OW28069   4.445   1.169   4.327
 9057SOL    HW128070   4.482   1.090   4.375
 9057SOL    HW228071   4.353   1.148   4.293
 9058SOL     OW28072   1.499   0.862   6.562
 9058SOL    HW128073   1.451   0.811   6.634
 9058SOL    HW228074   1.446   0.859   6.478
 9059SOL     OW28075   1.360   1.856   2.481
 9059SOL    HW128076   1.331   1.935   2.427
 9059SOL    HW228077   1.396   1.887   2.569
 9060SOL     OW28078   5.293   3.111   4.840
 9060SOL    HW128079   5.211   3.054   4.835
 9060SOL    HW228080   5.374   3.055   4.825
 9061SOL     OW28081   5.174   5.502   2.446
 9061SOL    HW128082   5.175   5.585   2.502
 9061SOL    HW228083   5.105   5.511   2.374
 9062SOL     OW28084   1.431   4.835   1.159
 9062SOL    HW128085   1.387   4.885   1.233
 9062SOL    HW228086   1.528   4.860   1.154
 9063SOL     OW28087   3.375   2.099   2.665
 9063SOL    HW128088   3.314   2.100   2.586
 9063SOL    HW228089   3.329   2.053   2.742
 9064SOL     OW28090   6.761   3.083   6.637
 9064SOL    HW128091   6.678   3.139   6.649
 9064SOL    HW228092   6.819   3.093   6.717
 9065SOL     OW28093   2.355   0.920   0.576
 9065SOL    HW128094   2.291   0.851   0.609
 9065SOL    HW228095   2.317   1.011   0.594
 9066SOL     OW28096   4.630   6.705   7.010
 9066SOL    HW128097   4.697   6.686   0.065
 9066SOL    HW228098   4.631   6.803   6.988
 9067SOL     OW28099   1.566   6.974   3.367
 9067SOL    HW128100   1.585   6.940   3.274
 9067SOL    HW228101   1.491   0.023   3.363
 9068SOL     OW28102   1.480   5.215   6.794
 9068SOL    HW128103   1.471   5.228   6.696
 9068SOL    HW228104   1.574   5.189   6.817
 9069SOL     OW28105   1.629   2.691   6.164
 9069SOL    HW128106   1.572   2.769   6.189
 9069SOL    HW228107   1.653   2.696   6.067
 9070SOL     OW28108   1.007   4.790   4.373
 9070SOL    HW128109   0.980   4.871   4.425
 9070SOL    HW228110   1.010   4.813   4.275
 9071SOL     OW28111   6.285   6.894   0.002
 9071SOL    HW128112   6.355   6.825   0.015
 9071SOL    HW228113   6.254   6.892   6.923
 9072SOL     OW28114   6.162   3.906   6.575
 9072SOL    HW128115   6.217   3.852   6.638
 9072SOL    HW228116   6.072   3.863   6.563
 9073SOL     OW28117   1.940   0.601   1.866
 9073SOL    HW128118   1.877   0.603   1.788
 9073SOL    HW228119   1.888   0.607   1.951
 9074SOL     OW28120   1.461   0.072   2.851
 9074SOL    HW128121   1.416   0.141   2.908
 9074SOL    HW228122   1.453   0.099   2.755
 9075SOL     OW28123   6.743   0.972   2.262
 9075SOL    HW128124   6.841   0.973   2.282
 9075SOL    HW228125   6.691   0.962   2.347
 9076SOL     OW28126   6.555   0.992   5.816
 9076SOL    HW128127   6.508   0.904   5.809
 9076SOL    HW228128   6.577   1.011   5.912
 9077SOL     OW28129   6.034   6.373   2.326
 9077SOL    HW128130   6.106   6.380   2.257
 9077SOL    HW228131   5.953   6.425   2.296
 9078SOL     OW28132   3.840   2.923   5.283
 9078SOL    HW128133   3.885   2.947   5.198
 9078SOL    HW228134   3.741   2.926   5.270
 9079SOL     OW28135   3.192   0.036   6.044
 9079SOL    HW128136   3.277   0.045   6.097
 9079SOL    HW228137   3.155   6.961   6.056
 9080SOL     OW28138   5.276   1.952   0.880
 9080SOL    HW128139   5.273   1.877   0.815
 9080SOL    HW228140   5.361   1.948   0.933
 9081SOL     OW28141   5.689   6.054   1.996
 9081SOL    HW128142   5.683   5.981   2.065
 9081SOL    HW228143   5.605   6.058   1.944
 9082SOL     OW28144   3.098   1.400   3.653
 9082SOL    HW128145   3.028   1.335   3.625
 9082SOL    HW228146   3.152   1.360   3.727
 9083SOL     OW28147   4.767   4.925   4.590
 9083SOL    HW128148   4.863   4.937   4.612
 9083SOL    HW228149   4.747   4.827   4.580
 9084SOL     OW28150   2.929   3.685   3.055
 9084SOL    HW128151   2.939   3.588   3.075
 9084SOL    HW228152   2.961   3.739   3.133
 9085SOL     OW28153   1.603   2.006   0.675
 9085SOL    HW128154   1.677   2.066   0.643
 9085SOL    HW228155   1.538   2.059   0.729
 9086SOL     OW28156   0.425   4.420   0.958
 9086SOL    HW128157   0.471   4.461   0.879
 9086SOL    HW228158   0.486   4.353   1.001
 9087SOL     OW28159   4.951   3.606   2.028
 9087SOL    HW128160   4.927   3.558   2.112
 9087SOL    HW228161   4.989   3.696   2.051
 9088SOL     OW28162   4.951   0.485   0.113
 9088SOL    HW128163   4.902   0.478   0.200
 9088SOL    HW228164   5.037   0.434   0.118
 9089SOL     OW28165   4.492   6.980   5.270
 9089SOL    HW128166   4.500   7.015   5.177
 9089SOL    HW228167   4.574   6.927   5.293
 9090SOL     OW28168   5.856   1.465   4.908
 9090SOL    HW128169   5.904   1.552   4.892
 9090SOL    HW228170   5.918   1.389   4.886
 9091SOL     OW28171   3.056   3.594   0.111
 9091SOL    HW128172   3.081   3.526   0.180
 9091SOL    HW228173   2.972   3.640   0.138
 9092SOL     OW28174   0.188   2.157   0.135
 9092SOL    HW128175   0.172   2.204   0.048
 9092SOL    HW228176   0.101   2.144   0.182
 9093SOL     OW28177   1.436   6.153   5.970
 9093SOL    HW128178   1.515   6.125   6.023
 9093SOL    HW228179   1.442   6.251   5.950
 9094SOL     OW28180   0.509   4.026   1.939
 9094SOL    HW128181   0.597   3.983   1.919
 9094SOL    HW228182   0.457   4.037   1.855
 9095SOL     OW28183   5.938   6.280   4.893
 9095SOL    HW128184   5.871   6.210   4.917
 9095SOL    HW228185   6.015   6.275   4.957
 9096SOL     OW28186   6.137   5.910   2.919
 9096SOL    HW128187   6.186   5.948   2.998
 9096SOL    HW228188   6.196   5.842   2.874
 9097SOL     OW28189   1.088   2.993   6.179
 9097SOL    HW128190   0.998   2.965   6.146
 9097SOL    HW228191   1.078   3.038   6.268
 9098SOL     OW28192   1.634   3.816   4.128
 9098SOL    HW128193   1.688   3.824   4.212
 9098SOL    HW228194   1.541   3.789   4.151
 9099SOL     OW28195   2.629   2.773   6.965
 9099SOL    HW128196   2.679   2.798   0.031
 9099SOL    HW228197   2.695   2.753   6.892
 9100SOL     OW28198   0.763   4.968   3.230
 9100SOL    HW128199   0.835   4.905   3.258
 9100SOL    HW228200   0.803   5.044   3.179
 9101SOL     OW28201   1.130   2.714   1.943
 9101SOL    HW128202   1.181   2.685   1.862
 9101SOL    HW228203   1.122   2.638   2.007
 9102SOL     OW28204   4.126   6.344   3.371
 9102SOL    HW128205   4.031   6.313   3.378
 9102SOL    HW228206   4.186   6.277   3.414
 9103SOL     OW28207   6.153   1.383   0.868
 9103SOL    HW128208   6.117   1.314   0.804
 9103SOL    HW228209   6.079   1.443   0.896
 9104SOL     OW28210   6.119   0.827   6.553
 9104SOL    HW128211   6.142   0.904   6.495
 9104SOL    HW228212   6.116   0.857   6.649
 9105SOL     OW28213   2.224   0.197   6.042
 9105SOL    HW128214   2.191   0.247   6.122
 9105SOL    HW228215   2.284   0.256   5.988
 9106SOL     OW28216   1.936   4.381   1.095
 9106SOL    HW128217   2.009   4.442   1.065
 9106SOL    HW228218   1.847   4.423   1.075
 9107SOL     OW28219   2.432   1.167   0.030
 9107SOL    HW128220   2.378   1.176   0.114
 9107SOL    HW228221   2.391   1.098   6.988
 9108SOL     OW28222   5.750   5.180   6.191
 9108SOL    HW128223   5.759   5.098   6.135
 9108SOL    HW228224   5.828   5.188   6.253
 9109SOL     OW28225   5.135   3.230   2.546
 9109SOL    HW128226   5.164   3.317   2.508
 9109SOL    HW228227   5.168   3.221   2.640
 9110SOL     OW28228   1.389   6.028   5.183
 9110SOL    HW128229   1.379   6.117   5.138
 9110SOL    HW228230   1.478   6.024   5.229
 9111SOL     OW28231   4.079   2.927   5.783
 9111SOL    HW128232   4.028   2.853   5.826
 9111SOL    HW228233   4.166   2.940   5.831
 9112SOL     OW28234   0.882   5.288   2.092
 9112SOL    HW128235   0.863   5.385   2.078
 9112SOL    HW228236   0.947   5.256   2.024
 9113SOL     OW28237   5.642   1.561   3.758
 9113SOL    HW128238   5.663   1.641   3.813
 9113SOL    HW228239   5.696   1.483   3.790
 9114SOL     OW28240   1.655   5.989   5.260
 9114SOL    HW128241   1.657   6.078   5.305
 9114SOL    HW228242   1.740   5.976   5.209
 9115SOL     OW28243   5.182   4.285   4.326
 9115SOL    HW128244   5.272   4.297   4.367
 9115SOL    HW228245   5.177   4.195   4.282
 9116SOL     OW28246   1.242   6.911   3.124
 9116SOL    HW128247   1.166   6.873   3.176
 9116SOL    HW228248   1.246   6.866   3.034
 9117SOL     OW28249   3.285   0.470   0.426
 9117SOL    HW128250   3.249   0.529   0.499
 9117SOL    HW228251   3.382   0.489   0.413
 9118SOL     OW28252   6.217   4.616   1.429
 9118SOL    HW128253   6.219   4.567   1.342
 9118SOL    HW228254   6.189   4.554   1.503
 9119SOL     OW28255   3.599   0.429   0.886
 9119SOL    HW128256   3.551   0.509   0.923
 9119SOL    HW228257   3.654   0.387   0.958
 9120SOL     OW28258   5.867   3.284   5.281
 9120SOL    HW128259   5.836   3.259   5.190
 9120SOL    HW228260   5.926   3.364   5.276
 9121SOL     OW28261   3.000   0.593   5.013
 9121SOL    HW128262   2.997   0.502   4.974
 9121SOL    HW228263   3.046   0.656   4.951
 9122SOL     OW28264   1.918   3.708   2.238
 9122SOL    HW128265   1.976   3.712   2.156
 9122SOL    HW228266   1.861   3.626   2.234
 9123SOL     OW28267   0.501   0.019   3.785
 9123SOL    HW128268   0.470   6.999   3.698
 9123SOL    HW228269   0.497   6.963   3.855
 9124SOL     OW28270   2.792   5.574   1.446
 9124SOL    HW128271   2.841   5.609   1.526
 9124SOL    HW228272   2.812   5.631   1.367
 9125SOL     OW28273   4.379   5.990   0.958
 9125SOL    HW128274   4.304   6.050   0.931
 9125SOL    HW228275   4.445   5.982   0.883
 9126SOL     OW28276   3.957   4.418   0.218
 9126SOL    HW128277   3.939   4.444   0.313
 9126SOL    HW228278   4.056   4.409   0.205
 9127SOL     OW28279   6.868   4.633   4.642
 9127SOL    HW128280   6.789   4.652   4.701
 9127SOL    HW228281   6.886   4.712   4.584
 9128SOL     OW28282   5.635   3.553   5.981
 9128SOL    HW128283   5.563   3.590   5.922
 9128SOL    HW228284   5.688   3.628   6.021
 9129SOL     OW28285   1.517   2.601   1.009
 9129SOL    HW128286   1.538   2.536   0.936
 9129SOL    HW228287   1.437   2.569   1.060
 9130SOL     OW28288   3.022   3.849   4.935
 9130SOL    HW128289   3.033   3.903   4.852
 9130SOL    HW228290   3.071   3.894   5.010
 9131SOL     OW28291   4.970   2.513   0.897
 9131SOL    HW128292   4.919   2.432   0.923
 9131SOL    HW228293   4.910   2.593   0.899
 9132SOL     OW28294   6.571   4.445   3.482
 9132SOL    HW128295   6.647   4.507   3.460
 9132SOL    HW228296   6.484   4.495   3.475
 9133SOL     OW28297   4.503   1.147   0.991
 9133SOL    HW128298   4.591   1.130   1.036
 9133SOL    HW228299   4.516   1.214   0.918
 9134SOL     OW28300   4.412   4.740   0.193
 9134SOL    HW128301   4.470   4.686   0.254
 9134SOL    HW228302   4.465   4.769   0.113
 9135SOL     OW28303   6.477   6.640   2.451
 9135SOL    HW128304   6.441   6.672   2.539
 9135SOL    HW228305   6.428   6.557   2.423
 9136SOL     OW28306   6.604   4.425   6.939
 9136SOL    HW128307   6.527   4.418   6.876
 9136SOL    HW228308   6.594   4.357   7.012
 9137SOL     OW28309   5.254   6.291   6.390
 9137SOL    HW128310   5.229   6.219   6.326
 9137SOL    HW228311   5.172   6.321   6.440
 9138SOL     OW28312   3.210   3.210   0.729
 9138SOL    HW128313   3.291   3.182   0.782
 9138SOL    HW228314   3.153   3.130   0.711
 9139SOL     OW28315   6.366   0.354   0.772
 9139SOL    HW128316   6.366   0.262   0.733
 9139SOL    HW228317   6.285   0.367   0.829
 9140SOL     OW28318   1.358   4.082   3.155
 9140SOL    HW128319   1.318   4.041   3.074
 9140SOL    HW228320   1.323   4.036   3.237
 9141SOL     OW28321   6.768   5.963   5.175
 9141SOL    HW128322   6.822   6.047   5.168
 9141SOL    HW228323   6.723   5.959   5.264
 9142SOL     OW28324   1.608   4.382   4.834
 9142SOL    HW128325   1.643   4.472   4.807
 9142SOL    HW228326   1.673   4.311   4.807
 9143SOL     OW28327   6.876   4.311   3.002
 9143SOL    HW128328   6.780   4.297   2.975
 9143SOL    HW228329   6.919   4.222   3.020
 9144SOL     OW28330   2.597   4.656   5.185
 9144SOL    HW128331   2.682   4.664   5.133
 9144SOL    HW228332   2.533   4.599   5.135
 9145SOL     OW28333   1.375   5.897   5.914
 9145SOL    HW128334   1.447   5.868   5.850
 9145SOL    HW228335   1.386   5.994   5.935
 9146SOL     OW28336   5.638   2.893   3.409
 9146SOL    HW128337   5.617   2.924   3.316
 9146SOL    HW228338   5.561   2.917   3.469
 9147SOL     OW28339   4.152   6.675   5.054
 9147SOL    HW128340   4.244   6.686   5.019
 9147SOL    HW228341   4.155   6.671   5.154
 9148SOL     OW28342   5.686   6.064   1.591
 9148SOL    HW128343   5.588   6.053   1.573
 9148SOL    HW228344   5.729   5.974   1.597
 9149SOL     OW28345   0.211   3.618   1.431
 9149SOL    HW128346   0.284   3.593   1.494
 9149SOL    HW228347   0.247   3.681   1.361
 9150SOL     OW28348   2.074   3.305   0.707
 9150SOL    HW128349   2.032   3.380   0.758
 9150SOL    HW228350   2.024   3.289   0.622
 9151SOL     OW28351   1.631   3.370   3.839
 9151SOL    HW128352   1.682   3.335   3.917
 9151SOL    HW228353   1.686   3.438   3.790
 9152SOL     OW28354   1.517   4.145   2.300
 9152SOL    HW128355   1.452   4.166   2.373
 9152SOL    HW228356   1.503   4.051   2.268
 9153SOL     OW28357   0.773   3.695   6.016
 9153SOL    HW128358   0.837   3.767   6.043
 9153SOL    HW228359   0.680   3.722   6.040
 9154SOL     OW28360   5.187   4.999   2.905
 9154SOL    HW128361   5.117   4.933   2.879
 9154SOL    HW228362   5.191   5.072   2.837
 9155SOL     OW28363   1.585   6.754   2.915
 9155SOL    HW128364   1.644   6.703   2.852
 9155SOL    HW228365   1.494   6.764   2.873
 9156SOL     OW28366   6.616   3.869   6.031
 9156SOL    HW128367   6.613   3.779   6.074
 9156SOL    HW228368   6.539   3.879   5.968
 9157SOL     OW28369   1.631   4.004   6.624
 9157SOL    HW128370   1.596   4.088   6.583
 9157SOL    HW228371   1.579   3.926   6.590
 9158SOL     OW28372   6.718   3.837   4.621
 9158SOL    HW128373   6.672   3.922   4.595
 9158SOL    HW228374   6.704   3.820   4.719
 9159SOL     OW28375   2.896   1.479   4.304
 9159SOL    HW128376   2.902   1.545   4.229
 9159SOL    HW228377   2.802   1.478   4.340
 9160SOL     OW28378   0.779   4.438   1.864
 9160SOL    HW128379   0.736   4.377   1.931
 9160SOL    HW228380   0.869   4.402   1.839
 9161SOL     OW28381   6.693   4.144   2.182
 9161SOL    HW128382   6.657   4.237   2.188
 9161SOL    HW228383   6.618   4.082   2.159
 9162SOL     OW28384   4.526   1.815   1.359
 9162SOL    HW128385   4.493   1.726   1.388
 9162SOL    HW228386   4.617   1.806   1.319
 9163SOL     OW28387   2.069   2.358   3.304
 9163SOL    HW128388   1.976   2.395   3.316
 9163SOL    HW228389   2.106   2.330   3.393
 9164SOL     OW28390   2.784   6.408   0.237
 9164SOL    HW128391   2.855   6.410   0.308
 9164SOL    HW228392   2.716   6.479   0.256
 9165SOL     OW28393   5.751   1.878   6.197
 9165SOL    HW128394   5.667   1.889   6.143
 9165SOL    HW228395   5.820   1.943   6.165
 9166SOL     OW28396   5.199   6.442   1.369
 9166SOL    HW128397   5.174   6.345   1.372
 9166SOL    HW228398   5.147   6.488   1.296
 9167SOL     OW28399   1.863   1.197   4.847
 9167SOL    HW128400   1.863   1.294   4.820
 9167SOL    HW228401   1.927   1.184   4.923
 9168SOL     OW28402   6.736   5.995   4.375
 9168SOL    HW128403   6.682   5.989   4.291
 9168SOL    HW228404   6.820   5.942   4.364
 9169SOL     OW28405   6.884   6.195   1.534
 9169SOL    HW128406   6.852   6.121   1.593
 9169SOL    HW228407   6.812   6.263   1.523
 9170SOL     OW28408   1.368   0.895   6.217
 9170SOL    HW128409   1.333   0.816   6.166
 9170SOL    HW228410   1.464   0.910   6.194
 9171SOL     OW28411   3.107   5.267   6.362
 9171SOL    HW128412   3.194   5.219   6.371
 9171SOL    HW228413   3.085   5.313   6.448
 9172SOL     OW28414   4.823   1.895   4.366
 9172SOL    HW128415   4.890   1.953   4.319
 9172SOL    HW228416   4.814   1.808   4.317
 9173SOL     OW28417   5.665   3.649   5.095
 9173SOL    HW128418   5.567   3.669   5.101
 9173SOL    HW228419   5.702   3.687   5.010
 9174SOL     OW28420   6.856   4.869   1.037
 9174SOL    HW128421   6.805   4.789   1.067
 9174SOL    HW228422   6.898   4.850   0.948
 9175SOL     OW28423   2.143   0.028   0.287
 9175SOL    HW128424   2.081   7.008   0.356
 9175SOL    HW228425   2.174   0.119   0.315
 9176SOL     OW28426   1.603   1.699   2.122
 9176SOL    HW128427   1.509   1.665   2.115
 9176SOL    HW228428   1.611   1.785   2.072
 9177SOL     OW28429   0.179   5.137   3.751
 9177SOL    HW128430   0.100   5.128   3.690
 9177SOL    HW228431   0.260   5.100   3.706
 9178SOL     OW28432   1.954   4.940   0.773
 9178SOL    HW128433   1.909   5.029   0.776
 9178SOL    HW228434   2.047   4.948   0.810
 9179SOL     OW28435   3.070   5.540   4.358
 9179SOL    HW128436   2.985   5.538   4.409
 9179SOL    HW228437   3.058   5.491   4.272
 9180SOL     OW28438   0.235   1.034   5.065
 9180SOL    HW128439   0.156   1.086   5.097
 9180SOL    HW228440   0.229   1.022   4.966
 9181SOL     OW28441   2.434   1.839   3.350
 9181SOL    HW128442   2.533   1.855   3.354
 9181SOL    HW228443   2.393   1.862   3.438
 9182SOL     OW28444   0.703   1.683   3.043
 9182SOL    HW128445   0.760   1.675   2.962
 9182SOL    HW228446   0.618   1.632   3.029
 9183SOL     OW28447   1.191   1.874   5.986
 9183SOL    HW128448   1.290   1.863   5.991
 9183SOL    HW228449   1.154   1.813   5.917
 9184SOL     OW28450   3.979   3.399   0.580
 9184SOL    HW128451   4.040   3.331   0.537
 9184SOL    HW228452   3.909   3.352   0.633
 9185SOL     OW28453   1.168   0.827   6.625
 9185SOL    HW128454   1.212   0.742   6.595
 9185SOL    HW228455   1.156   0.888   6.546
 9186SOL     OW28456   5.141   0.824   6.007
 9186SOL    HW128457   5.183   0.912   6.029
 9186SOL    HW228458   5.208   0.764   5.963
 9187SOL     OW28459   5.705   2.369   0.733
 9187SOL    HW128460   5.615   2.329   0.749
 9187SOL    HW228461   5.703   2.421   0.648
 9188SOL     OW28462   1.438   0.210   2.088
 9188SOL    HW128463   1.359   0.269   2.104
 9188SOL    HW228464   1.518   0.248   2.133
 9189SOL     OW28465   4.374   1.192   5.378
 9189SOL    HW128466   4.335   1.100   5.388
 9189SOL    HW228467   4.451   1.188   5.314
 9190SOL     OW28468   5.690   1.874   5.438
 9190SOL    HW128469   5.623   1.848   5.368
 9190SOL    HW228470   5.770   1.914   5.394
 9191SOL     OW28471   5.452   0.203   1.032
 9191SOL    HW128472   5.383   0.272   1.011
 9191SOL    HW228473   5.534   0.220   0.976
 9192SOL     OW28474   4.860   3.703   3.897
 9192SOL    HW128475   4.834   3.765   3.824
 9192SOL    HW228476   4.892   3.616   3.858
 9193SOL     OW28477   2.995   3.269   3.377
 9193SOL    HW128478   3.091   3.271   3.404
 9193SOL    HW228479   2.981   3.195   3.311
 9194SOL     OW28480   4.143   5.720   2.401
 9194SOL    HW128481   4.187   5.677   2.480
 9194SOL    HW228482   4.074   5.786   2.432
 9195SOL     OW28483   0.036   3.008   2.822
 9195SOL    HW128484   6.969   3.057   2.798
 9195SOL    HW228485   0.089   3.061   2.888
 9196SOL     OW28486   5.044   6.579   3.745
 9196SOL    HW128487   4.974   6.609   3.810
 9196SOL    HW228488   5.095   6.502   3.783
 9197SOL     OW28489   3.816   2.992   5.796
 9197SOL    HW128490   3.746   3.056   5.829
 9197SOL    HW228491   3.904   3.038   5.794
 9198SOL     OW28492   5.733   2.297   5.691
 9198SOL    HW128493   5.685   2.370   5.643
 9198SOL    HW228494   5.713   2.302   5.789
 9199SOL     OW28495   1.650   3.361   6.330
 9199SOL    HW128496   1.607   3.305   6.259
 9199SOL    HW228497   1.639   3.316   6.419
 9200SOL     OW28498   5.728   6.407   0.920
 9200SOL    HW128499   5.670   6.411   1.001
 9200SOL    HW228500   5.712   6.487   0.862
 9201SOL     OW28501   1.444   4.322   2.920
 9201SOL    HW128502   1.426   4.262   2.842
 9201SOL    HW228503   1.470   4.267   2.999
 9202SOL     OW28504   3.099   5.592   3.664
 9202SOL    HW128505   3.100   5.557   3.757
 9202SOL    HW228506   3.061   5.522   3.603
 9203SOL     OW28507   4.732   0.655   6.037
 9203SOL    HW128508   4.808   0.608   5.992
 9203SOL    HW228509   4.718   0.744   5.993
 9204SOL     OW28510   5.130   4.309   2.100
 9204SOL    HW128511   5.203   4.362   2.142
 9204SOL    HW228512   5.075   4.369   2.042
 9205SOL     OW28513   4.842   3.209   2.252
 9205SOL    HW128514   4.916   3.149   2.281
 9205SOL    HW228515   4.787   3.162   2.182
 9206SOL     OW28516   0.754   6.852   3.033
 9206SOL    HW128517   0.731   6.949   3.029
 9206SOL    HW228518   0.712   6.804   2.956
 9207SOL     OW28519   3.875   6.486   6.877
 9207SOL    HW128520   3.967   6.496   6.839
 9207SOL    HW228521   3.866   6.542   6.959
 9208SOL     OW28522   4.756   4.487   2.006
 9208SOL    HW128523   4.678   4.439   1.967
 9208SOL    HW228524   4.828   4.496   1.937
 9209SOL     OW28525   3.907   0.258   3.146
 9209SOL    HW128526   3.908   0.180   3.209
 9209SOL    HW228527   3.814   0.272   3.112
 9210SOL     OW28528   1.343   6.826   0.226
 9210SOL    HW128529   1.389   6.843   0.138
 9210SOL    HW228530   1.372   6.738   0.262
 9211SOL     OW28531   4.955   1.562   5.651
 9211SOL    HW128532   4.949   1.598   5.558
 9211SOL    HW228533   4.940   1.636   5.717
 9212SOL     OW28534   5.451   3.771   4.947
 9212SOL    HW128535   5.368   3.787   5.000
 9212SOL    HW228536   5.467   3.849   4.886
 9213SOL     OW28537   6.566   0.041   2.670
 9213SOL    HW128538   6.578   6.960   2.692
 9213SOL    HW228539   6.620   0.064   2.589
 9214SOL     OW28540   2.463   2.360   5.557
 9214SOL    HW128541   2.487   2.405   5.471
 9214SOL    HW228542   2.367   2.376   5.577
 9215SOL     OW28543   0.198   2.818   2.924
 9215SOL    HW128544   0.171   2.818   3.020
 9215SOL    HW228545   0.152   2.893   2.877
 9216SOL     OW28546   2.855   5.905   3.828
 9216SOL    HW128547   2.826   5.982   3.884
 9216SOL    HW228548   2.943   5.871   3.861
 9217SOL     OW28549   4.305   0.880   6.540
 9217SOL    HW128550   4.272   0.791   6.570
 9217SOL    HW228551   4.389   0.869   6.487
 9218SOL     OW28552   5.738   5.671   6.233
 9218SOL    HW128553   5.669   5.728   6.277
 9218SOL    HW228554   5.754   5.589   6.288
 9219SOL     OW28555   3.474   2.499   5.769
 9219SOL    HW128556   3.381   2.534   5.763
 9219SOL    HW228557   3.509   2.478   5.677
 9220SOL     OW28558   0.276   0.090   2.989
 9220SOL    HW128559   0.234   0.018   3.043
 9220SOL    HW228560   0.213   0.119   2.916
 9221SOL     OW28561   2.064   1.585   0.354
 9221SOL    HW128562   2.027   1.529   0.280
 9221SOL    HW228563   2.081   1.677   0.321
 9222SOL     OW28564   1.887   3.173   4.233
 9222SOL    HW128565   1.972   3.221   4.210
 9222SOL    HW228566   1.859   3.198   4.326
 9223SOL     OW28567   0.403   3.323   5.068
 9223SOL    HW128568   0.465   3.307   5.145
 9223SOL    HW228569   0.456   3.341   4.985
 9224SOL     OW28570   2.638   4.622   3.666
 9224SOL    HW128571   2.612   4.579   3.579
 9224SOL    HW228572   2.733   4.652   3.661
 9225SOL     OW28573   5.539   5.818   6.338
 9225SOL    HW128574   5.485   5.735   6.326
 9225SOL    HW228575   5.483   5.887   6.386
 9226SOL     OW28576   0.736   0.793   0.660
 9226SOL    HW128577   0.657   0.750   0.704
 9226SOL    HW228578   0.735   0.773   0.562
 9227SOL     OW28579   2.918   4.225   0.541
 9227SOL    HW128580   2.954   4.204   0.450
 9227SOL    HW228581   2.946   4.318   0.567
 9228SOL     OW28582   3.535   3.564   5.339
 9228SOL    HW128583   3.478   3.527   5.412
 9228SOL    HW228584   3.505   3.657   5.318
 9229SOL     OW28585   6.936   4.782   0.089
 9229SOL    HW128586   6.971   4.700   0.135
 9229SOL    HW228587   6.944   4.861   0.149
 9230SOL     OW28588   4.709   1.415   4.736
 9230SOL    HW128589   4.743   1.417   4.831
 9230SOL    HW228590   4.782   1.443   4.674
 9231SOL     OW28591   6.488   5.982   2.901
 9231SOL    HW128592   6.559   5.989   2.831
 9231SOL    HW228593   6.469   5.885   2.920
 9232SOL     OW28594   1.364   5.205   2.320
 9232SOL    HW128595   1.332   5.176   2.410
 9232SOL    HW228596   1.338   5.137   2.251
 9233SOL     OW28597   0.597   6.724   6.646
 9233SOL    HW128598   0.529   6.662   6.687
 9233SOL    HW228599   0.680   6.723   6.702
 9234SOL     OW28600   2.311   3.952   0.066
 9234SOL    HW128601   2.342   3.860   0.042
 9234SOL    HW228602   2.211   3.953   0.069
 9235SOL     OW28603   1.743   1.814   2.974
 9235SOL    HW128604   1.826   1.762   2.957
 9235SOL    HW228605   1.748   1.857   3.064
 9236SOL     OW28606   1.849   3.112   6.555
 9236SOL    HW128607   1.824   3.026   6.512
 9236SOL    HW228608   1.906   3.166   6.493
 9237SOL     OW28609   5.148   5.043   3.167
 9237SOL    HW128610   5.181   5.028   3.074
 9237SOL    HW228611   5.219   5.088   3.221
 9238SOL     OW28612   1.566   2.935   4.800
 9238SOL    HW128613   1.551   2.957   4.704
 9238SOL    HW228614   1.660   2.957   4.825
 9239SOL     OW28615   1.179   4.456   6.798
 9239SOL    HW128616   1.261   4.410   6.833
 9239SOL    HW228617   1.205   4.513   6.720
 9240SOL     OW28618   4.738   1.618   3.059
 9240SOL    HW128619   4.760   1.682   3.133
 9240SOL    HW228620   4.665   1.657   3.003
 9241SOL     OW28621   5.121   0.569   1.003
 9241SOL    HW128622   5.029   0.534   0.984
 9241SOL    HW228623   5.159   0.522   1.083
 9242SOL     OW28624   2.048   2.423   0.231
 9242SOL    HW128625   2.123   2.360   0.210
 9242SOL    HW228626   1.961   2.375   0.221
 9243SOL     OW28627   1.428   0.466   0.047
 9243SOL    HW128628   1.514   0.515   0.061
 9243SOL    HW228629   1.352   0.530   0.056
 9244SOL     OW28630   3.717   6.763   5.927
 9244SOL    HW128631   3.716   6.790   6.023
 9244SOL    HW228632   3.663   6.829   5.874
 9245SOL     OW28633   1.196   5.126   3.062
 9245SOL    HW128634   1.131   5.051   3.077
 9245SOL    HW228635   1.152   5.213   3.083
 9246SOL     OW28636   5.465   0.191   6.524
 9246SOL    HW128637   5.405   0.196   6.445
 9246SOL    HW228638   5.560   0.185   6.494
 9247SOL     OW28639   4.184   5.596   2.708
 9247SOL    HW128640   4.221   5.545   2.786
 9247SOL    HW228641   4.101   5.644   2.737
 9248SOL     OW28642   2.358   0.482   6.518
 9248SOL    HW128643   2.349   0.556   6.451
 9248SOL    HW228644   2.273   0.430   6.522
 9249SOL     OW28645   3.060   6.329   0.704
 9249SOL    HW128646   3.094   6.400   0.765
 9249SOL    HW228647   3.125   6.316   0.629
 9250SOL     OW28648   0.490   2.734   4.522
 9250SOL    HW128649   0.421   2.794   4.563
 9250SOL    HW228650   0.487   2.644   4.566
 9251SOL     OW28651   3.078   2.406   0.443
 9251SOL    HW128652   3.060   2.325   0.499
 9251SOL    HW228653   3.085   2.486   0.503
 9252SOL     OW28654   5.794   1.702   5.123
 9252SOL    HW128655   5.859   1.633   5.094
 9252SOL    HW228656   5.714   1.658   5.165
 9253SOL     OW28657   1.167   6.223   5.318
 9253SOL    HW128658   1.194   6.142   5.266
 9253SOL    HW228659   1.188   6.305   5.265
 9254SOL     OW28660   0.362   4.893   2.613
 9254SOL    HW128661   0.400   4.802   2.600
 9254SOL    HW228662   0.262   4.887   2.615
 9255SOL     OW28663   6.725   4.450   0.820
 9255SOL    HW128664   6.638   4.422   0.860
 9255SOL    HW228665   6.712   4.535   0.769
 9256SOL     OW28666   2.718   6.180   0.978
 9256SOL    HW128667   2.711   6.233   1.062
 9256SOL    HW228668   2.722   6.242   0.900
 9257SOL     OW28669   6.316   5.823   4.055
 9257SOL    HW128670   6.380   5.806   4.131
 9257SOL    HW228671   6.352   5.780   3.972
 9258SOL     OW28672   3.470   5.120   0.929
 9258SOL    HW128673   3.530   5.164   0.996
 9258SOL    HW228674   3.401   5.066   0.976
 9259SOL     OW28675   1.506   2.203   6.893
 9259SOL    HW128676   1.559   2.276   6.850
 9259SOL    HW228677   1.513   2.119   6.838
 9260SOL     OW28678   5.540   3.525   4.818
 9260SOL    HW128679   5.457   3.484   4.857
 9260SOL    HW228680   5.549   3.619   4.851
 9261SOL     OW28681   3.440   2.148   1.495
 9261SOL    HW128682   3.354   2.195   1.519
 9261SOL    HW228683   3.489   2.202   1.426
 9262SOL     OW28684   6.686   6.254   5.545
 9262SOL    HW128685   6.688   6.328   5.613
 9262SOL    HW228686   6.677   6.166   5.593
 9263SOL     OW28687   2.294   4.630   3.555
 9263SOL    HW128688   2.195   4.642   3.547
 9263SOL    HW228689   2.328   4.684   3.632
 9264SOL     OW28690   5.410   4.372   6.462
 9264SOL    HW128691   5.342   4.347   6.392
 9264SOL    HW228692   5.498   4.391   6.419
 9265SOL     OW28693   5.898   1.431   1.356
 9265SOL    HW128694   5.817   1.487   1.334
 9265SOL    HW228695   5.870   1.336   1.370
 9266SOL     OW28696   1.746   4.628   1.327
 9266SOL    HW128697   1.742   4.545   1.382
 9266SOL    HW228698   1.733   4.605   1.230
 9267SOL     OW28699   6.784   0.579   4.190
 9267SOL    HW128700   6.872   0.533   4.195
 9267SOL    HW228701   6.713   0.520   4.226
 9268SOL     OW28702   0.276   0.311   1.277
 9268SOL    HW128703   0.297   0.404   1.249
 9268SOL    HW228704   0.360   0.256   1.273
 9269SOL     OW28705   2.993   0.948   0.181
 9269SOL    HW128706   3.009   0.973   0.085
 9269SOL    HW228707   2.895   0.934   0.195
 9270SOL     OW28708   2.371   0.407   5.876
 9270SOL    HW128709   2.389   0.498   5.839
 9270SOL    HW228710   2.451   0.348   5.858
 9271SOL     OW28711   1.375   5.801   4.985
 9271SOL    HW128712   1.387   5.847   5.073
 9271SOL    HW228713   1.458   5.811   4.930
 9272SOL     OW28714   6.927   6.698   6.178
 9272SOL    HW128715   6.832   6.727   6.170
 9272SOL    HW228716   6.986   6.779   6.177
 9273SOL     OW28717   5.036   4.229   3.650
 9273SOL    HW128718   4.978   4.206   3.729
 9273SOL    HW228719   5.131   4.206   3.672
 9274SOL     OW28720   0.709   3.030   0.997
 9274SOL    HW128721   0.691   2.933   1.007
 9274SOL    HW228722   0.692   3.076   1.084
 9275SOL     OW28723   6.598   0.997   0.576
 9275SOL    HW128724   6.544   0.914   0.559
 9275SOL    HW228725   6.625   1.000   0.672
 9276SOL     OW28726   2.402   5.395   0.237
 9276SOL    HW128727   2.407   5.335   0.316
 9276SOL    HW228728   2.355   5.480   0.262
 9277SOL     OW28729   5.289   5.310   2.003
 9277SOL    HW128730   5.267   5.212   2.004
 9277SOL    HW228731   5.348   5.332   2.080
 9278SOL     OW28732   0.978   0.071   5.484
 9278SOL    HW128733   1.057   0.098   5.539
 9278SOL    HW228734   0.970   0.133   5.406
 9279SOL     OW28735   3.554   5.821   1.659
 9279SOL    HW128736   3.639   5.833   1.709
 9279SOL    HW228737   3.574   5.804   1.562
 9280SOL     OW28738   1.658   6.501   2.753
 9280SOL    HW128739   1.741   6.486   2.700
 9280SOL    HW228740   1.578   6.482   2.696
 9281SOL     OW28741   1.945   5.208   0.412
 9281SOL    HW128742   1.865   5.234   0.466
 9281SOL    HW228743   2.014   5.281   0.419
 9282SOL     OW28744   3.100   0.172   5.589
 9282SOL    HW128745   3.072   0.231   5.665
 9282SOL    HW228746   3.089   0.222   5.503
 9283SOL     OW28747   4.181   6.547   1.217
 9283SOL    HW128748   4.259   6.529   1.157
 9283SOL    HW228749   4.181   6.643   1.244
 9284SOL     OW28750   4.567   3.946   5.569
 9284SOL    HW128751   4.529   3.854   5.557
 9284SOL    HW228752   4.638   3.944   5.640
 9285SOL     OW28753   0.599   5.081   2.683
 9285SOL    HW128754   0.532   5.127   2.625
 9285SOL    HW228755   0.636   5.147   2.749
 9286SOL     OW28756   4.377   6.661   1.426
 9286SOL    HW128757   4.327   6.587   1.381
 9286SOL    HW228758   4.421   6.718   1.356
 9287SOL     OW28759   3.969   3.811   5.903
 9287SOL    HW128760   4.063   3.787   5.926
 9287SOL    HW228761   3.926   3.735   5.855
 9288SOL     OW28762   3.896   1.749   2.550
 9288SOL    HW128763   3.880   1.681   2.478
 9288SOL    HW228764   3.810   1.770   2.595
 9289SOL     OW28765   4.994   6.608   0.515
 9289SOL    HW128766   4.957   6.698   0.540
 9289SOL    HW228767   5.093   6.608   0.529
 9290SOL     OW28768   4.958   1.233   4.477
 9290SOL    HW128769   5.026   1.201   4.411
 9290SOL    HW228770   4.953   1.333   4.474
 9291SOL     OW28771   1.411   4.117   6.313
 9291SOL    HW128772   1.342   4.055   6.276
 9291SOL    HW228773   1.366   4.186   6.370
 9292SOL     OW28774   1.009   1.470   6.864
 9292SOL    HW128775   0.922   1.472   6.813
 9292SOL    HW228776   0.995   1.424   6.951
 9293SOL     OW28777   5.073   2.725   4.423
 9293SOL    HW128778   5.061   2.630   4.452
 9293SOL    HW228779   5.083   2.783   4.504
 9294SOL     OW28780   4.514   0.016   6.417
 9294SOL    HW128781   4.477   6.992   6.501
 9294SOL    HW228782   4.438   0.038   6.355
 9295SOL     OW28783   0.463   0.735   4.744
 9295SOL    HW128784   0.424   0.821   4.713
 9295SOL    HW228785   0.391   0.666   4.752
 9296SOL     OW28786   2.446   4.971   6.066
 9296SOL    HW128787   2.513   5.003   6.133
 9296SOL    HW228788   2.461   4.874   6.048
 9297SOL     OW28789   6.264   5.929   2.446
 9297SOL    HW128790   6.235   5.835   2.426
 9297SOL    HW228791   6.306   5.969   2.365
 9298SOL     OW28792   0.983   4.448   6.327
 9298SOL    HW128793   0.923   4.508   6.380
 9298SOL    HW228794   1.012   4.495   6.244
 9299SOL     OW28795   2.246   2.852   4.351
 9299SOL    HW128796   2.158   2.813   4.377
 9299SOL    HW228797   2.315   2.824   4.417
 9300SOL     OW28798   1.859   5.919   4.842
 9300SOL    HW128799   1.846   5.966   4.754
 9300SOL    HW228800   1.891   5.984   4.910
 9301SOL     OW28801   0.237   4.434   4.050
 9301SOL    HW128802   0.185   4.404   4.130
 9301SOL    HW228803   0.281   4.521   4.070
 9302SOL     OW28804   2.049   3.715   4.918
 9302SOL    HW128805   2.078   3.755   4.830
 9302SOL    HW228806   2.066   3.781   4.991
 9303SOL     OW28807   2.369   4.602   0.370
 9303SOL    HW128808   2.430   4.674   0.340
 9303SOL    HW228809   2.412   4.513   0.355
 9304SOL     OW28810   4.980   5.378   6.666
 9304SOL    HW128811   4.944   5.286   6.652
 9304SOL    HW228812   5.032   5.406   6.585
 9305SOL     OW28813   1.814   2.014   1.019
 9305SOL    HW128814   1.891   2.077   1.010
 9305SOL    HW228815   1.728   2.064   1.003
 9306SOL     OW28816   6.917   6.438   5.250
 9306SOL    HW128817   6.988   6.489   5.202
 9306SOL    HW228818   6.829   6.453   5.206
 9307SOL     OW28819   1.510   3.397   1.651
 9307SOL    HW128820   1.578   3.341   1.605
 9307SOL    HW228821   1.509   3.489   1.611
 9308SOL     OW28822   1.922   3.156   1.852
 9308SOL    HW128823   1.963   3.192   1.935
 9308SOL    HW228824   1.837   3.108   1.874
 9309SOL     OW28825   4.841   5.112   6.553
 9309SOL    HW128826   4.880   5.025   6.523
 9309SOL    HW228827   4.856   5.181   6.482
 9310SOL     OW28828   5.861   6.161   6.981
 9310SOL    HW128829   5.912   6.240   6.945
 9310SOL    HW228830   5.832   6.181   0.058
 9311SOL     OW28831   4.650   3.925   0.903
 9311SOL    HW128832   4.727   3.862   0.917
 9311SOL    HW228833   4.582   3.882   0.844
 9312SOL     OW28834   0.756   3.019   3.194
 9312SOL    HW128835   0.682   3.069   3.238
 9312SOL    HW228836   0.827   2.998   3.262
 9313SOL     OW28837   0.585   0.900   2.095
 9313SOL    HW128838   0.526   0.980   2.086
 9313SOL    HW228839   0.531   0.823   2.128
 9314SOL     OW28840   5.263   4.229   0.650
 9314SOL    HW128841   5.225   4.145   0.691
 9314SOL    HW228842   5.337   4.205   0.588
 9315SOL     OW28843   4.678   6.995   6.194
 9315SOL    HW128844   4.635   6.978   6.283
 9315SOL    HW228845   4.679   0.077   6.176
 9316SOL     OW28846   5.141   0.889   5.509
 9316SOL    HW128847   5.050   0.882   5.468
 9316SOL    HW228848   5.210   0.891   5.437
 9317SOL     OW28849   3.578   5.944   2.877
 9317SOL    HW128850   3.561   5.847   2.895
 9317SOL    HW228851   3.491   5.992   2.865
 9318SOL     OW28852   3.835   7.009   1.916
 9318SOL    HW128853   3.812   0.052   1.993
 9318SOL    HW228854   3.782   6.925   1.922
 9319SOL     OW28855   3.213   2.571   6.475
 9319SOL    HW128856   3.193   2.568   6.377
 9319SOL    HW228857   3.146   2.515   6.524
 9320SOL     OW28858   6.417   6.531   6.772
 9320SOL    HW128859   6.499   6.588   6.768
 9320SOL    HW228860   6.423   6.470   6.851
 9321SOL     OW28861   0.281   3.138   4.766
 9321SOL    HW128862   0.319   3.052   4.733
 9321SOL    HW228863   0.355   3.203   4.783
 9322SOL     OW28864   6.324   3.394   6.878
 9322SOL    HW128865   6.225   3.392   6.871
 9322SOL    HW228866   6.360   3.473   6.829
 9323SOL     OW28867   0.337   2.150   5.926
 9323SOL    HW128868   0.267   2.199   5.875
 9323SOL    HW228869   0.306   2.056   5.944
 9324SOL     OW28870   0.919   4.107   2.171
 9324SOL    HW128871   0.984   4.152   2.110
 9324SOL    HW228872   0.914   4.010   2.149
 9325SOL     OW28873   0.999   4.296   3.077
 9325SOL    HW128874   0.908   4.269   3.107
 9325SOL    HW228875   1.061   4.298   3.155
 9326SOL     OW28876   4.687   4.066   1.789
 9326SOL    HW128877   4.730   4.102   1.872
 9326SOL    HW228878   4.612   4.126   1.762
 9327SOL     OW28879   3.332   0.865   3.060
 9327SOL    HW128880   3.243   0.908   3.079
 9327SOL    HW228881   3.391   0.874   3.141
 9328SOL     OW28882   2.187   0.479   3.832
 9328SOL    HW128883   2.230   0.443   3.915
 9328SOL    HW228884   2.206   0.577   3.824
 9329SOL     OW28885   0.053   5.439   6.637
 9329SOL    HW128886   0.076   5.495   6.557
 9329SOL    HW228887   0.005   5.495   6.704
 9330SOL     OW28888   6.805   6.288   6.877
 9330SOL    HW128889   6.903   6.285   6.855
 9330SOL    HW228890   6.777   6.384   6.888
 9331SOL     OW28891   2.049   3.116   3.518
 9331SOL    HW128892   2.014   3.208   3.537
 9331SOL    HW228893   2.034   3.093   3.422
 9332SOL     OW28894   5.264   5.816   0.814
 9332SOL    HW128895   5.183   5.870   0.793
 9332SOL    HW228896   5.253   5.772   0.903
 9333SOL     OW28897   4.081   3.702   1.124
 9333SOL    HW128898   4.085   3.619   1.181
 9333SOL    HW228899   4.056   3.677   1.031
 9334SOL     OW28900   5.988   6.305   5.864
 9334SOL    HW128901   5.981   6.262   5.954
 9334SOL    HW228902   5.896   6.318   5.826
 9335SOL     OW28903   0.962   3.507   2.025
 9335SOL    HW128904   0.923   3.416   2.042
 9335SOL    HW228905   0.913   3.551   1.950
 9336SOL     OW28906   5.866   6.843   5.784
 9336SOL    HW128907   5.951   6.892   5.804
 9336SOL    HW228908   5.837   6.865   5.691
 9337SOL     OW28909   2.183   0.542   6.045
 9337SOL    HW128910   2.261   0.605   6.048
 9337SOL    HW228911   2.202   0.468   5.981
 9338SOL     OW28912   5.762   6.718   0.292
 9338SOL    HW128913   5.686   6.730   0.228
 9338SOL    HW228914   5.842   6.684   0.243
 9339SOL     OW28915   6.925   4.065   5.242
 9339SOL    HW128916   6.863   4.059   5.320
 9339SOL    HW228917   6.872   4.085   5.159
 9340SOL     OW28918   3.868   5.094   0.845
 9340SOL    HW128919   3.895   5.078   0.750
 9340SOL    HW228920   3.782   5.048   0.864
 9341SOL     OW28921   5.132   4.483   6.343
 9341SOL    HW128922   5.196   4.459   6.270
 9341SOL    HW228923   5.070   4.406   6.359
 9342SOL     OW28924   3.568   0.318   4.332
 9342SOL    HW128925   3.597   0.289   4.241
 9342SOL    HW228926   3.647   0.346   4.386
 9343SOL     OW28927   4.619   4.394   0.951
 9343SOL    HW128928   4.551   4.421   1.020
 9343SOL    HW228929   4.582   4.321   0.894
 9344SOL     OW28930   6.284   7.008   5.145
 9344SOL    HW128931   6.321   0.012   5.236
 9344SOL    HW228932   6.357   7.009   5.078
 9345SOL     OW28933   0.659   5.239   0.091
 9345SOL    HW128934   0.646   5.332   0.057
 9345SOL    HW228935   0.750   5.230   0.132
 9346SOL     OW28936   5.942   6.611   1.212
 9346SOL    HW128937   6.028   6.655   1.239
 9346SOL    HW228938   5.962   6.524   1.167
 9347SOL     OW28939   3.490   5.777   0.746
 9347SOL    HW128940   3.456   5.735   0.830
 9347SOL    HW228941   3.444   5.864   0.730
 9348SOL     OW28942   2.497   5.858   1.585
 9348SOL    HW128943   2.437   5.935   1.606
 9348SOL    HW228944   2.542   5.874   1.496
 9349SOL     OW28945   6.865   6.179   2.200
 9349SOL    HW128946   6.861   6.277   2.221
 9349SOL    HW228947   6.946   6.160   2.146
 9350SOL     OW28948   6.720   0.697   6.193
 9350SOL    HW128949   6.684   0.605   6.181
 9350SOL    HW228950   6.644   0.761   6.205
 9351SOL     OW28951   3.448   3.096   6.132
 9351SOL    HW128952   3.372   3.153   6.163
 9351SOL    HW228953   3.443   3.006   6.175
 9352SOL     OW28954   3.385   2.289   5.936
 9352SOL    HW128955   3.318   2.312   6.006
 9352SOL    HW228956   3.424   2.372   5.898
 9353SOL     OW28957   0.603   3.734   1.301
 9353SOL    HW128958   0.579   3.825   1.337
 9353SOL    HW228959   0.588   3.666   1.372
 9354SOL     OW28960   5.088   1.922   1.789
 9354SOL    HW128961   5.078   1.884   1.881
 9354SOL    HW228962   4.998   1.948   1.753
 9355SOL     OW28963   5.942   0.582   3.001
 9355SOL    HW128964   6.030   0.549   3.037
 9355SOL    HW228965   5.874   0.509   3.007
 9356SOL     OW28966   4.494   4.628   2.463
 9356SOL    HW128967   4.464   4.615   2.558
 9356SOL    HW228968   4.447   4.707   2.424
 9357SOL     OW28969   3.188   2.781   0.503
 9357SOL    HW128970   3.277   2.819   0.477
 9357SOL    HW228971   3.135   2.849   0.552
 9358SOL     OW28972   5.679   4.584   1.568
 9358SOL    HW128973   5.756   4.618   1.513
 9358SOL    HW228974   5.672   4.637   1.652
 9359SOL     OW28975   5.853   3.984   6.248
 9359SOL    HW128976   5.916   4.032   6.187
 9359SOL    HW228977   5.790   4.049   6.290
 9360SOL     OW28978   1.906   0.466   6.033
 9360SOL    HW128979   1.866   0.422   6.113
 9360SOL    HW228980   1.982   0.525   6.061
 9361SOL     OW28981   3.110   0.463   2.303
 9361SOL    HW128982   3.148   0.551   2.274
 9361SOL    HW228983   3.017   0.453   2.269
 9362SOL     OW28984   2.199   1.664   3.052
 9362SOL    HW128985   2.237   1.577   3.084
 9362SOL    HW228986   2.185   1.725   3.130
 9363SOL     OW28987   2.808   6.054   2.099
 9363SOL    HW128988   2.794   5.997   2.180
 9363SOL    HW228989   2.873   6.127   2.119
 9364SOL     OW28990   5.130   4.888   6.948
 9364SOL    HW128991   5.063   4.945   6.995
 9364SOL    HW228992   5.122   4.900   6.849
 9365SOL     OW28993   2.411   1.368   4.825
 9365SOL    HW128994   2.388   1.461   4.851
 9365SOL    HW228995   2.489   1.336   4.879
 9366SOL     OW28996   3.146   1.665   0.541
 9366SOL    HW128997   3.139   1.566   0.528
 9366SOL    HW228998   3.134   1.687   0.637
 9367SOL     OW28999   6.949   5.920   3.034
 9367SOL    HW129000   6.973   5.915   2.937
 9367SOL    HW229001   0.006   5.878   3.088
 9368SOL     OW29002   3.440   2.873   1.431
 9368SOL    HW129003   3.371   2.907   1.495
 9368SOL    HW229004   3.479   2.949   1.380
 9369SOL     OW29005   6.910   2.538   4.877
 9369SOL    HW129006   6.983   2.558   4.942
 9369SOL    HW229007   6.854   2.462   4.911
 9370SOL     OW29008   6.288   0.885   2.966
 9370SOL    HW129009   6.332   0.803   3.002
 9370SOL    HW229010   6.326   0.966   3.010
 9371SOL     OW29011   0.211   6.722   1.050
 9371SOL    HW129012   0.174   6.644   0.999
 9371SOL    HW229013   0.202   6.805   0.995
 9372SOL     OW29014   6.165   6.875   5.553
 9372SOL    HW129015   6.239   6.870   5.486
 9372SOL    HW229016   6.178   6.955   5.612
 9373SOL     OW29017   4.275   1.438   3.617
 9373SOL    HW129018   4.182   1.408   3.594
 9373SOL    HW229019   4.288   1.433   3.716
 9374SOL     OW29020   5.170   3.979   0.677
 9374SOL    HW129021   5.245   3.933   0.632
 9374SOL    HW229022   5.141   3.927   0.757
 9375SOL     OW29023   0.961   1.074   3.633
 9375SOL    HW129024   0.930   1.042   3.723
 9375SOL    HW229025   0.987   1.171   3.640
 9376SOL     OW29026   1.580   3.622   1.835
 9376SOL    HW129027   1.544   3.541   1.788
 9376SOL    HW229028   1.631   3.593   1.916
 9377SOL     OW29029   6.028   5.794   3.656
 9377SOL    HW129030   6.124   5.798   3.629
 9377SOL    HW229031   6.019   5.819   3.752
 9378SOL     OW29032   3.152   6.772   0.278
 9378SOL    HW129033   3.186   6.858   0.316
 9378SOL    HW229034   3.061   6.787   0.239
 9379SOL     OW29035   5.147   4.837   4.418
 9379SOL    HW129036   5.181   4.930   4.404
 9379SOL    HW229037   5.060   4.826   4.370
 9380SOL     OW29038   5.912   6.819   6.056
 9380SOL    HW129039   5.893   6.827   5.958
 9380SOL    HW229040   5.972   6.741   6.073
 9381SOL     OW29041   2.499   1.385   6.148
 9381SOL    HW129042   2.420   1.446   6.157
 9381SOL    HW229043   2.582   1.439   6.137
 9382SOL     OW29044   4.635   2.295   2.727
 9382SOL    HW129045   4.617   2.287   2.825
 9382SOL    HW229046   4.548   2.293   2.677
 9383SOL     OW29047   4.288   5.947   4.810
 9383SOL    HW129048   4.369   5.927   4.866
 9383SOL    HW229049   4.271   6.046   4.811
 9384SOL     OW29050   4.825   5.785   1.485
 9384SOL    HW129051   4.845   5.742   1.397
 9384SOL    HW229052   4.909   5.790   1.540
 9385SOL     OW29053   3.744   1.324   3.433
 9385SOL    HW129054   3.790   1.352   3.349
 9385SOL    HW229055   3.712   1.405   3.482
 9386SOL     OW29056   3.341   6.607   4.591
 9386SOL    HW129057   3.253   6.648   4.616
 9386SOL    HW229058   3.325   6.531   4.528
 9387SOL     OW29059   3.835   0.072   6.784
 9387SOL    HW129060   3.887   7.014   6.743
 9387SOL    HW229061   3.844   0.154   6.727
 9388SOL     OW29062   6.584   0.374   3.116
 9388SOL    HW129063   6.582   0.439   3.191
 9388SOL    HW229064   6.492   0.338   3.100
 9389SOL     OW29065   2.616   0.763   5.828
 9389SOL    HW129066   2.588   0.786   5.735
 9389SOL    HW229067   2.609   0.664   5.841
 9390SOL     OW29068   3.332   5.101   2.523
 9390SOL    HW129069   3.398   5.150   2.466
 9390SOL    HW229070   3.251   5.080   2.468
 9391SOL     OW29071   0.864   1.083   5.670
 9391SOL    HW129072   0.907   1.124   5.589
 9391SOL    HW229073   0.869   0.983   5.663
 9392SOL     OW29074   1.142   5.885   4.497
 9392SOL    HW129075   1.168   5.805   4.443
 9392SOL    HW229076   1.224   5.937   4.520
 9393SOL     OW29077   3.646   2.191   5.355
 9393SOL    HW129078   3.706   2.190   5.276
 9393SOL    HW229079   3.553   2.215   5.327
 9394SOL     OW29080   5.989   2.627   2.801
 9394SOL    HW129081   5.964   2.543   2.752
 9394SOL    HW229082   5.907   2.680   2.820
 9395SOL     OW29083   2.211   3.266   0.173
 9395SOL    HW129084   2.310   3.268   0.188
 9395SOL    HW229085   2.187   3.182   0.124
 9396SOL     OW29086   6.359   0.360   6.256
 9396SOL    HW129087   6.263   0.347   6.282
 9396SOL    HW229088   6.395   0.441   6.303
 9397SOL     OW29089   2.708   0.615   0.902
 9397SOL    HW129090   2.647   0.676   0.851
 9397SOL    HW229091   2.685   0.619   0.999
 9398SOL     OW29092   2.730   1.534   6.137
 9398SOL    HW129093   2.739   1.591   6.218
 9398SOL    HW229094   2.711   1.591   6.057
 9399SOL     OW29095   6.986   0.610   5.572
 9399SOL    HW129096   6.979   0.649   5.480
 9399SOL    HW229097   6.981   0.683   5.640
 9400SOL     OW29098   5.707   2.775   2.789
 9400SOL    HW129099   5.680   2.747   2.881
 9400SOL    HW229100   5.739   2.870   2.791
 9401SOL     OW29101   3.272   0.195   3.040
 9401SOL    HW129102   3.364   0.215   3.074
 9401SOL    HW229103   3.276   0.121   2.973
 9402SOL     OW29104   2.214   5.251   6.423
 9402SOL    HW129105   2.199   5.226   6.327
 9402SOL    HW229106   2.292   5.199   6.460
 9403SOL     OW29107   5.602   1.199   4.128
 9403SOL    HW129108   5.533   1.229   4.062
 9403SOL    HW229109   5.674   1.269   4.135
 9404SOL     OW29110   1.457   3.958   6.842
 9404SOL    HW129111   1.538   3.980   6.787
 9404SOL    HW229112   1.486   3.933   6.935
 9405SOL     OW29113   5.899   0.110   0.982
 9405SOL    HW129114   5.991   0.143   1.004
 9405SOL    HW229115   5.832   0.180   1.007
 9406SOL     OW29116   0.327   1.731   5.268
 9406SOL    HW129117   0.280   1.723   5.356
 9406SOL    HW229118   0.300   1.655   5.209
 9407SOL     OW29119   3.117   6.159   2.992
 9407SOL    HW129120   3.143   6.146   3.088
 9407SOL    HW229121   3.161   6.242   2.957
 9408SOL     OW29122   3.460   1.933   6.088
 9408SOL    HW129123   3.460   1.839   6.121
 9408SOL    HW229124   3.423   1.936   5.995
 9409SOL     OW29125   5.689   4.097   3.790
 9409SOL    HW129126   5.764   4.153   3.824
 9409SOL    HW229127   5.622   4.155   3.745
 9410SOL     OW29128   4.311   6.631   2.505
 9410SOL    HW129129   4.227   6.667   2.546
 9410SOL    HW229130   4.374   6.706   2.485
 9411SOL     OW29131   4.535   4.878   0.507
 9411SOL    HW129132   4.620   4.857   0.555
 9411SOL    HW229133   4.458   4.861   0.568
 9412SOL     OW29134   6.890   2.518   1.017
 9412SOL    HW129135   6.856   2.435   1.062
 9412SOL    HW229136   6.921   2.496   0.925
 9413SOL     OW29137   3.395   6.068   5.911
 9413SOL    HW129138   3.341   6.151   5.897
 9413SOL    HW229139   3.491   6.087   5.894
 9414SOL     OW29140   2.333   1.700   1.291
 9414SOL    HW129141   2.380   1.708   1.203
 9414SOL    HW229142   2.276   1.781   1.306
 9415SOL     OW29143   2.970   6.932   2.405
 9415SOL    HW129144   3.037   7.004   2.391
 9415SOL    HW229145   2.982   6.861   2.336
 9416SOL     OW29146   0.994   2.369   1.743
 9416SOL    HW129147   0.896   2.354   1.755
 9416SOL    HW229148   1.011   2.415   1.656
 9417SOL     OW29149   2.469   5.742   5.039
 9417SOL    HW129150   2.513   5.762   4.952
 9417SOL    HW229151   2.524   5.781   5.113
 9418SOL     OW29152   3.573   5.428   0.687
 9418SOL    HW129153   3.585   5.522   0.654
 9418SOL    HW229154   3.631   5.413   0.767
 9419SOL     OW29155   3.054   6.764   5.478
 9419SOL    HW129156   3.143   6.746   5.437
 9419SOL    HW229157   2.985   6.768   5.406
 9420SOL     OW29158   0.322   1.378   4.505
 9420SOL    HW129159   0.386   1.454   4.513
 9420SOL    HW229160   0.364   1.294   4.539
 9421SOL     OW29161   1.117   4.551   5.621
 9421SOL    HW129162   1.086   4.458   5.598
 9421SOL    HW229163   1.072   4.616   5.559
 9422SOL     OW29164   4.813   1.123   2.420
 9422SOL    HW129165   4.880   1.072   2.473
 9422SOL    HW229166   4.727   1.072   2.416
 9423SOL     OW29167   3.946   0.742   4.463
 9423SOL    HW129168   3.985   0.833   4.450
 9423SOL    HW229169   3.881   0.723   4.390
 9424SOL     OW29170   2.935   6.211   4.636
 9424SOL    HW129171   2.864   6.257   4.689
 9424SOL    HW229172   2.903   6.197   4.542
 9425SOL     OW29173   1.374   3.064   4.338
 9425SOL    HW129174   1.452   3.041   4.281
 9425SOL    HW229175   1.332   3.149   4.304
 9426SOL     OW29176   3.667   0.084   7.004
 9426SOL    HW129177   3.708   0.056   6.917
 9426SOL    HW229178   3.607   0.163   6.988
 9427SOL     OW29179   2.916   5.290   4.563
 9427SOL    HW129180   2.834   5.235   4.551
 9427SOL    HW229181   2.901   5.381   4.523
 9428SOL     OW29182   4.875   0.367   3.257
 9428SOL    HW129183   4.840   0.276   3.281
 9428SOL    HW229184   4.907   0.366   3.162
 9429SOL     OW29185   0.266   3.776   2.602
 9429SOL    HW129186   0.357   3.735   2.607
 9429SOL    HW229187   0.224   3.776   2.693
 9430SOL     OW29188   6.176   6.527   1.604
 9430SOL    HW129189   6.083   6.497   1.626
 9430SOL    HW229190   6.207   6.482   1.521
 9431SOL     OW29191   6.507   4.280   1.989
 9431SOL    HW129192   6.466   4.331   1.913
 9431SOL    HW229193   6.602   4.258   1.966
 9432SOL     OW29194   6.661   6.394   3.448
 9432SOL    HW129195   6.681   6.430   3.539
 9432SOL    HW229196   6.582   6.441   3.410
 9433SOL     OW29197   3.238   5.189   5.330
 9433SOL    HW129198   3.178   5.113   5.355
 9433SOL    HW229199   3.220   5.216   5.236
 9434SOL     OW29200   5.097   5.154   2.622
 9434SOL    HW129201   5.041   5.074   2.599
 9434SOL    HW229202   5.168   5.166   2.552
 9435SOL     OW29203   1.723   0.723   4.520
 9435SOL    HW129204   1.727   0.731   4.620
 9435SOL    HW229205   1.816   0.726   4.484
 9436SOL     OW29206   2.465   2.967   6.854
 9436SOL    HW129207   2.512   3.048   6.889
 9436SOL    HW229208   2.502   2.885   6.898
 9437SOL     OW29209   1.268   4.794   3.707
 9437SOL    HW129210   1.361   4.774   3.739
 9437SOL    HW229211   1.204   4.729   3.746
 9438SOL     OW29212   0.993   6.399   2.213
 9438SOL    HW129213   1.015   6.381   2.117
 9438SOL    HW229214   1.021   6.493   2.235
 9439SOL     OW29215   0.239   2.588   1.968
 9439SOL    HW129216   0.187   2.603   2.052
 9439SOL    HW229217   0.332   2.622   1.979
 9440SOL     OW29218   4.997   6.401   6.203
 9440SOL    HW129219   4.992   6.334   6.276
 9440SOL    HW229220   5.011   6.492   6.242
 9441SOL     OW29221   1.580   4.935   5.528
 9441SOL    HW129222   1.507   4.944   5.460
 9441SOL    HW229223   1.669   4.940   5.483
 9442SOL     OW29224   0.143   3.421   1.262
 9442SOL    HW129225   0.119   3.455   1.171
 9442SOL    HW229226   0.168   3.497   1.322
 9443SOL     OW29227   1.694   3.975   1.969
 9443SOL    HW129228   1.785   3.951   2.003
 9443SOL    HW229229   1.699   3.992   1.871
 9444SOL     OW29230   0.320   3.472   6.919
 9444SOL    HW129231   0.243   3.469   6.856
 9444SOL    HW229232   0.404   3.446   6.872
 9445SOL     OW29233   5.387   3.697   1.454
 9445SOL    HW129234   5.300   3.648   1.460
 9445SOL    HW229235   5.455   3.651   1.510
 9446SOL     OW29236   6.653   5.974   1.709
 9446SOL    HW129237   6.729   5.915   1.738
 9446SOL    HW229238   6.606   5.932   1.631
 9447SOL     OW29239   5.845   3.210   2.274
 9447SOL    HW129240   5.926   3.158   2.248
 9447SOL    HW229241   5.764   3.151   2.264
 9448SOL     OW29242   6.106   6.696   0.479
 9448SOL    HW129243   6.043   6.727   0.550
 9448SOL    HW229244   6.072   6.723   0.389
 9449SOL     OW29245   6.202   4.900   5.683
 9449SOL    HW129246   6.222   4.839   5.607
 9449SOL    HW229247   6.103   4.917   5.686
 9450SOL     OW29248   3.099   4.978   4.643
 9450SOL    HW129249   3.032   4.986   4.716
 9450SOL    HW229250   3.191   4.973   4.683
 9451SOL     OW29251   4.923   5.318   6.047
 9451SOL    HW129252   4.965   5.257   5.980
 9451SOL    HW229253   4.945   5.413   6.025
 9452SOL     OW29254   2.503   4.969   1.981
 9452SOL    HW129255   2.537   4.886   1.937
 9452SOL    HW229256   2.506   4.958   2.080
 9453SOL     OW29257   2.961   5.135   2.697
 9453SOL    HW129258   2.939   5.140   2.600
 9453SOL    HW229259   2.893   5.078   2.744
 9454SOL     OW29260   2.076   3.102   5.390
 9454SOL    HW129261   2.114   3.148   5.309
 9454SOL    HW229262   2.149   3.087   5.457
 9455SOL     OW29263   3.816   1.609   2.331
 9455SOL    HW129264   3.773   1.675   2.269
 9455SOL    HW229265   3.853   1.533   2.278
 9456SOL     OW29266   1.401   3.471   1.278
 9456SOL    HW129267   1.307   3.445   1.297
 9456SOL    HW229268   1.410   3.497   1.182
 9457SOL     OW29269   0.900   3.498   0.933
 9457SOL    HW129270   0.890   3.497   1.032
 9457SOL    HW229271   0.849   3.421   0.893
 9458SOL     OW29272   6.698   5.706   5.382
 9458SOL    HW129273   6.768   5.731   5.449
 9458SOL    HW229274   6.727   5.624   5.333
 9459SOL     OW29275   6.263   5.696   1.592
 9459SOL    HW129276   6.229   5.607   1.623
 9459SOL    HW229277   6.311   5.741   1.667
 9460SOL     OW29278   0.959   2.204   5.127
 9460SOL    HW129279   0.950   2.271   5.053
 9460SOL    HW229280   1.015   2.127   5.096
 9461SOL     OW29281   1.483   0.865   3.784
 9461SOL    HW129282   1.510   0.771   3.801
 9461SOL    HW229283   1.434   0.901   3.863
 9462SOL     OW29284   1.026   3.019   2.289
 9462SOL    HW129285   1.074   2.996   2.204
 9462SOL    HW229286   1.022   2.938   2.348
 9463SOL     OW29287   5.798   1.501   0.347
 9463SOL    HW129288   5.850   1.492   0.432
 9463SOL    HW229289   5.750   1.588   0.347
 9464SOL     OW29290   5.826   0.367   6.052
 9464SOL    HW129291   5.917   0.391   6.017
 9464SOL    HW229292   5.760   0.437   6.024
 9465SOL     OW29293   6.424   0.866   3.938
 9465SOL    HW129294   6.346   0.895   3.993
 9465SOL    HW229295   6.497   0.835   3.999
 9466SOL     OW29296   2.960   2.376   6.339
 9466SOL    HW129297   3.032   2.411   6.279
 9466SOL    HW229298   2.875   2.424   6.320
 9467SOL     OW29299   2.110   3.221   2.043
 9467SOL    HW129300   2.150   3.261   1.961
 9467SOL    HW229301   2.133   3.278   2.122
 9468SOL     OW29302   6.962   3.208   5.539
 9468SOL    HW129303   0.043   3.226   5.549
 9468SOL    HW229304   6.926   3.259   5.462
 9469SOL     OW29305   6.301   4.779   2.086
 9469SOL    HW129306   6.365   4.788   2.011
 9469SOL    HW229307   6.349   4.747   2.168
 9470SOL     OW29308   4.896   3.742   0.744
 9470SOL    HW129309   4.871   3.761   0.649
 9470SOL    HW229310   4.826   3.682   0.785
 9471SOL     OW29311   0.452   2.211   5.593
 9471SOL    HW129312   0.503   2.137   5.637
 9471SOL    HW229313   0.476   2.214   5.496
 9472SOL     OW29314   6.194   4.296   4.085
 9472SOL    HW129315   6.216   4.286   3.988
 9472SOL    HW229316   6.272   4.265   4.140
 9473SOL     OW29317   2.749   5.516   6.134
 9473SOL    HW129318   2.649   5.512   6.142
 9473SOL    HW229319   2.786   5.423   6.143
 9474SOL     OW29320   4.248   5.011   1.874
 9474SOL    HW129321   4.233   5.045   1.781
 9474SOL    HW229322   4.224   5.083   1.939
 9475SOL     OW29323   2.472   3.420   1.474
 9475SOL    HW129324   2.521   3.507   1.480
 9475SOL    HW229325   2.466   3.391   1.379
 9476SOL     OW29326   3.607   3.628   5.685
 9476SOL    HW129327   3.641   3.534   5.680
 9476SOL    HW229328   3.629   3.677   5.601
 9477SOL     OW29329   1.223   2.665   1.534
 9477SOL    HW129330   1.247   2.688   1.440
 9477SOL    HW229331   1.296   2.609   1.575
 9478SOL     OW29332   5.733   4.388   5.597
 9478SOL    HW129333   5.804   4.430   5.654
 9478SOL    HW229334   5.742   4.420   5.503
 9479SOL     OW29335   6.105   6.085   6.467
 9479SOL    HW129336   6.190   6.138   6.460
 9479SOL    HW229337   6.081   6.074   6.563
 9480SOL     OW29338   5.929   4.703   7.004
 9480SOL    HW129339   5.921   4.801   0.007
 9480SOL    HW229340   5.870   4.652   0.049
 9481SOL     OW29341   6.931   3.890   2.236
 9481SOL    HW129342   6.973   3.844   2.315
 9481SOL    HW229343   6.872   3.825   2.188
 9482SOL     OW29344   4.747   0.897   2.029
 9482SOL    HW129345   4.745   0.980   2.085
 9482SOL    HW229346   4.691   0.911   1.947
 9483SOL     OW29347   1.503   1.669   6.477
 9483SOL    HW129348   1.408   1.700   6.486
 9483SOL    HW229349   1.518   1.634   6.384
 9484SOL     OW29350   6.843   1.422   3.921
 9484SOL    HW129351   6.778   1.485   3.962
 9484SOL    HW229352   6.936   1.445   3.952
 9485SOL     OW29353   1.034   0.448   2.334
 9485SOL    HW129354   0.935   0.436   2.349
 9485SOL    HW229355   1.080   0.456   2.423
 9486SOL     OW29356   2.982   6.167   1.141
 9486SOL    HW129357   2.980   6.071   1.111
 9486SOL    HW229358   2.982   6.170   1.241
 9487SOL     OW29359   3.266   3.463   4.099
 9487SOL    HW129360   3.205   3.542   4.110
 9487SOL    HW229361   3.304   3.463   4.007
 9488SOL     OW29362   1.206   6.702   1.304
 9488SOL    HW129363   1.107   6.709   1.311
 9488SOL    HW229364   1.248   6.780   1.351
 9489SOL     OW29365   4.004   4.807   0.891
 9489SOL    HW129366   3.918   4.845   0.924
 9489SOL    HW229367   4.076   4.876   0.897
 9490SOL     OW29368   5.083   0.838   1.630
 9490SOL    HW129369   5.041   0.755   1.592
 9490SOL    HW229370   5.011   0.904   1.653
 9491SOL     OW29371   5.645   4.572   5.994
 9491SOL    HW129372   5.736   4.540   5.967
 9491SOL    HW229373   5.590   4.590   5.912
 9492SOL     OW29374   3.310   4.082   1.550
 9492SOL    HW129375   3.403   4.046   1.536
 9492SOL    HW229376   3.246   4.032   1.492
 9493SOL     OW29377   4.644   6.125   2.956
 9493SOL    HW129378   4.556   6.173   2.950
 9493SOL    HW229379   4.717   6.191   2.975
 9494SOL     OW29380   4.408   3.319   5.408
 9494SOL    HW129381   4.480   3.380   5.376
 9494SOL    HW229382   4.321   3.368   5.410
 9495SOL     OW29383   5.712   2.469   5.156
 9495SOL    HW129384   5.684   2.374   5.168
 9495SOL    HW229385   5.649   2.529   5.204
 9496SOL     OW29386   5.615   4.062   6.774
 9496SOL    HW129387   5.546   4.069   6.702
 9496SOL    HW229388   5.573   4.083   6.863
 9497SOL     OW29389   5.647   6.085   6.865
 9497SOL    HW129390   5.655   5.988   6.887
 9497SOL    HW229391   5.715   6.136   6.917
 9498SOL     OW29392   3.898   0.010   6.177
 9498SOL    HW129393   3.884   0.098   6.132
 9498SOL    HW229394   3.811   6.977   6.180
 9499SOL     OW29395   3.206   3.853   5.372
 9499SOL    HW129396   3.239   3.928   5.314
 9499SOL    HW229397   3.118   3.879   5.411
 9500SOL     OW29398   5.027   5.718   1.670
 9500SOL    HW129399   4.956   5.688   1.734
 9500SOL    HW229400   5.111   5.738   1.722
 9501SOL     OW29401   3.079   1.221   4.548
 9501SOL    HW129402   3.057   1.291   4.615
 9501SOL    HW229403   3.152   1.163   4.584
 9502SOL     OW29404   5.919   2.611   5.302
 9502SOL    HW129405   6.004   2.572   5.267
 9502SOL    HW229406   5.841   2.572   5.253
 9503SOL     OW29407   1.122   6.923   1.618
 9503SOL    HW129408   1.034   6.877   1.608
 9503SOL    HW229409   1.168   6.890   1.701
 9504SOL     OW29410   0.803   2.641   6.903
 9504SOL    HW129411   0.902   2.654   6.904
 9504SOL    HW229412   0.769   2.652   6.810
 9505SOL     OW29413   5.764   2.653   3.377
 9505SOL    HW129414   5.781   2.663   3.279
 9505SOL    HW229415   5.741   2.742   3.416
 9506SOL     OW29416   6.813   3.788   0.346
 9506SOL    HW129417   6.717   3.800   0.371
 9506SOL    HW229418   6.820   3.765   0.249
 9507SOL     OW29419   1.018   1.365   3.616
 9507SOL    HW129420   1.004   1.388   3.519
 9507SOL    HW229421   1.095   1.418   3.651
 9508SOL     OW29422   5.920   1.855   0.836
 9508SOL    HW129423   5.947   1.898   0.923
 9508SOL    HW229424   5.872   1.922   0.780
 9509SOL     OW29425   2.246   6.407   5.894
 9509SOL    HW129426   2.276   6.479   5.956
 9509SOL    HW229427   2.147   6.413   5.881
 9510SOL     OW29428   6.073   4.691   3.228
 9510SOL    HW129429   6.016   4.757   3.277
 9510SOL    HW229430   6.056   4.697   3.130
 9511SOL     OW29431   0.630   1.622   0.734
 9511SOL    HW129432   0.655   1.612   0.830
 9511SOL    HW229433   0.559   1.692   0.726
 9512SOL     OW29434   0.913   2.225   3.988
 9512SOL    HW129435   0.849   2.177   3.928
 9512SOL    HW229436   1.007   2.202   3.962
 9513SOL     OW29437   2.123   3.911   4.395
 9513SOL    HW129438   2.138   3.992   4.338
 9513SOL    HW229439   2.155   3.830   4.347
 9514SOL     OW29440   2.127   3.078   6.968
 9514SOL    HW129441   2.099   3.015   6.896
 9514SOL    HW229442   2.124   3.172   6.933
 9515SOL     OW29443   1.597   6.018   6.181
 9515SOL    HW129444   1.643   5.967   6.108
 9515SOL    HW229445   1.618   5.975   6.269
 9516SOL     OW29446   5.178   3.732   4.093
 9516SOL    HW129447   5.143   3.688   4.175
 9516SOL    HW229448   5.202   3.663   4.025
 9517SOL     OW29449   0.147   5.742   1.830
 9517SOL    HW129450   0.133   5.774   1.924
 9517SOL    HW229451   0.193   5.653   1.832
 9518SOL     OW29452   0.413   2.400   6.057
 9518SOL    HW129453   0.505   2.438   6.047
 9518SOL    HW229454   0.405   2.318   6.001
 9519SOL     OW29455   3.467   3.839   3.121
 9519SOL    HW129456   3.459   3.806   3.027
 9519SOL    HW229457   3.555   3.810   3.159
 9520SOL     OW29458   6.881   0.374   5.051
 9520SOL    HW129459   6.883   0.275   5.065
 9520SOL    HW229460   6.807   0.414   5.104
 9521SOL     OW29461   3.231   0.520   0.933
 9521SOL    HW129462   3.320   0.563   0.943
 9521SOL    HW229463   3.161   0.590   0.918
 9522SOL     OW29464   3.442   6.135   1.784
 9522SOL    HW129465   3.367   6.105   1.726
 9522SOL    HW229466   3.466   6.063   1.849
 9523SOL     OW29467   2.408   5.190   4.104
 9523SOL    HW129468   2.351   5.270   4.087
 9523SOL    HW229469   2.352   5.117   4.143
 9524SOL     OW29470   1.875   4.206   1.753
 9524SOL    HW129471   1.873   4.305   1.743
 9524SOL    HW229472   1.964   4.178   1.789
 9525SOL     OW29473   2.035   2.807   5.353
 9525SOL    HW129474   1.949   2.784   5.398
 9525SOL    HW229475   2.075   2.888   5.397
 9526SOL     OW29476   5.502   4.592   0.145
 9526SOL    HW129477   5.484   4.565   0.050
 9526SOL    HW229478   5.464   4.683   0.161
 9527SOL     OW29479   3.777   6.606   3.373
 9527SOL    HW129480   3.869   6.646   3.378
 9527SOL    HW229481   3.714   6.672   3.333
 9528SOL     OW29482   5.675   1.710   0.977
 9528SOL    HW129483   5.756   1.743   0.929
 9528SOL    HW229484   5.616   1.788   0.999
 9529SOL     OW29485   6.134   1.728   1.563
 9529SOL    HW129486   6.103   1.634   1.553
 9529SOL    HW229487   6.167   1.761   1.475
 9530SOL     OW29488   0.606   5.637   3.752
 9530SOL    HW129489   0.627   5.671   3.660
 9530SOL    HW229490   0.524   5.682   3.787
 9531SOL     OW29491   3.775   4.826   2.829
 9531SOL    HW129492   3.772   4.833   2.729
 9531SOL    HW229493   3.713   4.893   2.869
 9532SOL     OW29494   5.690   5.047   2.394
 9532SOL    HW129495   5.757   5.090   2.334
 9532SOL    HW229496   5.700   4.948   2.389
 9533SOL     OW29497   2.322   4.987   3.523
 9533SOL    HW129498   2.357   4.948   3.608
 9533SOL    HW229499   2.399   5.021   3.468
 9534SOL     OW29500   5.265   4.594   5.357
 9534SOL    HW129501   5.339   4.623   5.295
 9534SOL    HW229502   5.185   4.570   5.303
 9535SOL     OW29503   0.938   1.086   5.372
 9535SOL    HW129504   1.026   1.048   5.345
 9535SOL    HW229505   0.869   1.013   5.375
 9536SOL     OW29506   3.804   3.815   4.636
 9536SOL    HW129507   3.843   3.726   4.657
 9536SOL    HW229508   3.855   3.857   4.561
 9537SOL     OW29509   1.638   1.069   4.078
 9537SOL    HW129510   1.610   1.157   4.039
 9537SOL    HW229511   1.624   1.070   4.177
 9538SOL     OW29512   3.292   0.574   4.868
 9538SOL    HW129513   3.242   0.556   4.784
 9538SOL    HW229514   3.314   0.671   4.874
 9539SOL     OW29515   3.401   2.886   3.310
 9539SOL    HW129516   3.438   2.852   3.397
 9539SOL    HW229517   3.452   2.846   3.234
 9540SOL     OW29518   4.940   4.981   4.141
 9540SOL    HW129519   4.917   4.888   4.171
 9540SOL    HW229520   5.023   4.980   4.087
 9541SOL     OW29521   1.651   5.770   4.929
 9541SOL    HW129522   1.721   5.828   4.886
 9541SOL    HW229523   1.695   5.703   4.989
 9542SOL     OW29524   5.767   4.567   4.672
 9542SOL    HW129525   5.798   4.503   4.742
 9542SOL    HW229526   5.817   4.653   4.682
 9543SOL     OW29527   2.562   0.995   5.978
 9543SOL    HW129528   2.527   1.068   5.920
 9543SOL    HW229529   2.580   0.914   5.923
 9544SOL     OW29530   5.238   3.343   3.731
 9544SOL    HW129531   5.187   3.264   3.764
 9544SOL    HW229532   5.270   3.325   3.637
 9545SOL     OW29533   1.134   4.614   2.081
 9545SOL    HW129534   1.221   4.646   2.045
 9545SOL    HW229535   1.145   4.589   2.178
 9546SOL     OW29536   2.716   1.707   6.354
 9546SOL    HW129537   2.796   1.762   6.377
 9546SOL    HW229538   2.687   1.655   6.434
 9547SOL     OW29539   3.635   5.917   3.917
 9547SOL    HW129540   3.572   5.901   3.993
 9547SOL    HW229541   3.725   5.941   3.953
 9548SOL     OW29542   1.220   4.834   6.433
 9548SOL    HW129543   1.260   4.749   6.467
 9548SOL    HW229544   1.127   4.817   6.402
 9549SOL     OW29545   4.569   1.939   1.618
 9549SOL    HW129546   4.473   1.921   1.595
 9549SOL    HW229547   4.628   1.894   1.551
 9550SOL     OW29548   4.981   2.781   1.673
 9550SOL    HW129549   5.020   2.689   1.675
 9550SOL    HW229550   4.939   2.801   1.762
 9551SOL     OW29551   6.672   2.044   6.534
 9551SOL    HW129552   6.701   1.988   6.457
 9551SOL    HW229553   6.625   2.126   6.500
 9552SOL     OW29554   2.641   0.986   6.416
 9552SOL    HW129555   2.667   1.054   6.485
 9552SOL    HW229556   2.542   0.987   6.404
 9553SOL     OW29557   5.931   2.097   6.885
 9553SOL    HW129558   5.918   2.072   6.789
 9553SOL    HW229559   5.896   2.189   6.900
 9554SOL     OW29560   1.924   6.731   4.260
 9554SOL    HW129561   1.952   6.708   4.167
 9554SOL    HW229562   1.983   6.684   4.325
 9555SOL     OW29563   6.405   0.455   4.053
 9555SOL    HW129564   6.357   0.537   4.085
 9555SOL    HW229565   6.456   0.414   4.129
 9556SOL     OW29566   2.448   3.992   0.952
 9556SOL    HW129567   2.507   4.072   0.963
 9556SOL    HW229568   2.499   3.919   0.905
 9557SOL     OW29569   5.036   0.491   1.902
 9557SOL    HW129570   5.000   0.583   1.916
 9557SOL    HW229571   4.989   0.447   1.825
 9558SOL     OW29572   5.528   6.675   6.152
 9558SOL    HW129573   5.508   6.577   6.152
 9558SOL    HW229574   5.446   6.726   6.128
 9559SOL     OW29575   1.909   3.911   0.708
 9559SOL    HW129576   1.936   3.934   0.615
 9559SOL    HW229577   1.990   3.883   0.760
 9560SOL     OW29578   3.185   6.846   1.715
 9560SOL    HW129579   3.147   6.757   1.741
 9560SOL    HW229580   3.113   6.914   1.712
 9561SOL     OW29581   1.164   0.884   1.078
 9561SOL    HW129582   1.225   0.825   1.024
 9561SOL    HW229583   1.092   0.919   1.020
 9562SOL     OW29584   2.774   5.402   3.790
 9562SOL    HW129585   2.760   5.496   3.759
 9562SOL    HW229586   2.749   5.394   3.886
 9563SOL     OW29587   1.124   6.370   0.822
 9563SOL    HW129588   1.065   6.434   0.873
 9563SOL    HW229589   1.103   6.276   0.849
 9564SOL     OW29590   1.742   0.047   0.503
 9564SOL    HW129591   1.793   6.980   0.482
 9564SOL    HW229592   1.723   0.050   0.601
 9565SOL     OW29593   3.546   1.303   4.057
 9565SOL    HW129594   3.571   1.280   3.963
 9565SOL    HW229595   3.618   1.273   4.119
 9566SOL     OW29596   2.180   6.728   0.783
 9566SOL    HW129597   2.218   6.686   0.701
 9566SOL    HW229598   2.152   6.821   0.762
 9567SOL     OW29599   6.400   4.708   0.623
 9567SOL    HW129600   6.359   4.790   0.662
 9567SOL    HW229601   6.393   4.711   0.523
 9568SOL     OW29602   4.179   2.055   6.898
 9568SOL    HW129603   4.081   2.042   6.909
 9568SOL    HW229604   4.228   1.977   6.937
 9569SOL     OW29605   5.536   0.257   1.911
 9569SOL    HW129606   5.610   0.325   1.905
 9569SOL    HW229607   5.492   0.264   2.000
 9570SOL     OW29608   6.940   2.919   0.984
 9570SOL    HW129609   6.867   2.949   0.923
 9570SOL    HW229610   6.906   2.916   1.078
 9571SOL     OW29611   2.534   2.427   6.881
 9571SOL    HW129612   2.598   2.498   6.851
 9571SOL    HW229613   2.568   2.384   6.964
 9572SOL     OW29614   2.373   4.283   3.265
 9572SOL    HW129615   2.342   4.226   3.341
 9572SOL    HW229616   2.338   4.245   3.179
 9573SOL     OW29617   6.960   1.231   4.821
 9573SOL    HW129618   6.952   1.131   4.824
 9573SOL    HW229619   6.979   1.260   4.727
 9574SOL     OW29620   3.899   3.070   1.165
 9574SOL    HW129621   3.984   3.096   1.212
 9574SOL    HW229622   3.919   2.999   1.097
 9575SOL     OW29623   5.723   6.450   1.847
 9575SOL    HW129624   5.812   6.406   1.859
 9575SOL    HW229625   5.682   6.419   1.762
 9576SOL     OW29626   1.043   1.061   0.341
 9576SOL    HW129627   0.954   1.091   0.305
 9576SOL    HW229628   1.111   1.133   0.325
 9577SOL     OW29629   6.510   5.789   1.480
 9577SOL    HW129630   6.418   5.757   1.502
 9577SOL    HW229631   6.570   5.710   1.468
 9578SOL     OW29632   1.197   2.536   3.109
 9578SOL    HW129633   1.183   2.518   3.012
 9578SOL    HW229634   1.292   2.520   3.133
 9579SOL     OW29635   5.808   6.513   2.217
 9579SOL    HW129636   5.767   6.578   2.282
 9579SOL    HW229637   5.739   6.485   2.150
 9580SOL     OW29638   4.891   4.698   1.369
 9580SOL    HW129639   4.803   4.709   1.323
 9580SOL    HW229640   4.962   4.683   1.301
 9581SOL     OW29641   6.162   0.544   0.185
 9581SOL    HW129642   6.088   0.488   0.149
 9581SOL    HW229643   6.154   0.638   0.151
 9582SOL     OW29644   3.774   5.533   4.088
 9582SOL    HW129645   3.790   5.567   4.181
 9582SOL    HW229646   3.684   5.491   4.083
 9583SOL     OW29647   3.456   4.585   1.655
 9583SOL    HW129648   3.506   4.636   1.726
 9583SOL    HW229649   3.517   4.518   1.613
 9584SOL     OW29650   1.744   4.097   4.350
 9584SOL    HW129651   1.779   4.124   4.260
 9584SOL    HW229652   1.687   4.171   4.387
 9585SOL     OW29653   5.085   5.950   1.466
 9585SOL    HW129654   5.080   6.003   1.550
 9585SOL    HW229655   5.108   5.855   1.487
 9586SOL     OW29656   4.471   4.977   1.445
 9586SOL    HW129657   4.522   4.898   1.476
 9586SOL    HW229658   4.520   5.061   1.469
 9587SOL     OW29659   2.470   6.342   1.569
 9587SOL    HW129660   2.495   6.277   1.497
 9587SOL    HW229661   2.458   6.433   1.530
 9588SOL     OW29662   6.481   6.287   0.616
 9588SOL    HW129663   6.573   6.268   0.650
 9588SOL    HW229664   6.464   6.233   0.533
 9589SOL     OW29665   1.500   3.798   6.489
 9589SOL    HW129666   1.497   3.701   6.513
 9589SOL    HW229667   1.559   3.810   6.409
 9590SOL     OW29668   5.233   1.609   2.081
 9590SOL    HW129669   5.274   1.595   2.172
 9590SOL    HW229670   5.252   1.530   2.024
 9591SOL     OW29671   3.393   6.967   6.521
 9591SOL    HW129672   3.300   6.939   6.542
 9591SOL    HW229673   3.443   6.890   6.481
 9592SOL     OW29674   2.592   4.166   6.756
 9592SOL    HW129675   2.639   4.252   6.774
 9592SOL    HW229676   2.526   4.147   6.829
 9593SOL     OW29677   1.835   1.424   5.780
 9593SOL    HW129678   1.857   1.495   5.714
 9593SOL    HW229679   1.920   1.390   5.822
 9594SOL     OW29680   1.475   6.002   3.848
 9594SOL    HW129681   1.543   6.015   3.920
 9594SOL    HW229682   1.516   5.947   3.774
 9595SOL     OW29683   0.320   3.070   3.797
 9595SOL    HW129684   0.381   3.105   3.726
 9595SOL    HW229685   0.244   3.133   3.811
 9596SOL     OW29686   0.241   5.758   1.168
 9596SOL    HW129687   0.272   5.835   1.225
 9596SOL    HW229688   0.262   5.672   1.214
 9597SOL     OW29689   1.074   4.100   2.716
 9597SOL    HW129690   1.080   4.197   2.738
 9597SOL    HW229691   1.036   4.089   2.624
 9598SOL     OW29692   1.676   3.783   2.840
 9598SOL    HW129693   1.690   3.822   2.931
 9598SOL    HW229694   1.751   3.722   2.817
 9599SOL     OW29695   3.125   6.926   3.451
 9599SOL    HW129696   3.050   6.971   3.403
 9599SOL    HW229697   3.099   6.832   3.472
 9600SOL     OW29698   2.937   0.515   1.085
 9600SOL    HW129699   2.950   0.595   1.026
 9600SOL    HW229700   2.891   0.443   1.034
 9601SOL     OW29701   6.322   4.710   1.023
 9601SOL    HW129702   6.362   4.781   1.081
 9601SOL    HW229703   6.303   4.629   1.077
 9602SOL     OW29704   4.635   4.290   5.454
 9602SOL    HW129705   4.566   4.301   5.382
 9602SOL    HW229706   4.663   4.194   5.459
 9603SOL     OW29707   5.596   6.855   5.856
 9603SOL    HW129708   5.695   6.846   5.861
 9603SOL    HW229709   5.560   6.887   5.944
 9604SOL     OW29710   4.911   0.554   0.603
 9604SOL    HW129711   4.830   0.585   0.554
 9604SOL    HW229712   4.905   0.581   0.699
 9605SOL     OW29713   6.785   4.819   3.665
 9605SOL    HW129714   6.787   4.913   3.632
 9605SOL    HW229715   6.753   4.817   3.759
 9606SOL     OW29716   1.129   1.250   6.438
 9606SOL    HW129717   1.152   1.277   6.532
 9606SOL    HW229718   1.122   1.331   6.381
 9607SOL     OW29719   3.102   1.890   6.174
 9607SOL    HW129720   3.152   1.965   6.215
 9607SOL    HW229721   3.004   1.904   6.185
 9608SOL     OW29722   6.618   4.258   2.926
 9608SOL    HW129723   6.531   4.270   2.975
 9608SOL    HW229724   6.600   4.211   2.839
 9609SOL     OW29725   3.881   2.738   6.481
 9609SOL    HW129726   3.856   2.832   6.502
 9609SOL    HW229727   3.964   2.738   6.426
 9610SOL     OW29728   2.331   4.700   2.687
 9610SOL    HW129729   2.416   4.662   2.725
 9610SOL    HW229730   2.350   4.739   2.597
 9611SOL     OW29731   2.022   6.600   1.183
 9611SOL    HW129732   1.929   6.562   1.179
 9611SOL    HW229733   2.086   6.527   1.205
 9612SOL     OW29734   0.566   3.142   2.099
 9612SOL    HW129735   0.486   3.106   2.051
 9612SOL    HW229736   0.591   3.231   2.061
 9613SOL     OW29737   6.132   6.052   3.507
 9613SOL    HW129738   6.225   6.090   3.504
 9613SOL    HW229739   6.070   6.119   3.548
 9614SOL     OW29740   4.198   2.308   3.239
 9614SOL    HW129741   4.231   2.395   3.277
 9614SOL    HW229742   4.125   2.272   3.296
 9615SOL     OW29743   2.462   2.534   0.788
 9615SOL    HW129744   2.466   2.499   0.882
 9615SOL    HW229745   2.535   2.493   0.734
 9616SOL     OW29746   3.798   2.701   1.050
 9616SOL    HW129747   3.773   2.718   1.145
 9616SOL    HW229748   3.878   2.640   1.047
 9617SOL     OW29749   2.141   2.962   3.705
 9617SOL    HW129750   2.117   3.017   3.625
 9617SOL    HW229751   2.166   2.870   3.676
 9618SOL     OW29752   3.331   1.329   0.798
 9618SOL    HW129753   3.311   1.258   0.730
 9618SOL    HW229754   3.323   1.419   0.755
 9619SOL     OW29755   1.626   0.612   5.681
 9619SOL    HW129756   1.625   0.710   5.664
 9619SOL    HW229757   1.589   0.563   5.602
 9620SOL     OW29758   5.061   0.182   4.958
 9620SOL    HW129759   4.985   0.128   4.921
 9620SOL    HW229760   5.054   0.276   4.926
 9621SOL     OW29761   1.680   2.731   2.309
 9621SOL    HW129762   1.624   2.667   2.256
 9621SOL    HW229763   1.622   2.805   2.343
 9622SOL     OW29764   5.706   1.247   0.952
 9622SOL    HW129765   5.798   1.269   0.984
 9622SOL    HW229766   5.643   1.250   1.030
 9623SOL     OW29767   2.947   2.885   6.550
 9623SOL    HW129768   2.941   2.816   6.478
 9623SOL    HW229769   2.912   2.972   6.516
 9624SOL     OW29770   5.782   3.422   2.961
 9624SOL    HW129771   5.847   3.358   3.001
 9624SOL    HW229772   5.794   3.512   3.004
 9625SOL     OW29773   5.734   5.904   0.341
 9625SOL    HW129774   5.717   5.977   0.275
 9625SOL    HW229775   5.791   5.938   0.415
 9626SOL     OW29776   4.203   5.008   0.851
 9626SOL    HW129777   4.284   5.016   0.909
 9626SOL    HW229778   4.168   5.099   0.830
 9627SOL     OW29779   0.720   6.038   6.173
 9627SOL    HW129780   0.662   6.113   6.206
 9627SOL    HW229781   0.815   6.058   6.195
 9628SOL     OW29782   4.826   6.173   0.869
 9628SOL    HW129783   4.737   6.218   0.862
 9628SOL    HW229784   4.813   6.074   0.870
 9629SOL     OW29785   2.373   0.547   1.254
 9629SOL    HW129786   2.370   0.501   1.342
 9629SOL    HW229787   2.310   0.624   1.254
 9630SOL     OW29788   6.432   0.806   6.130
 9630SOL    HW129789   6.362   0.877   6.140
 9630SOL    HW229790   6.449   0.790   6.032
 9631SOL     OW29791   6.502   0.154   6.426
 9631SOL    HW129792   6.428   0.176   6.362
 9631SOL    HW229793   6.540   0.239   6.463
 9632SOL     OW29794   1.841   6.226   2.204
 9632SOL    HW129795   1.829   6.134   2.241
 9632SOL    HW229796   1.826   6.225   2.105
 9633SOL     OW29797   5.777   5.834   6.960
 9633SOL    HW129798   5.867   5.850   7.000
 9633SOL    HW229799   5.770   5.738   6.932
 9634SOL     OW29800   1.563   6.289   4.872
 9634SOL    HW129801   1.478   6.338   4.850
 9634SOL    HW229802   1.641   6.340   4.836
 9635SOL     OW29803   2.623   5.475   4.625
 9635SOL    HW129804   2.650   5.411   4.697
 9635SOL    HW229805   2.535   5.446   4.586
 9636SOL     OW29806   3.862   1.414   5.247
 9636SOL    HW129807   3.872   1.480   5.322
 9636SOL    HW229808   3.948   1.407   5.197
 9637SOL     OW29809   1.743   1.830   6.584
 9637SOL    HW129810   1.737   1.896   6.509
 9637SOL    HW229811   1.660   1.773   6.584
 9638SOL     OW29812   6.442   3.348   5.019
 9638SOL    HW129813   6.425   3.435   5.066
 9638SOL    HW229814   6.517   3.300   5.063
 9639SOL     OW29815   4.985   1.333   2.701
 9639SOL    HW129816   4.922   1.257   2.714
 9639SOL    HW229817   4.946   1.416   2.741
 9640SOL     OW29818   2.350   2.745   2.984
 9640SOL    HW129819   2.443   2.718   2.961
 9640SOL    HW229820   2.303   2.667   3.026
 9641SOL     OW29821   5.428   0.254   0.478
 9641SOL    HW129822   5.522   0.279   0.456
 9641SOL    HW229823   5.424   0.216   0.570
 9642SOL     OW29824   3.299   0.307   4.775
 9642SOL    HW129825   3.224   0.284   4.838
 9642SOL    HW229826   3.322   0.404   4.785
 9643SOL     OW29827   5.301   4.542   3.981
 9643SOL    HW129828   5.247   4.502   3.906
 9643SOL    HW229829   5.351   4.621   3.946
 9644SOL     OW29830   0.966   2.919   6.443
 9644SOL    HW129831   0.920   2.950   6.360
 9644SOL    HW229832   0.909   2.852   6.490
 9645SOL     OW29833   2.927   5.217   5.384
 9645SOL    HW129834   2.956   5.299   5.336
 9645SOL    HW229835   2.914   5.237   5.481
 9646SOL     OW29836   3.922   4.931   2.504
 9646SOL    HW129837   3.920   5.026   2.534
 9646SOL    HW229838   3.835   4.887   2.526
 9647SOL     OW29839   6.574   3.407   1.145
 9647SOL    HW129840   6.565   3.389   1.047
 9647SOL    HW229841   6.486   3.437   1.181
 9648SOL     OW29842   4.523   2.683   1.079
 9648SOL    HW129843   4.573   2.747   1.138
 9648SOL    HW229844   4.540   2.589   1.110
 9649SOL     OW29845   2.070   5.706   0.399
 9649SOL    HW129846   2.041   5.706   0.494
 9649SOL    HW229847   2.056   5.796   0.359
 9650SOL     OW29848   6.433   5.628   2.155
 9650SOL    HW129849   6.492   5.693   2.106
 9650SOL    HW229850   6.459   5.535   2.131
 9651SOL     OW29851   0.831   1.405   6.312
 9651SOL    HW129852   0.786   1.474   6.255
 9651SOL    HW229853   0.930   1.419   6.309
 9652SOL     OW29854   0.328   4.865   3.197
 9652SOL    HW129855   0.416   4.851   3.152
 9652SOL    HW229856   0.255   4.867   3.128
 9653SOL     OW29857   5.222   5.108   4.418
 9653SOL    HW129858   5.127   5.138   4.416
 9653SOL    HW229859   5.283   5.187   4.411
 9654SOL     OW29860   2.306   2.757   2.188
 9654SOL    HW129861   2.264   2.848   2.188
 9654SOL    HW229862   2.380   2.755   2.120
 9655SOL     OW29863   6.964   1.527   6.684
 9655SOL    HW129864   6.983   1.618   6.647
 9655SOL    HW229865   6.947   1.463   6.609
 9656SOL     OW29866   3.592   0.511   2.699
 9656SOL    HW129867   3.642   0.438   2.746
 9656SOL    HW229868   3.513   0.538   2.754
 9657SOL     OW29869   6.276   1.072   4.997
 9657SOL    HW129870   6.186   1.113   4.991
 9657SOL    HW229871   6.282   0.994   4.934
 9658SOL     OW29872   6.351   2.701   1.642
 9658SOL    HW129873   6.360   2.602   1.640
 9658SOL    HW229874   6.396   2.740   1.561
 9659SOL     OW29875   0.719   4.570   0.208
 9659SOL    HW129876   0.714   4.482   0.255
 9659SOL    HW229877   0.721   4.644   0.274
 9660SOL     OW29878   0.853   5.257   0.263
 9660SOL    HW129879   0.771   5.247   0.319
 9660SOL    HW229880   0.932   5.224   0.316
 9661SOL     OW29881   4.524   6.760   0.566
 9661SOL    HW129882   4.480   6.739   0.479
 9661SOL    HW229883   4.619   6.789   0.550
 9662SOL     OW29884   6.077   1.314   4.676
 9662SOL    HW129885   6.167   1.289   4.712
 9662SOL    HW229886   6.007   1.256   4.717
 9663SOL     OW29887   2.390   5.211   2.910
 9663SOL    HW129888   2.489   5.206   2.923
 9663SOL    HW229889   2.369   5.275   2.836
 9664SOL     OW29890   3.847   6.758   2.138
 9664SOL    HW129891   3.794   6.754   2.054
 9664SOL    HW229892   3.800   6.704   2.209
 9665SOL     OW29893   5.490   4.421   4.841
 9665SOL    HW129894   5.507   4.518   4.820
 9665SOL    HW229895   5.437   4.380   4.768
 9666SOL     OW29896   5.176   4.383   2.765
 9666SOL    HW129897   5.079   4.385   2.741
 9666SOL    HW229898   5.228   4.438   2.699
 9667SOL     OW29899   3.965   3.696   4.304
 9667SOL    HW129900   3.949   3.628   4.233
 9667SOL    HW229901   3.954   3.788   4.265
 9668SOL     OW29902   0.580   0.938   5.249
 9668SOL    HW129903   0.535   1.027   5.239
 9668SOL    HW229904   0.566   0.885   5.165
 9669SOL     OW29905   1.223   6.511   0.594
 9669SOL    HW129906   1.139   6.540   0.548
 9669SOL    HW229907   1.201   6.448   0.668
 9670SOL     OW29908   4.965   4.877   6.479
 9670SOL    HW129909   4.875   4.832   6.471
 9670SOL    HW229910   5.037   4.809   6.467
 9671SOL     OW29911   6.922   5.740   5.518
 9671SOL    HW129912   6.990   5.724   5.446
 9671SOL    HW229913   6.941   5.826   5.564
 9672SOL     OW29914   0.767   6.203   4.962
 9672SOL    HW129915   0.741   6.224   4.868
 9672SOL    HW229916   0.702   6.137   5.000
 9673SOL     OW29917   3.384   4.011   6.634
 9673SOL    HW129918   3.444   4.068   6.577
 9673SOL    HW229919   3.418   3.917   6.633
 9674SOL     OW29920   3.350   5.861   2.279
 9674SOL    HW129921   3.278   5.914   2.324
 9674SOL    HW229922   3.426   5.921   2.255
 9675SOL     OW29923   6.450   2.371   2.101
 9675SOL    HW129924   6.407   2.347   2.188
 9675SOL    HW229925   6.549   2.377   2.114
 9676SOL     OW29926   0.732   3.960   4.411
 9676SOL    HW129927   0.697   4.046   4.373
 9676SOL    HW229928   0.753   3.897   4.337
 9677SOL     OW29929   2.017   3.341   6.140
 9677SOL    HW129930   2.097   3.332   6.081
 9677SOL    HW229931   1.936   3.358   6.084
 9678SOL     OW29932   4.057   3.785   3.352
 9678SOL    HW129933   4.091   3.693   3.334
 9678SOL    HW229934   4.127   3.852   3.325
 9679SOL     OW29935   1.264   2.374   1.835
 9679SOL    HW129936   1.165   2.368   1.820
 9679SOL    HW229937   1.296   2.465   1.809
 9680SOL     OW29938   6.190   5.838   3.345
 9680SOL    HW129939   6.231   5.893   3.274
 9680SOL    HW229940   6.163   5.896   3.422
 9681SOL     OW29941   2.065   1.034   2.508
 9681SOL    HW129942   2.009   0.981   2.571
 9681SOL    HW229943   2.161   1.024   2.533
 9682SOL     OW29944   5.360   4.663   2.973
 9682SOL    HW129945   5.327   4.694   2.884
 9682SOL    HW229946   5.456   4.636   2.966
 9683SOL     OW29947   4.523   6.496   0.145
 9683SOL    HW129948   4.563   6.561   0.080
 9683SOL    HW229949   4.486   6.417   0.096
 9684SOL     OW29950   1.105   4.358   4.894
 9684SOL    HW129951   1.089   4.315   4.806
 9684SOL    HW229952   1.159   4.297   4.952
 9685SOL     OW29953   1.199   2.618   0.754
 9685SOL    HW129954   1.199   2.682   0.831
 9685SOL    HW229955   1.106   2.586   0.737
 9686SOL     OW29956   6.142   0.811   1.595
 9686SOL    HW129957   6.131   0.878   1.522
 9686SOL    HW229958   6.131   0.856   1.684
 9687SOL     OW29959   2.756   0.102   3.583
 9687SOL    HW129960   2.759   0.016   3.633
 9687SOL    HW229961   2.824   0.166   3.619
 9688SOL     OW29962   0.147   1.367   2.845
 9688SOL    HW129963   0.049   1.346   2.843
 9688SOL    HW229964   0.197   1.289   2.883
 9689SOL     OW29965   2.842   6.265   6.730
 9689SOL    HW129966   2.886   6.354   6.724
 9689SOL    HW229967   2.865   6.210   6.650
 9690SOL     OW29968   6.406   5.103   0.833
 9690SOL    HW129969   6.352   5.161   0.771
 9690SOL    HW229970   6.485   5.066   0.783
 9691SOL     OW29971   1.850   5.515   2.141
 9691SOL    HW129972   1.843   5.464   2.227
 9691SOL    HW229973   1.760   5.550   2.115
 9692SOL     OW29974   2.828   5.298   1.487
 9692SOL    HW129975   2.812   5.391   1.454
 9692SOL    HW229976   2.762   5.275   1.558
 9693SOL     OW29977   6.253   6.285   1.827
 9693SOL    HW129978   6.236   6.372   1.782
 9693SOL    HW229979   6.262   6.299   1.926
 9694SOL     OW29980   1.379   2.629   6.714
 9694SOL    HW129981   1.284   2.603   6.695
 9694SOL    HW229982   1.407   2.590   6.802
 9695SOL     OW29983   6.783   4.541   1.512
 9695SOL    HW129984   6.761   4.445   1.528
 9695SOL    HW229985   6.764   4.594   1.595
 9696SOL     OW29986   3.913   3.070   1.578
 9696SOL    HW129987   3.817   3.075   1.606
 9696SOL    HW229988   3.969   3.051   1.658
 9697SOL     OW29989   0.315   5.278   6.924
 9697SOL    HW129990   0.222   5.251   6.897
 9697SOL    HW229991   0.370   5.196   6.938
 9698SOL     OW29992   5.759   1.974   5.157
 9698SOL    HW129993   5.811   2.021   5.085
 9698SOL    HW229994   5.765   1.875   5.143
 9699SOL     OW29995   1.798   3.451   0.024
 9699SOL    HW129996   1.737   3.516   0.070
 9699SOL    HW229997   1.814   3.373   0.084
 9700SOL     OW29998   3.706   4.280   5.227
 9700SOL    HW129999   3.623   4.315   5.271
 9700SOL    HW230000   3.685   4.196   5.177
 9701SOL     OW30001   4.445   5.444   4.705
 9701SOL    HW130002   4.422   5.497   4.624
 9701SOL    HW230003   4.494   5.502   4.770
 9702SOL     OW30004   4.530   1.307   0.771
 9702SOL    HW130005   4.531   1.244   0.693
 9702SOL    HW230006   4.612   1.364   0.769
 9703SOL     OW30007   2.759   5.732   4.165
 9703SOL    HW130008   2.857   5.738   4.149
 9703SOL    HW230009   2.743   5.703   4.260
 9704SOL     OW30010   3.718   6.883   3.340
 9704SOL    HW130011   3.673   6.935   3.412
 9704SOL    HW230012   3.815   6.873   3.361
 9705SOL     OW30013   3.218   4.661   0.132
 9705SOL    HW130014   3.279   4.735   0.161
 9705SOL    HW230015   3.136   4.661   0.188
 9706SOL     OW30016   5.932   2.804   2.476
 9706SOL    HW130017   5.994   2.728   2.455
 9706SOL    HW230018   5.956   2.842   2.566
 9707SOL     OW30019   2.466   5.194   2.232
 9707SOL    HW130020   2.464   5.291   2.256
 9707SOL    HW230021   2.424   5.182   2.142
 9708SOL     OW30022   2.313   1.478   3.262
 9708SOL    HW130023   2.347   1.485   3.356
 9708SOL    HW230024   2.262   1.393   3.252
 9709SOL     OW30025   1.798   6.499   3.010
 9709SOL    HW130026   1.856   6.419   3.003
 9709SOL    HW230027   1.736   6.503   2.931
 9710SOL     OW30028   0.287   1.181   2.997
 9710SOL    HW130029   0.361   1.236   3.035
 9710SOL    HW230030   0.247   1.124   3.069
 9711SOL     OW30031   1.153   3.699   5.098
 9711SOL    HW130032   1.117   3.787   5.127
 9711SOL    HW230033   1.224   3.713   5.029
 9712SOL     OW30034   5.131   1.739   4.368
 9712SOL    HW130035   5.158   1.652   4.327
 9712SOL    HW230036   5.211   1.781   4.411
 9713SOL     OW30037   6.744   4.828   2.910
 9713SOL    HW130038   6.701   4.757   2.966
 9713SOL    HW230039   6.843   4.822   2.918
 9714SOL     OW30040   2.343   2.362   1.453
 9714SOL    HW130041   2.385   2.282   1.496
 9714SOL    HW230042   2.339   2.437   1.519
 9715SOL     OW30043   5.102   5.818   4.948
 9715SOL    HW130044   5.123   5.839   4.852
 9715SOL    HW230045   5.159   5.742   4.979
 9716SOL     OW30046   4.262   1.909   6.372
 9716SOL    HW130047   4.275   1.935   6.467
 9716SOL    HW230048   4.225   1.817   6.367
 9717SOL     OW30049   6.037   5.856   3.944
 9717SOL    HW130050   6.005   5.770   3.985
 9717SOL    HW230051   6.030   5.930   4.012
 9718SOL     OW30052   4.044   3.339   1.491
 9718SOL    HW130053   3.991   3.260   1.460
 9718SOL    HW230054   4.007   3.371   1.579
 9719SOL     OW30055   0.689   2.084   0.462
 9719SOL    HW130056   0.703   2.125   0.372
 9719SOL    HW230057   0.775   2.043   0.494
 9720SOL     OW30058   0.019   6.969   1.925
 9720SOL    HW130059   0.111   6.932   1.940
 9720SOL    HW230060   6.997   7.001   2.012
 9721SOL     OW30061   6.474   4.019   2.094
 9721SOL    HW130062   6.415   4.053   2.020
 9721SOL    HW230063   6.474   3.919   2.094
 9722SOL     OW30064   0.656   0.594   3.946
 9722SOL    HW130065   0.639   0.675   4.002
 9722SOL    HW230066   0.570   0.546   3.930
 9723SOL     OW30067   7.016   0.929   3.621
 9723SOL    HW130068   0.093   0.927   3.585
 9723SOL    HW230069   6.967   0.847   3.592
 9724SOL     OW30070   3.124   2.287   1.101
 9724SOL    HW130071   3.129   2.242   1.190
 9724SOL    HW230072   3.216   2.307   1.068
 9725SOL     OW30073   4.646   3.165   5.278
 9725SOL    HW130074   4.549   3.170   5.301
 9725SOL    HW230075   4.677   3.070   5.285
 9726SOL     OW30076   4.852   6.657   4.794
 9726SOL    HW130077   4.790   6.628   4.868
 9726SOL    HW230078   4.930   6.706   4.833
 9727SOL     OW30079   1.106   3.113   5.800
 9727SOL    HW130080   1.205   3.127   5.805
 9727SOL    HW230081   1.086   3.018   5.824
 9728SOL     OW30082   2.539   5.705   6.600
 9728SOL    HW130083   2.504   5.785   6.553
 9728SOL    HW230084   2.621   5.672   6.554
 9729SOL     OW30085   2.097   4.833   3.033
 9729SOL    HW130086   2.193   4.860   3.033
 9729SOL    HW230087   2.079   4.776   2.953
 9730SOL     OW30088   6.476   3.288   2.647
 9730SOL    HW130089   6.388   3.323   2.614
 9730SOL    HW230090   6.468   3.189   2.664
 9731SOL     OW30091   3.612   5.244   0.464
 9731SOL    HW130092   3.604   5.296   0.549
 9731SOL    HW230093   3.522   5.212   0.435
 9732SOL     OW30094   6.335   6.192   2.808
 9732SOL    HW130095   6.398   6.115   2.820
 9732SOL    HW230096   6.254   6.177   2.864
 9733SOL     OW30097   4.805   4.849   5.304
 9733SOL    HW130098   4.771   4.756   5.290
 9733SOL    HW230099   4.753   4.912   5.247
 9734SOL     OW30100   5.479   2.054   4.083
 9734SOL    HW130101   5.455   2.111   4.004
 9734SOL    HW230102   5.576   2.068   4.105
 9735SOL     OW30103   1.932   4.585   1.639
 9735SOL    HW130104   1.897   4.550   1.726
 9735SOL    HW230105   1.882   4.542   1.564
 9736SOL     OW30106   4.079   0.738   6.843
 9736SOL    HW130107   4.019   0.744   6.922
 9736SOL    HW230108   4.163   0.790   6.859
 9737SOL     OW30109   4.036   2.187   5.015
 9737SOL    HW130110   4.109   2.256   5.013
 9737SOL    HW230111   4.021   2.153   4.922
 9738SOL     OW30112   1.766   0.832   3.251
 9738SOL    HW130113   1.781   0.756   3.188
 9738SOL    HW230114   1.738   0.797   3.340
 9739SOL     OW30115   5.916   4.945   1.437
 9739SOL    HW130116   6.015   4.948   1.427
 9739SOL    HW230117   5.879   5.038   1.432
 9740SOL     OW30118   6.038   4.795   2.984
 9740SOL    HW130119   6.008   4.817   2.891
 9740SOL    HW230120   6.003   4.864   3.048
 9741SOL     OW30121   4.449   2.093   2.228
 9741SOL    HW130122   4.401   2.170   2.187
 9741SOL    HW230123   4.431   2.092   2.327
 9742SOL     OW30124   5.233   0.870   3.405
 9742SOL    HW130125   5.294   0.944   3.379
 9742SOL    HW230126   5.239   0.796   3.338
 9743SOL     OW30127   1.749   3.250   5.964
 9743SOL    HW130128   1.806   3.169   5.960
 9743SOL    HW230129   1.704   3.263   5.875
 9744SOL     OW30130   1.885   0.907   2.282
 9744SOL    HW130131   1.807   0.968   2.273
 9744SOL    HW230132   1.911   0.899   2.378
 9745SOL     OW30133   0.256   2.448   5.200
 9745SOL    HW130134   0.276   2.360   5.157
 9745SOL    HW230135   0.220   2.433   5.292
 9746SOL     OW30136   6.279   0.722   4.587
 9746SOL    HW130137   6.299   0.724   4.489
 9746SOL    HW230138   6.180   0.712   4.601
 9747SOL     OW30139   0.623   0.134   6.119
 9747SOL    HW130140   0.599   0.040   6.095
 9747SOL    HW230141   0.580   0.196   6.054
 9748SOL     OW30142   0.983   6.201   3.877
 9748SOL    HW130143   0.962   6.107   3.849
 9748SOL    HW230144   0.958   6.213   3.974
 9749SOL     OW30145   0.261   4.012   4.337
 9749SOL    HW130146   0.355   4.020   4.303
 9749SOL    HW230147   0.246   3.920   4.371
 9750SOL     OW30148   4.706   4.760   3.879
 9750SOL    HW130149   4.774   4.700   3.921
 9750SOL    HW230150   4.750   4.813   3.806
 9751SOL     OW30151   1.722   1.832   0.477
 9751SOL    HW130152   1.656   1.864   0.544
 9751SOL    HW230153   1.815   1.850   0.510
 9752SOL     OW30154   4.174   0.965   5.416
 9752SOL    HW130155   4.132   0.995   5.502
 9752SOL    HW230156   4.122   0.889   5.378
 9753SOL     OW30157   7.011   6.006   5.549
 9753SOL    HW130158   6.965   6.056   5.475
 9753SOL    HW230159   0.072   6.060   5.582
 9754SOL     OW30160   1.304   1.822   6.861
 9754SOL    HW130161   1.380   1.880   6.831
 9754SOL    HW230162   1.256   1.786   6.781
 9755SOL     OW30163   3.811   4.287   5.557
 9755SOL    HW130164   3.789   4.367   5.501
 9755SOL    HW230165   3.727   4.238   5.581
 9756SOL     OW30166   5.832   2.360   6.390
 9756SOL    HW130167   5.899   2.398   6.454
 9756SOL    HW230168   5.880   2.325   6.309
 9757SOL     OW30169   6.003   2.246   3.787
 9757SOL    HW130170   5.961   2.328   3.825
 9757SOL    HW230171   6.087   2.271   3.738
 9758SOL     OW30172   2.429   0.423   6.798
 9758SOL    HW130173   2.402   0.446   6.704
 9758SOL    HW230174   2.376   0.478   6.862
 9759SOL     OW30175   2.905   6.425   1.039
 9759SOL    HW130176   2.935   6.420   0.944
 9759SOL    HW230177   2.925   6.339   1.085
 9760SOL     OW30178   6.056   4.252   5.748
 9760SOL    HW130179   6.080   4.341   5.706
 9760SOL    HW230180   6.137   4.194   5.748
 9761SOL     OW30181   5.924   5.527   1.858
 9761SOL    HW130182   5.834   5.488   1.880
 9761SOL    HW230183   5.914   5.626   1.843
 9762SOL     OW30184   2.309   1.985   4.690
 9762SOL    HW130185   2.289   2.082   4.699
 9762SOL    HW230186   2.404   1.973   4.661
 9763SOL     OW30187   2.880   1.845   1.124
 9763SOL    HW130188   2.897   1.783   1.047
 9763SOL    HW230189   2.904   1.800   1.210
 9764SOL     OW30190   0.953   1.780   2.524
 9764SOL    HW130191   1.039   1.748   2.483
 9764SOL    HW230192   0.956   1.765   2.623
 9765SOL     OW30193   1.000   1.981   5.727
 9765SOL    HW130194   0.970   2.032   5.646
 9765SOL    HW230195   0.975   2.033   5.809
 9766SOL     OW30196   3.174   0.253   2.475
 9766SOL    HW130197   3.097   0.265   2.538
 9766SOL    HW230198   3.170   0.324   2.404
 9767SOL     OW30199   5.320   0.347   4.838
 9767SOL    HW130200   5.243   0.285   4.854
 9767SOL    HW230201   5.296   0.410   4.764
 9768SOL     OW30202   4.505   1.932   2.739
 9768SOL    HW130203   4.479   2.027   2.719
 9768SOL    HW230204   4.561   1.897   2.664
 9769SOL     OW30205   0.896   1.960   1.144
 9769SOL    HW130206   0.918   1.863   1.149
 9769SOL    HW230207   0.959   2.011   1.202
 9770SOL     OW30208   5.883   4.506   5.778
 9770SOL    HW130209   5.936   4.566   5.718
 9770SOL    HW230210   5.941   4.432   5.811
 9771SOL     OW30211   4.510   5.391   5.982
 9771SOL    HW130212   4.475   5.297   5.973
 9771SOL    HW230213   4.435   5.451   6.011
 9772SOL     OW30214   6.747   0.699   1.814
 9772SOL    HW130215   6.800   0.645   1.748
 9772SOL    HW230216   6.774   0.674   1.907
 9773SOL     OW30217   6.240   5.422   3.728
 9773SOL    HW130218   6.214   5.508   3.685
 9773SOL    HW230219   6.335   5.400   3.705
 9774SOL     OW30220   6.241   5.076   3.688
 9774SOL    HW130221   6.188   5.160   3.690
 9774SOL    HW230222   6.187   5.002   3.728
 9775SOL     OW30223   1.800   2.481   5.189
 9775SOL    HW130224   1.887   2.507   5.146
 9775SOL    HW230225   1.727   2.541   5.156
 9776SOL     OW30226   0.465   6.343   5.289
 9776SOL    HW130227   0.444   6.342   5.191
 9776SOL    HW230228   0.549   6.396   5.304
 9777SOL     OW30229   5.561   4.376   6.229
 9777SOL    HW130230   5.514   4.455   6.189
 9777SOL    HW230231   5.651   4.365   6.186
 9778SOL     OW30232   4.609   6.957   2.330
 9778SOL    HW130233   4.653   6.952   2.240
 9778SOL    HW230234   4.577   0.033   2.346
 9779SOL     OW30235   2.478   2.088   5.471
 9779SOL    HW130236   2.418   2.050   5.400
 9779SOL    HW230237   2.497   2.184   5.451
 9780SOL     OW30238   3.123   4.518   6.918
 9780SOL    HW130239   3.137   4.560   7.007
 9780SOL    HW230240   3.051   4.568   6.868
 9781SOL     OW30241   1.397   4.721   4.521
 9781SOL    HW130242   1.368   4.760   4.609
 9781SOL    HW230243   1.422   4.625   4.534
 9782SOL     OW30244   6.322   0.426   1.627
 9782SOL    HW130245   6.395   0.440   1.560
 9782SOL    HW230246   6.360   0.431   1.719
 9783SOL     OW30247   5.251   1.439   1.848
 9783SOL    HW130248   5.195   1.507   1.801
 9783SOL    HW230249   5.285   1.372   1.782
 9784SOL     OW30250   4.493   0.595   3.701
 9784SOL    HW130251   4.475   0.607   3.603
 9784SOL    HW230252   4.415   0.550   3.744
 9785SOL     OW30253   0.868   2.847   1.917
 9785SOL    HW130254   0.965   2.821   1.920
 9785SOL    HW230255   0.854   2.913   1.844
 9786SOL     OW30256   3.037   5.888   5.136
 9786SOL    HW130257   2.982   5.806   5.121
 9786SOL    HW230258   3.111   5.892   5.069
 9787SOL     OW30259   5.182   4.585   2.035
 9787SOL    HW130260   5.267   4.560   1.989
 9787SOL    HW230261   5.117   4.621   1.968
 9788SOL     OW30262   6.334   1.442   5.672
 9788SOL    HW130263   6.305   1.506   5.742
 9788SOL    HW230264   6.373   1.360   5.715
 9789SOL     OW30265   2.129   5.638   4.611
 9789SOL    HW130266   2.126   5.706   4.685
 9789SOL    HW230267   2.184   5.675   4.536
 9790SOL     OW30268   6.125   2.219   4.113
 9790SOL    HW130269   6.117   2.153   4.187
 9790SOL    HW230270   6.037   2.265   4.099
 9791SOL     OW30271   0.436   2.149   1.342
 9791SOL    HW130272   0.340   2.120   1.342
 9791SOL    HW230273   0.460   2.186   1.252
 9792SOL     OW30274   4.284   5.206   1.240
 9792SOL    HW130275   4.379   5.234   1.224
 9792SOL    HW230276   4.273   5.109   1.219
 9793SOL     OW30277   5.216   5.830   1.862
 9793SOL    HW130278   5.303   5.783   1.877
 9793SOL    HW230279   5.156   5.813   1.940
 9794SOL     OW30280   4.548   2.735   6.548
 9794SOL    HW130281   4.645   2.741   6.524
 9794SOL    HW230282   4.529   2.792   6.627
 9795SOL     OW30283   1.560   3.378   4.169
 9795SOL    HW130284   1.570   3.280   4.184
 9795SOL    HW230285   1.646   3.424   4.192
 9796SOL     OW30286   2.645   5.083   6.789
 9796SOL    HW130287   2.701   5.101   6.870
 9796SOL    HW230288   2.559   5.135   6.796
 9797SOL     OW30289   4.476   3.082   5.538
 9797SOL    HW130290   4.540   3.122   5.604
 9797SOL    HW230291   4.437   3.155   5.481
 9798SOL     OW30292   2.450   1.744   1.043
 9798SOL    HW130293   2.503   1.669   1.001
 9798SOL    HW230294   2.513   1.807   1.088
 9799SOL     OW30295   2.991   4.041   1.810
 9799SOL    HW130296   3.019   4.133   1.784
 9799SOL    HW230297   3.006   4.028   1.908
 9800SOL     OW30298   4.376   5.090   6.483
 9800SOL    HW130299   4.334   5.072   6.394
 9800SOL    HW230300   4.370   5.188   6.503
 9801SOL     OW30301   4.166   5.295   0.022
 9801SOL    HW130302   4.175   5.395   0.021
 9801SOL    HW230303   4.120   5.265   6.956
 9802SOL     OW30304   6.752   3.595   0.843
 9802SOL    HW130305   6.689   3.517   0.840
 9802SOL    HW230306   6.796   3.598   0.933
 9803SOL     OW30307   6.192   0.535   6.716
 9803SOL    HW130308   6.146   0.574   6.796
 9803SOL    HW230309   6.188   0.435   6.721
 9804SOL     OW30310   6.181   6.053   4.167
 9804SOL    HW130311   6.216   5.965   4.137
 9804SOL    HW230312   6.100   6.077   4.113
 9805SOL     OW30313   1.757   5.156   6.765
 9805SOL    HW130314   1.844   5.194   6.797
 9805SOL    HW230315   1.758   5.151   6.665
 9806SOL     OW30316   0.108   1.769   2.686
 9806SOL    HW130317   0.128   1.857   2.642
 9806SOL    HW230318   0.097   1.699   2.616
 9807SOL     OW30319   4.019   2.544   0.876
 9807SOL    HW130320   4.072   2.490   0.941
 9807SOL    HW230321   4.075   2.619   0.841
 9808SOL     OW30322   0.890   1.420   4.735
 9808SOL    HW130323   0.895   1.517   4.759
 9808SOL    HW230324   0.974   1.393   4.687
 9809SOL     OW30325   0.654   0.908   4.679
 9809SOL    HW130326   0.593   0.835   4.709
 9809SOL    HW230327   0.719   0.930   4.752
 9810SOL     OW30328   3.719   1.081   3.586
 9810SOL    HW130329   3.630   1.068   3.629
 9810SOL    HW230330   3.722   1.171   3.542
 9811SOL     OW30331   0.446   6.863   2.683
 9811SOL    HW130332   0.367   6.820   2.639
 9811SOL    HW230333   0.452   6.959   2.654
 9812SOL     OW30334   4.870   2.500   5.860
 9812SOL    HW130335   4.891   2.490   5.762
 9812SOL    HW230336   4.774   2.479   5.876
 9813SOL     OW30337   6.591   4.730   0.238
 9813SOL    HW130338   6.596   4.730   0.138
 9813SOL    HW230339   6.640   4.650   0.273
 9814SOL     OW30340   0.221   0.236   5.485
 9814SOL    HW130341   0.128   0.259   5.516
 9814SOL    HW230342   0.281   0.225   5.565
 9815SOL     OW30343   6.291   3.466   2.393
 9815SOL    HW130344   6.250   3.437   2.306
 9815SOL    HW230345   6.225   3.523   2.443
 9816SOL     OW30346   0.441   6.489   6.754
 9816SOL    HW130347   0.448   6.462   6.850
 9816SOL    HW230348   0.360   6.546   6.740
 9817SOL     OW30349   2.752   6.708   6.880
 9817SOL    HW130350   2.721   6.734   6.788
 9817SOL    HW230351   2.833   6.651   6.873
 9818SOL     OW30352   0.709   6.483   3.367
 9818SOL    HW130353   0.610   6.478   3.382
 9818SOL    HW230354   0.756   6.477   3.455
 9819SOL     OW30355   0.468   3.866   4.783
 9819SOL    HW130356   0.438   3.958   4.759
 9819SOL    HW230357   0.518   3.826   4.706
 9820SOL     OW30358   3.749   1.853   5.711
 9820SOL    HW130359   3.696   1.893   5.637
 9820SOL    HW230360   3.768   1.757   5.691
 9821SOL     OW30361   4.261   2.530   1.732
 9821SOL    HW130362   4.253   2.619   1.687
 9821SOL    HW230363   4.354   2.521   1.770
 9822SOL     OW30364   3.532   6.292   5.581
 9822SOL    HW130365   3.568   6.257   5.495
 9822SOL    HW230366   3.432   6.296   5.576
 9823SOL     OW30367   1.850   0.335   2.899
 9823SOL    HW130368   1.879   0.425   2.865
 9823SOL    HW230369   1.883   0.323   2.993
 9824SOL     OW30370   1.063   6.537   5.316
 9824SOL    HW130371   1.009   6.488   5.385
 9824SOL    HW230372   1.004   6.597   5.263
 9825SOL     OW30373   5.261   6.310   5.791
 9825SOL    HW130374   5.229   6.370   5.718
 9825SOL    HW230375   5.199   6.317   5.869
 9826SOL     OW30376   2.112   5.836   4.815
 9826SOL    HW130377   2.151   5.796   4.898
 9826SOL    HW230378   2.017   5.860   4.831
 9827SOL     OW30379   1.605   5.565   1.761
 9827SOL    HW130380   1.581   5.656   1.727
 9827SOL    HW230381   1.697   5.541   1.728
 9828SOL     OW30382   4.439   2.346   4.484
 9828SOL    HW130383   4.499   2.416   4.520
 9828SOL    HW230384   4.382   2.310   4.558
 9829SOL     OW30385   4.302   5.552   5.435
 9829SOL    HW130386   4.268   5.477   5.492
 9829SOL    HW230387   4.402   5.557   5.443
 9830SOL     OW30388   6.190   2.357   3.056
 9830SOL    HW130389   6.234   2.267   3.063
 9830SOL    HW230390   6.102   2.347   3.009
 9831SOL     OW30391   0.614   3.873   2.843
 9831SOL    HW130392   0.567   3.910   2.763
 9831SOL    HW230393   0.684   3.808   2.814
 9832SOL     OW30394   4.562   5.082   4.676
 9832SOL    HW130395   4.493   5.013   4.651
 9832SOL    HW230396   4.648   5.061   4.629
 9833SOL     OW30397   3.885   3.991   3.861
 9833SOL    HW130398   3.790   3.966   3.880
 9833SOL    HW230399   3.891   4.033   3.771
 9834SOL     OW30400   2.847   6.382   6.406
 9834SOL    HW130401   2.753   6.398   6.376
 9834SOL    HW230402   2.859   6.285   6.429
 9835SOL     OW30403   3.901   3.948   4.172
 9835SOL    HW130404   3.939   4.005   4.099
 9835SOL    HW230405   3.816   3.906   4.140
 9836SOL     OW30406   0.109   4.169   6.158
 9836SOL    HW130407   0.205   4.162   6.131
 9836SOL    HW230408   0.060   4.087   6.129
 9837SOL     OW30409   5.583   2.098   3.347
 9837SOL    HW130410   5.620   2.173   3.403
 9837SOL    HW230411   5.545   2.028   3.407
 9838SOL     OW30412   1.372   6.797   1.106
 9838SOL    HW130413   1.341   6.887   1.076
 9838SOL    HW230414   1.313   6.764   1.180
 9839SOL     OW30415   5.044   6.986   3.934
 9839SOL    HW130416   5.071   0.064   3.918
 9839SOL    HW230417   5.051   6.935   3.848
 9840SOL     OW30418   5.942   1.106   0.064
 9840SOL    HW130419   5.935   1.117   0.164
 9840SOL    HW230420   6.018   1.161   0.030
 9841SOL     OW30421   0.211   6.649   3.138
 9841SOL    HW130422   0.174   6.624   3.048
 9841SOL    HW230423   0.309   6.665   3.131
 9842SOL     OW30424   3.284   1.650   6.436
 9842SOL    HW130425   3.336   1.702   6.504
 9842SOL    HW230426   3.218   1.590   6.482
 9843SOL     OW30427   0.956   0.416   1.301
 9843SOL    HW130428   0.958   0.456   1.209
 9843SOL    HW230429   1.041   0.367   1.318
 9844SOL     OW30430   4.649   6.840   4.220
 9844SOL    HW130431   4.601   6.812   4.137
 9844SOL    HW230432   4.747   6.844   4.202
 9845SOL     OW30433   1.805   3.165   2.229
 9845SOL    HW130434   1.752   3.130   2.151
 9845SOL    HW230435   1.871   3.096   2.258
 9846SOL     OW30436   6.191   2.404   1.282
 9846SOL    HW130437   6.191   2.305   1.291
 9846SOL    HW230438   6.135   2.444   1.355
 9847SOL     OW30439   4.553   4.008   0.085
 9847SOL    HW130440   4.514   4.098   0.108
 9847SOL    HW230441   4.503   3.937   0.134
 9848SOL     OW30442   3.095   4.373   5.754
 9848SOL    HW130443   3.013   4.352   5.807
 9848SOL    HW230444   3.081   4.346   5.659
 9849SOL     OW30445   0.590   2.474   4.794
 9849SOL    HW130446   0.537   2.397   4.758
 9849SOL    HW230447   0.560   2.495   4.886
 9850SOL     OW30448   1.102   0.264   4.380
 9850SOL    HW130449   1.184   0.264   4.437
 9850SOL    HW230450   1.127   0.286   4.285
 9851SOL     OW30451   3.342   4.968   4.778
 9851SOL    HW130452   3.410   4.951   4.708
 9851SOL    HW230453   3.311   4.880   4.816
 9852SOL     OW30454   1.944   0.645   6.326
 9852SOL    HW130455   2.020   0.703   6.296
 9852SOL    HW230456   1.861   0.701   6.334
 9853SOL     OW30457   6.237   4.383   3.590
 9853SOL    HW130458   6.147   4.411   3.622
 9853SOL    HW230459   6.291   4.349   3.667
 9854SOL     OW30460   0.698   4.351   5.721
 9854SOL    HW130461   0.714   4.258   5.753
 9854SOL    HW230462   0.761   4.370   5.645
 9855SOL     OW30463   1.302   4.675   1.532
 9855SOL    HW130464   1.240   4.712   1.462
 9855SOL    HW230465   1.302   4.575   1.527
 9856SOL     OW30466   5.815   4.215   3.030
 9856SOL    HW130467   5.814   4.303   2.983
 9856SOL    HW230468   5.736   4.210   3.092
 9857SOL     OW30469   3.999   0.218   5.083
 9857SOL    HW130470   4.037   0.225   5.175
 9857SOL    HW230471   4.054   0.272   5.020
 9858SOL     OW30472   6.346   6.414   2.354
 9858SOL    HW130473   6.347   6.388   2.258
 9858SOL    HW230474   6.300   6.344   2.408
 9859SOL     OW30475   0.056   5.250   3.246
 9859SOL    HW130476   0.074   5.198   3.162
 9859SOL    HW230477   0.113   5.333   3.246
 9860SOL     OW30478   0.962   3.053   4.387
 9860SOL    HW130479   1.042   2.994   4.380
 9860SOL    HW230480   0.889   3.004   4.435
 9861SOL     OW30481   2.961   2.246   3.260
 9861SOL    HW130482   2.969   2.232   3.161
 9861SOL    HW230483   2.904   2.327   3.278
 9862SOL     OW30484   1.012   4.466   0.157
 9862SOL    HW130485   1.039   4.473   0.253
 9862SOL    HW230486   0.926   4.515   0.143
 9863SOL     OW30487   3.812   6.066   0.946
 9863SOL    HW130488   3.800   5.968   0.931
 9863SOL    HW230489   3.731   6.115   0.916
 9864SOL     OW30490   2.716   5.443   5.199
 9864SOL    HW130491   2.713   5.442   5.299
 9864SOL    HW230492   2.732   5.350   5.166
 9865SOL     OW30493   0.673   5.680   5.277
 9865SOL    HW130494   0.666   5.684   5.377
 9865SOL    HW230495   0.762   5.714   5.249
 9866SOL     OW30496   6.363   4.429   5.058
 9866SOL    HW130497   6.276   4.402   5.098
 9866SOL    HW230498   6.419   4.475   5.126
 9867SOL     OW30499   4.107   1.574   2.113
 9867SOL    HW130500   4.101   1.674   2.117
 9867SOL    HW230501   4.196   1.545   2.150
 9868SOL     OW30502   2.099   3.852   3.897
 9868SOL    HW130503   2.012   3.873   3.942
 9868SOL    HW230504   2.114   3.753   3.899
 9869SOL     OW30505   6.161   2.825   0.971
 9869SOL    HW130506   6.151   2.914   1.014
 9869SOL    HW230507   6.177   2.755   1.041
 9870SOL     OW30508   2.555   2.120   2.299
 9870SOL    HW130509   2.559   2.118   2.399
 9870SOL    HW230510   2.460   2.129   2.269
 9871SOL     OW30511   6.123   4.761   4.484
 9871SOL    HW130512   6.160   4.825   4.552
 9871SOL    HW230513   6.177   4.767   4.400
 9872SOL     OW30514   0.302   5.295   6.062
 9872SOL    HW130515   0.220   5.335   6.102
 9872SOL    HW230516   0.327   5.213   6.114
 9873SOL     OW30517   1.456   1.840   5.932
 9873SOL    HW130518   1.545   1.832   5.977
 9873SOL    HW230519   1.460   1.796   5.842
 9874SOL     OW30520   0.106   2.697   5.052
 9874SOL    HW130521   0.182   2.712   5.116
 9874SOL    HW230522   0.081   2.784   5.010
 9875SOL     OW30523   6.554   5.840   0.854
 9875SOL    HW130524   6.602   5.928   0.858
 9875SOL    HW230525   6.506   5.825   0.941
 9876SOL     OW30526   1.115   6.541   3.443
 9876SOL    HW130527   1.112   6.483   3.524
 9876SOL    HW230528   1.158   6.628   3.465
 9877SOL     OW30529   0.710   5.134   5.246
 9877SOL    HW130530   0.662   5.221   5.257
 9877SOL    HW230531   0.705   5.083   5.332
 9878SOL     OW30532   2.802   2.680   6.743
 9878SOL    HW130533   2.752   2.646   6.663
 9878SOL    HW230534   2.880   2.734   6.712
 9879SOL     OW30535   6.639   4.796   6.586
 9879SOL    HW130536   6.703   4.796   6.509
 9879SOL    HW230537   6.569   4.727   6.572
 9880SOL     OW30538   3.265   1.146   0.603
 9880SOL    HW130539   3.266   1.087   0.522
 9880SOL    HW230540   3.191   1.117   0.664
 9881SOL     OW30541   6.202   1.066   3.547
 9881SOL    HW130542   6.112   1.091   3.511
 9881SOL    HW230543   6.272   1.086   3.478
 9882SOL     OW30544   3.320   3.028   4.914
 9882SOL    HW130545   3.391   3.097   4.923
 9882SOL    HW230546   3.232   3.068   4.938
 9883SOL     OW30547   2.704   0.356   2.000
 9883SOL    HW130548   2.724   0.438   1.947
 9883SOL    HW230549   2.723   0.372   2.096
 9884SOL     OW30550   3.231   2.844   5.826
 9884SOL    HW130551   3.265   2.784   5.898
 9884SOL    HW230552   3.286   2.832   5.743
 9885SOL     OW30553   5.328   3.076   5.131
 9885SOL    HW130554   5.242   3.124   5.116
 9885SOL    HW230555   5.377   3.119   5.207
 9886SOL     OW30556   3.570   6.064   1.534
 9886SOL    HW130557   3.514   6.013   1.600
 9886SOL    HW230558   3.547   6.161   1.538
 9887SOL     OW30559   3.305   0.350   6.316
 9887SOL    HW130560   3.218   0.398   6.311
 9887SOL    HW230561   3.373   0.408   6.362
 9888SOL     OW30562   6.422   6.038   3.534
 9888SOL    HW130563   6.520   6.037   3.553
 9888SOL    HW230564   6.371   6.015   3.617
 9889SOL     OW30565   0.099   5.806   3.329
 9889SOL    HW130566   0.183   5.828   3.379
 9889SOL    HW230567   0.019   5.826   3.387
 9890SOL     OW30568   0.817   3.427   1.614
 9890SOL    HW130569   0.828   3.336   1.574
 9890SOL    HW230570   0.907   3.464   1.637
 9891SOL     OW30571   5.863   5.838   1.260
 9891SOL    HW130572   5.959   5.829   1.233
 9891SOL    HW230573   5.850   5.925   1.308
 9892SOL     OW30574   1.863   4.915   3.989
 9892SOL    HW130575   1.820   4.846   4.046
 9892SOL    HW230576   1.958   4.927   4.018
 9893SOL     OW30577   4.942   5.192   3.695
 9893SOL    HW130578   4.974   5.217   3.787
 9893SOL    HW230579   4.995   5.243   3.627
 9894SOL     OW30580   4.595   2.999   6.183
 9894SOL    HW130581   4.516   2.938   6.189
 9894SOL    HW230582   4.620   3.013   6.087
 9895SOL     OW30583   5.828   1.981   6.610
 9895SOL    HW130584   5.742   2.031   6.598
 9895SOL    HW230585   5.813   1.884   6.588
 9896SOL     OW30586   4.386   3.412   0.322
 9896SOL    HW130587   4.413   3.394   0.227
 9896SOL    HW230588   4.468   3.414   0.380
 9897SOL     OW30589   0.010   1.833   3.848
 9897SOL    HW130590   6.931   1.848   3.826
 9897SOL    HW230591   0.019   1.805   3.944
 9898SOL     OW30592   1.121   5.429   5.592
 9898SOL    HW130593   1.181   5.502   5.624
 9898SOL    HW230594   1.066   5.462   5.515
 9899SOL     OW30595   5.069   5.122   1.820
 9899SOL    HW130596   5.080   5.053   1.891
 9899SOL    HW230597   4.988   5.177   1.841
 9900SOL     OW30598   0.825   3.709   3.167
 9900SOL    HW130599   0.867   3.646   3.101
 9900SOL    HW230600   0.747   3.754   3.125
 9901SOL     OW30601   2.958   1.654   5.263
 9901SOL    HW130602   2.993   1.647   5.169
 9901SOL    HW230603   2.866   1.614   5.267
 9902SOL     OW30604   4.632   3.890   6.797
 9902SOL    HW130605   4.561   3.855   6.736
 9902SOL    HW230606   4.597   3.966   6.850
 9903SOL     OW30607   3.871   1.047   1.264
 9903SOL    HW130608   3.918   1.108   1.327
 9903SOL    HW230609   3.934   1.017   1.193
 9904SOL     OW30610   6.251   0.453   2.244
 9904SOL    HW130611   6.341   0.470   2.205
 9904SOL    HW230612   6.189   0.527   2.217
 9905SOL     OW30613   1.635   6.179   5.655
 9905SOL    HW130614   1.594   6.100   5.700
 9905SOL    HW230615   1.664   6.245   5.724
 9906SOL     OW30616   3.189   3.542   5.930
 9906SOL    HW130617   3.130   3.461   5.934
 9906SOL    HW230618   3.278   3.515   5.892
 9907SOL     OW30619   1.555   6.461   2.334
 9907SOL    HW130620   1.558   6.365   2.363
 9907SOL    HW230621   1.532   6.518   2.413
 9908SOL     OW30622   0.895   3.822   4.854
 9908SOL    HW130623   0.858   3.851   4.943
 9908SOL    HW230624   0.860   3.731   4.832
 9909SOL     OW30625   4.050   6.639   2.640
 9909SOL    HW130626   3.978   6.581   2.601
 9909SOL    HW230627   4.009   6.722   2.679
 9910SOL     OW30628   0.156   4.263   1.986
 9910SOL    HW130629   0.200   4.189   2.036
 9910SOL    HW230630   0.189   4.264   1.892
 9911SOL     OW30631   3.103   4.870   3.391
 9911SOL    HW130632   3.165   4.929   3.340
 9911SOL    HW230633   3.104   4.895   3.488
 9912SOL     OW30634   4.686   6.963   0.980
 9912SOL    HW130635   4.638   6.893   0.927
 9912SOL    HW230636   4.779   6.932   1.000
 9913SOL     OW30637   4.719   1.818   2.588
 9913SOL    HW130638   4.729   1.720   2.606
 9913SOL    HW230639   4.792   1.868   2.634
 9914SOL     OW30640   2.004   5.762   5.512
 9914SOL    HW130641   1.923   5.820   5.508
 9914SOL    HW230642   2.017   5.717   5.424
 9915SOL     OW30643   5.617   3.528   4.559
 9915SOL    HW130644   5.612   3.532   4.659
 9915SOL    HW230645   5.657   3.613   4.524
 9916SOL     OW30646   2.385   3.110   1.181
 9916SOL    HW130647   2.444   3.168   1.237
 9916SOL    HW230648   2.301   3.160   1.160
 9917SOL     OW30649   2.333   3.330   5.569
 9917SOL    HW130650   2.325   3.373   5.479
 9917SOL    HW230651   2.404   3.376   5.622
 9918SOL     OW30652   2.112   1.420   5.017
 9918SOL    HW130653   2.026   1.460   5.049
 9918SOL    HW230654   2.140   1.465   4.932
 9919SOL     OW30655   6.593   5.055   2.924
 9919SOL    HW130656   6.655   4.977   2.923
 9919SOL    HW230657   6.644   5.139   2.903
 9920SOL     OW30658   4.127   6.360   1.798
 9920SOL    HW130659   4.104   6.380   1.893
 9920SOL    HW230660   4.195   6.425   1.765
 9921SOL     OW30661   4.785   0.151   3.049
 9921SOL    HW130662   4.753   0.234   3.002
 9921SOL    HW230663   4.754   0.153   3.144
 9922SOL     OW30664   4.721   3.335   1.483
 9922SOL    HW130665   4.704   3.262   1.549
 9922SOL    HW230666   4.681   3.309   1.395
 9923SOL     OW30667   6.400   1.169   6.373
 9923SOL    HW130668   6.320   1.222   6.401
 9923SOL    HW230669   6.414   1.094   6.438
 9924SOL     OW30670   5.317   0.687   3.238
 9924SOL    HW130671   5.361   0.731   3.160
 9924SOL    HW230672   5.354   0.595   3.251
 9925SOL     OW30673   2.387   2.758   4.553
 9925SOL    HW130674   2.311   2.756   4.617
 9925SOL    HW230675   2.466   2.802   4.595
 9926SOL     OW30676   1.405   1.229   0.511
 9926SOL    HW130677   1.411   1.319   0.468
 9926SOL    HW230678   1.384   1.240   0.608
 9927SOL     OW30679   0.925   2.728   2.538
 9927SOL    HW130680   0.841   2.733   2.484
 9927SOL    HW230681   0.933   2.810   2.595
 9928SOL     OW30682   6.784   3.103   2.780
 9928SOL    HW130683   6.834   3.168   2.724
 9928SOL    HW230684   6.743   3.033   2.722
 9929SOL     OW30685   2.274   3.828   6.017
 9929SOL    HW130686   2.292   3.805   5.922
 9929SOL    HW230687   2.360   3.843   6.065
 9930SOL     OW30688   0.108   6.095   0.032
 9930SOL    HW130689   0.149   6.091   0.123
 9930SOL    HW230690   0.180   6.102   6.980
 9931SOL     OW30691   2.786   5.622   6.816
 9931SOL    HW130692   2.708   5.682   6.797
 9931SOL    HW230693   2.804   5.621   6.914
 9932SOL     OW30694   1.782   2.330   0.239
 9932SOL    HW130695   1.710   2.267   0.211
 9932SOL    HW230696   1.750   2.424   0.231
 9933SOL     OW30697   0.911   1.929   3.617
 9933SOL    HW130698   0.866   2.010   3.655
 9933SOL    HW230699   1.009   1.947   3.609
 9934SOL     OW30700   4.559   1.684   6.506
 9934SOL    HW130701   4.517   1.771   6.531
 9934SOL    HW230702   4.501   1.609   6.536
 9935SOL     OW30703   2.626   2.211   0.612
 9935SOL    HW130704   2.603   2.171   0.700
 9935SOL    HW230705   2.675   2.144   0.556
 9936SOL     OW30706   6.236   6.440   5.798
 9936SOL    HW130707   6.214   6.493   5.716
 9936SOL    HW230708   6.155   6.390   5.829
 9937SOL     OW30709   0.560   0.494   3.293
 9937SOL    HW130710   0.531   0.430   3.364
 9937SOL    HW230711   0.652   0.527   3.314
 9938SOL     OW30712   0.207   1.722   3.424
 9938SOL    HW130713   0.294   1.721   3.376
 9938SOL    HW230714   0.214   1.779   3.506
 9939SOL     OW30715   3.456   4.113   1.228
 9939SOL    HW130716   3.393   4.112   1.151
 9939SOL    HW230717   3.457   4.022   1.271
 9940SOL     OW30718   0.007   1.298   3.409
 9940SOL    HW130719   0.104   1.275   3.420
 9940SOL    HW230720   6.975   1.279   3.493
 9941SOL     OW30721   5.542   4.974   0.047
 9941SOL    HW130722   5.482   4.955   6.986
 9941SOL    HW230723   5.493   4.955   0.132
 9942SOL     OW30724   4.983   4.888   2.593
 9942SOL    HW130725   4.942   4.834   2.667
 9942SOL    HW230726   4.918   4.897   2.518
 9943SOL     OW30727   1.975   4.008   5.682
 9943SOL    HW130728   1.999   3.960   5.597
 9943SOL    HW230729   1.912   3.951   5.735
 9944SOL     OW30730   0.643   5.031   5.908
 9944SOL    HW130731   0.598   4.942   5.914
 9944SOL    HW230732   0.705   5.042   5.986
 9945SOL     OW30733   6.697   3.401   5.920
 9945SOL    HW130734   6.773   3.461   5.943
 9945SOL    HW230735   6.623   3.454   5.878
 9946SOL     OW30736   5.411   1.900   1.623
 9946SOL    HW130737   5.393   1.890   1.721
 9946SOL    HW230738   5.486   1.966   1.610
 9947SOL     OW30739   0.963   1.793   4.189
 9947SOL    HW130740   0.940   1.766   4.096
 9947SOL    HW230741   0.984   1.891   4.191
 9948SOL     OW30742   5.588   0.200   4.410
 9948SOL    HW130743   5.606   0.239   4.500
 9948SOL    HW230744   5.667   0.147   4.380
 9949SOL     OW30745   6.486   5.187   3.717
 9949SOL    HW130746   6.533   5.198   3.629
 9949SOL    HW230747   6.405   5.130   3.705
 9950SOL     OW30748   5.241   3.850   5.111
 9950SOL    HW130749   5.144   3.844   5.092
 9950SOL    HW230750   5.258   3.925   5.175
 9951SOL     OW30751   0.598   1.896   3.435
 9951SOL    HW130752   0.646   1.821   3.482
 9951SOL    HW230753   0.576   1.968   3.501
 9952SOL     OW30754   0.881   5.003   1.924
 9952SOL    HW130755   0.927   5.092   1.923
 9952SOL    HW230756   0.783   5.016   1.908
 9953SOL     OW30757   5.832   2.870   3.672
 9953SOL    HW130758   5.868   2.963   3.684
 9953SOL    HW230759   5.732   2.874   3.666
 9954SOL     OW30760   3.648   1.602   6.615
 9954SOL    HW130761   3.624   1.511   6.648
 9954SOL    HW230762   3.739   1.627   6.648
 9955SOL     OW30763   5.526   4.351   0.686
 9955SOL    HW130764   5.514   4.404   0.770
 9955SOL    HW230765   5.445   4.296   0.669
 9956SOL     OW30766   2.093   3.442   3.099
 9956SOL    HW130767   2.102   3.379   3.023
 9956SOL    HW230768   2.100   3.536   3.066
 9957SOL     OW30769   5.370   0.181   0.218
 9957SOL    HW130770   5.381   0.216   0.311
 9957SOL    HW230771   5.446   0.211   0.161
 9958SOL     OW30772   5.503   6.260   0.236
 9958SOL    HW130773   5.461   6.236   0.149
 9958SOL    HW230774   5.454   6.215   0.311
 9959SOL     OW30775   4.820   4.790   0.608
 9959SOL    HW130776   4.916   4.810   0.624
 9959SOL    HW230777   4.795   4.706   0.656
 9960SOL     OW30778   0.452   0.158   0.147
 9960SOL    HW130779   0.462   0.073   0.197
 9960SOL    HW230780   0.499   0.151   0.059
 9961SOL     OW30781   3.079   5.563   1.541
 9961SOL    HW130782   3.158   5.606   1.584
 9961SOL    HW230783   3.101   5.538   1.447
 9962SOL     OW30784   2.779   0.385   1.486
 9962SOL    HW130785   2.739   0.433   1.564
 9962SOL    HW230786   2.706   0.355   1.425
 9963SOL     OW30787   0.696   0.703   5.884
 9963SOL    HW130788   0.661   0.634   5.947
 9963SOL    HW230789   0.693   0.793   5.927
 9964SOL     OW30790   4.719   4.329   6.111
 9964SOL    HW130791   4.794   4.378   6.066
 9964SOL    HW230792   4.652   4.302   6.042
 9965SOL     OW30793   2.515   5.642   3.916
 9965SOL    HW130794   2.488   5.732   3.950
 9965SOL    HW230795   2.578   5.653   3.839
 9966SOL     OW30796   3.668   4.900   2.503
 9966SOL    HW130797   3.644   4.925   2.409
 9966SOL    HW230798   3.623   4.814   2.528
 9967SOL     OW30799   6.507   6.824   3.025
 9967SOL    HW130800   6.542   6.825   2.931
 9967SOL    HW230801   6.482   6.731   3.051
 9968SOL     OW30802   3.812   6.085   0.222
 9968SOL    HW130803   3.767   6.144   0.155
 9968SOL    HW230804   3.867   6.016   0.175
 9969SOL     OW30805   1.176   6.040   3.462
 9969SOL    HW130806   1.145   6.127   3.424
 9969SOL    HW230807   1.176   6.045   3.562
 9970SOL     OW30808   6.357   3.848   1.180
 9970SOL    HW130809   6.446   3.823   1.142
 9970SOL    HW230810   6.371   3.899   1.266
 9971SOL     OW30811   0.838   5.423   3.485
 9971SOL    HW130812   0.927   5.378   3.488
 9971SOL    HW230813   0.848   5.513   3.442
 9972SOL     OW30814   2.917   3.827   6.695
 9972SOL    HW130815   3.005   3.860   6.659
 9972SOL    HW230816   2.842   3.875   6.649
 9973SOL     OW30817   2.388   2.289   3.122
 9973SOL    HW130818   2.420   2.305   3.216
 9973SOL    HW230819   2.302   2.239   3.125
 9974SOL     OW30820   1.232   3.052   2.531
 9974SOL    HW130821   1.270   3.123   2.472
 9974SOL    HW230822   1.141   3.080   2.562
 9975SOL     OW30823   2.158   4.723   6.926
 9975SOL    HW130824   2.128   4.629   6.907
 9975SOL    HW230825   2.227   4.750   6.858
 9976SOL     OW30826   3.370   4.611   6.281
 9976SOL    HW130827   3.296   4.555   6.245
 9976SOL    HW230828   3.410   4.666   6.208
 9977SOL     OW30829   4.627   6.636   5.464
 9977SOL    HW130830   4.647   6.732   5.447
 9977SOL    HW230831   4.551   6.629   5.529
 9978SOL     OW30832   0.856   3.506   6.685
 9978SOL    HW130833   0.843   3.518   6.586
 9978SOL    HW230834   0.942   3.549   6.712
 9979SOL     OW30835   3.760   3.305   5.031
 9979SOL    HW130836   3.768   3.401   5.004
 9979SOL    HW230837   3.845   3.257   5.007
 9980SOL     OW30838   2.589   1.496   0.893
 9980SOL    HW130839   2.500   1.466   0.927
 9980SOL    HW230840   2.633   1.421   0.844
 9981SOL     OW30841   6.543   2.371   1.257
 9981SOL    HW130842   6.599   2.335   1.183
 9981SOL    HW230843   6.524   2.468   1.240
 9982SOL     OW30844   1.926   2.146   4.580
 9982SOL    HW130845   1.909   2.233   4.535
 9982SOL    HW230846   1.977   2.162   4.665
 9983SOL     OW30847   0.891   3.226   2.124
 9983SOL    HW130848   0.938   3.150   2.169
 9983SOL    HW230849   0.795   3.201   2.109
 9984SOL     OW30850   0.231   5.467   1.204
 9984SOL    HW130851   0.208   5.428   1.114
 9984SOL    HW230852   0.294   5.405   1.251
 9985SOL     OW30853   5.289   4.782   0.135
 9985SOL    HW130854   5.238   4.799   0.219
 9985SOL    HW230855   5.231   4.803   0.056
 9986SOL     OW30856   5.499   5.260   6.705
 9986SOL    HW130857   5.595   5.275   6.681
 9986SOL    HW230858   5.454   5.208   6.632
 9987SOL     OW30859   5.192   2.849   1.464
 9987SOL    HW130860   5.214   2.946   1.457
 9987SOL    HW230861   5.103   2.839   1.510
 9988SOL     OW30862   5.723   6.059   3.867
 9988SOL    HW130863   5.744   5.984   3.803
 9988SOL    HW230864   5.692   6.139   3.816
 9989SOL     OW30865   6.734   5.098   2.552
 9989SOL    HW130866   6.652   5.131   2.599
 9989SOL    HW230867   6.805   5.077   2.619
 9990SOL     OW30868   0.374   6.532   4.042
 9990SOL    HW130869   0.352   6.618   4.087
 9990SOL    HW230870   0.420   6.550   3.955
 9991SOL     OW30871   1.867   5.012   3.183
 9991SOL    HW130872   1.966   5.013   3.169
 9991SOL    HW230873   1.842   5.083   3.249
 9992SOL     OW30874   3.298   4.512   0.582
 9992SOL    HW130875   3.334   4.495   0.490
 9992SOL    HW230876   3.245   4.432   0.611
 9993SOL     OW30877   3.459   6.235   4.337
 9993SOL    HW130878   3.476   6.179   4.418
 9993SOL    HW230879   3.533   6.300   4.324
 9994SOL     OW30880   5.664   5.675   5.122
 9994SOL    HW130881   5.669   5.584   5.082
 9994SOL    HW230882   5.582   5.683   5.179
 9995SOL     OW30883   3.073   0.294   4.948
 9995SOL    HW130884   3.039   0.317   5.039
 9995SOL    HW230885   3.007   0.324   4.879
 9996SOL     OW30886   2.976   3.020   0.930
 9996SOL    HW130887   3.024   2.963   0.998
 9996SOL    HW230888   2.877   3.007   0.940
 9997SOL     OW30889   5.909   2.498   3.573
 9997SOL    HW130890   5.837   2.546   3.523
 9997SOL    HW230891   5.886   2.494   3.670
 9998SOL     OW30892   4.709   4.467   2.512
 9998SOL    HW130893   4.632   4.528   2.495
 9998SOL    HW230894   4.735   4.421   2.428
 9999SOL     OW30895   0.786   6.768   3.430
 9999SOL    HW130896   0.724   6.810   3.497
 9999SOL    HW230897   0.733   6.709   3.369
10000SOL     OW30898   4.891   2.437   1.598
10000SOL    HW130899   4.981   2.473   1.575
10000SOL    HW230900   4.829   2.513   1.619
10001SOL     OW30901   4.242   6.159   2.115
10001SOL    HW130902   4.311   6.193   2.050
10001SOL    HW230903   4.166   6.224   2.118
10002SOL     OW30904   3.226   1.321   2.075
10002SOL    HW130905   3.129   1.307   2.092
10002SOL    HW230906   3.274   1.334   2.162
10003SOL     OW30907   1.737   0.838   3.999
10003SOL    HW130908   1.673   0.761   4.003
10003SOL    HW230909   1.692   0.921   4.032
10004SOL     OW30910   6.683   4.038   5.095
10004SOL    HW130911   6.647   3.961   5.043
10004SOL    HW230912   6.633   4.121   5.071
10005SOL     OW30913   2.429   5.149   3.232
10005SOL    HW130914   2.487   5.219   3.274
10005SOL    HW230915   2.452   5.141   3.135
10006SOL     OW30916   5.337   0.081   4.668
10006SOL    HW130917   5.365   0.159   4.725
10006SOL    HW230918   5.300   0.116   4.581
10007SOL     OW30919   1.532   4.882   4.372
10007SOL    HW130920   1.494   4.956   4.317
10007SOL    HW230921   1.460   4.838   4.425
10008SOL     OW30922   4.139   1.115   6.110
10008SOL    HW130923   4.083   1.065   6.177
10008SOL    HW230924   4.234   1.115   6.140
10009SOL     OW30925   1.492   3.141   2.279
10009SOL    HW130926   1.549   3.144   2.196
10009SOL    HW230927   1.529   3.204   2.347
10010SOL     OW30928   2.646   3.897   0.529
10010SOL    HW130929   2.729   3.894   0.474
10010SOL    HW230930   2.641   3.985   0.577
10011SOL     OW30931   2.007   3.644   0.112
10011SOL    HW130932   1.929   3.590   0.083
10011SOL    HW230933   2.035   3.616   0.204
10012SOL     OW30934   5.977   2.243   2.911
10012SOL    HW130935   5.954   2.187   2.991
10012SOL    HW230936   5.954   2.193   2.827
10013SOL     OW30937   0.431   5.747   5.183
10013SOL    HW130938   0.378   5.743   5.267
10013SOL    HW230939   0.527   5.728   5.202
10014SOL     OW30940   0.736   0.142   3.093
10014SOL    HW130941   0.757   0.114   3.187
10014SOL    HW230942   0.805   0.208   3.062
10015SOL     OW30943   4.275   4.458   5.830
10015SOL    HW130944   4.257   4.420   5.739
10015SOL    HW230945   4.363   4.506   5.829
10016SOL     OW30946   2.367   0.021   3.172
10016SOL    HW130947   2.375   0.121   3.180
10016SOL    HW230948   2.370   6.997   3.263
10017SOL     OW30949   2.492   1.777   2.682
10017SOL    HW130950   2.451   1.853   2.732
10017SOL    HW230951   2.467   1.691   2.726
10018SOL     OW30952   6.918   3.291   5.789
10018SOL    HW130953   6.921   3.267   5.693
10018SOL    HW230954   6.823   3.307   5.817
10019SOL     OW30955   0.366   2.166   2.471
10019SOL    HW130956   0.324   2.251   2.442
10019SOL    HW230957   0.422   2.183   2.552
10020SOL     OW30958   6.087   0.674   2.226
10020SOL    HW130959   6.086   0.773   2.231
10020SOL    HW230960   6.015   0.643   2.163
10021SOL     OW30961   1.234   3.899   2.303
10021SOL    HW130962   1.304   3.827   2.305
10021SOL    HW230963   1.152   3.867   2.350
10022SOL     OW30964   2.390   5.731   6.836
10022SOL    HW130965   2.292   5.744   6.825
10022SOL    HW230966   2.431   5.709   6.748
10023SOL     OW30967   1.721   0.033   6.017
10023SOL    HW130968   1.654   6.991   6.063
10023SOL    HW230969   1.689   0.055   5.925
10024SOL     OW30970   1.394   4.888   2.444
10024SOL    HW130971   1.410   4.970   2.389
10024SOL    HW230972   1.425   4.808   2.394
10025SOL     OW30973   1.245   4.318   1.982
10025SOL    HW130974   1.276   4.230   2.018
10025SOL    HW230975   1.225   4.380   2.058
10026SOL     OW30976   5.320   1.535   4.265
10026SOL    HW130977   5.419   1.526   4.276
10026SOL    HW230978   5.284   1.451   4.225
10027SOL     OW30979   2.516   1.699   5.532
10027SOL    HW130980   2.438   1.731   5.586
10027SOL    HW230981   2.503   1.725   5.436
10028SOL     OW30982   4.818   0.693   1.099
10028SOL    HW130983   4.732   0.692   1.150
10028SOL    HW230984   4.895   0.696   1.164
10029SOL     OW30985   0.322   3.663   5.312
10029SOL    HW130986   0.344   3.735   5.247
10029SOL    HW230987   0.262   3.700   5.383
10030SOL     OW30988   2.301   7.013   4.902
10030SOL    HW130989   2.212   6.982   4.868
10030SOL    HW230990   2.361   0.016   4.825
10031SOL     OW30991   2.897   4.880   4.069
10031SOL    HW130992   2.885   4.861   3.971
10031SOL    HW230993   2.995   4.889   4.089
10032SOL     OW30994   3.137   6.275   5.130
10032SOL    HW130995   3.230   6.310   5.124
10032SOL    HW230996   3.123   6.231   5.219
10033SOL     OW30997   3.611   1.091   3.242
10033SOL    HW130998   3.541   1.139   3.189
10033SOL    HW230999   3.661   1.157   3.299
10034SOL     OW31000   2.816   0.686   3.719
10034SOL    HW131001   2.805   0.653   3.813
10034SOL    HW231002   2.906   0.662   3.686
10035SOL     OW31003   5.693   2.894   2.429
10035SOL    HW131004   5.787   2.861   2.435
10035SOL    HW231005   5.687   2.985   2.470
10036SOL     OW31006   0.293   0.539   6.903
10036SOL    HW131007   0.292   0.533   7.003
10036SOL    HW231008   0.263   0.451   6.865
10037SOL     OW31009   6.348   0.312   0.197
10037SOL    HW131010   6.340   0.408   0.223
10037SOL    HW231011   6.308   0.254   0.269
10038SOL     OW31012   4.254   0.084   6.786
10038SOL    HW131013   4.191   0.079   6.864
10038SOL    HW231014   4.345   0.109   6.818
10039SOL     OW31015   6.040   5.194   3.305
10039SOL    HW131016   6.037   5.294   3.297
10039SOL    HW231017   6.127   5.167   3.344
10040SOL     OW31018   3.598   6.984   0.624
10040SOL    HW131019   3.550   0.054   0.607
10040SOL    HW231020   3.609   6.970   0.722
10041SOL     OW31021   6.798   5.201   4.846
10041SOL    HW131022   6.806   5.128   4.779
10041SOL    HW231023   6.820   5.289   4.803
10042SOL     OW31024   0.458   0.590   4.450
10042SOL    HW131025   0.463   0.511   4.388
10042SOL    HW231026   0.493   0.563   4.540
10043SOL     OW31027   0.769   0.674   3.329
10043SOL    HW131028   0.812   0.666   3.239
10043SOL    HW231029   0.738   0.768   3.344
10044SOL     OW31030   2.653   1.663   5.925
10044SOL    HW131031   2.568   1.610   5.921
10044SOL    HW231032   2.631   1.760   5.940
10045SOL     OW31033   3.984   6.540   4.770
10045SOL    HW131034   3.989   6.628   4.817
10045SOL    HW231035   3.934   6.475   4.827
10046SOL     OW31036   0.236   2.689   1.709
10046SOL    HW131037   0.202   2.608   1.660
10046SOL    HW231038   0.253   2.665   1.804
10047SOL     OW31039   6.629   1.918   4.976
10047SOL    HW131040   6.565   1.863   5.030
10047SOL    HW231041   6.679   1.980   5.036
10048SOL     OW31042   3.511   1.344   1.407
10048SOL    HW131043   3.507   1.411   1.480
10048SOL    HW231044   3.506   1.391   1.318
10049SOL     OW31045   1.989   0.041   5.451
10049SOL    HW131046   2.072   0.086   5.418
10049SOL    HW231047   1.950   7.002   5.378
10050SOL     OW31048   5.207   2.928   4.315
10050SOL    HW131049   5.247   2.928   4.224
10050SOL    HW231050   5.174   2.836   4.337
10051SOL     OW31051   6.012   3.003   4.684
10051SOL    HW131052   6.021   3.002   4.784
10051SOL    HW231053   6.014   3.098   4.652
10052SOL     OW31054   1.056   3.529   1.620
10052SOL    HW131055   1.075   3.628   1.618
10052SOL    HW231056   1.134   3.481   1.658
10053SOL     OW31057   3.624   5.475   3.395
10053SOL    HW131058   3.678   5.558   3.412
10053SOL    HW231059   3.678   5.395   3.418
10054SOL     OW31060   3.927   5.534   5.078
10054SOL    HW131061   3.939   5.497   5.171
10054SOL    HW231062   3.895   5.628   5.083
10055SOL     OW31063   6.160   2.566   5.179
10055SOL    HW131064   6.124   2.610   5.097
10055SOL    HW231065   6.217   2.488   5.152
10056SOL     OW31066   6.474   4.658   1.541
10056SOL    HW131067   6.384   4.649   1.499
10056SOL    HW231068   6.544   4.660   1.470
10057SOL     OW31069   3.881   1.999   4.445
10057SOL    HW131070   3.947   2.053   4.393
10057SOL    HW231071   3.850   2.052   4.524
10058SOL     OW31072   0.542   5.457   3.987
10058SOL    HW131073   0.515   5.507   4.069
10058SOL    HW231074   0.591   5.519   3.925
10059SOL     OW31075   5.475   0.798   1.123
10059SOL    HW131076   5.375   0.794   1.127
10059SOL    HW231077   5.513   0.804   1.215
10060SOL     OW31078   2.686   2.409   1.740
10060SOL    HW131079   2.695   2.439   1.645
10060SOL    HW231080   2.769   2.432   1.790
10061SOL     OW31081   6.207   1.553   4.264
10061SOL    HW131082   6.125   1.568   4.319
10061SOL    HW231083   6.246   1.464   4.286
10062SOL     OW31084   6.716   5.507   3.270
10062SOL    HW131085   6.708   5.588   3.213
10062SOL    HW231086   6.801   5.510   3.322
10063SOL     OW31087   1.098   3.306   3.742
10063SOL    HW131088   1.195   3.280   3.745
10063SOL    HW231089   1.047   3.252   3.809
10064SOL     OW31090   5.492   6.159   4.637
10064SOL    HW131091   5.439   6.225   4.691
10064SOL    HW231092   5.469   6.169   4.540
10065SOL     OW31093   1.401   6.421   2.668
10065SOL    HW131094   1.365   6.351   2.731
10065SOL    HW231095   1.325   6.463   2.618
10066SOL     OW31096   0.803   6.989   4.025
10066SOL    HW131097   0.810   6.902   3.976
10066SOL    HW231098   0.885   0.026   4.009
10067SOL     OW31099   4.560   4.534   4.175
10067SOL    HW131100   4.538   4.631   4.160
10067SOL    HW231101   4.542   4.483   4.092
10068SOL     OW31102   5.240   3.729   4.734
10068SOL    HW131103   5.189   3.667   4.793
10068SOL    HW231104   5.334   3.737   4.768
10069SOL     OW31105   3.069   1.547   3.426
10069SOL    HW131106   3.126   1.502   3.494
10069SOL    HW231107   3.115   1.630   3.393
10070SOL     OW31108   1.059   6.421   4.724
10070SOL    HW131109   1.046   6.472   4.639
10070SOL    HW231110   0.972   6.415   4.774
10071SOL     OW31111   4.668   5.869   4.043
10071SOL    HW131112   4.759   5.830   4.062
10071SOL    HW231113   4.599   5.799   4.058
10072SOL     OW31114   0.436   6.538   3.355
10072SOL    HW131115   0.446   6.615   3.292
10072SOL    HW231116   0.431   6.453   3.302
10073SOL     OW31117   6.963   4.866   5.531
10073SOL    HW131118   7.016   4.797   5.581
10073SOL    HW231119   0.007   4.938   5.498
10074SOL     OW31120   1.812   0.361   6.243
10074SOL    HW131121   1.825   0.262   6.241
10074SOL    HW231122   1.751   0.385   6.318
10075SOL     OW31123   1.361   2.667   3.782
10075SOL    HW131124   1.297   2.610   3.731
10075SOL    HW231125   1.454   2.632   3.768
10076SOL     OW31126   4.806   6.743   4.515
10076SOL    HW131127   4.725   6.698   4.478
10076SOL    HW231128   4.832   6.701   4.602
10077SOL     OW31129   4.168   1.940   6.062
10077SOL    HW131130   4.174   1.942   6.162
10077SOL    HW231131   4.085   1.988   6.033
10078SOL     OW31132   6.003   0.042   5.430
10078SOL    HW131133   6.044   6.978   5.471
10078SOL    HW231134   5.943   0.087   5.496
10079SOL     OW31135   1.151   3.116   1.667
10079SOL    HW131136   1.181   3.207   1.696
10079SOL    HW231137   1.221   3.076   1.607
10080SOL     OW31138   1.937   2.803   0.124
10080SOL    HW131139   1.954   2.774   0.219
10080SOL    HW231140   2.022   2.834   0.083
10081SOL     OW31141   0.511   0.539   6.432
10081SOL    HW131142   0.430   0.587   6.465
10081SOL    HW231143   0.584   0.606   6.414
10082SOL     OW31144   6.238   2.414   1.733
10082SOL    HW131145   6.160   2.359   1.763
10082SOL    HW231146   6.314   2.353   1.707
10083SOL     OW31147   4.365   0.290   3.856
10083SOL    HW131148   4.319   0.268   3.943
10083SOL    HW231149   4.302   0.274   3.780
10084SOL     OW31150   2.273   1.254   5.818
10084SOL    HW131151   2.236   1.265   5.726
10084SOL    HW231152   2.372   1.245   5.814
10085SOL     OW31153   0.506   5.850   2.961
10085SOL    HW131154   0.517   5.857   3.060
10085SOL    HW231155   0.524   5.939   2.919
10086SOL     OW31156   5.940   4.337   1.934
10086SOL    HW131157   5.909   4.420   1.982
10086SOL    HW231158   5.884   4.324   1.851
10087SOL     OW31159   1.131   0.299   4.100
10087SOL    HW131160   1.143   0.365   4.026
10087SOL    HW231161   1.110   0.209   4.062
10088SOL     OW31162   0.872   6.738   4.859
10088SOL    HW131163   0.797   6.802   4.842
10088SOL    HW231164   0.859   6.656   4.804
10089SOL     OW31165   1.961   2.143   2.030
10089SOL    HW131166   1.936   2.134   2.126
10089SOL    HW231167   1.988   2.054   1.994
10090SOL     OW31168   1.381   4.146   0.989
10090SOL    HW131169   1.378   4.234   0.943
10090SOL    HW231170   1.305   4.089   0.958
10091SOL     OW31171   0.975   3.555   4.324
10091SOL    HW131172   1.045   3.564   4.252
10091SOL    HW231173   1.018   3.565   4.414
10092SOL     OW31174   1.695   3.542   5.202
10092SOL    HW131175   1.637   3.523   5.123
10092SOL    HW231176   1.639   3.575   5.278
10093SOL     OW31177   6.591   5.403   5.440
10093SOL    HW131178   6.674   5.402   5.383
10093SOL    HW231179   6.560   5.497   5.452
10094SOL     OW31180   1.989   1.335   2.534
10094SOL    HW131181   1.905   1.355   2.584
10094SOL    HW231182   2.011   1.238   2.542
10095SOL     OW31183   6.997   1.104   6.186
10095SOL    HW131184   7.006   1.084   6.284
10095SOL    HW231185   6.928   1.176   6.173
10096SOL     OW31186   0.114   5.418   2.291
10096SOL    HW131187   0.018   5.408   2.265
10096SOL    HW231188   0.167   5.453   2.214
10097SOL     OW31189   1.746   1.013   1.209
10097SOL    HW131190   1.821   1.076   1.192
10097SOL    HW231191   1.773   0.946   1.278
10098SOL     OW31192   2.234   5.774   6.408
10098SOL    HW131193   2.263   5.820   6.324
10098SOL    HW231194   2.300   5.795   6.481
10099SOL     OW31195   6.896   4.148   4.811
10099SOL    HW131196   6.818   4.120   4.755
10099SOL    HW231197   6.980   4.141   4.758
10100SOL     OW31198   4.722   0.476   4.942
10100SOL    HW131199   4.766   0.566   4.944
10100SOL    HW231200   4.715   0.440   5.035
10101SOL     OW31201   6.753   4.433   2.568
10101SOL    HW131202   6.663   4.408   2.605
10101SOL    HW231203   6.813   4.459   2.644
10102SOL     OW31204   3.214   1.783   2.100
10102SOL    HW131205   3.207   1.881   2.121
10102SOL    HW231206   3.123   1.747   2.082
10103SOL     OW31207   2.407   1.443   5.579
10103SOL    HW131208   2.449   1.509   5.516
10103SOL    HW231209   2.366   1.369   5.526
10104SOL     OW31210   1.007   5.151   4.996
10104SOL    HW131211   1.007   5.248   5.021
10104SOL    HW231212   0.921   5.127   4.951
10105SOL     OW31213   1.709   0.730   6.482
10105SOL    HW131214   1.783   0.771   6.534
10105SOL    HW231215   1.624   0.779   6.501
10106SOL     OW31216   5.169   5.980   1.060
10106SOL    HW131217   5.122   6.057   1.016
10106SOL    HW231218   5.233   6.014   1.128
10107SOL     OW31219   5.873   1.211   5.946
10107SOL    HW131220   5.865   1.301   5.905
10107SOL    HW231221   5.787   1.186   5.990
10108SOL     OW31222   6.516   7.000   0.493
10108SOL    HW131223   6.546   6.932   0.426
10108SOL    HW231224   6.585   7.008   0.565
10109SOL     OW31225   4.809   5.594   3.659
10109SOL    HW131226   4.770   5.671   3.710
10109SOL    HW231227   4.742   5.560   3.593
10110SOL     OW31228   3.701   0.136   5.894
10110SOL    HW131229   3.778   0.186   5.932
10110SOL    HW231230   3.616   0.187   5.910
10111SOL     OW31231   6.511   3.272   3.355
10111SOL    HW131232   6.525   3.191   3.412
10111SOL    HW231233   6.513   3.245   3.259
10112SOL     OW31234   5.169   3.789   5.639
10112SOL    HW131235   5.171   3.739   5.725
10112SOL    HW231236   5.242   3.857   5.638
10113SOL     OW31237   4.022   0.094   6.998
10113SOL    HW131238   4.039   0.189   6.974
10113SOL    HW231239   3.930   0.068   6.967
10114SOL     OW31240   5.139   1.249   0.406
10114SOL    HW131241   5.157   1.206   0.317
10114SOL    HW231242   5.153   1.182   0.479
10115SOL     OW31243   1.882   2.269   3.849
10115SOL    HW131244   1.895   2.208   3.770
10115SOL    HW231245   1.970   2.308   3.876
10116SOL     OW31246   0.348   0.557   1.186
10116SOL    HW131247   0.342   0.503   1.102
10116SOL    HW231248   0.374   0.651   1.163
10117SOL     OW31249   6.234   0.408   5.507
10117SOL    HW131250   6.243   0.373   5.414
10117SOL    HW231251   6.153   0.465   5.513
10118SOL     OW31252   6.335   4.979   2.797
10118SOL    HW131253   6.419   5.032   2.792
10118SOL    HW231254   6.295   4.987   2.888
10119SOL     OW31255   2.705   0.651   5.352
10119SOL    HW131256   2.730   0.654   5.255
10119SOL    HW231257   2.679   0.558   5.376
10120SOL     OW31258   0.789   3.136   3.780
10120SOL    HW131259   0.874   3.113   3.829
10120SOL    HW231260   0.757   3.056   3.730
10121SOL     OW31261   5.574   4.724   5.264
10121SOL    HW131262   5.556   4.634   5.224
10121SOL    HW231263   5.581   4.792   5.191
10122SOL     OW31264   5.076   3.050   6.969
10122SOL    HW131265   5.159   3.084   6.924
10122SOL    HW231266   5.001   3.115   6.953
10123SOL     OW31267   0.092   6.148   0.925
10123SOL    HW131268   0.175   6.092   0.936
10123SOL    HW231269   0.014   6.098   0.961
10124SOL     OW31270   3.127   3.927   0.277
10124SOL    HW131271   3.217   3.929   0.321
10124SOL    HW231272   3.133   3.875   0.192
10125SOL     OW31273   1.396   0.604   2.738
10125SOL    HW131274   1.313   0.562   2.776
10125SOL    HW231275   1.395   0.702   2.757
10126SOL     OW31276   6.492   5.199   0.382
10126SOL    HW131277   6.590   5.202   0.364
10126SOL    HW231278   6.458   5.291   0.401
10127SOL     OW31279   3.350   5.419   5.473
10127SOL    HW131280   3.391   5.368   5.549
10127SOL    HW231281   3.288   5.359   5.423
10128SOL     OW31282   6.605   1.879   0.678
10128SOL    HW131283   6.537   1.881   0.605
10128SOL    HW231284   6.562   1.904   0.765
10129SOL     OW31285   5.270   2.425   3.661
10129SOL    HW131286   5.357   2.465   3.690
10129SOL    HW231287   5.262   2.431   3.562
10130SOL     OW31288   0.035   5.817   2.771
10130SOL    HW131289   0.095   5.866   2.707
10130SOL    HW231290   0.088   5.750   2.822
10131SOL     OW31291   0.705   1.719   2.372
10131SOL    HW131292   0.662   1.635   2.406
10131SOL    HW231293   0.792   1.732   2.418
10132SOL     OW31294   3.265   6.417   2.922
10132SOL    HW131295   3.178   6.460   2.943
10132SOL    HW231296   3.327   6.484   2.882
10133SOL     OW31297   4.453   5.928   3.687
10133SOL    HW131298   4.383   5.963   3.749
10133SOL    HW231299   4.415   5.855   3.631
10134SOL     OW31300   6.884   1.183   3.618
10134SOL    HW131301   6.790   1.159   3.640
10134SOL    HW231302   6.935   1.102   3.592
10135SOL     OW31303   4.147   5.142   2.887
10135SOL    HW131304   4.161   5.045   2.867
10135SOL    HW231305   4.059   5.171   2.850
10136SOL     OW31306   6.082   0.303   3.595
10136SOL    HW131307   6.108   0.231   3.660
10136SOL    HW231308   6.124   0.389   3.622
10137SOL     OW31309   6.509   5.749   4.482
10137SOL    HW131310   6.554   5.831   4.516
10137SOL    HW231311   6.533   5.671   4.539
10138SOL     OW31312   5.987   2.184   0.287
10138SOL    HW131313   5.994   2.280   0.315
10138SOL    HW231314   5.971   2.127   0.368
10139SOL     OW31315   3.161   2.968   3.411
10139SOL    HW131316   3.080   2.929   3.366
10139SOL    HW231317   3.244   2.932   3.369
10140SOL     OW31318   6.404   5.519   6.933
10140SOL    HW131319   6.395   5.433   6.884
10140SOL    HW231320   6.500   5.542   6.945
10141SOL     OW31321   2.346   1.605   5.002
10141SOL    HW131322   2.325   1.588   5.099
10141SOL    HW231323   2.281   1.670   4.964
10142SOL     OW31324   4.264   6.209   4.925
10142SOL    HW131325   4.236   6.305   4.926
10142SOL    HW231326   4.361   6.202   4.950
10143SOL     OW31327   4.878   0.017   1.271
10143SOL    HW131328   4.949   0.018   1.341
10143SOL    HW231329   4.915   0.053   1.185
10144SOL     OW31330   3.223   5.731   5.431
10144SOL    HW131331   3.252   5.763   5.341
10144SOL    HW231332   3.302   5.693   5.479
10145SOL     OW31333   2.818   6.189   6.095
10145SOL    HW131334   2.832   6.092   6.116
10145SOL    HW231335   2.837   6.204   5.998
10146SOL     OW31336   3.832   5.604   4.363
10146SOL    HW131337   3.881   5.678   4.316
10146SOL    HW231338   3.817   5.631   4.458
10147SOL     OW31339   4.772   4.201   4.098
10147SOL    HW131340   4.838   4.261   4.144
10147SOL    HW231341   4.809   4.108   4.096
10148SOL     OW31342   6.179   5.745   0.930
10148SOL    HW131343   6.213   5.769   0.839
10148SOL    HW231344   6.084   5.714   0.923
10149SOL     OW31345   4.664   1.604   1.033
10149SOL    HW131346   4.660   1.565   0.941
10149SOL    HW231347   4.582   1.576   1.084
10150SOL     OW31348   4.770   4.517   0.663
10150SOL    HW131349   4.728   4.485   0.579
10150SOL    HW231350   4.829   4.446   0.701
10151SOL     OW31351   1.099   0.244   6.529
10151SOL    HW131352   1.055   0.159   6.498
10151SOL    HW231353   1.037   0.320   6.513
10152SOL     OW31354   1.521   5.064   3.402
10152SOL    HW131355   1.586   5.003   3.447
10152SOL    HW231356   1.477   5.015   3.326
10153SOL     OW31357   4.619   6.118   3.564
10153SOL    HW131358   4.675   6.098   3.484
10153SOL    HW231359   4.567   6.036   3.590
10154SOL     OW31360   6.752   6.330   5.891
10154SOL    HW131361   6.656   6.306   5.878
10154SOL    HW231362   6.809   6.249   5.878
10155SOL     OW31363   3.828   0.505   5.946
10155SOL    HW131364   3.816   0.579   6.012
10155SOL    HW231365   3.739   0.480   5.907
10156SOL     OW31366   5.291   0.087   2.722
10156SOL    HW131367   5.194   0.064   2.714
10156SOL    HW231368   5.332   0.091   2.631
10157SOL     OW31369   5.987   1.434   6.119
10157SOL    HW131370   5.971   1.455   6.216
10157SOL    HW231371   5.964   1.339   6.101
10158SOL     OW31372   4.748   3.486   0.086
10158SOL    HW131373   4.722   3.582   0.079
10158SOL    HW231374   4.847   3.480   0.102
10159SOL     OW31375   2.550   2.962   6.188
10159SOL    HW131376   2.554   2.898   6.111
10159SOL    HW231377   2.566   3.055   6.154
10160SOL     OW31378   0.548   4.572   3.324
10160SOL    HW131379   0.569   4.574   3.226
10160SOL    HW231380   0.474   4.637   3.343
10161SOL     OW31381   3.155   4.803   6.773
10161SOL    HW131382   3.191   4.814   6.681
10161SOL    HW231383   3.062   4.767   6.769
10162SOL     OW31384   2.522   3.192   6.567
10162SOL    HW131385   2.474   3.217   6.484
10162SOL    HW231386   2.465   3.129   6.621
10163SOL     OW31387   6.069   3.733   6.016
10163SOL    HW131388   6.164   3.761   6.031
10163SOL    HW231389   6.036   3.682   6.095
10164SOL     OW31390   6.411   2.933   4.737
10164SOL    HW131391   6.373   2.975   4.654
10164SOL    HW231392   6.468   2.855   4.712
10165SOL     OW31393   0.824   2.464   4.664
10165SOL    HW131394   0.732   2.480   4.700
10165SOL    HW231395   0.851   2.542   4.608
10166SOL     OW31396   3.122   1.362   1.581
10166SOL    HW131397   3.182   1.334   1.656
10166SOL    HW231398   3.105   1.460   1.587
10167SOL     OW31399   5.509   1.415   6.332
10167SOL    HW131400   5.454   1.476   6.390
10167SOL    HW231401   5.543   1.465   6.253
10168SOL     OW31402   7.002   4.390   4.631
10168SOL    HW131403   0.058   4.371   4.696
10168SOL    HW231404   6.995   4.489   4.618
10169SOL     OW31405   6.302   5.095   3.402
10169SOL    HW131406   6.321   5.061   3.494
10169SOL    HW231407   6.361   5.047   3.337
10170SOL     OW31408   0.896   4.374   5.047
10170SOL    HW131409   0.964   4.340   4.982
10170SOL    HW231410   0.936   4.449   5.100
10171SOL     OW31411   6.832   4.011   6.034
10171SOL    HW131412   6.909   3.947   6.034
10171SOL    HW231413   6.747   3.960   6.045
10172SOL     OW31414   5.428   0.601   2.799
10172SOL    HW131415   5.450   0.698   2.801
10172SOL    HW231416   5.393   0.577   2.708
10173SOL     OW31417   2.097   1.632   0.777
10173SOL    HW131418   2.093   1.692   0.857
10173SOL    HW231419   2.150   1.677   0.705
10174SOL     OW31420   5.685   4.600   3.036
10174SOL    HW131421   5.648   4.520   3.084
10174SOL    HW231422   5.713   4.573   2.943
10175SOL     OW31423   6.315   2.580   4.179
10175SOL    HW131424   6.323   2.604   4.275
10175SOL    HW231425   6.277   2.657   4.128
10176SOL     OW31426   1.532   3.209   6.156
10176SOL    HW131427   1.606   3.195   6.091
10176SOL    HW231428   1.449   3.237   6.107
10177SOL     OW31429   3.219   0.191   0.380
10177SOL    HW131430   3.122   0.211   0.392
10177SOL    HW231431   3.273   0.273   0.399
10178SOL     OW31432   6.152   2.861   4.236
10178SOL    HW131433   6.163   2.843   4.138
10178SOL    HW231434   6.143   2.774   4.285
10179SOL     OW31435   0.777   2.276   6.309
10179SOL    HW131436   0.722   2.215   6.254
10179SOL    HW231437   0.717   2.339   6.359
10180SOL     OW31438   2.800   5.558   5.847
10180SOL    HW131439   2.876   5.503   5.811
10180SOL    HW231440   2.796   5.547   5.946
10181SOL     OW31441   5.486   3.534   1.692
10181SOL    HW131442   5.556   3.468   1.664
10181SOL    HW231443   5.395   3.498   1.669
10182SOL     OW31444   5.791   1.194   1.400
10182SOL    HW131445   5.773   1.123   1.332
10182SOL    HW231446   5.874   1.170   1.451
10183SOL     OW31447   1.319   2.010   6.577
10183SOL    HW131448   1.248   2.078   6.596
10183SOL    HW231449   1.333   2.004   6.478
10184SOL     OW31450   4.750   1.938   6.000
10184SOL    HW131451   4.718   1.924   6.094
10184SOL    HW231452   4.849   1.951   6.000
10185SOL     OW31453   4.919   6.789   0.875
10185SOL    HW131454   4.997   6.758   0.822
10185SOL    HW231455   4.939   6.780   0.973
10186SOL     OW31456   5.529   2.986   3.180
10186SOL    HW131457   5.434   2.983   3.210
10186SOL    HW231458   5.546   3.072   3.132
10187SOL     OW31459   0.587   2.038   1.842
10187SOL    HW131460   0.571   2.044   1.940
10187SOL    HW231461   0.669   1.984   1.824
10188SOL     OW31462   3.900   6.306   0.394
10188SOL    HW131463   3.990   6.349   0.393
10188SOL    HW231464   3.901   6.223   0.339
10189SOL     OW31465   2.261   6.370   5.269
10189SOL    HW131466   2.346   6.389   5.218
10189SOL    HW231467   2.194   6.330   5.207
10190SOL     OW31468   4.986   2.266   0.647
10190SOL    HW131469   4.886   2.278   0.643
10190SOL    HW231470   5.015   2.254   0.742
10191SOL     OW31471   5.278   4.666   6.830
10191SOL    HW131472   5.192   4.627   6.798
10191SOL    HW231473   5.265   4.762   6.854
10192SOL     OW31474   3.828   0.439   4.880
10192SOL    HW131475   3.849   0.356   4.828
10192SOL    HW231476   3.820   0.517   4.818
10193SOL     OW31477   4.406   4.213   1.242
10193SOL    HW131478   4.319   4.228   1.290
10193SOL    HW231479   4.453   4.300   1.229
10194SOL     OW31480   5.887   4.336   4.995
10194SOL    HW131481   5.961   4.312   4.933
10194SOL    HW231482   5.860   4.256   5.048
10195SOL     OW31483   5.894   4.392   1.435
10195SOL    HW131484   5.846   4.478   1.416
10195SOL    HW231485   5.957   4.372   1.360
10196SOL     OW31486   6.471   1.474   4.956
10196SOL    HW131487   6.521   1.396   4.918
10196SOL    HW231488   6.373   1.454   4.953
10197SOL     OW31489   6.651   0.775   4.814
10197SOL    HW131490   6.740   0.818   4.795
10197SOL    HW231491   6.626   0.715   4.738
10198SOL     OW31492   3.917   0.912   2.409
10198SOL    HW131493   3.911   0.896   2.310
10198SOL    HW231494   3.966   0.837   2.452
10199SOL     OW31495   0.791   2.866   5.304
10199SOL    HW131496   0.858   2.815   5.358
10199SOL    HW231497   0.699   2.842   5.334
10200SOL     OW31498   5.269   2.642   1.128
10200SOL    HW131499   5.277   2.617   1.224
10200SOL    HW231500   5.239   2.563   1.075
10201SOL     OW31501   1.687   4.479   1.114
10201SOL    HW131502   1.643   4.527   1.038
10201SOL    HW231503   1.618   4.430   1.167
10202SOL     OW31504   3.965   1.597   5.429
10202SOL    HW131505   4.023   1.586   5.510
10202SOL    HW231506   3.938   1.693   5.420
10203SOL     OW31507   5.486   2.257   4.969
10203SOL    HW131508   5.537   2.284   5.050
10203SOL    HW231509   5.469   2.337   4.912
10204SOL     OW31510   5.379   6.878   6.377
10204SOL    HW131511   5.350   6.968   6.409
10204SOL    HW231512   5.301   6.816   6.375
10205SOL     OW31513   0.879   0.896   6.947
10205SOL    HW131514   0.938   0.976   6.943
10205SOL    HW231515   0.785   0.923   6.926
10206SOL     OW31516   1.076   0.709   5.788
10206SOL    HW131517   1.011   0.640   5.820
10206SOL    HW231518   1.169   0.678   5.807
10207SOL     OW31519   1.652   1.944   5.629
10207SOL    HW131520   1.607   1.951   5.540
10207SOL    HW231521   1.673   2.035   5.663
10208SOL     OW31522   5.145   5.126   5.118
10208SOL    HW131523   5.125   5.029   5.127
10208SOL    HW231524   5.063   5.179   5.142
10209SOL     OW31525   6.824   0.188   5.760
10209SOL    HW131526   6.787   0.256   5.823
10209SOL    HW231527   6.757   0.116   5.744
10210SOL     OW31528   4.175   6.089   1.724
10210SOL    HW131529   4.149   6.022   1.794
10210SOL    HW231530   4.116   6.169   1.730
10211SOL     OW31531   4.096   6.594   5.558
10211SOL    HW131532   4.003   6.581   5.590
10211SOL    HW231533   4.095   6.625   5.463
10212SOL     OW31534   0.901   0.092   5.870
10212SOL    HW131535   0.844   0.010   5.861
10212SOL    HW231536   0.913   0.113   5.967
10213SOL     OW31537   5.535   1.970   0.012
10213SOL    HW131538   5.450   2.020   0.030
10213SOL    HW231539   5.612   2.034   0.016
10214SOL     OW31540   1.360   2.953   1.594
10214SOL    HW131541   1.311   2.870   1.620
10214SOL    HW231542   1.419   2.935   1.516
10215SOL     OW31543   3.851   3.509   2.638
10215SOL    HW131544   3.803   3.436   2.686
10215SOL    HW231545   3.946   3.512   2.669
10216SOL     OW31546   5.940   0.340   2.105
10216SOL    HW131547   5.916   0.245   2.126
10216SOL    HW231548   6.036   0.344   2.074
10217SOL     OW31549   2.884   1.217   3.561
10217SOL    HW131550   2.826   1.147   3.518
10217SOL    HW231551   2.833   1.303   3.567
10218SOL     OW31552   0.975   2.914   2.751
10218SOL    HW131553   1.058   2.961   2.780
10218SOL    HW231554   0.909   2.913   2.826
10219SOL     OW31555   0.617   1.413   2.363
10219SOL    HW131556   0.593   1.397   2.458
10219SOL    HW231557   0.535   1.439   2.312
10220SOL     OW31558   3.881   2.420   1.717
10220SOL    HW131559   3.883   2.514   1.752
10220SOL    HW231560   3.824   2.364   1.777
10221SOL     OW31561   1.192   6.552   2.553
10221SOL    HW131562   1.114   6.603   2.588
10221SOL    HW231563   1.159   6.472   2.502
10222SOL     OW31564   3.213   3.727   4.651
10222SOL    HW131565   3.229   3.753   4.555
10222SOL    HW231566   3.115   3.721   4.668
10223SOL     OW31567   0.771   5.565   0.940
10223SOL    HW131568   0.763   5.596   1.035
10223SOL    HW231569   0.724   5.630   0.880
10224SOL     OW31570   5.937   4.260   3.375
10224SOL    HW131571   5.857   4.304   3.416
10224SOL    HW231572   6.017   4.319   3.385
10225SOL     OW31573   2.222   3.402   5.944
10225SOL    HW131574   2.299   3.464   5.929
10225SOL    HW231575   2.241   3.314   5.902
10226SOL     OW31576   4.587   2.468   0.255
10226SOL    HW131577   4.657   2.465   0.327
10226SOL    HW231578   4.559   2.375   0.232
10227SOL     OW31579   5.946   4.148   0.778
10227SOL    HW131580   5.995   4.232   0.753
10227SOL    HW231581   5.847   4.164   0.770
10228SOL     OW31582   5.381   1.158   0.874
10228SOL    HW131583   5.414   1.171   0.967
10228SOL    HW231584   5.361   1.061   0.858
10229SOL     OW31585   0.652   3.583   4.805
10229SOL    HW131586   0.623   3.666   4.758
10229SOL    HW231587   0.751   3.570   4.792
10230SOL     OW31588   6.654   5.885   2.407
10230SOL    HW131589   6.748   5.871   2.374
10230SOL    HW231590   6.606   5.798   2.409
10231SOL     OW31591   1.546   6.303   3.019
10231SOL    HW131592   1.511   6.395   3.037
10231SOL    HW231593   1.644   6.307   3.003
10232SOL     OW31594   4.924   6.657   2.982
10232SOL    HW131595   4.985   6.607   2.922
10232SOL    HW231596   4.944   6.755   2.975
10233SOL     OW31597   4.286   4.096   6.538
10233SOL    HW131598   4.235   4.182   6.535
10233SOL    HW231599   4.375   4.108   6.494
10234SOL     OW31600   6.874   0.761   1.456
10234SOL    HW131601   6.915   0.702   1.386
10234SOL    HW231602   6.850   0.706   1.536
10235SOL     OW31603   1.153   1.066   3.335
10235SOL    HW131604   1.109   1.086   3.247
10235SOL    HW231605   1.183   0.971   3.337
10236SOL     OW31606   2.219   0.028   1.263
10236SOL    HW131607   2.252   0.016   1.169
10236SOL    HW231608   2.137   6.989   1.278
10237SOL     OW31609   0.522   3.642   6.669
10237SOL    HW131610   0.615   3.669   6.694
10237SOL    HW231611   0.497   3.558   6.717
10238SOL     OW31612   4.034   5.515   1.014
10238SOL    HW131613   4.000   5.486   1.104
10238SOL    HW231614   4.022   5.614   1.004
10239SOL     OW31615   1.607   2.190   4.578
10239SOL    HW131616   1.540   2.262   4.598
10239SOL    HW231617   1.693   2.213   4.623
10240SOL     OW31618   2.644   6.813   0.831
10240SOL    HW131619   2.574   6.782   0.895
10240SOL    HW231620   2.695   6.889   0.871
10241SOL     OW31621   4.250   2.315   1.564
10241SOL    HW131622   4.160   2.274   1.553
10241SOL    HW231623   4.245   2.387   1.633
10242SOL     OW31624   6.788   2.377   0.326
10242SOL    HW131625   6.853   2.369   0.402
10242SOL    HW231626   6.695   2.370   0.361
10243SOL     OW31627   2.716   5.017   1.271
10243SOL    HW131628   2.809   5.011   1.308
10243SOL    HW231629   2.654   4.964   1.329
10244SOL     OW31630   2.516   4.013   1.676
10244SOL    HW131631   2.609   3.977   1.665
10244SOL    HW231632   2.455   3.939   1.703
10245SOL     OW31633   3.912   4.510   0.463
10245SOL    HW131634   3.818   4.478   0.467
10245SOL    HW231635   3.932   4.563   0.546
10246SOL     OW31636   3.407   3.167   4.501
10246SOL    HW131637   3.386   3.070   4.515
10246SOL    HW231638   3.475   3.197   4.568
10247SOL     OW31639   1.092   3.883   4.450
10247SOL    HW131640   1.135   3.809   4.501
10247SOL    HW231641   1.009   3.912   4.497
10248SOL     OW31642   1.132   0.270   3.445
10248SOL    HW131643   1.169   0.361   3.462
10248SOL    HW231644   1.061   0.250   3.512
10249SOL     OW31645   2.193   4.555   6.474
10249SOL    HW131646   2.093   4.548   6.473
10249SOL    HW231647   2.233   4.463   6.474
10250SOL     OW31648   5.097   2.754   6.976
10250SOL    HW131649   5.053   2.841   6.954
10250SOL    HW231650   5.043   2.707   0.030
10251SOL     OW31651   1.891   0.395   4.409
10251SOL    HW131652   1.975   0.343   4.429
10251SOL    HW231653   1.866   0.380   4.314
10252SOL     OW31654   4.981   4.114   5.822
10252SOL    HW131655   5.054   4.074   5.877
10252SOL    HW231656   5.013   4.200   5.781
10253SOL     OW31657   4.166   6.499   6.880
10253SOL    HW131658   4.204   6.410   6.906
10253SOL    HW231659   4.186   6.565   6.952
10254SOL     OW31660   5.760   1.774   4.623
10254SOL    HW131661   5.666   1.740   4.616
10254SOL    HW231662   5.818   1.724   4.559
10255SOL     OW31663   3.594   5.381   1.557
10255SOL    HW131664   3.648   5.462   1.581
10255SOL    HW231665   3.513   5.376   1.616
10256SOL     OW31666   4.686   0.889   2.857
10256SOL    HW131667   4.755   0.827   2.820
10256SOL    HW231668   4.690   0.886   2.957
10257SOL     OW31669   3.211   5.206   2.748
10257SOL    HW131670   3.261   5.170   2.669
10257SOL    HW231671   3.113   5.199   2.731
10258SOL     OW31672   1.537   1.564   1.865
10258SOL    HW131673   1.575   1.585   1.955
10258SOL    HW231674   1.454   1.510   1.877
10259SOL     OW31675   0.978   3.633   3.917
10259SOL    HW131676   1.042   3.671   3.850
10259SOL    HW231677   0.884   3.653   3.888
10260SOL     OW31678   1.609   1.300   3.924
10260SOL    HW131679   1.532   1.360   3.941
10260SOL    HW231680   1.601   1.260   3.833
10261SOL     OW31681   6.394   3.722   0.850
10261SOL    HW131682   6.343   3.636   0.857
10261SOL    HW231683   6.468   3.722   0.919
10262SOL     OW31684   3.590   1.076   6.727
10262SOL    HW131685   3.606   1.133   6.807
10262SOL    HW231686   3.666   1.013   6.714
10263SOL     OW31687   5.816   0.889   2.149
10263SOL    HW131688   5.721   0.908   2.172
10263SOL    HW231689   5.830   0.790   2.145
10264SOL     OW31690   6.192   5.292   6.443
10264SOL    HW131691   6.155   5.207   6.482
10264SOL    HW231692   6.279   5.271   6.397
10265SOL     OW31693   2.084   1.877   0.284
10265SOL    HW131694   2.142   1.852   0.207
10265SOL    HW231695   2.010   1.936   0.252
10266SOL     OW31696   3.034   3.916   2.105
10266SOL    HW131697   3.000   3.848   2.171
10266SOL    HW231698   3.105   3.875   2.048
10267SOL     OW31699   5.772   0.969   0.799
10267SOL    HW131700   5.747   1.056   0.840
10267SOL    HW231701   5.794   0.983   0.702
10268SOL     OW31702   4.964   0.152   1.043
10268SOL    HW131703   5.057   0.141   1.079
10268SOL    HW231704   4.968   0.198   0.954
10269SOL     OW31705   1.983   2.428   6.316
10269SOL    HW131706   2.026   2.341   6.338
10269SOL    HW231707   1.965   2.479   6.400
10270SOL     OW31708   3.086   5.889   1.629
10270SOL    HW131709   3.068   5.793   1.608
10270SOL    HW231710   3.035   5.916   1.711
10271SOL     OW31711   1.599   2.156   0.121
10271SOL    HW131712   1.562   2.163   0.029
10271SOL    HW231713   1.549   2.086   0.172
10272SOL     OW31714   6.881   0.856   4.432
10272SOL    HW131715   6.804   0.822   4.378
10272SOL    HW231716   6.861   0.948   4.464
10273SOL     OW31717   2.523   5.200   3.839
10273SOL    HW131718   2.513   5.188   3.938
10273SOL    HW231719   2.600   5.144   3.807
10274SOL     OW31720   0.472   5.346   4.805
10274SOL    HW131721   0.413   5.289   4.748
10274SOL    HW231722   0.444   5.339   4.900
10275SOL     OW31723   0.071   0.410   2.843
10275SOL    HW131724   0.078   0.356   2.759
10275SOL    HW231725   0.021   0.495   2.825
10276SOL     OW31726   4.182   5.981   6.164
10276SOL    HW131727   4.202   5.961   6.068
10276SOL    HW231728   4.090   6.019   6.172
10277SOL     OW31729   1.192   6.296   4.432
10277SOL    HW131730   1.160   6.374   4.378
10277SOL    HW231731   1.121   6.269   4.496
10278SOL     OW31732   0.224   0.413   5.268
10278SOL    HW131733   0.258   0.497   5.311
10278SOL    HW231734   0.219   0.340   5.336
10279SOL     OW31735   2.072   5.342   4.077
10279SOL    HW131736   2.027   5.278   4.140
10279SOL    HW231737   2.004   5.381   4.015
10280SOL     OW31738   5.408   4.469   0.433
10280SOL    HW131739   5.427   4.425   0.345
10280SOL    HW231740   5.466   4.429   0.504
10281SOL     OW31741   6.535   2.069   3.755
10281SOL    HW131742   6.508   1.992   3.698
10281SOL    HW231743   6.561   2.146   3.698
10282SOL     OW31744   4.911   3.982   3.433
10282SOL    HW131745   4.856   4.053   3.390
10282SOL    HW231746   4.991   4.022   3.477
10283SOL     OW31747   0.385   4.048   1.060
10283SOL    HW131748   0.484   4.060   1.049
10283SOL    HW231749   0.354   4.100   1.139
10284SOL     OW31750   0.271   2.635   3.593
10284SOL    HW131751   0.243   2.704   3.527
10284SOL    HW231752   0.315   2.679   3.671
10285SOL     OW31753   4.692   6.105   3.927
10285SOL    HW131754   4.685   6.018   3.976
10285SOL    HW231755   4.612   6.162   3.947
10286SOL     OW31756   3.021   1.440   4.687
10286SOL    HW131757   2.940   1.405   4.642
10286SOL    HW231758   3.033   1.537   4.663
10287SOL     OW31759   2.066   5.873   2.337
10287SOL    HW131760   2.100   5.957   2.379
10287SOL    HW231761   2.079   5.796   2.401
10288SOL     OW31762   3.749   0.290   5.207
10288SOL    HW131763   3.767   0.350   5.285
10288SOL    HW231764   3.835   0.268   5.162
10289SOL     OW31765   2.509   6.529   0.024
10289SOL    HW131766   2.521   6.542   0.123
10289SOL    HW231767   2.557   6.445   7.013
10290SOL     OW31768   3.193   2.924   2.267
10290SOL    HW131769   3.202   2.985   2.188
10290SOL    HW231770   3.149   2.839   2.238
10291SOL     OW31771   3.097   1.358   2.531
10291SOL    HW131772   3.192   1.337   2.553
10291SOL    HW231773   3.054   1.278   2.490
10292SOL     OW31774   6.643   7.010   6.254
10292SOL    HW131775   6.590   0.053   6.314
10292SOL    HW231776   6.724   6.977   6.303
10293SOL     OW31777   0.765   3.901   3.767
10293SOL    HW131778   0.754   3.809   3.805
10293SOL    HW231779   0.801   3.895   3.674
10294SOL     OW31780   3.662   1.769   2.647
10294SOL    HW131781   3.633   1.852   2.693
10294SOL    HW231782   3.610   1.756   2.563
10295SOL     OW31783   0.994   2.126   0.311
10295SOL    HW131784   1.067   2.187   0.282
10295SOL    HW231785   0.907   2.157   0.274
10296SOL     OW31786   5.727   1.129   5.579
10296SOL    HW131787   5.656   1.091   5.518
10296SOL    HW231788   5.683   1.185   5.649
10297SOL     OW31789   2.966   1.750   6.435
10297SOL    HW131790   2.995   1.811   6.508
10297SOL    HW231791   3.032   1.676   6.424
10298SOL     OW31792   0.564   3.180   2.390
10298SOL    HW131793   0.565   3.189   2.290
10298SOL    HW231794   0.519   3.094   2.414
10299SOL     OW31795   4.448   6.525   2.123
10299SOL    HW131796   4.531   6.486   2.083
10299SOL    HW231797   4.413   6.597   2.062
10300SOL     OW31798   0.728   3.593   1.829
10300SOL    HW131799   0.725   3.690   1.802
10300SOL    HW231800   0.738   3.536   1.747
10301SOL     OW31801   4.499   0.848   6.300
10301SOL    HW131802   4.439   0.802   6.235
10301SOL    HW231803   4.572   0.785   6.329
10302SOL     OW31804   2.504   6.145   4.425
10302SOL    HW131805   2.437   6.118   4.356
10302SOL    HW231806   2.466   6.129   4.517
10303SOL     OW31807   1.103   6.086   4.896
10303SOL    HW131808   1.017   6.079   4.947
10303SOL    HW231809   1.175   6.120   4.956
10304SOL     OW31810   6.124   0.016   0.395
10304SOL    HW131811   6.183   6.970   0.345
10304SOL    HW231812   6.179   0.087   0.439
10305SOL     OW31813   2.538   3.894   6.127
10305SOL    HW131814   2.561   3.958   6.053
10305SOL    HW231815   2.609   3.897   6.197
10306SOL     OW31816   5.778   0.366   1.067
10306SOL    HW131817   5.749   0.454   1.029
10306SOL    HW231818   5.745   0.358   1.161
10307SOL     OW31819   3.170   0.538   4.624
10307SOL    HW131820   3.071   0.529   4.619
10307SOL    HW231821   3.212   0.487   4.550
10308SOL     OW31822   2.571   4.598   2.757
10308SOL    HW131823   2.627   4.548   2.690
10308SOL    HW231824   2.627   4.620   2.837
10309SOL     OW31825   6.365   1.178   5.785
10309SOL    HW131826   6.299   1.138   5.849
10309SOL    HW231827   6.449   1.124   5.785
10310SOL     OW31828   2.661   2.644   6.490
10310SOL    HW131829   2.567   2.618   6.511
10310SOL    HW231830   2.663   2.739   6.460
10311SOL     OW31831   5.543   6.340   6.809
10311SOL    HW131832   5.567   6.244   6.825
10311SOL    HW231833   5.474   6.345   6.737
10312SOL     OW31834   4.710   0.253   2.206
10312SOL    HW131835   4.786   0.233   2.267
10312SOL    HW231836   4.624   0.243   2.255
10313SOL     OW31837   4.702   6.526   2.842
10313SOL    HW131838   4.770   6.534   2.916
10313SOL    HW231839   4.700   6.431   2.810
10314SOL     OW31840   0.652   6.931   0.094
10314SOL    HW131841   0.607   6.958   0.179
10314SOL    HW231842   0.726   6.867   0.114
10315SOL     OW31843   5.171   6.343   3.431
10315SOL    HW131844   5.168   6.269   3.498
10315SOL    HW231845   5.088   6.398   3.437
10316SOL     OW31846   6.879   2.435   6.287
10316SOL    HW131847   6.967   2.473   6.316
10316SOL    HW231848   6.836   2.495   6.220
10317SOL     OW31849   3.096   5.934   6.049
10317SOL    HW131850   3.022   5.947   6.116
10317SOL    HW231851   3.126   6.023   6.015
10318SOL     OW31852   5.574   0.012   7.016
10318SOL    HW131853   5.508   6.962   6.984
10318SOL    HW231854   5.666   7.002   6.988
10319SOL     OW31855   0.499   4.779   4.259
10319SOL    HW131856   0.486   4.767   4.358
10319SOL    HW231857   0.588   4.744   4.232
10320SOL     OW31858   6.892   0.417   3.513
10320SOL    HW131859   6.979   0.409   3.465
10320SOL    HW231860   6.893   0.359   3.595
10321SOL     OW31861   5.711   2.233   1.628
10321SOL    HW131862   5.700   2.287   1.712
10321SOL    HW231863   5.630   2.244   1.570
10322SOL     OW31864   4.616   4.663   4.659
10322SOL    HW131865   4.549   4.710   4.717
10322SOL    HW231866   4.602   4.564   4.665
10323SOL     OW31867   0.220   4.481   5.199
10323SOL    HW131868   0.175   4.564   5.168
10323SOL    HW231869   0.150   4.412   5.221
10324SOL     OW31870   3.263   3.403   2.454
10324SOL    HW131871   3.292   3.330   2.515
10324SOL    HW231872   3.327   3.480   2.460
10325SOL     OW31873   0.134   5.824   2.099
10325SOL    HW131874   0.227   5.815   2.134
10325SOL    HW231875   0.070   5.827   2.176
10326SOL     OW31876   5.307   3.902   0.096
10326SOL    HW131877   5.223   3.848   0.087
10326SOL    HW231878   5.312   3.939   0.189
10327SOL     OW31879   2.917   4.040   1.316
10327SOL    HW131880   2.856   4.000   1.248
10327SOL    HW231881   2.869   4.047   1.403
10328SOL     OW31882   6.708   2.966   1.543
10328SOL    HW131883   6.723   2.905   1.621
10328SOL    HW231884   6.728   3.060   1.570
10329SOL     OW31885   3.213   1.646   2.920
10329SOL    HW131886   3.293   1.591   2.944
10329SOL    HW231887   3.170   1.681   3.003
10330SOL     OW31888   4.971   0.353   0.857
10330SOL    HW131889   5.040   0.312   0.798
10330SOL    HW231890   4.901   0.396   0.801
10331SOL     OW31891   6.306   5.915   0.047
10331SOL    HW131892   6.235   5.886   7.000
10331SOL    HW231893   6.364   5.837   0.071
10332SOL     OW31894   1.292   0.977   0.694
10332SOL    HW131895   1.269   1.072   0.712
10332SOL    HW231896   1.344   0.970   0.608
10333SOL     OW31897   0.893   5.875   4.320
10333SOL    HW131898   0.962   5.905   4.386
10333SOL    HW231899   0.936   5.820   4.249
10334SOL     OW31900   2.807   6.932   3.799
10334SOL    HW131901   2.796   6.945   3.897
10334SOL    HW231902   2.904   6.920   3.777
10335SOL     OW31903   0.477   4.354   5.998
10335SOL    HW131904   0.557   4.413   5.990
10335SOL    HW231905   0.476   4.288   5.922
10336SOL     OW31906   5.745   6.978   2.987
10336SOL    HW131907   5.720   6.908   2.920
10336SOL    HW231908   5.670   0.026   2.998
10337SOL     OW31909   6.265   5.565   0.346
10337SOL    HW131910   6.355   5.521   0.342
10337SOL    HW231911   6.276   5.663   0.363
10338SOL     OW31912   1.820   6.215   1.907
10338SOL    HW131913   1.806   6.116   1.903
10338SOL    HW231914   1.846   6.249   1.817
10339SOL     OW31915   6.823   2.812   5.939
10339SOL    HW131916   6.903   2.756   5.916
10339SOL    HW231917   6.803   2.801   6.036
10340SOL     OW31918   1.139   3.517   6.528
10340SOL    HW131919   1.089   3.561   6.454
10340SOL    HW231920   1.220   3.472   6.492
10341SOL     OW31921   2.203   2.961   2.518
10341SOL    HW131922   2.245   3.031   2.460
10341SOL    HW231923   2.228   2.977   2.613
10342SOL     OW31924   1.924   0.662   3.918
10342SOL    HW131925   1.984   0.728   3.873
10342SOL    HW231926   1.835   0.703   3.934
10343SOL     OW31927   2.322   5.710   0.843
10343SOL    HW131928   2.242   5.733   0.899
10343SOL    HW231929   2.321   5.612   0.823
10344SOL     OW31930   3.451   3.746   6.695
10344SOL    HW131931   3.459   3.721   6.792
10344SOL    HW231932   3.536   3.724   6.648
10345SOL     OW31933   1.457   2.938   5.064
10345SOL    HW131934   1.471   3.034   5.089
10345SOL    HW231935   1.483   2.924   4.969
10346SOL     OW31936   0.304   5.860   1.667
10346SOL    HW131937   0.398   5.838   1.694
10346SOL    HW231938   0.240   5.806   1.721
10347SOL     OW31939   4.226   1.109   4.124
10347SOL    HW131940   4.216   1.025   4.177
10347SOL    HW231941   4.307   1.102   4.065
10348SOL     OW31942   5.702   3.286   0.135
10348SOL    HW131943   5.784   3.271   0.189
10348SOL    HW231944   5.698   3.220   0.060
10349SOL     OW31945   0.845   0.194   6.286
10349SOL    HW131946   0.770   0.174   6.223
10349SOL    HW231947   0.852   0.121   6.353
10350SOL     OW31948   3.008   6.419   5.564
10350SOL    HW131949   2.967   6.390   5.477
10350SOL    HW231950   2.960   6.501   5.597
10351SOL     OW31951   4.349   5.183   5.875
10351SOL    HW131952   4.391   5.098   5.845
10351SOL    HW231953   4.278   5.163   5.943
10352SOL     OW31954   3.438   1.673   6.199
10352SOL    HW131955   3.380   1.708   6.271
10352SOL    HW231956   3.512   1.618   6.238
10353SOL     OW31957   6.338   2.704   4.420
10353SOL    HW131958   6.401   2.664   4.487
10353SOL    HW231959   6.250   2.720   4.463
10354SOL     OW31960   5.322   1.027   1.732
10354SOL    HW131961   5.380   1.016   1.813
10354SOL    HW231962   5.230   0.994   1.752
10355SOL     OW31963   2.526   6.126   2.227
10355SOL    HW131964   2.549   6.219   2.256
10355SOL    HW231965   2.543   6.116   2.129
10356SOL     OW31966   6.933   4.370   4.958
10356SOL    HW131967   6.914   4.274   4.938
10356SOL    HW231968   0.008   4.393   4.923
10357SOL     OW31969   2.213   2.102   6.428
10357SOL    HW131970   2.128   2.091   6.479
10357SOL    HW231971   2.282   2.040   6.464
10358SOL     OW31972   0.517   2.554   2.545
10358SOL    HW131973   0.473   2.472   2.509
10358SOL    HW231974   0.447   2.613   2.587
10359SOL     OW31975   0.442   1.569   1.681
10359SOL    HW131976   0.359   1.514   1.669
10359SOL    HW231977   0.417   1.662   1.707
10360SOL     OW31978   5.655   5.944   3.284
10360SOL    HW131979   5.733   6.006   3.275
10360SOL    HW231980   5.592   5.980   3.353
10361SOL     OW31981   2.812   5.890   2.353
10361SOL    HW131982   2.783   5.801   2.388
10361SOL    HW231983   2.786   5.962   2.417
10362SOL     OW31984   2.180   4.547   4.811
10362SOL    HW131985   2.276   4.531   4.790
10362SOL    HW231986   2.146   4.476   4.872
10363SOL     OW31987   4.711   0.422   3.528
10363SOL    HW131988   4.769   0.503   3.525
10363SOL    HW231989   4.698   0.394   3.624
10364SOL     OW31990   2.335   4.391   1.246
10364SOL    HW131991   2.286   4.449   1.181
10364SOL    HW231992   2.414   4.350   1.201
10365SOL     OW31993   5.055   5.421   0.025
10365SOL    HW131994   5.048   5.498   0.088
10365SOL    HW231995   5.083   5.454   6.952
10366SOL     OW31996   3.001   0.252   3.342
10366SOL    HW131997   2.994   0.269   3.243
10366SOL    HW231998   3.067   0.315   3.382
10367SOL     OW31999   5.906   2.338   3.281
10367SOL    HW132000   5.981   2.316   3.343
10367SOL    HW232001   5.936   2.406   3.214
10368SOL     OW32002   1.958   1.225   1.817
10368SOL    HW132003   1.983   1.319   1.794
10368SOL    HW232004   2.021   1.190   1.887
10369SOL     OW32005   4.115   2.596   0.367
10369SOL    HW132006   4.051   2.648   0.425
10369SOL    HW232007   4.083   2.502   0.357
10370SOL     OW32008   4.121   0.805   5.151
10370SOL    HW132009   4.180   0.725   5.162
10370SOL    HW232010   4.158   0.864   5.080
10371SOL     OW32011   4.904   5.839   5.335
10371SOL    HW132012   4.950   5.751   5.346
10371SOL    HW232013   4.805   5.825   5.343
10372SOL     OW32014   2.337   1.044   4.306
10372SOL    HW132015   2.296   1.097   4.232
10372SOL    HW232016   2.390   0.968   4.268
10373SOL     OW32017   1.094   6.490   4.221
10373SOL    HW132018   1.052   6.550   4.152
10373SOL    HW232019   1.187   6.467   4.194
10374SOL     OW32020   3.095   2.151   3.017
10374SOL    HW132021   3.160   2.103   2.959
10374SOL    HW232022   3.007   2.158   2.969
10375SOL     OW32023   5.851   1.961   1.118
10375SOL    HW132024   5.833   2.049   1.074
10375SOL    HW232025   5.853   1.974   1.218
10376SOL     OW32026   0.658   0.719   3.658
10376SOL    HW132027   0.687   0.682   3.747
10376SOL    HW232028   0.703   0.668   3.585
10377SOL     OW32029   0.306   0.280   3.812
10377SOL    HW132030   0.276   0.341   3.739
10377SOL    HW232031   0.349   0.199   3.773
10378SOL     OW32032   6.870   0.461   6.404
10378SOL    HW132033   6.915   0.547   6.427
10378SOL    HW232034   6.849   0.411   6.489
10379SOL     OW32035   5.189   1.132   4.358
10379SOL    HW132036   5.281   1.168   4.377
10379SOL    HW232037   5.190   1.032   4.361
10380SOL     OW32038   5.068   0.243   2.029
10380SOL    HW132039   5.044   0.218   2.123
10380SOL    HW232040   5.061   0.342   2.018
10381SOL     OW32041   4.541   4.583   5.848
10381SOL    HW132042   4.579   4.612   5.936
10381SOL    HW232043   4.587   4.633   5.774
10382SOL     OW32044   1.909   5.108   0.167
10382SOL    HW132045   1.923   5.166   0.087
10382SOL    HW232046   1.929   5.160   0.250
10383SOL     OW32047   0.860   2.706   1.197
10383SOL    HW132048   0.859   2.628   1.260
10383SOL    HW232049   0.889   2.788   1.246
10384SOL     OW32050   6.346   0.190   0.432
10384SOL    HW132051   6.394   0.270   0.467
10384SOL    HW232052   6.405   0.110   0.438
10385SOL     OW32053   6.331   1.243   6.660
10385SOL    HW132054   6.293   1.334   6.675
10385SOL    HW232055   6.290   1.179   6.724
10386SOL     OW32056   6.012   2.902   5.646
10386SOL    HW132057   5.976   2.957   5.571
10386SOL    HW232058   5.971   2.810   5.643
10387SOL     OW32059   1.794   2.435   3.248
10387SOL    HW132060   1.796   2.414   3.151
10387SOL    HW232061   1.809   2.533   3.262
10388SOL     OW32062   1.343   5.122   2.823
10388SOL    HW132063   1.302   5.088   2.908
10388SOL    HW232064   1.416   5.186   2.845
10389SOL     OW32065   1.094   4.851   3.089
10389SOL    HW132066   1.024   4.822   3.023
10389SOL    HW232067   1.062   4.832   3.181
10390SOL     OW32068   1.020   2.845   3.684
10390SOL    HW132069   1.045   2.885   3.772
10390SOL    HW232070   0.923   2.821   3.684
10391SOL     OW32071   2.575   6.438   6.385
10391SOL    HW132072   2.551   6.478   6.473
10391SOL    HW232073   2.510   6.366   6.362
10392SOL     OW32074   6.482   5.455   0.477
10392SOL    HW132075   6.565   5.482   0.427
10392SOL    HW232076   6.501   5.456   0.575
10393SOL     OW32077   1.425   1.186   4.240
10393SOL    HW132078   1.354   1.159   4.175
10393SOL    HW232079   1.411   1.138   4.326
10394SOL     OW32080   2.244   6.762   0.108
10394SOL    HW132081   2.292   6.849   0.114
10394SOL    HW232082   2.311   6.687   0.111
10395SOL     OW32083   0.264   1.073   4.758
10395SOL    HW132084   0.219   0.993   4.717
10395SOL    HW232085   0.336   1.105   4.697
10396SOL     OW32086   1.128   6.891   4.871
10396SOL    HW132087   1.109   6.974   4.820
10396SOL    HW232088   1.047   6.832   4.870
10397SOL     OW32089   3.870   1.647   2.823
10397SOL    HW132090   3.890   1.553   2.796
10397SOL    HW232091   3.858   1.703   2.741
10398SOL     OW32092   6.276   2.805   2.523
10398SOL    HW132093   6.375   2.791   2.512
10398SOL    HW232094   6.240   2.854   2.444
10399SOL     OW32095   5.645   2.209   5.200
10399SOL    HW132096   5.577   2.194   5.272
10399SOL    HW232097   5.701   2.127   5.189
10400SOL     OW32098   2.154   5.546   1.760
10400SOL    HW132099   2.143   5.548   1.860
10400SOL    HW232100   2.236   5.493   1.737
10401SOL     OW32101   0.452   6.143   1.869
10401SOL    HW132102   0.533   6.199   1.889
10401SOL    HW232103   0.404   6.180   1.790
10402SOL     OW32104   0.414   3.202   4.099
10402SOL    HW132105   0.421   3.228   4.003
10402SOL    HW232106   0.324   3.228   4.134
10403SOL     OW32107   5.560   0.946   2.261
10403SOL    HW132108   5.550   0.957   2.360
10403SOL    HW232109   5.544   1.034   2.216
10404SOL     OW32110   0.435   6.270   3.694
10404SOL    HW132111   0.411   6.287   3.790
10404SOL    HW232112   0.512   6.328   3.669
10405SOL     OW32113   1.960   6.418   5.820
10405SOL    HW132114   1.865   6.401   5.847
10405SOL    HW232115   1.963   6.435   5.721
10406SOL     OW32116   2.202   4.850   6.124
10406SOL    HW132117   2.149   4.839   6.040
10406SOL    HW232118   2.280   4.909   6.107
10407SOL     OW32119   0.876   1.526   0.394
10407SOL    HW132120   0.960   1.497   0.348
10407SOL    HW232121   0.797   1.500   0.338
10408SOL     OW32122   4.422   5.938   2.619
10408SOL    HW132123   4.386   5.938   2.712
10408SOL    HW232124   4.408   5.849   2.577
10409SOL     OW32125   6.086   4.569   2.543
10409SOL    HW132126   6.017   4.559   2.472
10409SOL    HW232127   6.050   4.534   2.629
10410SOL     OW32128   5.141   0.213   0.691
10410SOL    HW132129   5.121   0.231   0.595
10410SOL    HW232130   5.195   0.129   0.699
10411SOL     OW32131   2.528   4.881   3.221
10411SOL    HW132132   2.483   4.845   3.140
10411SOL    HW232133   2.478   4.960   3.255
10412SOL     OW32134   0.473   2.155   0.657
10412SOL    HW132135   0.527   2.131   0.576
10412SOL    HW232136   0.484   2.084   0.727
10413SOL     OW32137   0.561   1.777   6.804
10413SOL    HW132138   0.596   1.829   6.726
10413SOL    HW232139   0.634   1.762   6.870
10414SOL     OW32140   5.862   6.628   5.513
10414SOL    HW132141   5.812   6.548   5.545
10414SOL    HW232142   5.959   6.618   5.535
10415SOL     OW32143   0.433   5.652   3.393
10415SOL    HW132144   0.468   5.715   3.323
10415SOL    HW232145   0.458   5.686   3.484
10416SOL     OW32146   5.367   1.482   6.078
10416SOL    HW132147   5.310   1.521   6.005
10416SOL    HW232148   5.459   1.464   6.042
10417SOL     OW32149   3.577   4.927   4.029
10417SOL    HW132150   3.511   4.902   4.100
10417SOL    HW232151   3.527   4.950   3.945
10418SOL     OW32152   6.251   3.682   6.259
10418SOL    HW132153   6.156   3.708   6.277
10418SOL    HW232154   6.267   3.588   6.291
10419SOL     OW32155   2.670   1.479   4.702
10419SOL    HW132156   2.712   1.389   4.716
10419SOL    HW232157   2.603   1.473   4.628
10420SOL     OW32158   6.108   3.656   2.844
10420SOL    HW132159   6.137   3.568   2.881
10420SOL    HW232160   6.157   3.730   2.890
10421SOL     OW32161   0.776   4.582   4.428
10421SOL    HW132162   0.752   4.677   4.450
10421SOL    HW232163   0.796   4.532   4.512
10422SOL     OW32164   6.744   3.723   4.902
10422SOL    HW132165   6.692   3.640   4.882
10422SOL    HW232166   6.759   3.729   5.001
10423SOL     OW32167   3.171   5.129   4.340
10423SOL    HW132168   3.086   5.160   4.298
10423SOL    HW232169   3.161   5.130   4.440
10424SOL     OW32170   3.709   0.824   0.333
10424SOL    HW132171   3.642   0.834   0.406
10424SOL    HW232172   3.801   0.837   0.371
10425SOL     OW32173   1.412   2.161   0.800
10425SOL    HW132174   1.362   2.216   0.733
10425SOL    HW232175   1.348   2.119   0.864
10426SOL     OW32176   6.524   2.253   6.417
10426SOL    HW132177   6.466   2.330   6.446
10426SOL    HW232178   6.556   2.269   6.324
10427SOL     OW32179   5.451   6.586   4.503
10427SOL    HW132180   5.437   6.678   4.538
10427SOL    HW232181   5.385   6.524   4.546
10428SOL     OW32182   2.610   0.304   3.797
10428SOL    HW132183   2.703   0.309   3.832
10428SOL    HW232184   2.593   0.381   3.736
10429SOL     OW32185   1.388   2.592   1.801
10429SOL    HW132186   1.463   2.602   1.736
10429SOL    HW232187   1.411   2.640   1.886
10430SOL     OW32188   3.176   0.198   3.628
10430SOL    HW132189   3.196   0.284   3.580
10430SOL    HW232190   3.199   0.121   3.568
10431SOL     OW32191   3.796   0.328   2.813
10431SOL    HW132192   3.737   0.265   2.864
10431SOL    HW232193   3.816   0.291   2.723
10432SOL     OW32194   1.182   5.521   6.368
10432SOL    HW132195   1.124   5.447   6.333
10432SOL    HW232196   1.182   5.597   6.303
10433SOL     OW32197   2.348   0.527   2.928
10433SOL    HW132198   2.309   0.479   3.007
10433SOL    HW232199   2.448   0.523   2.933
10434SOL     OW32200   5.301   0.361   5.369
10434SOL    HW132201   5.313   0.351   5.468
10434SOL    HW232202   5.277   0.273   5.329
10435SOL     OW32203   2.179   1.796   0.042
10435SOL    HW132204   2.182   1.697   0.027
10435SOL    HW232205   2.160   1.843   6.972
10436SOL     OW32206   6.210   3.560   5.449
10436SOL    HW132207   6.203   3.460   5.451
10436SOL    HW232208   6.125   3.601   5.482
10437SOL     OW32209   5.691   6.345   5.178
10437SOL    HW132210   5.773   6.387   5.216
10437SOL    HW232211   5.717   6.272   5.115
10438SOL     OW32212   6.537   6.208   6.873
10438SOL    HW132213   6.457   6.251   6.916
10438SOL    HW232214   6.620   6.258   6.900
10439SOL     OW32215   6.529   6.292   5.105
10439SOL    HW132216   6.543   6.256   5.197
10439SOL    HW232217   6.513   6.391   5.110
10440SOL     OW32218   6.712   2.484   0.635
10440SOL    HW132219   6.646   2.547   0.675
10440SOL    HW232220   6.677   2.449   0.548
10441SOL     OW32221   4.592   1.961   0.261
10441SOL    HW132222   4.651   2.010   0.326
10441SOL    HW232223   4.569   1.871   0.299
10442SOL     OW32224   1.928   2.067   5.504
10442SOL    HW132225   1.841   2.016   5.510
10442SOL    HW232226   1.937   2.127   5.583
10443SOL     OW32227   0.358   1.734   2.359
10443SOL    HW132228   0.406   1.819   2.381
10443SOL    HW232229   0.282   1.754   2.297
10444SOL     OW32230   3.986   5.378   4.306
10444SOL    HW132231   3.947   5.329   4.228
10444SOL    HW232232   3.926   5.453   4.333
10445SOL     OW32233   0.806   3.248   2.975
10445SOL    HW132234   0.719   3.211   2.944
10445SOL    HW232235   0.859   3.176   3.019
10446SOL     OW32236   2.195   4.469   5.672
10446SOL    HW132237   2.154   4.524   5.599
10446SOL    HW232238   2.275   4.421   5.637
10447SOL     OW32239   0.398   2.165   2.760
10447SOL    HW132240   0.488   2.151   2.719
10447SOL    HW232241   0.402   2.143   2.858
10448SOL     OW32242   2.426   6.613   2.318
10448SOL    HW132243   2.393   6.701   2.282
10448SOL    HW232244   2.374   6.539   2.276
10449SOL     OW32245   3.635   5.001   4.989
10449SOL    HW132246   3.677   4.965   4.906
10449SOL    HW232247   3.613   5.098   4.975
10450SOL     OW32248   6.931   0.734   6.023
10450SOL    HW132249   0.000   0.742   6.073
10450SOL    HW232250   6.857   0.709   6.086
10451SOL     OW32251   3.325   1.263   3.325
10451SOL    HW132252   3.227   1.277   3.315
10451SOL    HW232253   3.343   1.215   3.411
10452SOL     OW32254   6.226   3.765   4.511
10452SOL    HW132255   6.175   3.736   4.592
10452SOL    HW232256   6.265   3.684   4.466
10453SOL     OW32257   3.665   6.252   3.517
10453SOL    HW132258   3.584   6.301   3.549
10453SOL    HW232259   3.642   6.155   3.504
10454SOL     OW32260   6.672   1.266   5.926
10454SOL    HW132261   6.595   1.303   5.978
10454SOL    HW232262   6.680   1.317   5.840
10455SOL     OW32263   6.713   5.588   3.696
10455SOL    HW132264   6.750   5.680   3.686
10455SOL    HW232265   6.645   5.586   3.769
10456SOL     OW32266   1.157   5.305   6.571
10456SOL    HW132267   1.088   5.321   6.500
10456SOL    HW232268   1.248   5.320   6.532
10457SOL     OW32269   3.839   2.534   6.644
10457SOL    HW132270   3.847   2.612   6.581
10457SOL    HW232271   3.768   2.552   6.712
10458SOL     OW32272   0.670   5.854   6.926
10458SOL    HW132273   0.697   5.950   6.938
10458SOL    HW232274   0.707   5.820   6.839
10459SOL     OW32275   0.189   5.055   0.667
10459SOL    HW132276   0.155   4.961   0.676
10459SOL    HW232277   0.279   5.053   0.623
10460SOL     OW32278   0.107   1.216   1.185
10460SOL    HW132279   0.161   1.196   1.103
10460SOL    HW232280   0.010   1.203   1.164
10461SOL     OW32281   6.678   5.245   6.490
10461SOL    HW132282   6.772   5.240   6.457
10461SOL    HW232283   6.615   5.219   6.416
10462SOL     OW32284   4.655   2.127   0.491
10462SOL    HW132285   4.591   2.200   0.516
10462SOL    HW232286   4.727   2.165   0.434
10463SOL     OW32287   4.852   2.219   6.573
10463SOL    HW132288   4.814   2.126   6.576
10463SOL    HW232289   4.778   2.284   6.590
10464SOL     OW32290   6.480   4.841   2.431
10464SOL    HW132291   6.492   4.940   2.427
10464SOL    HW232292   6.518   4.806   2.517
10465SOL     OW32293   5.535   4.377   1.183
10465SOL    HW132294   5.619   4.324   1.194
10465SOL    HW232295   5.547   4.467   1.224
10466SOL     OW32296   5.957   4.362   6.399
10466SOL    HW132297   5.983   4.344   6.304
10466SOL    HW232298   5.872   4.312   6.419
10467SOL     OW32299   0.877   3.358   0.576
10467SOL    HW132300   0.814   3.420   0.622
10467SOL    HW232301   0.846   3.342   0.483
10468SOL     OW32302   2.070   4.860   3.744
10468SOL    HW132303   2.021   4.947   3.740
10468SOL    HW232304   2.124   4.847   3.661
10469SOL     OW32305   0.284   1.301   4.081
10469SOL    HW132306   0.308   1.356   4.002
10469SOL    HW232307   0.194   1.259   4.066
10470SOL     OW32308   1.800   2.676   2.849
10470SOL    HW132309   1.892   2.712   2.862
10470SOL    HW232310   1.742   2.746   2.809
10471SOL     OW32311   3.026   6.533   6.729
10471SOL    HW132312   3.082   6.463   6.685
10471SOL    HW232313   3.071   6.564   6.813
10472SOL     OW32314   3.968   4.923   6.736
10472SOL    HW132315   3.902   4.973   6.680
10472SOL    HW232316   3.939   4.827   6.743
10473SOL     OW32317   5.739   4.860   0.554
10473SOL    HW132318   5.697   4.801   0.622
10473SOL    HW232319   5.728   4.956   0.581
10474SOL     OW32320   5.664   1.172   4.412
10474SOL    HW132321   5.659   1.079   4.450
10474SOL    HW232322   5.673   1.167   4.313
10475SOL     OW32323   1.810   5.941   1.298
10475SOL    HW132324   1.871   5.867   1.326
10475SOL    HW232325   1.845   5.984   1.215
10476SOL     OW32326   4.735   5.574   0.111
10476SOL    HW132327   4.765   5.556   0.017
10476SOL    HW232328   4.735   5.488   0.163
10477SOL     OW32329   6.523   5.200   4.210
10477SOL    HW132330   6.601   5.229   4.264
10477SOL    HW232331   6.549   5.193   4.114
10478SOL     OW32332   6.170   1.289   6.991
10478SOL    HW132333   6.138   1.361   6.930
10478SOL    HW232334   6.244   1.324   0.032
10479SOL     OW32335   1.048   2.510   2.077
10479SOL    HW132336   0.983   2.468   2.141
10479SOL    HW232337   1.132   2.455   2.074
10480SOL     OW32338   2.201   0.231   2.510
10480SOL    HW132339   2.299   0.251   2.513
10480SOL    HW232340   2.151   0.307   2.550
10481SOL     OW32341   6.626   1.122   2.038
10481SOL    HW132342   6.684   1.088   2.112
10481SOL    HW232343   6.533   1.090   2.051
10482SOL     OW32344   4.931   3.661   4.574
10482SOL    HW132345   4.924   3.734   4.643
10482SOL    HW232346   4.942   3.573   4.620
10483SOL     OW32347   6.093   6.797   0.220
10483SOL    HW132348   6.014   6.743   0.193
10483SOL    HW232349   6.155   6.807   0.143
10484SOL     OW32350   6.470   1.225   2.516
10484SOL    HW132351   6.519   1.291   2.459
10484SOL    HW232352   6.524   1.142   2.525
10485SOL     OW32353   5.826   3.915   5.484
10485SOL    HW132354   5.824   4.011   5.510
10485SOL    HW232355   5.738   3.890   5.441
10486SOL     OW32356   5.133   3.005   1.872
10486SOL    HW132357   5.119   3.058   1.956
10486SOL    HW232358   5.051   2.953   1.851
10487SOL     OW32359   5.783   6.622   1.424
10487SOL    HW132360   5.832   6.562   1.487
10487SOL    HW232361   5.836   6.633   1.340
10488SOL     OW32362   2.539   2.344   6.252
10488SOL    HW132363   2.605   2.419   6.251
10488SOL    HW232364   2.447   2.380   6.239
10489SOL     OW32365   0.770   5.867   6.385
10489SOL    HW132366   0.685   5.834   6.425
10489SOL    HW232367   0.750   5.917   6.301
10490SOL     OW32368   6.809   0.666   3.916
10490SOL    HW132369   6.794   0.638   4.011
10490SOL    HW232370   6.838   0.586   3.863
10491SOL     OW32371   1.617   4.120   5.626
10491SOL    HW132372   1.622   4.218   5.646
10491SOL    HW232373   1.649   4.068   5.706
10492SOL     OW32374   4.480   3.401   5.708
10492SOL    HW132375   4.435   3.413   5.620
10492SOL    HW232376   4.577   3.385   5.695
10493SOL     OW32377   2.563   0.894   1.840
10493SOL    HW132378   2.643   0.848   1.803
10493SOL    HW232379   2.554   0.985   1.799
10494SOL     OW32380   5.936   2.238   4.415
10494SOL    HW132381   5.949   2.306   4.343
10494SOL    HW232382   6.025   2.202   4.443
10495SOL     OW32383   1.198   6.938   6.855
10495SOL    HW132384   1.248   7.001   6.796
10495SOL    HW232385   1.147   6.990   6.924
10496SOL     OW32386   6.956   0.030   5.504
10496SOL    HW132387   6.882   0.097   5.504
10496SOL    HW232388   7.008   0.038   5.589
10497SOL     OW32389   1.485   1.143   1.263
10497SOL    HW132390   1.572   1.099   1.239
10497SOL    HW232391   1.502   1.238   1.288
10498SOL     OW32392   2.748   5.656   6.416
10498SOL    HW132393   2.799   5.741   6.405
10498SOL    HW232394   2.715   5.625   6.327
10499SOL     OW32395   3.276   5.833   3.144
10499SOL    HW132396   3.185   5.854   3.178
10499SOL    HW232397   3.285   5.734   3.132
10500SOL     OW32398   1.171   2.082   6.200
10500SOL    HW132399   1.106   2.009   6.222
10500SOL    HW232400   1.178   2.092   6.101
10501SOL     OW32401   1.463   3.472   2.795
10501SOL    HW132402   1.447   3.426   2.708
10501SOL    HW232403   1.560   3.470   2.817
10502SOL     OW32404   3.020   5.791   6.363
10502SOL    HW132405   3.099   5.842   6.398
10502SOL    HW232406   3.039   5.693   6.368
10503SOL     OW32407   2.764   3.320   6.270
10503SOL    HW132408   2.692   3.389   6.272
10503SOL    HW232409   2.752   3.256   6.346
10504SOL     OW32410   3.067   2.984   0.652
10504SOL    HW132411   3.040   2.977   0.747
10504SOL    HW232412   2.988   3.011   0.596
10505SOL     OW32413   6.868   6.338   1.921
10505SOL    HW132414   6.802   6.278   1.875
10505SOL    HW232415   6.954   6.339   1.870
10506SOL     OW32416   0.460   4.181   5.453
10506SOL    HW132417   0.438   4.253   5.387
10506SOL    HW232418   0.398   4.104   5.441
10507SOL     OW32419   1.308   0.352   5.771
10507SOL    HW132420   1.330   0.359   5.868
10507SOL    HW232421   1.377   0.296   5.724
10508SOL     OW32422   5.455   4.005   3.182
10508SOL    HW132423   5.459   3.926   3.244
10508SOL    HW232424   5.367   4.051   3.192
10509SOL     OW32425   1.510   0.220   6.155
10509SOL    HW132426   1.563   0.303   6.172
10509SOL    HW232427   1.563   0.159   6.096
10510SOL     OW32428   6.895   6.110   0.149
10510SOL    HW132429   6.977   6.106   0.092
10510SOL    HW232430   6.814   6.120   0.091
10511SOL     OW32431   4.875   2.937   0.718
10511SOL    HW132432   4.939   3.013   0.731
10511SOL    HW232433   4.784   2.974   0.699
10512SOL     OW32434   3.919   6.531   6.289
10512SOL    HW132435   3.931   6.629   6.302
10512SOL    HW232436   3.876   6.491   6.370
10513SOL     OW32437   0.384   2.116   0.308
10513SOL    HW132438   0.296   2.119   0.261
10513SOL    HW232439   0.421   2.208   0.317
10514SOL     OW32440   0.287   4.945   1.042
10514SOL    HW132441   0.293   4.874   0.972
10514SOL    HW232442   0.201   4.936   1.092
10515SOL     OW32443   6.925   2.267   3.790
10515SOL    HW132444   6.922   2.364   3.814
10515SOL    HW232445   6.863   2.216   3.851
10516SOL     OW32446   4.098   0.466   5.913
10516SOL    HW132447   3.999   0.474   5.920
10516SOL    HW232448   4.139   0.557   5.905
10517SOL     OW32449   0.214   1.574   2.975
10517SOL    HW132450   0.169   1.511   2.911
10517SOL    HW232451   0.185   1.552   3.068
10518SOL     OW32452   0.874   6.833   1.611
10518SOL    HW132453   0.839   6.748   1.571
10518SOL    HW232454   0.866   6.907   1.543
10519SOL     OW32455   2.902   3.603   5.319
10519SOL    HW132456   2.875   3.521   5.268
10519SOL    HW232457   2.840   3.678   5.297
10520SOL     OW32458   4.501   2.318   6.882
10520SOL    HW132459   4.467   2.295   6.974
10520SOL    HW232460   4.427   2.356   6.828
10521SOL     OW32461   6.507   5.986   1.296
10521SOL    HW132462   6.487   5.961   1.201
10521SOL    HW232463   6.505   5.904   1.354
10522SOL     OW32464   6.410   0.961   2.219
10522SOL    HW132465   6.335   0.926   2.275
10522SOL    HW232466   6.468   1.020   2.275
10523SOL     OW32467   6.865   5.919   6.602
10523SOL    HW132468   6.770   5.944   6.623
10523SOL    HW232469   6.895   5.967   6.520
10524SOL     OW32470   3.081   0.661   3.597
10524SOL    HW132471   3.113   0.670   3.502
10524SOL    HW232472   3.071   0.751   3.638
10525SOL     OW32473   2.423   6.096   4.682
10525SOL    HW132474   2.350   6.039   4.645
10525SOL    HW232475   2.492   6.037   4.725
10526SOL     OW32476   6.688   0.078   2.429
10526SOL    HW132477   6.772   0.111   2.473
10526SOL    HW232478   6.655   0.147   2.365
10527SOL     OW32479   1.168   2.332   4.635
10527SOL    HW132480   1.075   2.359   4.610
10527SOL    HW232481   1.213   2.292   4.556
10528SOL     OW32482   0.211   4.963   4.680
10528SOL    HW132483   0.284   4.916   4.730
10528SOL    HW232484   0.127   4.960   4.734
10529SOL     OW32485   6.867   6.901   3.849
10529SOL    HW132486   6.935   6.858   3.789
10529SOL    HW232487   6.915   6.952   3.921
10530SOL     OW32488   2.290   1.552   6.149
10530SOL    HW132489   2.281   1.571   6.247
10530SOL    HW232490   2.206   1.578   6.102
10531SOL     OW32491   1.727   2.858   5.294
10531SOL    HW132492   1.701   2.795   5.367
10531SOL    HW232493   1.692   2.949   5.314
10532SOL     OW32494   3.936   2.396   5.682
10532SOL    HW132495   3.970   2.479   5.637
10532SOL    HW232496   3.892   2.420   5.768
10533SOL     OW32497   2.540   1.208   5.816
10533SOL    HW132498   2.583   1.298   5.816
10533SOL    HW232499   2.575   1.154   5.740
10534SOL     OW32500   6.427   5.531   1.172
10534SOL    HW132501   6.523   5.553   1.187
10534SOL    HW232502   6.419   5.453   1.110
10535SOL     OW32503   0.525   1.072   2.347
10535SOL    HW132504   0.486   1.102   2.260
10535SOL    HW232505   0.489   1.129   2.421
10536SOL     OW32506   4.314   0.262   2.758
10536SOL    HW132507   4.336   0.165   2.759
10536SOL    HW232508   4.285   0.291   2.849
10537SOL     OW32509   1.268   4.927   1.812
10537SOL    HW132510   1.363   4.895   1.818
10537SOL    HW232511   1.206   4.849   1.823
10538SOL     OW32512   4.339   3.444   0.625
10538SOL    HW132513   4.323   3.378   0.552
10538SOL    HW232514   4.374   3.529   0.585
10539SOL     OW32515   0.542   3.811   6.108
10539SOL    HW132516   0.501   3.782   6.195
10539SOL    HW232517   0.478   3.871   6.060
10540SOL     OW32518   2.214   0.212   6.403
10540SOL    HW132519   2.188   0.286   6.341
10540SOL    HW232520   2.179   0.231   6.494
10541SOL     OW32521   3.651   3.088   0.362
10541SOL    HW132522   3.653   3.112   0.265
10541SOL    HW232523   3.622   3.167   0.416
10542SOL     OW32524   0.271   2.522   0.137
10542SOL    HW132525   0.362   2.529   0.096
10542SOL    HW232526   0.206   2.575   0.082
10543SOL     OW32527   1.215   0.691   5.511
10543SOL    HW132528   1.139   0.695   5.445
10543SOL    HW232529   1.178   0.693   5.604
10544SOL     OW32530   1.356   2.386   2.097
10544SOL    HW132531   1.420   2.462   2.092
10544SOL    HW232532   1.325   2.363   2.004
10545SOL     OW32533   6.549   0.384   2.591
10545SOL    HW132534   6.616   0.373   2.665
10545SOL    HW232535   6.458   0.400   2.630
10546SOL     OW32536   2.844   0.662   4.020
10546SOL    HW132537   2.746   0.655   4.042
10546SOL    HW232538   2.863   0.749   3.976
10547SOL     OW32539   4.214   1.593   1.219
10547SOL    HW132540   4.211   1.493   1.214
10547SOL    HW232541   4.246   1.630   1.132
10548SOL     OW32542   5.129   4.268   5.417
10548SOL    HW132543   5.131   4.341   5.485
10548SOL    HW232544   5.064   4.198   5.446
10549SOL     OW32545   1.071   1.003   1.691
10549SOL    HW132546   1.097   0.935   1.622
10549SOL    HW232547   1.114   0.980   1.778
10550SOL     OW32548   4.890   6.801   4.090
10550SOL    HW132549   4.930   6.853   4.015
10550SOL    HW232550   4.959   6.785   4.160
10551SOL     OW32551   1.204   2.737   6.273
10551SOL    HW132552   1.185   2.819   6.220
10551SOL    HW232553   1.248   2.762   6.360
10552SOL     OW32554   3.369   2.285   5.344
10552SOL    HW132555   3.331   2.209   5.397
10552SOL    HW232556   3.299   2.320   5.282
10553SOL     OW32557   1.185   4.885   6.998
10553SOL    HW132558   1.280   4.874   6.967
10553SOL    HW232559   1.139   4.796   6.993
10554SOL     OW32560   6.998   4.808   6.857
10554SOL    HW132561   0.074   4.770   6.856
10554SOL    HW232562   6.963   4.808   6.950
10555SOL     OW32563   3.239   1.816   1.542
10555SOL    HW132564   3.220   1.902   1.589
10555SOL    HW232565   3.256   1.834   1.445
10556SOL     OW32566   2.139   3.407   4.890
10556SOL    HW132567   2.061   3.411   4.952
10556SOL    HW232568   2.213   3.465   4.926
10557SOL     OW32569   6.988   2.806   3.531
10557SOL    HW132570   6.942   2.881   3.484
10557SOL    HW232571   6.925   2.730   3.543
10558SOL     OW32572   5.012   6.046   5.527
10558SOL    HW132573   4.991   5.989   5.447
10558SOL    HW232574   5.015   5.989   5.609
10559SOL     OW32575   4.457   2.338   0.579
10559SOL    HW132576   4.400   2.332   0.661
10559SOL    HW232577   4.445   2.428   0.537
10560SOL     OW32578   0.902   3.103   4.130
10560SOL    HW132579   0.826   3.050   4.092
10560SOL    HW232580   0.916   3.078   4.226
10561SOL     OW32581   2.498   4.131   0.009
10561SOL    HW132582   2.424   4.066   0.024
10561SOL    HW232583   2.585   4.090   0.036
10562SOL     OW32584   4.146   1.165   0.116
10562SOL    HW132585   4.187   1.232   0.055
10562SOL    HW232586   4.183   1.178   0.208
10563SOL     OW32587   1.466   1.823   5.456
10563SOL    HW132588   1.425   1.875   5.380
10563SOL    HW232589   1.552   1.783   5.426
10564SOL     OW32590   6.045   2.219   1.817
10564SOL    HW132591   6.070   2.166   1.899
10564SOL    HW232592   5.992   2.300   1.845
10565SOL     OW32593   5.589   1.747   4.898
10565SOL    HW132594   5.550   1.655   4.893
10565SOL    HW232595   5.683   1.742   4.934
10566SOL     OW32596   3.648   4.004   6.435
10566SOL    HW132597   3.716   4.077   6.435
10566SOL    HW232598   3.680   3.929   6.492
10567SOL     OW32599   1.840   3.908   3.987
10567SOL    HW132600   1.766   3.880   4.048
10567SOL    HW232601   1.810   3.899   3.892
10568SOL     OW32602   4.556   1.038   3.442
10568SOL    HW132603   4.526   1.011   3.351
10568SOL    HW232604   4.571   1.137   3.445
10569SOL     OW32605   5.599   2.937   4.256
10569SOL    HW132606   5.653   2.966   4.335
10569SOL    HW232607   5.573   3.017   4.202
10570SOL     OW32608   1.556   5.134   2.578
10570SOL    HW132609   1.545   5.233   2.591
10570SOL    HW232610   1.608   5.117   2.495
10571SOL     OW32611   6.161   6.523   3.121
10571SOL    HW132612   6.064   6.501   3.136
10571SOL    HW232613   6.198   6.565   3.204
10572SOL     OW32614   5.957   3.784   1.765
10572SOL    HW132615   5.958   3.729   1.681
10572SOL    HW232616   5.994   3.875   1.746
10573SOL     OW32617   6.053   5.259   4.823
10573SOL    HW132618   6.149   5.272   4.847
10573SOL    HW232619   6.007   5.347   4.819
10574SOL     OW32620   0.423   1.740   3.288
10574SOL    HW132621   0.405   1.772   3.195
10574SOL    HW232622   0.472   1.810   3.339
10575SOL     OW32623   1.397   0.025   5.239
10575SOL    HW132624   1.373   0.071   5.325
10575SOL    HW232625   1.321   6.982   5.211
10576SOL     OW32626   1.728   5.449   3.656
10576SOL    HW132627   1.797   5.402   3.600
10576SOL    HW232628   1.661   5.382   3.688
10577SOL     OW32629   1.659   2.651   5.895
10577SOL    HW132630   1.619   2.722   5.837
10577SOL    HW232631   1.735   2.608   5.846
10578SOL     OW32632   6.481   0.720   5.852
10578SOL    HW132633   6.573   0.683   5.841
10578SOL    HW232634   6.415   0.661   5.807
10579SOL     OW32635   4.472   1.819   0.832
10579SOL    HW132636   4.565   1.836   0.799
10579SOL    HW232637   4.406   1.849   0.763
10580SOL     OW32638   6.207   6.196   6.780
10580SOL    HW132639   6.137   6.133   6.745
10580SOL    HW232640   6.220   6.180   6.877
10581SOL     OW32641   5.262   0.647   3.587
10581SOL    HW132642   5.340   0.599   3.548
10581SOL    HW232643   5.236   0.723   3.527
10582SOL     OW32644   3.294   5.096   6.778
10582SOL    HW132645   3.285   5.195   6.773
10582SOL    HW232646   3.390   5.070   6.776
10583SOL     OW32647   4.273   1.568   0.173
10583SOL    HW132648   4.296   1.659   0.139
10583SOL    HW232649   4.174   1.554   0.166
10584SOL     OW32650   5.665   0.353   1.379
10584SOL    HW132651   5.680   0.257   1.403
10584SOL    HW232652   5.674   0.409   1.461
10585SOL     OW32653   0.989   3.214   6.647
10585SOL    HW132654   0.973   3.296   6.702
10585SOL    HW232655   0.903   3.166   6.632
10586SOL     OW32656   3.477   6.721   6.423
10586SOL    HW132657   3.573   6.737   6.401
10586SOL    HW232658   3.468   6.640   6.481
10587SOL     OW32659   6.043   4.412   0.737
10587SOL    HW132660   6.132   4.457   0.742
10587SOL    HW232661   5.974   4.477   0.706
10588SOL     OW32662   0.168   5.544   2.988
10588SOL    HW132663   0.245   5.597   2.951
10588SOL    HW232664   0.172   5.545   3.088
10589SOL     OW32665   6.158   1.562   3.980
10589SOL    HW132666   6.168   1.561   4.079
10589SOL    HW232667   6.142   1.655   3.948
10590SOL     OW32668   1.008   0.177   3.669
10590SOL    HW132669   0.959   0.204   3.752
10590SOL    HW232670   1.106   0.172   3.689
10591SOL     OW32671   1.253   2.323   0.611
10591SOL    HW132672   1.184   2.255   0.584
10591SOL    HW232673   1.209   2.399   0.657
10592SOL     OW32674   6.372   1.439   0.151
10592SOL    HW132675   6.371   1.539   0.154
10592SOL    HW232676   6.447   1.408   0.092
10593SOL     OW32677   1.944   5.140   1.286
10593SOL    HW132678   1.883   5.120   1.363
10593SOL    HW232679   2.039   5.125   1.315
10594SOL     OW32680   0.280   2.083   4.354
10594SOL    HW132681   0.292   2.010   4.286
10594SOL    HW232682   0.307   2.170   4.314
10595SOL     OW32683   3.661   6.113   6.521
10595SOL    HW132684   3.602   6.110   6.602
10595SOL    HW232685   3.650   6.028   6.469
10596SOL     OW32686   3.738   0.591   2.315
10596SOL    HW132687   3.674   0.666   2.294
10596SOL    HW232688   3.758   0.592   2.413
10597SOL     OW32689   1.662   0.547   5.116
10597SOL    HW132690   1.710   0.475   5.167
10597SOL    HW232691   1.726   0.620   5.094
10598SOL     OW32692   2.044   2.176   7.009
10598SOL    HW132693   2.008   2.261   6.972
10598SOL    HW232694   2.136   2.160   6.974
10599SOL     OW32695   5.905   1.477   0.118
10599SOL    HW132696   5.860   1.460   0.206
10599SOL    HW232697   5.971   1.552   0.128
10600SOL     OW32698   2.384   3.301   6.345
10600SOL    HW132699   2.304   3.330   6.397
10600SOL    HW232700   2.364   3.308   6.247
10601SOL     OW32701   3.250   6.166   6.369
10601SOL    HW132702   3.323   6.232   6.354
10601SOL    HW232703   3.289   6.077   6.392
10602SOL     OW32704   4.786   1.155   2.137
10602SOL    HW132705   4.841   1.235   2.112
10602SOL    HW232706   4.798   1.135   2.234
10603SOL     OW32707   1.581   5.776   4.404
10603SOL    HW132708   1.573   5.777   4.503
10603SOL    HW232709   1.560   5.685   4.369
10604SOL     OW32710   6.778   4.768   4.862
10604SOL    HW132711   6.804   4.706   4.937
10604SOL    HW232712   6.707   4.830   4.894
10605SOL     OW32713   1.447   4.867   6.936
10605SOL    HW132714   1.496   4.791   6.892
10605SOL    HW232715   1.503   4.950   6.930
10606SOL     OW32716   0.956   0.660   1.879
10606SOL    HW132717   0.862   0.680   1.852
10606SOL    HW232718   0.972   0.561   1.875
10607SOL     OW32719   5.715   5.008   6.787
10607SOL    HW132720   5.671   4.921   6.768
10607SOL    HW232721   5.679   5.046   6.872
10608SOL     OW32722   6.419   1.456   3.994
10608SOL    HW132723   6.421   1.366   4.038
10608SOL    HW232724   6.324   1.487   3.989
10609SOL     OW32725   3.947   6.456   1.094
10609SOL    HW132726   3.895   6.539   1.077
10609SOL    HW232727   4.038   6.479   1.127
10610SOL     OW32728   1.379   3.170   5.860
10610SOL    HW132729   1.449   3.225   5.814
10610SOL    HW232730   1.422   3.091   5.903
10611SOL     OW32731   5.635   2.788   5.580
10611SOL    HW132732   5.631   2.868   5.521
10611SOL    HW232733   5.601   2.813   5.671
10612SOL     OW32734   1.801   0.268   0.356
10612SOL    HW132735   1.759   0.245   0.269
10612SOL    HW232736   1.782   0.197   0.423
10613SOL     OW32737   0.355   6.329   5.790
10613SOL    HW132738   0.451   6.356   5.782
10613SOL    HW232739   0.344   6.267   5.868
10614SOL     OW32740   6.717   1.044   4.263
10614SOL    HW132741   6.655   1.102   4.209
10614SOL    HW232742   6.794   1.099   4.295
10615SOL     OW32743   5.287   5.572   5.540
10615SOL    HW132744   5.343   5.655   5.534
10615SOL    HW232745   5.347   5.492   5.546
10616SOL     OW32746   2.757   5.643   0.062
10616SOL    HW132747   2.756   5.551   0.100
10616SOL    HW232748   2.674   5.692   0.091
10617SOL     OW32749   1.229   2.239   6.966
10617SOL    HW132750   1.242   2.338   6.972
10617SOL    HW232751   1.312   2.197   6.929
10618SOL     OW32752   6.070   3.056   0.295
10618SOL    HW132753   6.115   3.122   0.234
10618SOL    HW232754   6.138   3.018   0.358
10619SOL     OW32755   0.806   4.164   3.712
10619SOL    HW132756   0.754   4.090   3.755
10619SOL    HW232757   0.889   4.181   3.765
10620SOL     OW32758   1.574   6.060   4.692
10620SOL    HW132759   1.539   6.129   4.755
10620SOL    HW232760   1.643   6.101   4.632
10621SOL     OW32761   2.123   6.091   0.853
10621SOL    HW132762   2.217   6.124   0.840
10621SOL    HW232763   2.120   6.030   0.932
10622SOL     OW32764   3.918   0.831   1.418
10622SOL    HW132765   3.877   0.910   1.372
10622SOL    HW232766   3.872   0.815   1.505
10623SOL     OW32767   6.526   1.845   3.594
10623SOL    HW132768   6.507   1.854   3.496
10623SOL    HW232769   6.450   1.797   3.638
10624SOL     OW32770   2.152   0.504   4.233
10624SOL    HW132771   2.211   0.510   4.152
10624SOL    HW232772   2.204   0.468   4.310
10625SOL     OW32773   0.461   3.325   0.089
10625SOL    HW132774   0.374   3.328   0.039
10625SOL    HW232775   0.498   3.417   0.097
10626SOL     OW32776   0.532   2.499   1.498
10626SOL    HW132777   0.518   2.400   1.506
10626SOL    HW232778   0.543   2.539   1.589
10627SOL     OW32779   6.253   5.983   3.781
10627SOL    HW132780   6.201   5.932   3.848
10627SOL    HW232781   6.196   6.000   3.700
10628SOL     OW32782   5.776   5.787   5.933
10628SOL    HW132783   5.773   5.881   5.899
10628SOL    HW232784   5.783   5.787   6.033
10629SOL     OW32785   2.756   5.844   5.922
10629SOL    HW132786   2.747   5.752   5.884
10629SOL    HW232787   2.689   5.856   5.996
10630SOL     OW32788   6.775   1.687   3.473
10630SOL    HW132789   6.829   1.606   3.496
10630SOL    HW232790   6.713   1.708   3.549
10631SOL     OW32791   0.486   6.854   4.011
10631SOL    HW132792   0.552   6.795   3.966
10631SOL    HW232793   0.427   6.799   4.070
10632SOL     OW32794   0.237   1.891   5.092
10632SOL    HW132795   0.310   1.875   5.026
10632SOL    HW232796   0.264   1.853   5.181
10633SOL     OW32797   1.322   5.304   1.564
10633SOL    HW132798   1.380   5.331   1.641
10633SOL    HW232799   1.292   5.210   1.575
10634SOL     OW32800   3.008   6.639   1.304
10634SOL    HW132801   3.083   6.607   1.246
10634SOL    HW232802   2.928   6.580   1.291
10635SOL     OW32803   2.342   0.845   1.227
10635SOL    HW132804   2.361   0.941   1.206
10635SOL    HW232805   2.376   0.824   1.319
10636SOL     OW32806   0.719   2.383   1.762
10636SOL    HW132807   0.680   2.474   1.749
10636SOL    HW232808   0.659   2.315   1.720
10637SOL     OW32809   3.504   4.318   5.435
10637SOL    HW132810   3.477   4.236   5.484
10637SOL    HW232811   3.428   4.382   5.431
10638SOL     OW32812   0.054   6.779   5.734
10638SOL    HW132813   0.046   6.784   5.834
10638SOL    HW232814   0.116   6.704   5.709
10639SOL     OW32815   2.427   0.451   4.319
10639SOL    HW132816   2.525   0.465   4.304
10639SOL    HW232817   2.396   0.509   4.395
10640SOL     OW32818   4.095   0.357   6.956
10640SOL    HW132819   4.021   0.423   6.966
10640SOL    HW232820   4.155   0.384   6.881
10641SOL     OW32821   5.801   1.624   6.932
10641SOL    HW132822   5.821   1.535   6.974
10641SOL    HW232823   5.722   1.666   6.977
10642SOL     OW32824   0.184   3.038   1.773
10642SOL    HW132825   0.264   3.034   1.713
10642SOL    HW232826   0.172   3.132   1.805
10643SOL     OW32827   2.755   3.001   5.894
10643SOL    HW132828   2.836   3.006   5.837
10643SOL    HW232829   2.758   2.918   5.950
10644SOL     OW32830   4.508   1.458   4.420
10644SOL    HW132831   4.578   1.393   4.391
10644SOL    HW232832   4.423   1.409   4.440
10645SOL     OW32833   2.760   0.903   4.967
10645SOL    HW132834   2.706   0.960   5.030
10645SOL    HW232835   2.704   0.827   4.934
10646SOL     OW32836   0.975   3.844   6.684
10646SOL    HW132837   0.942   3.913   6.619
10646SOL    HW232838   1.075   3.842   6.684
10647SOL     OW32839   0.241   5.210   1.046
10647SOL    HW132840   0.261   5.113   1.058
10647SOL    HW232841   0.300   5.247   0.975
10648SOL     OW32842   4.914   3.142   6.612
10648SOL    HW132843   4.931   3.240   6.620
10648SOL    HW232844   4.817   3.127   6.593
10649SOL     OW32845   0.098   5.023   5.886
10649SOL    HW132846   0.002   5.051   5.881
10649SOL    HW232847   0.107   4.945   5.947
10650SOL     OW32848   3.212   6.609   3.859
10650SOL    HW132849   3.186   6.523   3.815
10650SOL    HW232850   3.238   6.592   3.954
10651SOL     OW32851   4.291   6.463   6.347
10651SOL    HW132852   4.223   6.496   6.412
10651SOL    HW232853   4.372   6.522   6.351
10652SOL     OW32854   3.375   0.723   6.392
10652SOL    HW132855   3.358   0.715   6.294
10652SOL    HW232856   3.393   0.632   6.431
10653SOL     OW32857   5.248   3.453   4.165
10653SOL    HW132858   5.150   3.457   4.147
10653SOL    HW232859   5.265   3.410   4.254
10654SOL     OW32860   4.221   0.532   0.359
10654SOL    HW132861   4.208   0.503   0.454
10654SOL    HW232862   4.173   0.618   0.344
10655SOL     OW32863   2.524   5.857   1.287
10655SOL    HW132864   2.497   5.811   1.203
10655SOL    HW232865   2.623   5.848   1.300
10656SOL     OW32866   6.658   2.808   6.571
10656SOL    HW132867   6.734   2.829   6.633
10656SOL    HW232868   6.606   2.891   6.554
10657SOL     OW32869   6.258   0.805   1.199
10657SOL    HW132870   6.293   0.712   1.210
10657SOL    HW232871   6.233   0.820   1.103
10658SOL     OW32872   6.883   5.723   5.151
10658SOL    HW132873   6.824   5.803   5.139
10658SOL    HW232874   6.970   5.751   5.190
10659SOL     OW32875   5.808   1.036   0.525
10659SOL    HW132876   5.793   1.111   0.461
10659SOL    HW232877   5.806   0.949   0.476
10660SOL     OW32878   4.576   4.960   5.455
10660SOL    HW132879   4.573   5.032   5.524
10660SOL    HW232880   4.663   4.964   5.406
10661SOL     OW32881   0.194   6.787   2.589
10661SOL    HW132882   0.123   6.793   2.659
10661SOL    HW232883   0.153   6.757   2.503
10662SOL     OW32884   5.943   1.495   0.621
10662SOL    HW132885   6.013   1.562   0.646
10662SOL    HW232886   5.974   1.404   0.645
10663SOL     OW32887   0.254   0.422   0.583
10663SOL    HW132888   0.262   0.338   0.637
10663SOL    HW232889   0.340   0.439   0.535
10664SOL     OW32890   1.747   4.929   6.896
10664SOL    HW132891   1.742   5.014   6.843
10664SOL    HW232892   1.764   4.950   6.992
10665SOL     OW32893   6.721   1.035   0.825
10665SOL    HW132894   6.649   1.046   0.893
10665SOL    HW232895   6.808   1.014   0.871
10666SOL     OW32896   1.536   6.800   6.795
10666SOL    HW132897   1.548   6.826   6.891
10666SOL    HW232898   1.625   6.777   6.756
10667SOL     OW32899   3.824   1.628   5.048
10667SOL    HW132900   3.915   1.627   5.008
10667SOL    HW232901   3.831   1.613   5.147
10668SOL     OW32902   1.952   1.048   5.680
10668SOL    HW132903   1.905   1.051   5.769
10668SOL    HW232904   1.887   1.069   5.608
10669SOL     OW32905   1.116   6.740   6.459
10669SOL    HW132906   1.097   6.777   6.368
10669SOL    HW232907   1.149   6.646   6.451
10670SOL     OW32908   6.475   4.750   5.725
10670SOL    HW132909   6.559   4.746   5.780
10670SOL    HW232910   6.413   4.818   5.764
10671SOL     OW32911   2.003   1.218   3.612
10671SOL    HW132912   2.103   1.209   3.604
10671SOL    HW232913   1.959   1.133   3.583
10672SOL     OW32914   0.053   3.391   0.678
10672SOL    HW132915   0.138   3.372   0.727
10672SOL    HW232916   0.047   3.489   0.657
10673SOL     OW32917   2.781   3.377   5.182
10673SOL    HW132918   2.731   3.314   5.242
10673SOL    HW232919   2.783   3.339   5.089
10674SOL     OW32920   3.587   1.949   1.950
10674SOL    HW132921   3.675   1.926   1.908
10674SOL    HW232922   3.593   2.040   1.990
10675SOL     OW32923   0.606   0.576   6.136
10675SOL    HW132924   0.507   0.583   6.153
10675SOL    HW232925   0.626   0.492   6.085
10676SOL     OW32926   6.796   0.386   6.657
10676SOL    HW132927   6.780   0.297   6.700
10676SOL    HW232928   6.708   0.424   6.626
10677SOL     OW32929   0.026   0.572   0.662
10677SOL    HW132930   0.113   0.524   0.645
10677SOL    HW232931   6.989   0.573   0.577
10678SOL     OW32932   2.558   6.481   3.066
10678SOL    HW132933   2.601   6.392   3.081
10678SOL    HW232934   2.575   6.540   3.144
10679SOL     OW32935   5.638   5.243   4.529
10679SOL    HW132936   5.646   5.164   4.590
10679SOL    HW232937   5.672   5.219   4.438
10680SOL     OW32938   1.496   2.192   3.561
10680SOL    HW132939   1.477   2.268   3.623
10680SOL    HW232940   1.467   2.215   3.469
10681SOL     OW32941   0.264   1.171   5.743
10681SOL    HW132942   0.345   1.143   5.795
10681SOL    HW232943   0.256   1.117   5.660
10682SOL     OW32944   6.828   1.593   2.955
10682SOL    HW132945   6.901   1.661   2.948
10682SOL    HW232946   6.806   1.579   3.052
10683SOL     OW32947   1.896   1.869   4.640
10683SOL    HW132948   1.890   1.968   4.627
10683SOL    HW232949   1.920   1.850   4.735
10684SOL     OW32950   5.651   5.704   0.624
10684SOL    HW132951   5.575   5.768   0.618
10684SOL    HW232952   5.657   5.650   0.540
10685SOL     OW32953   0.073   2.599   2.485
10685SOL    HW132954   0.061   2.537   2.562
10685SOL    HW232955   0.052   2.692   2.513
10686SOL     OW32956   3.835   5.053   0.453
10686SOL    HW132957   3.769   5.129   0.447
10686SOL    HW232958   3.787   4.970   0.481
10687SOL     OW32959   0.632   4.932   2.446
10687SOL    HW132960   0.729   4.941   2.470
10687SOL    HW232961   0.577   4.981   2.513
10688SOL     OW32962   6.478   5.326   2.080
10688SOL    HW132963   6.545   5.258   2.111
10688SOL    HW232964   6.462   5.314   1.982
10689SOL     OW32965   0.138   0.855   1.831
10689SOL    HW132966   0.084   0.929   1.790
10689SOL    HW232967   0.234   0.881   1.834
10690SOL     OW32968   4.355   5.517   1.796
10690SOL    HW132969   4.420   5.593   1.800
10690SOL    HW232970   4.344   5.478   1.888
10691SOL     OW32971   6.879   1.583   1.303
10691SOL    HW132972   6.793   1.633   1.313
10691SOL    HW232973   6.868   1.489   1.336
10692SOL     OW32974   4.279   6.017   3.898
10692SOL    HW132975   4.217   5.940   3.908
10692SOL    HW232976   4.302   6.054   3.988
10693SOL     OW32977   6.101   2.074   2.073
10693SOL    HW132978   6.109   2.162   2.120
10693SOL    HW232979   6.193   2.035   2.059
10694SOL     OW32980   4.018   6.220   0.714
10694SOL    HW132981   4.039   6.192   0.807
10694SOL    HW232982   3.958   6.153   0.671
10695SOL     OW32983   6.173   3.439   4.266
10695SOL    HW132984   6.238   3.508   4.298
10695SOL    HW232985   6.179   3.359   4.325
10696SOL     OW32986   6.290   6.506   1.357
10696SOL    HW132987   6.372   6.558   1.331
10696SOL    HW232988   6.285   6.423   1.302
10697SOL     OW32989   2.917   6.165   3.272
10697SOL    HW132990   2.917   6.127   3.179
10697SOL    HW232991   2.829   6.208   3.291
10698SOL     OW32992   3.198   0.491   3.192
10698SOL    HW132993   3.246   0.448   3.116
10698SOL    HW232994   3.121   0.544   3.158
10699SOL     OW32995   2.112   2.078   2.474
10699SOL    HW132996   2.174   2.001   2.490
10699SOL    HW232997   2.037   2.049   2.414
10700SOL     OW32998   6.416   0.697   1.596
10700SOL    HW132999   6.321   0.726   1.585
10700SOL    HW233000   6.436   0.684   1.693
10701SOL     OW33001   3.475   6.483   0.546
10701SOL    HW133002   3.565   6.482   0.503
10701SOL    HW233003   3.461   6.570   0.592
10702SOL     OW33004   6.295   3.161   1.544
10702SOL    HW133005   6.307   3.136   1.448
10702SOL    HW233006   6.198   3.180   1.561
10703SOL     OW33007   4.038   3.221   3.636
10703SOL    HW133008   3.992   3.309   3.643
10703SOL    HW233009   4.042   3.194   3.539
10704SOL     OW33010   5.562   6.455   2.072
10704SOL    HW133011   5.598   6.455   1.979
10704SOL    HW233012   5.521   6.365   2.092
10705SOL     OW33013   0.347   2.450   6.608
10705SOL    HW133014   0.377   2.409   6.523
10705SOL    HW233015   0.248   2.443   6.616
10706SOL     OW33016   3.688   1.218   2.302
10706SOL    HW133017   3.699   1.220   2.401
10706SOL    HW233018   3.744   1.290   2.261
10707SOL     OW33019   6.388   0.349   5.973
10707SOL    HW133020   6.449   0.298   5.913
10707SOL    HW233021   6.390   0.309   6.065
10708SOL     OW33022   4.224   1.050   1.332
10708SOL    HW133023   4.170   1.010   1.258
10708SOL    HW233024   4.244   0.979   1.400
10709SOL     OW33025   0.420   6.555   6.157
10709SOL    HW133026   0.336   6.520   6.115
10709SOL    HW233027   0.397   6.617   6.232
10710SOL     OW33028   6.247   5.642   3.140
10710SOL    HW133029   6.225   5.708   3.212
10710SOL    HW233030   6.305   5.570   3.178
10711SOL     OW33031   1.885   5.553   4.967
10711SOL    HW133032   1.889   5.570   4.868
10711SOL    HW233033   1.841   5.464   4.983
10712SOL     OW33034   4.133   1.439   5.159
10712SOL    HW133035   4.180   1.416   5.074
10712SOL    HW233036   4.160   1.531   5.189
10713SOL     OW33037   1.188   6.356   1.462
10713SOL    HW133038   1.157   6.383   1.370
10713SOL    HW233039   1.271   6.300   1.453
10714SOL     OW33040   6.701   5.283   5.096
10714SOL    HW133041   6.741   5.201   5.135
10714SOL    HW233042   6.729   5.292   5.000
10715SOL     OW33043   6.199   1.419   3.458
10715SOL    HW133044   6.233   1.479   3.386
10715SOL    HW233045   6.211   1.323   3.430
10716SOL     OW33046   6.197   0.504   3.127
10716SOL    HW133047   6.219   0.541   3.217
10716SOL    HW233048   6.253   0.423   3.109
10717SOL     OW33049   6.654   6.432   2.104
10717SOL    HW133050   6.725   6.381   2.057
10717SOL    HW233051   6.674   6.434   2.202
10718SOL     OW33052   0.287   4.448   6.195
10718SOL    HW133053   0.195   4.449   6.156
10718SOL    HW233054   0.353   4.430   6.121
10719SOL     OW33055   4.544   1.048   2.378
10719SOL    HW133056   4.514   0.988   2.303
10719SOL    HW233057   4.468   1.061   2.442
10720SOL     OW33058   0.805   3.294   0.319
10720SOL    HW133059   0.764   3.222   0.264
10720SOL    HW233060   0.786   3.383   0.278
10721SOL     OW33061   4.804   2.617   3.913
10721SOL    HW133062   4.884   2.557   3.905
10721SOL    HW233063   4.779   2.626   4.009
10722SOL     OW33064   0.212   4.128   0.856
10722SOL    HW133065   0.258   4.062   0.916
10722SOL    HW233066   0.182   4.207   0.910
10723SOL     OW33067   6.266   3.999   0.280
10723SOL    HW133068   6.270   4.074   0.214
10723SOL    HW233069   6.270   4.036   0.373
10724SOL     OW33070   3.849   6.851   5.126
10724SOL    HW133071   3.883   6.823   5.036
10724SOL    HW233072   3.794   6.777   5.165
10725SOL     OW33073   6.757   6.750   4.821
10725SOL    HW133074   6.719   6.709   4.738
10725SOL    HW233075   6.757   6.850   4.812
10726SOL     OW33076   5.133   0.627   4.881
10726SOL    HW133077   5.183   0.581   4.955
10726SOL    HW233078   5.077   0.560   4.832
10727SOL     OW33079   1.734   6.187   6.698
10727SOL    HW133080   1.691   6.163   6.611
10727SOL    HW233081   1.665   6.219   6.762
10728SOL     OW33082   5.735   5.690   3.308
10728SOL    HW133083   5.814   5.696   3.368
10728SOL    HW233084   5.683   5.776   3.313
10729SOL     OW33085   5.842   3.382   3.968
10729SOL    HW133086   5.855   3.288   4.000
10729SOL    HW233087   5.744   3.400   3.959
10730SOL     OW33088   2.060   5.517   2.756
10730SOL    HW133089   2.101   5.607   2.773
10730SOL    HW233090   2.079   5.456   2.832
10731SOL     OW33091   4.631   6.656   6.755
10731SOL    HW133092   4.641   6.642   6.854
10731SOL    HW233093   4.712   6.620   6.708
10732SOL     OW33094   5.882   5.951   2.892
10732SOL    HW133095   5.877   6.031   2.952
10732SOL    HW233096   5.976   5.920   2.886
10733SOL     OW33097   0.253   1.190   6.387
10733SOL    HW133098   0.185   1.117   6.396
10733SOL    HW233099   0.316   1.168   6.313
10734SOL     OW33100   1.639   0.963   4.349
10734SOL    HW133101   1.634   0.966   4.448
10734SOL    HW233102   1.660   0.869   4.320
10735SOL     OW33103   6.873   6.453   2.270
10735SOL    HW133104   6.884   6.541   2.223
10735SOL    HW233105   6.810   6.463   2.347
10736SOL     OW33106   5.823   6.440   3.918
10736SOL    HW133107   5.849   6.533   3.894
10736SOL    HW233108   5.888   6.404   3.985
10737SOL     OW33109   6.199   1.369   2.231
10737SOL    HW133110   6.251   1.408   2.307
10737SOL    HW233111   6.104   1.357   2.258
10738SOL     OW33112   3.890   0.711   1.128
10738SOL    HW133113   3.848   0.754   1.208
10738SOL    HW233114   3.818   0.668   1.072
10739SOL     OW33115   5.549   2.831   3.829
10739SOL    HW133116   5.587   2.755   3.882
10739SOL    HW233117   5.483   2.882   3.884
10740SOL     OW33118   2.598   0.236   5.817
10740SOL    HW133119   2.623   0.183   5.736
10740SOL    HW233120   2.677   0.242   5.878
10741SOL     OW33121   1.955   2.140   3.603
10741SOL    HW133122   1.883   2.154   3.535
10741SOL    HW233123   1.956   2.044   3.630
10742SOL     OW33124   6.282   6.203   2.527
10742SOL    HW133125   6.263   6.105   2.519
10742SOL    HW233126   6.326   6.221   2.615
10743SOL     OW33127   2.811   1.782   5.552
10743SOL    HW133128   2.721   1.744   5.531
10743SOL    HW233129   2.866   1.787   5.469
10744SOL     OW33130   2.089   1.302   0.375
10744SOL    HW133131   2.063   1.245   0.453
10744SOL    HW233132   2.101   1.396   0.405
10745SOL     OW33133   1.754   4.296   2.242
10745SOL    HW133134   1.689   4.226   2.270
10745SOL    HW233135   1.704   4.378   2.212
10746SOL     OW33136   1.436   6.411   6.577
10746SOL    HW133137   1.381   6.493   6.594
10746SOL    HW233138   1.485   6.422   6.491
10747SOL     OW33139   6.314   1.275   4.794
10747SOL    HW133140   6.306   1.226   4.880
10747SOL    HW233141   6.411   1.297   4.777
10748SOL     OW33142   3.259   6.595   1.174
10748SOL    HW133143   3.279   6.686   1.139
10748SOL    HW233144   3.270   6.528   1.101
10749SOL     OW33145   5.772   4.357   1.707
10749SOL    HW133146   5.703   4.285   1.700
10749SOL    HW233147   5.748   4.432   1.645
10750SOL     OW33148   4.227   2.353   4.279
10750SOL    HW133149   4.291   2.343   4.355
10750SOL    HW233150   4.214   2.450   4.259
10751SOL     OW33151   0.614   5.893   4.295
10751SOL    HW133152   0.572   5.874   4.383
10751SOL    HW233153   0.714   5.891   4.304
10752SOL     OW33154   6.341   6.461   0.394
10752SOL    HW133155   6.439   6.452   0.380
10752SOL    HW233156   6.321   6.551   0.434
10753SOL     OW33157   5.217   6.750   4.133
10753SOL    HW133158   5.151   6.800   4.189
10753SOL    HW233159   5.310   6.776   4.159
10754SOL     OW33160   0.690   4.185   2.516
10754SOL    HW133161   0.748   4.108   2.489
10754SOL    HW233162   0.748   4.256   2.558
10755SOL     OW33163   0.140   2.724   1.045
10755SOL    HW133164   0.067   2.791   1.031
10755SOL    HW233165   0.144   2.663   0.966
10756SOL     OW33166   1.310   0.531   0.705
10756SOL    HW133167   1.271   0.465   0.770
10756SOL    HW233168   1.260   0.525   0.618
10757SOL     OW33169   0.339   3.574   1.656
10757SOL    HW133170   0.339   3.481   1.693
10757SOL    HW233171   0.302   3.637   1.723
10758SOL     OW33172   0.602   0.354   0.270
10758SOL    HW133173   0.548   0.274   0.245
10758SOL    HW233174   0.698   0.327   0.283
10759SOL     OW33175   2.568   2.429   5.834
10759SOL    HW133176   2.654   2.392   5.868
10759SOL    HW233177   2.547   2.386   5.746
10760SOL     OW33178   0.953   4.805   6.415
10760SOL    HW133179   0.888   4.732   6.436
10760SOL    HW233180   0.958   4.868   6.492
10761SOL     OW33181   1.015   1.720   5.831
10761SOL    HW133182   1.060   1.631   5.841
10761SOL    HW233183   1.052   1.767   5.751
10762SOL     OW33184   2.841   5.927   6.659
10762SOL    HW133185   2.779   5.907   6.735
10762SOL    HW233186   2.932   5.891   6.679
10763SOL     OW33187   5.093   0.243   3.831
10763SOL    HW133188   5.110   0.240   3.733
10763SOL    HW233189   5.000   0.277   3.848
10764SOL     OW33190   4.551   6.614   4.514
10764SOL    HW133191   4.489   6.610   4.435
10764SOL    HW233192   4.529   6.539   4.577
10765SOL     OW33193   0.299   2.421   2.426
10765SOL    HW133194   0.231   2.492   2.446
10765SOL    HW233195   0.317   2.418   2.328
10766SOL     OW33196   2.180   4.971   0.091
10766SOL    HW133197   2.155   4.897   0.028
10766SOL    HW233198   2.099   5.026   0.111
10767SOL     OW33199   1.242   5.178   0.067
10767SOL    HW133200   1.229   5.079   0.077
10767SOL    HW233201   1.337   5.201   0.088
10768SOL     OW33202   5.339   6.250   0.019
10768SOL    HW133203   5.340   6.304   6.952
10768SOL    HW233204   5.317   6.155   7.014
10769SOL     OW33205   3.013   3.134   4.331
10769SOL    HW133206   3.106   3.098   4.336
10769SOL    HW233207   3.008   3.204   4.260
10770SOL     OW33208   5.838   0.004   3.399
10770SOL    HW133209   5.909   0.013   3.330
10770SOL    HW233210   5.785   6.938   3.381
10771SOL     OW33211   4.609   6.107   5.903
10771SOL    HW133212   4.614   6.134   5.999
10771SOL    HW233213   4.526   6.052   5.888
10772SOL     OW33214   5.838   5.220   2.566
10772SOL    HW133215   5.867   5.301   2.515
10772SOL    HW233216   5.764   5.174   2.518
10773SOL     OW33217   0.072   3.575   0.977
10773SOL    HW133218   0.128   3.605   0.900
10773SOL    HW233219   7.012   3.521   0.944
10774SOL     OW33220   1.078   3.200   1.064
10774SOL    HW133221   1.003   3.241   1.116
10774SOL    HW233222   1.041   3.130   1.003
10775SOL     OW33223   1.757   4.276   0.690
10775SOL    HW133224   1.755   4.374   0.712
10775SOL    HW233225   1.788   4.225   0.769
10776SOL     OW33226   0.644   2.604   4.316
10776SOL    HW133227   0.608   2.671   4.381
10776SOL    HW233228   0.594   2.611   4.229
10777SOL     OW33229   2.536   0.847   1.507
10777SOL    HW133230   2.490   0.930   1.539
10777SOL    HW233231   2.635   0.860   1.514
10778SOL     OW33232   5.504   0.183   2.943
10778SOL    HW133233   5.427   0.160   2.883
10778SOL    HW233234   5.483   0.269   2.991
10779SOL     OW33235   5.432   3.786   5.391
10779SOL    HW133236   5.342   3.778   5.348
10779SOL    HW233237   5.475   3.696   5.394
10780SOL     OW33238   1.838   5.322   4.774
10780SOL    HW133239   1.768   5.388   4.748
10780SOL    HW233240   1.881   5.284   4.692
10781SOL     OW33241   5.674   2.278   4.579
10781SOL    HW133242   5.632   2.286   4.669
10781SOL    HW233243   5.774   2.283   4.588
10782SOL     OW33244   1.112   1.411   5.313
10782SOL    HW133245   1.059   1.359   5.246
10782SOL    HW233246   1.077   1.504   5.319
10783SOL     OW33247   1.087   2.389   3.696
10783SOL    HW133248   1.077   2.468   3.636
10783SOL    HW233249   1.047   2.410   3.785
10784SOL     OW33250   3.926   5.732   2.773
10784SOL    HW133251   3.885   5.791   2.703
10784SOL    HW233252   3.922   5.777   2.862
10785SOL     OW33253   1.250   5.043   1.571
10785SOL    HW133254   1.151   5.040   1.558
10785SOL    HW233255   1.275   4.991   1.654
10786SOL     OW33256   4.217   1.764   2.369
10786SOL    HW133257   4.287   1.703   2.331
10786SOL    HW233258   4.148   1.784   2.299
10787SOL     OW33259   4.253   0.839   3.322
10787SOL    HW133260   4.310   0.902   3.269
10787SOL    HW233261   4.202   0.780   3.259
10788SOL     OW33262   1.759   3.873   0.195
10788SOL    HW133263   1.672   3.905   0.234
10788SOL    HW233264   1.741   3.822   0.111
10789SOL     OW33265   6.652   1.352   1.867
10789SOL    HW133266   6.635   1.274   1.928
10789SOL    HW233267   6.579   1.358   1.800
10790SOL     OW33268   0.595   1.504   5.843
10790SOL    HW133269   0.639   1.573   5.786
10790SOL    HW233270   0.634   1.414   5.821
10791SOL     OW33271   1.569   1.938   3.602
10791SOL    HW133272   1.559   2.038   3.596
10791SOL    HW233273   1.480   1.895   3.589
10792SOL     OW33274   3.953   1.983   2.412
10792SOL    HW133275   3.938   1.893   2.453
10792SOL    HW233276   3.876   2.007   2.354
10793SOL     OW33277   4.288   1.721   4.693
10793SOL    HW133278   4.313   1.766   4.608
10793SOL    HW233279   4.362   1.661   4.722
10794SOL     OW33280   5.108   2.148   0.920
10794SOL    HW133281   5.183   2.086   0.899
10794SOL    HW233282   5.144   2.241   0.930
10795SOL     OW33283   6.803   3.376   3.456
10795SOL    HW133284   6.753   3.397   3.372
10795SOL    HW233285   6.852   3.459   3.486
10796SOL     OW33286   0.554   6.859   6.069
10796SOL    HW133287   0.492   6.871   6.146
10796SOL    HW233288   0.501   6.839   5.986
10797SOL     OW33289   4.440   4.704   6.783
10797SOL    HW133290   4.386   4.705   6.698
10797SOL    HW233291   4.387   4.747   6.856
10798SOL     OW33292   1.439   6.782   6.439
10798SOL    HW133293   1.468   6.866   6.485
10798SOL    HW233294   1.352   6.751   6.476
10799SOL     OW33295   2.853   1.039   2.650
10799SOL    HW133296   2.814   1.126   2.620
10799SOL    HW233297   2.887   1.049   2.743
10800SOL     OW33298   2.377   0.104   5.643
10800SOL    HW133299   2.470   0.075   5.620
10800SOL    HW233300   2.365   0.102   5.742
10801SOL     OW33301   2.824   6.119   6.450
10801SOL    HW133302   2.822   6.048   6.521
10801SOL    HW233303   2.840   6.076   6.361
10802SOL     OW33304   0.781   5.309   4.201
10802SOL    HW133305   0.839   5.376   4.248
10802SOL    HW233306   0.731   5.255   4.269
10803SOL     OW33307   0.061   4.107   4.516
10803SOL    HW133308   0.147   4.095   4.466
10803SOL    HW233309   0.050   4.204   4.539
10804SOL     OW33310   4.938   4.760   0.994
10804SOL    HW133311   4.860   4.700   1.013
10804SOL    HW233312   5.012   4.739   1.058
10805SOL     OW33313   3.860   5.992   0.609
10805SOL    HW133314   3.864   5.909   0.665
10805SOL    HW233315   3.771   5.998   0.565
10806SOL     OW33316   6.336   3.934   6.363
10806SOL    HW133317   6.272   3.934   6.439
10806SOL    HW233318   6.319   3.855   6.304
10807SOL     OW33319   4.655   0.271   4.088
10807SOL    HW133320   4.629   0.206   4.016
10807SOL    HW233321   4.727   0.331   4.054
10808SOL     OW33322   0.751   2.177   0.200
10808SOL    HW133323   0.729   2.274   0.194
10808SOL    HW233324   0.710   2.128   0.123
10809SOL     OW33325   3.432   0.880   3.331
10809SOL    HW133326   3.461   0.817   3.403
10809SOL    HW233327   3.509   0.939   3.306
10810SOL     OW33328   0.983   1.776   6.895
10810SOL    HW133329   1.017   1.799   6.986
10810SOL    HW233330   0.995   1.678   6.878
10811SOL     OW33331   4.929   4.440   6.004
10811SOL    HW133332   4.923   4.538   6.023
10811SOL    HW233333   4.886   4.421   5.916
10812SOL     OW33334   6.988   2.408   2.712
10812SOL    HW133335   6.894   2.417   2.677
10812SOL    HW233336   6.991   2.440   2.806
10813SOL     OW33337   3.185   5.594   2.568
10813SOL    HW133338   3.262   5.543   2.529
10813SOL    HW233339   3.104   5.581   2.510
10814SOL     OW33340   1.922   5.972   5.124
10814SOL    HW133341   1.973   5.888   5.142
10814SOL    HW233342   1.987   6.048   5.111
10815SOL     OW33343   4.437   2.444   3.603
10815SOL    HW133344   4.500   2.373   3.636
10815SOL    HW233345   4.343   2.415   3.622
10816SOL     OW33346   2.019   2.346   1.854
10816SOL    HW133347   1.985   2.267   1.905
10816SOL    HW233348   2.111   2.327   1.821
10817SOL     OW33349   4.492   6.850   1.776
10817SOL    HW133350   4.471   6.910   1.699
10817SOL    HW233351   4.586   6.865   1.806
10818SOL     OW33352   4.670   3.089   6.428
10818SOL    HW133353   4.668   3.184   6.398
10818SOL    HW233354   4.670   3.029   6.348
10819SOL     OW33355   0.809   3.852   5.578
10819SOL    HW133356   0.733   3.853   5.513
10819SOL    HW233357   0.890   3.812   5.533
10820SOL     OW33358   0.213   0.385   4.588
10820SOL    HW133359   0.284   0.372   4.518
10820SOL    HW233360   0.140   0.443   4.552
10821SOL     OW33361   6.880   0.229   1.236
10821SOL    HW133362   6.904   0.315   1.281
10821SOL    HW233363   6.792   0.197   1.272
10822SOL     OW33364   1.105   4.842   0.672
10822SOL    HW133365   1.149   4.927   0.700
10822SOL    HW233366   1.156   4.802   0.595
10823SOL     OW33367   1.034   1.978   1.892
10823SOL    HW133368   1.038   1.994   1.991
10823SOL    HW233369   1.125   1.993   1.853
10824SOL     OW33370   5.367   0.357   3.265
10824SOL    HW133371   5.418   0.333   3.348
10824SOL    HW233372   5.430   0.388   3.194
10825SOL     OW33373   3.971   1.886   1.091
10825SOL    HW133374   3.903   1.889   1.018
10825SOL    HW233375   3.986   1.979   1.125
10826SOL     OW33376   6.835   2.622   1.522
10826SOL    HW133377   6.820   2.707   1.572
10826SOL    HW233378   6.845   2.547   1.587
10827SOL     OW33379   1.446   2.406   3.921
10827SOL    HW133380   1.526   2.425   3.978
10827SOL    HW233381   1.387   2.486   3.918
10828SOL     OW33382   1.317   6.347   0.113
10828SOL    HW133383   1.236   6.359   0.055
10828SOL    HW233384   1.397   6.386   0.067
10829SOL     OW33385   2.324   3.646   1.692
10829SOL    HW133386   2.305   3.564   1.747
10829SOL    HW233387   2.319   3.727   1.750
10830SOL     OW33388   5.317   1.673   4.027
10830SOL    HW133389   5.318   1.635   4.119
10830SOL    HW233390   5.410   1.701   4.002
10831SOL     OW33391   5.161   2.952   3.170
10831SOL    HW133392   5.179   2.911   3.081
10831SOL    HW233393   5.112   3.038   3.158
10832SOL     OW33394   6.740   2.456   2.667
10832SOL    HW133395   6.754   2.537   2.724
10832SOL    HW233396   6.664   2.402   2.704
10833SOL     OW33397   3.186   0.354   4.416
10833SOL    HW133398   3.143   0.295   4.484
10833SOL    HW233399   3.229   0.297   4.345
10834SOL     OW33400   6.949   1.451   5.318
10834SOL    HW133401   6.869   1.404   5.354
10834SOL    HW233402   6.966   1.421   5.224
10835SOL     OW33403   6.674   2.129   2.633
10835SOL    HW133404   6.622   2.085   2.560
10835SOL    HW233405   6.761   2.081   2.645
10836SOL     OW33406   1.903   2.682   0.689
10836SOL    HW133407   1.995   2.711   0.716
10836SOL    HW233408   1.840   2.696   0.766
10837SOL     OW33409   1.028   5.782   1.410
10837SOL    HW133410   0.981   5.726   1.478
10837SOL    HW233411   1.125   5.760   1.410
10838SOL     OW33412   6.379   6.928   0.902
10838SOL    HW133413   6.406   6.925   0.998
10838SOL    HW233414   6.300   6.869   0.887
10839SOL     OW33415   1.905   1.464   0.190
10839SOL    HW133416   1.851   1.523   0.131
10839SOL    HW233417   1.880   1.368   0.175
10840SOL     OW33418   3.735   5.184   2.821
10840SOL    HW133419   3.655   5.129   2.847
10840SOL    HW233420   3.712   5.281   2.830
10841SOL     OW33421   4.744   3.293   5.959
10841SOL    HW133422   4.754   3.316   5.862
10841SOL    HW233423   4.727   3.195   5.968
10842SOL     OW33424   6.783   2.971   1.231
10842SOL    HW133425   6.791   3.062   1.272
10842SOL    HW233426   6.836   2.906   1.285
10843SOL     OW33427   0.437   1.125   2.086
10843SOL    HW133428   0.520   1.144   2.033
10843SOL    HW233429   0.359   1.167   2.040
10844SOL     OW33430   3.386   6.993   3.350
10844SOL    HW133431   3.314   6.951   3.405
10844SOL    HW233432   3.466   7.012   3.408
10845SOL     OW33433   1.557   3.152   0.741
10845SOL    HW133434   1.484   3.107   0.690
10845SOL    HW233435   1.632   3.088   0.757
10846SOL     OW33436   3.849   1.806   1.900
10846SOL    HW133437   3.819   1.741   1.970
10846SOL    HW233438   3.886   1.887   1.945
10847SOL     OW33439   3.585   2.332   6.381
10847SOL    HW133440   3.506   2.273   6.362
10847SOL    HW233441   3.649   2.283   6.441
10848SOL     OW33442   0.816   1.177   0.862
10848SOL    HW133443   0.757   1.158   0.783
10848SOL    HW233444   0.808   1.102   0.927
10849SOL     OW33445   2.500   5.103   4.357
10849SOL    HW133446   2.505   5.102   4.257
10849SOL    HW233447   2.437   5.174   4.387
10850SOL     OW33448   5.828   0.599   2.121
10850SOL    HW133449   5.735   0.589   2.087
10850SOL    HW233450   5.870   0.508   2.131
10851SOL     OW33451   4.011   1.978   6.314
10851SOL    HW133452   4.003   2.062   6.260
10851SOL    HW233453   4.107   1.950   6.317
10852SOL     OW33454   0.293   6.606   6.403
10852SOL    HW133455   0.284   6.508   6.425
10852SOL    HW233456   0.209   6.653   6.430
10853SOL     OW33457   2.018   0.678   4.834
10853SOL    HW133458   2.004   0.770   4.796
10853SOL    HW233459   2.074   0.625   4.770
10854SOL     OW33460   0.128   6.429   0.955
10854SOL    HW133461   0.091   6.338   0.977
10854SOL    HW233462   0.224   6.420   0.929
10855SOL     OW33463   1.611   5.635   2.065
10855SOL    HW133464   1.603   5.551   2.012
10855SOL    HW233465   1.605   5.714   2.004
10856SOL     OW33466   6.107   0.358   6.354
10856SOL    HW133467   6.019   0.320   6.326
10856SOL    HW233468   6.095   0.453   6.383
10857SOL     OW33469   6.404   0.426   5.090
10857SOL    HW133470   6.430   0.522   5.095
10857SOL    HW233471   6.333   0.414   5.021
10858SOL     OW33472   1.882   2.059   0.195
10858SOL    HW133473   1.919   2.098   0.111
10858SOL    HW233474   1.871   2.130   0.264
10859SOL     OW33475   1.114   5.877   2.276
10859SOL    HW133476   1.186   5.891   2.209
10859SOL    HW233477   1.034   5.933   2.253
10860SOL     OW33478   5.766   3.527   0.616
10860SOL    HW133479   5.766   3.594   0.691
10860SOL    HW233480   5.860   3.511   0.585
10861SOL     OW33481   3.282   2.989   1.629
10861SOL    HW133482   3.291   3.087   1.610
10861SOL    HW233483   3.193   2.956   1.597
10862SOL     OW33484   3.406   3.150   5.279
10862SOL    HW133485   3.440   3.058   5.256
10862SOL    HW233486   3.479   3.217   5.263
10863SOL     OW33487   2.174   0.679   3.214
10863SOL    HW133488   2.104   0.674   3.286
10863SOL    HW233489   2.192   0.588   3.178
10864SOL     OW33490   3.084   4.278   1.715
10864SOL    HW133491   3.177   4.280   1.751
10864SOL    HW233492   3.048   4.371   1.710
10865SOL     OW33493   4.200   1.485   2.842
10865SOL    HW133494   4.232   1.512   2.933
10865SOL    HW233495   4.218   1.559   2.777
10866SOL     OW33496   6.961   3.764   3.345
10866SOL    HW133497   6.878   3.751   3.399
10866SOL    HW233498   6.976   3.684   3.287
10867SOL     OW33499   4.815   2.710   0.869
10867SOL    HW133500   4.838   2.782   0.803
10867SOL    HW233501   4.725   2.671   0.845
10868SOL     OW33502   1.407   6.880   4.779
10868SOL    HW133503   1.311   6.891   4.807
10868SOL    HW233504   1.460   6.959   4.811
10869NA      NA33505   0.076   1.208   5.897
10870NA      NA33506   4.464   4.600   5.188
10871NA      NA33507   1.373   4.980   2.644
10872NA      NA33508   5.958   4.112   3.206
10873NA      NA33509   3.784   2.299   5.523
10874NA      NA33510   1.999   4.758   0.363
10875NA      NA33511   1.244   5.225   6.766
10876NA      NA33512   3.655   4.367   0.937
10877NA      NA33513   4.827   4.876   0.161
10878NA      NA33514   3.370   0.949   6.768
10879NA      NA33515   5.548   6.745   1.752
10880NA      NA33516   2.410   6.359   5.708
10881NA      NA33517   3.957   5.188   1.627
10882NA      NA33518   3.890   3.167   6.616
   7.01666   7.01666   7.01666
