Generated by trjconv : CNT in water t= 541.00000
33518
    1C        C    1   2.842   2.767   4.751
    1C        C    2   2.898   2.719   4.871
    1C        C    3   2.842   2.771   4.989
    1C        C    4   2.848   2.768   4.263
    1C        C    5   2.900   2.722   4.386
    1C        C    6   2.845   2.771   4.506
    1C        C    7   3.008   2.636   4.627
    1C        C    8   2.895   2.720   4.628
    1C        C    9   3.074   2.601   4.746
    1C        C   10   3.012   2.636   4.868
    1C        C   11   3.179   2.491   4.974
    1C        C   12   3.061   2.566   4.979
    1C        C   13   2.847   2.764   3.774
    1C        C   14   2.899   2.716   3.896
    1C        C   15   2.853   2.771   4.018
    1C        C   16   3.017   2.640   4.140
    1C        C   17   2.901   2.721   4.141
    1C        C   18   3.080   2.608   4.262
    1C        C   19   3.014   2.638   4.384
    1C        C   20   3.208   2.557   4.504
    1C        C   21   3.075   2.604   4.506
    1C        C   22   3.279   2.542   4.625
    1C        C   23   3.206   2.548   4.746
    1C        C   24   3.413   2.487   4.866
    1C        C   25   3.271   2.506   4.866
    1C        C   26   3.490   2.474   4.983
    1C        C   27   2.854   2.770   3.286
    1C        C   28   2.904   2.722   3.409
    1C        C   29   2.855   2.773   3.531
    1C        C   30   3.015   2.633   3.652
    1C        C   31   2.904   2.720   3.653
    1C        C   32   3.075   2.598   3.775
    1C        C   33   3.014   2.633   3.897
    1C        C   34   3.210   2.550   4.018
    1C        C   35   3.078   2.600   4.019
    1C        C   36   3.276   2.529   4.141
    1C        C   37   3.210   2.552   4.263
    1C        C   38   3.419   2.511   4.383
    1C        C   39   3.279   2.533   4.385
    1C        C   40   3.491   2.508   4.504
    1C        C   41   3.416   2.507   4.624
    1C        C   42   3.628   2.487   4.744
    1C        C   43   3.486   2.484   4.744
    1C        C   44   3.705   2.490   4.863
    1C        C   45   3.629   2.482   4.981
    1C        C   46   2.838   2.750   2.795
    1C        C   47   2.894   2.705   2.917
    1C        C   48   2.845   2.760   3.038
    1C        C   49   3.014   2.638   3.163
    1C        C   50   2.896   2.715   3.162
    1C        C   51   3.077   2.602   3.284
    1C        C   52   3.018   2.637   3.407
    1C        C   53   3.208   2.545   3.529
    1C        C   54   3.077   2.598   3.529
    1C        C   55   3.275   2.524   3.652
    1C        C   56   3.205   2.544   3.773
    1C        C   57   3.414   2.503   3.893
    1C        C   58   3.275   2.527   3.895
    1C        C   59   3.486   2.502   4.015
    1C        C   60   3.415   2.503   4.138
    1C        C   61   3.628   2.503   4.260
    1C        C   62   3.487   2.499   4.260
    1C        C   63   3.702   2.510   4.380
    1C        C   64   3.632   2.508   4.502
    1C        C   65   3.835   2.550   4.624
    1C        C   66   3.701   2.504   4.625
    1C        C   67   3.906   2.569   4.745
    1C        C   68   3.839   2.532   4.864
    1C        C   69   4.053   2.586   4.980
    1C        C   70   3.927   2.527   4.974
    1C        C   71   2.826   2.734   2.311
    1C        C   72   2.880   2.684   2.432
    1C        C   73   2.829   2.740   2.551
    1C        C   74   3.003   2.617   2.675
    1C        C   75   2.889   2.701   2.673
    1C        C   76   3.069   2.589   2.797
    1C        C   77   3.012   2.628   2.920
    1C        C   78   3.206   2.542   3.041
    1C        C   79   3.078   2.602   3.042
    1C        C   80   3.275   2.523   3.163
    1C        C   81   3.207   2.547   3.285
    1C        C   82   3.413   2.496   3.404
    1C        C   83   3.274   2.522   3.407
    1C        C   84   3.484   2.491   3.526
    1C        C   85   3.414   2.502   3.648
    1C        C   86   3.626   2.501   3.771
    1C        C   87   3.484   2.494   3.771
    1C        C   88   3.697   2.517   3.892
    1C        C   89   3.626   2.514   4.014
    1C        C   90   3.832   2.558   4.137
    1C        C   91   3.696   2.519   4.137
    1C        C   92   3.901   2.577   4.258
    1C        C   93   3.839   2.547   4.382
    1C        C   94   4.030   2.639   4.502
    1C        C   95   3.905   2.573   4.504
    1C        C   96   4.093   2.676   4.623
    1C        C   97   4.034   2.630   4.743
    1C        C   98   4.197   2.762   4.863
    1C        C   99   4.104   2.654   4.864
    1C        C  100   4.217   2.842   4.977
    1C        C  101   2.826   2.731   2.073
    1C        C  102   2.990   2.588   2.193
    1C        C  103   2.877   2.676   2.192
    1C        C  104   3.063   2.567   2.313
    1C        C  105   2.999   2.609   2.432
    1C        C  106   3.200   2.535   2.555
    1C        C  107   3.066   2.580   2.554
    1C        C  108   3.270   2.516   2.676
    1C        C  109   3.200   2.537   2.798
    1C        C  110   3.411   2.499   2.916
    1C        C  111   3.271   2.516   2.918
    1C        C  112   3.483   2.494   3.037
    1C        C  113   3.414   2.500   3.161
    1C        C  114   3.627   2.503   3.281
    1C        C  115   3.486   2.496   3.283
    1C        C  116   3.696   2.511   3.404
    1C        C  117   3.625   2.503   3.525
    1C        C  118   3.831   2.548   3.648
    1C        C  119   3.694   2.511   3.648
    1C        C  120   3.895   2.578   3.770
    1C        C  121   3.833   2.555   3.894
    1C        C  122   4.024   2.651   4.015
    1C        C  123   3.899   2.586   4.016
    1C        C  124   4.087   2.683   4.137
    1C        C  125   4.027   2.642   4.258
    1C        C  126   4.195   2.771   4.379
    1C        C  127   4.090   2.677   4.380
    1C        C  128   4.248   2.822   4.499
    1C        C  129   4.202   2.766   4.620
    1C        C  130   4.330   2.934   4.741
    1C        C  131   4.247   2.819   4.743
    1C        C  132   4.358   3.006   4.860
    1C        C  133   4.291   2.960   4.974
    1C        C  134   3.177   2.469   2.081
    1C        C  135   3.043   2.511   2.084
    1C        C  136   3.260   2.475   2.193
    1C        C  137   3.195   2.514   2.312
    1C        C  138   3.406   2.488   2.431
    1C        C  139   3.266   2.507   2.434
    1C        C  140   3.482   2.485   2.551
    1C        C  141   3.409   2.495   2.671
    1C        C  142   3.622   2.496   2.793
    1C        C  143   3.481   2.493   2.793
    1C        C  144   3.695   2.509   2.914
    1C        C  145   3.624   2.500   3.035
    1C        C  146   3.831   2.547   3.156
    1C        C  147   3.694   2.511   3.157
    1C        C  148   3.897   2.571   3.279
    1C        C  149   3.833   2.546   3.402
    1C        C  150   4.023   2.636   3.524
    1C        C  151   3.898   2.570   3.526
    1C        C  152   4.082   2.676   3.646
    1C        C  153   4.022   2.639   3.769
    1C        C  154   4.189   2.775   3.889
    1C        C  155   4.080   2.686   3.890
    1C        C  156   4.243   2.820   4.011
    1C        C  157   4.198   2.770   4.136
    1C        C  158   4.341   2.928   4.252
    1C        C  159   4.248   2.822   4.257
    1C        C  160   4.382   2.986   4.374
    1C        C  161   4.339   2.931   4.497
    1C        C  162   4.445   3.113   4.616
    1C        C  163   4.375   2.990   4.620
    1C        C  164   4.475   3.182   4.736
    1C        C  165   4.440   3.120   4.858
    1C        C  166   4.514   3.322   4.974
    1C        C  167   4.474   3.189   4.975
    1C        C  168   3.477   2.437   2.076
    1C        C  169   3.400   2.457   2.192
    1C        C  170   3.618   2.467   2.309
    1C        C  171   3.476   2.467   2.311
    1C        C  172   3.693   2.487   2.427
    1C        C  173   3.623   2.490   2.550
    1C        C  174   3.829   2.543   2.666
    1C        C  175   3.693   2.506   2.671
    1C        C  176   3.894   2.570   2.788
    1C        C  177   3.829   2.553   2.912
    1C        C  178   4.026   2.634   3.033
    1C        C  179   3.897   2.576   3.034
    1C        C  180   4.083   2.671   3.157
    1C        C  181   4.023   2.635   3.279
    1C        C  182   4.197   2.755   3.399
    1C        C  183   4.085   2.668   3.401
    1C        C  184   4.248   2.805   3.521
    1C        C  185   4.194   2.763   3.644
    1C        C  186   4.344   2.916   3.765
    1C        C  187   4.245   2.814   3.765
    1C        C  188   4.388   2.976   3.885
    1C        C  189   4.339   2.923   4.007
    1C        C  190   4.459   3.099   4.128
    1C        C  191   4.384   2.980   4.128
    1C        C  192   4.479   3.170   4.249
    1C        C  193   4.449   3.110   4.373
    1C        C  194   4.505   3.317   4.494
    1C        C  195   4.472   3.179   4.494
    1C        C  196   4.523   3.387   4.615
    1C        C  197   4.515   3.318   4.738
    1C        C  198   4.561   3.535   4.853
    1C        C  199   4.532   3.395   4.856
    1C        C  200   4.582   3.621   4.965
    1C        C  201   3.617   2.426   2.073
    1C        C  202   3.827   2.515   2.183
    1C        C  203   3.692   2.466   2.188
    1C        C  204   3.900   2.543   2.301
    1C        C  205   3.829   2.527   2.422
    1C        C  206   4.021   2.624   2.544
    1C        C  207   3.895   2.561   2.542
    1C        C  208   4.084   2.659   2.665
    1C        C  209   4.022   2.629   2.789
    1C        C  210   4.200   2.749   2.910
    1C        C  211   4.087   2.665   2.910
    1C        C  212   4.253   2.797   3.032
    1C        C  213   4.195   2.757   3.154
    1C        C  214   4.336   2.915   3.274
    1C        C  215   4.246   2.806   3.277
    1C        C  216   4.376   2.972   3.396
    1C        C  217   4.335   2.917   3.520
    1C        C  218   4.445   3.099   3.640
    1C        C  219   4.380   2.973   3.641
    1C        C  220   4.471   3.168   3.760
    1C        C  221   4.450   3.103   3.884
    1C        C  222   4.505   3.306   4.004
    1C        C  223   4.480   3.167   4.006
    1C        C  224   4.515   3.377   4.125
    1C        C  225   4.509   3.308   4.249
    1C        C  226   4.519   3.523   4.368
    1C        C  227   4.520   3.381   4.369
    1C        C  228   4.517   3.597   4.488
    1C        C  229   4.528   3.528   4.611
    1C        C  230   4.501   3.741   4.729
    1C        C  231   4.537   3.604   4.730
    1C        C  232   4.496   3.819   4.846
    1C        C  233   4.546   3.757   4.961
    1C        C  234   4.018   2.612   2.067
    1C        C  235   3.893   2.551   2.065
    1C        C  236   4.087   2.649   2.183
    1C        C  237   4.028   2.605   2.303
    1C        C  238   4.204   2.734   2.422
    1C        C  239   4.087   2.652   2.422
    1C        C  240   4.254   2.784   2.544
    1C        C  241   4.200   2.740   2.667
    1C        C  242   4.342   2.902   2.783
    1C        C  243   4.253   2.793   2.786
    1C        C  244   4.384   2.960   2.905
    1C        C  245   4.345   2.905   3.029
    1C        C  246   4.443   3.095   3.149
    1C        C  247   4.377   2.970   3.150
    1C        C  248   4.469   3.161   3.271
    1C        C  249   4.440   3.098   3.394
    1C        C  250   4.501   3.302   3.514
    1C        C  251   4.462   3.166   3.516
    1C        C  252   4.514   3.373   3.635
    1C        C  253   4.500   3.306   3.759
    1C        C  254   4.527   3.517   3.880
    1C        C  255   4.515   3.376   3.881
    1C        C  256   4.519   3.589   4.001
    1C        C  257   4.520   3.518   4.124
    1C        C  258   4.477   3.727   4.244
    1C        C  259   4.511   3.590   4.245
    1C        C  260   4.461   3.800   4.363
    1C        C  261   4.485   3.734   4.486
    1C        C  262   4.422   3.939   4.605
    1C        C  263   4.470   3.806   4.607
    1C        C  264   4.395   4.008   4.725
    1C        C  265   4.433   3.946   4.846
    1C        C  266   4.320   4.132   4.959
    1C        C  267   4.393   4.014   4.961
    1C        C  268   4.267   2.772   2.063
    1C        C  269   4.202   2.732   2.180
    1C        C  270   4.347   2.890   2.298
    1C        C  271   4.262   2.776   2.300
    1C        C  272   4.387   2.952   2.419
    1C        C  273   4.344   2.893   2.539
    1C        C  274   4.446   3.084   2.659
    1C        C  275   4.380   2.959   2.659
    1C        C  276   4.476   3.150   2.781
    1C        C  277   4.451   3.084   2.903
    1C        C  278   4.507   3.291   3.023
    1C        C  279   4.471   3.155   3.024
    1C        C  280   4.519   3.364   3.144
    1C        C  281   4.502   3.298   3.268
    1C        C  282   4.519   3.509   3.393
    1C        C  283   4.514   3.368   3.390
    1C        C  284   4.516   3.582   3.514
    1C        C  285   4.517   3.514   3.638
    1C        C  286   4.492   3.726   3.755
    1C        C  287   4.523   3.588   3.758
    1C        C  288   4.469   3.795   3.876
    1C        C  289   4.491   3.727   3.999
    1C        C  290   4.420   3.929   4.118
    1C        C  291   4.468   3.796   4.120
    1C        C  292   4.395   3.999   4.238
    1C        C  293   4.418   3.935   4.362
    1C        C  294   4.323   4.127   4.479
    1C        C  295   4.392   4.004   4.483
    1C        C  296   4.284   4.186   4.601
    1C        C  297   4.325   4.132   4.725
    1C        C  298   4.204   4.319   4.838
    1C        C  299   4.284   4.200   4.842
    1C        C  300   4.168   4.405   4.947
    1C        C  301   4.355   2.880   2.062
    1C        C  302   4.479   3.064   2.177
    1C        C  303   4.395   2.948   2.178
    1C        C  304   4.489   3.139   2.298
    1C        C  305   4.452   3.078   2.419
    1C        C  306   4.515   3.286   2.536
    1C        C  307   4.476   3.150   2.538
    1C        C  308   4.525   3.356   2.658
    1C        C  309   4.507   3.287   2.780
    1C        C  310   4.529   3.501   2.903
    1C        C  311   4.522   3.360   2.900
    1C        C  312   4.523   3.573   3.024
    1C        C  313   4.525   3.505   3.148
    1C        C  314   4.483   3.715   3.267
    1C        C  315   4.514   3.577   3.269
    1C        C  316   4.475   3.787   3.388
    1C        C  317   4.497   3.722   3.512
    1C        C  318   4.426   3.925   3.628
    1C        C  319   4.474   3.792   3.632
    1C        C  320   4.390   3.987   3.750
    1C        C  321   4.420   3.928   3.874
    1C        C  322   4.320   4.116   3.990
    1C        C  323   4.389   3.993   3.996
    1C        C  324   4.281   4.174   4.113
    1C        C  325   4.327   4.122   4.236
    1C        C  326   4.187   4.287   4.354
    1C        C  327   4.282   4.182   4.355
    1C        C  328   4.138   4.341   4.475
    1C        C  329   4.190   4.291   4.596
    1C        C  330   4.026   4.434   4.713
    1C        C  331   4.140   4.349   4.715
    1C        C  332   3.973   4.495   4.828
    1C        C  333   4.051   4.482   4.944
    1C        C  334   4.555   3.266   2.066
    1C        C  335   4.533   3.128   2.061
    1C        C  336   4.547   3.350   2.178
    1C        C  337   4.524   3.277   2.297
    1C        C  338   4.530   3.497   2.415
    1C        C  339   4.527   3.356   2.414
    1C        C  340   4.522   3.569   2.536
    1C        C  341   4.531   3.498   2.657
    1C        C  342   4.489   3.706   2.776
    1C        C  343   4.523   3.569   2.779
    1C        C  344   4.472   3.775   2.898
    1C        C  345   4.491   3.711   3.022
    1C        C  346   4.422   3.914   3.139
    1C        C  347   4.467   3.780   3.143
    1C        C  348   4.388   3.978   3.260
    1C        C  349   4.422   3.918   3.383
    1C        C  350   4.317   4.103   3.503
    1C        C  351   4.396   3.986   3.504
    1C        C  352   4.276   4.164   3.623
    1C        C  353   4.318   4.109   3.746
    1C        C  354   4.177   4.270   3.868
    1C        C  355   4.276   4.168   3.867
    1C        C  356   4.124   4.317   3.990
    1C        C  357   4.182   4.275   4.112
    1C        C  358   4.012   4.407   4.230
    1C        C  359   4.130   4.328   4.232
    1C        C  360   3.953   4.449   4.351
    1C        C  361   4.018   4.415   4.472
    1C        C  362   3.829   4.517   4.592
    1C        C  363   3.957   4.457   4.592
    1C        C  364   3.763   4.546   4.714
    1C        C  365   3.840   4.543   4.832
    1C        C  366   3.633   4.586   4.951
    1C        C  367   3.771   4.575   4.950
    1C        C  368   4.504   3.563   2.057
    1C        C  369   4.531   3.490   2.173
    1C        C  370   4.508   3.707   2.289
    1C        C  371   4.525   3.567   2.292
    1C        C  372   4.486   3.777   2.410
    1C        C  373   4.498   3.708   2.533
    1C        C  374   4.425   3.909   2.652
    1C        C  375   4.475   3.776   2.654
    1C        C  376   4.396   3.974   2.774
    1C        C  377   4.429   3.910   2.896
    1C        C  378   4.320   4.096   3.013
    1C        C  379   4.400   3.979   3.015
    1C        C  380   4.272   4.152   3.133
    1C        C  381   4.313   4.097   3.257
    1C        C  382   4.173   4.256   3.380
    1C        C  383   4.271   4.154   3.379
    1C        C  384   4.122   4.309   3.501
    1C        C  385   4.177   4.266   3.623
    1C        C  386   4.006   4.390   3.744
    1C        C  387   4.124   4.313   3.745
    1C        C  388   3.947   4.434   3.865
    1C        C  389   4.007   4.397   3.987
    1C        C  390   3.817   4.492   4.109
    1C        C  391   3.947   4.437   4.108
    1C        C  392   3.752   4.519   4.231
    1C        C  393   3.824   4.507   4.351
    1C        C  394   3.616   4.551   4.476
    1C        C  395   3.756   4.535   4.472
    1C        C  396   3.546   4.560   4.599
    1C        C  397   3.623   4.560   4.717
    1C        C  398   3.411   4.560   4.841
    1C        C  399   3.551   4.573   4.838
    1C        C  400   3.346   4.516   4.957
    1C        C  401   4.501   3.702   2.049
    1C        C  402   4.452   3.912   2.168
    1C        C  403   4.491   3.776   2.167
    1C        C  404   4.415   3.977   2.287
    1C        C  405   4.436   3.909   2.409
    1C        C  406   4.327   4.094   2.529
    1C        C  407   4.399   3.973   2.529
    1C        C  408   4.283   4.154   2.649
    1C        C  409   4.317   4.091   2.771
    1C        C  410   4.174   4.250   2.888
    1C        C  411   4.277   4.153   2.891
    1C        C  412   4.119   4.295   3.010
    1C        C  413   4.171   4.251   3.134
    1C        C  414   4.005   4.382   3.255
    1C        C  415   4.121   4.300   3.256
    1C        C  416   3.943   4.420   3.376
    1C        C  417   4.005   4.388   3.499
    1C        C  418   3.815   4.482   3.618
    1C        C  419   3.943   4.422   3.622
    1C        C  420   3.749   4.505   3.741
    1C        C  421   3.816   4.487   3.864
    1C        C  422   3.611   4.536   3.988
    1C        C  423   3.751   4.515   3.986
    1C        C  424   3.540   4.540   4.110
    1C        C  425   3.612   4.542   4.232
    1C        C  426   3.403   4.553   4.358
    1C        C  427   3.544   4.551   4.355
    1C        C  428   3.332   4.549   4.480
    1C        C  429   3.405   4.557   4.601
    1C        C  430   3.195   4.522   4.725
    1C        C  431   3.333   4.558   4.723
    1C        C  432   3.125   4.500   4.847
    1C        C  433   3.208   4.498   4.959
    1C        C  434   4.386   4.119   2.055
    1C        C  435   4.447   3.993   2.054
    1C        C  436   4.306   4.162   2.166
    1C        C  437   4.342   4.100   2.288
    1C        C  438   4.186   4.252   2.405
    1C        C  439   4.286   4.152   2.407
    1C        C  440   4.131   4.301   2.525
    1C        C  441   4.186   4.257   2.647
    1C        C  442   4.006   4.379   2.766
    1C        C  443   4.122   4.298   2.766
    1C        C  444   3.943   4.412   2.888
    1C        C  445   4.004   4.378   3.010
    1C        C  446   3.814   4.471   3.129
    1C        C  447   3.944   4.415   3.132
    1C        C  448   3.748   4.495   3.252
    1C        C  449   3.814   4.477   3.375
    1C        C  450   3.610   4.535   3.498
    1C        C  451   3.749   4.509   3.496
    1C        C  452   3.540   4.545   3.620
    1C        C  453   3.611   4.535   3.742
    1C        C  454   3.401   4.545   3.866
    1C        C  455   3.542   4.546   3.865
    1C        C  456   3.332   4.531   3.989
    1C        C  457   3.399   4.543   4.112
    1C        C  458   3.196   4.500   4.237
    1C        C  459   3.332   4.536   4.237
    1C        C  460   3.129   4.482   4.360
    1C        C  461   3.196   4.512   4.481
    1C        C  462   3.000   4.435   4.605
    1C        C  463   3.128   4.494   4.604
    1C        C  464   2.936   4.400   4.726
    1C        C  465   2.992   4.447   4.848
    1C        C  466   2.808   4.334   4.960
    1C        C  467   2.907   4.432   4.963
    1C        C  468   4.129   4.291   2.044
    1C        C  469   4.190   4.246   2.162
    1C        C  470   4.012   4.372   2.280
    1C        C  471   4.132   4.295   2.282
    1C        C  472   3.946   4.405   2.400
    1C        C  473   4.008   4.372   2.522
    1C        C  474   3.814   4.464   2.644
    1C        C  475   3.944   4.410   2.642
    1C        C  476   3.746   4.492   2.765
    1C        C  477   3.813   4.468   2.887
    1C        C  478   3.608   4.528   3.008
    1C        C  479   3.745   4.494   3.008
    1C        C  480   3.539   4.535   3.131
    1C        C  481   3.610   4.524   3.253
    1C        C  482   3.398   4.537   3.377
    1C        C  483   3.539   4.534   3.375
    1C        C  484   3.328   4.538   3.500
    1C        C  485   3.399   4.541   3.622
    1C        C  486   3.193   4.497   3.746
    1C        C  487   3.330   4.533   3.744
    1C        C  488   3.128   4.473   3.869
    1C        C  489   3.196   4.495   3.992
    1C        C  490   3.003   4.415   4.115
    1C        C  491   3.127   4.483   4.115
    1C        C  492   2.943   4.381   4.238
    1C        C  493   3.001   4.422   4.361
    1C        C  494   2.831   4.303   4.487
    1C        C  495   2.940   4.394   4.485
    1C        C  496   2.774   4.257   4.607
    1C        C  497   2.822   4.314   4.727
    1C        C  498   2.667   4.163   4.844
    1C        C  499   2.756   4.273   4.845
    1C        C  500   2.601   4.116   4.959
    1C        C  501   4.005   4.354   2.042
    1C        C  502   3.819   4.466   2.157
    1C        C  503   3.945   4.402   2.159
    1C        C  504   3.747   4.481   2.277
    1C        C  505   3.814   4.454   2.399
    1C        C  506   3.609   4.510   2.521
    1C        C  507   3.747   4.479   2.521
    1C        C  508   3.536   4.519   2.642
    1C        C  509   3.607   4.516   2.764
    1C        C  510   3.396   4.530   2.887
    1C        C  511   3.538   4.531   2.886
    1C        C  512   3.326   4.526   3.009
    1C        C  513   3.398   4.533   3.131
    1C        C  514   3.193   4.494   3.256
    1C        C  515   3.329   4.530   3.254
    1C        C  516   3.127   4.473   3.379
    1C        C  517   3.190   4.507   3.501
    1C        C  518   3.000   4.414   3.627
    1C        C  519   3.125   4.481   3.623
    1C        C  520   2.941   4.373   3.748
    1C        C  521   3.002   4.409   3.870
    1C        C  522   2.835   4.283   3.998
    1C        C  523   2.947   4.369   3.994
    1C        C  524   2.788   4.235   4.122
    1C        C  525   2.834   4.292   4.243
    1C        C  526   2.694   4.137   4.364
    1C        C  527   2.783   4.247   4.367
    1C        C  528   2.650   4.080   4.485
    1C        C  529   2.690   4.143   4.605
    1C        C  530   2.584   3.959   4.731
    1C        C  531   2.646   4.087   4.727
    1C        C  532   2.546   3.902   4.855
    1C        C  533   2.525   3.998   4.958
    1C        C  534   3.621   4.558   2.042
    1C        C  535   3.755   4.517   2.043
    1C        C  536   3.538   4.539   2.157
    1C        C  537   3.609   4.517   2.278
    1C        C  538   3.396   4.518   2.401
    1C        C  539   3.537   4.524   2.400
    1C        C  540   3.323   4.511   2.522
    1C        C  541   3.395   4.516   2.643
    1C        C  542   3.186   4.487   2.767
    1C        C  543   3.325   4.515   2.766
    1C        C  544   3.121   4.464   2.891
    1C        C  545   3.189   4.492   3.011
    1C        C  546   3.001   4.400   3.136
    1C        C  547   3.123   4.473   3.135
    1C        C  548   2.946   4.362   3.260
    1C        C  549   3.003   4.405   3.382
    1C        C  550   2.835   4.280   3.505
    1C        C  551   2.943   4.372   3.505
    1C        C  552   2.783   4.231   3.627
    1C        C  553   2.832   4.283   3.749
    1C        C  554   2.698   4.126   3.877
    1C        C  555   2.785   4.237   3.874
    1C        C  556   2.660   4.065   3.999
    1C        C  557   2.700   4.124   4.120
    1C        C  558   2.592   3.947   4.246
    1C        C  559   2.653   4.075   4.244
    1C        C  560   2.565   3.882   4.368
    1C        C  561   2.590   3.953   4.488
    1C        C  562   2.536   3.749   4.616
    1C        C  563   2.563   3.887   4.611
    1C        C  564   2.521   3.681   4.739
    1C        C  565   2.523   3.760   4.858
    1C        C  566   2.529   3.551   4.981
    1C        C  567   2.519   3.689   4.978
    1C        C  568   3.331   4.469   2.044
    1C        C  569   3.398   4.515   2.158
    1C        C  570   3.186   4.486   2.280
    1C        C  571   3.324   4.517   2.279
    1C        C  572   3.118   4.460   2.401
    1C        C  573   3.184   4.486   2.523
    1C        C  574   2.991   4.402   2.648
    1C        C  575   3.117   4.467   2.646
    1C        C  576   2.932   4.365   2.770
    1C        C  577   2.994   4.403   2.891
    1C        C  578   2.829   4.274   3.019
    1C        C  579   2.940   4.361   3.015
    1C        C  580   2.781   4.224   3.142
    1C        C  581   2.837   4.272   3.263
    1C        C  582   2.698   4.112   3.387
    1C        C  583   2.788   4.221   3.385
    1C        C  584   2.658   4.056   3.510
    1C        C  585   2.694   4.122   3.630
    1C        C  586   2.593   3.941   3.756
    1C        C  587   2.656   4.067   3.755
    1C        C  588   2.570   3.874   3.878
    1C        C  589   2.597   3.939   4.000
    1C        C  590   2.538   3.740   4.127
    1C        C  591   2.571   3.877   4.125
    1C        C  592   2.531   3.673   4.251
    1C        C  593   2.536   3.744   4.373
    1C        C  594   2.523   3.535   4.497
    1C        C  595   2.523   3.676   4.496
    1C        C  596   2.528   3.466   4.621
    1C        C  597   2.520   3.539   4.742
    1C        C  598   2.538   3.331   4.865
    1C        C  599   2.527   3.472   4.866
    1C        C  600   2.533   3.250   4.979
    1C        C  601   3.198   4.431   2.048
    1C        C  602   2.983   4.397   2.159
    1C        C  603   3.118   4.445   2.162
    1C        C  604   2.930   4.356   2.284
    1C        C  605   2.993   4.394   2.405
    1C        C  606   2.817   4.277   2.530
    1C        C  607   2.932   4.359   2.527
    1C        C  608   2.768   4.227   2.652
    1C        C  609   2.826   4.271   2.773
    1C        C  610   2.686   4.116   2.897
    1C        C  611   2.777   4.224   2.897
    1C        C  612   2.652   4.056   3.020
    1C        C  613   2.692   4.115   3.143
    1C        C  614   2.590   3.931   3.267
    1C        C  615   2.651   4.059   3.266
    1C        C  616   2.565   3.866   3.390
    1C        C  617   2.589   3.932   3.512
    1C        C  618   2.532   3.733   3.639
    1C        C  619   2.566   3.870   3.636
    1C        C  620   2.519   3.665   3.762
    1C        C  621   2.534   3.737   3.882
    1C        C  622   2.514   3.528   4.008
    1C        C  623   2.522   3.669   4.005
    1C        C  624   2.521   3.458   4.131
    1C        C  625   2.524   3.532   4.252
    1C        C  626   2.544   3.323   4.379
    1C        C  627   2.530   3.464   4.375
    1C        C  628   2.560   3.254   4.501
    1C        C  629   2.547   3.326   4.621
    1C        C  630   2.600   3.123   4.744
    1C        C  631   2.558   3.259   4.745
    1C        C  632   2.624   3.054   4.866
    1C        C  633   2.574   3.117   4.985
    1C        C  634   2.786   4.300   2.049
    1C        C  635   2.897   4.387   2.045
    1C        C  636   2.755   4.229   2.166
    1C        C  637   2.815   4.273   2.286
    1C        C  638   2.677   4.114   2.411
    1C        C  639   2.767   4.224   2.409
    1C        C  640   2.641   4.053   2.533
    1C        C  641   2.682   4.114   2.654
    1C        C  642   2.581   3.929   2.781
    1C        C  643   2.642   4.056   2.777
    1C        C  644   2.566   3.859   2.902
    1C        C  645   2.590   3.929   3.022
    1C        C  646   2.535   3.726   3.149
    1C        C  647   2.566   3.864   3.145
    1C        C  648   2.524   3.657   3.272
    1C        C  649   2.532   3.728   3.393
    1C        C  650   2.516   3.521   3.519
    1C        C  651   2.520   3.662   3.517
    1C        C  652   2.514   3.453   3.643
    1C        C  653   2.512   3.524   3.765
    1C        C  654   2.537   3.314   3.889
    1C        C  655   2.517   3.454   3.888
    1C        C  656   2.555   3.249   4.014
    1C        C  657   2.543   3.319   4.136
    1C        C  658   2.612   3.119   4.258
    1C        C  659   2.565   3.252   4.259
    1C        C  660   2.640   3.057   4.382
    1C        C  661   2.603   3.120   4.503
    1C        C  662   2.710   2.937   4.626
    1C        C  663   2.630   3.054   4.625
    1C        C  664   2.749   2.874   4.746
    1C        C  665   2.697   2.931   4.866
    1C        C  666   2.744   2.870   4.982
    1C        C  667   2.682   4.023   2.056
    1C        C  668   2.684   4.106   2.169
    1C        C  669   2.586   3.918   2.294
    1C        C  670   2.641   4.050   2.291
    1C        C  671   2.561   3.854   2.417
    1C        C  672   2.584   3.924   2.537
    1C        C  673   2.513   3.726   2.662
    1C        C  674   2.552   3.862   2.660
    1C        C  675   2.508   3.653   2.783
    1C        C  676   2.535   3.721   2.903
    1C        C  677   2.506   3.515   3.032
    1C        C  678   2.520   3.655   3.027
    1C        C  679   2.511   3.443   3.154
    1C        C  680   2.511   3.516   3.274
    1C        C  681   2.537   3.308   3.400
    1C        C  682   2.514   3.448   3.398
    1C        C  683   2.559   3.244   3.524
    1C        C  684   2.539   3.314   3.646
    1C        C  685   2.610   3.114   3.773
    1C        C  686   2.557   3.245   3.768
    1C        C  687   2.646   3.054   3.895
    1C        C  688   2.612   3.120   4.015
    1C        C  689   2.717   2.934   4.141
    1C        C  690   2.642   3.053   4.136
    1C        C  691   2.759   2.878   4.263
    1C        C  692   2.709   2.933   4.383
    1C        C  693   2.754   2.878   4.506
    1C        C  694   2.623   3.896   2.061
    1C        C  695   2.530   3.705   2.183
    1C        C  696   2.570   3.840   2.178
    1C        C  697   2.510   3.640   2.307
    1C        C  698   2.519   3.719   2.423
    1C        C  699   2.492   3.507   2.547
    1C        C  700   2.502   3.648   2.544
    1C        C  701   2.504   3.437   2.669
    1C        C  702   2.505   3.512   2.789
    1C        C  703   2.530   3.302   2.911
    1C        C  704   2.511   3.442   2.911
    1C        C  705   2.551   3.234   3.033
    1C        C  706   2.539   3.304   3.155
    1C        C  707   2.606   3.106   3.281
    1C        C  708   2.555   3.238   3.279
    1C        C  709   2.636   3.045   3.404
    1C        C  710   2.613   3.114   3.526
    1C        C  711   2.713   2.931   3.651
    1C        C  712   2.643   3.053   3.650
    1C        C  713   2.759   2.875   3.773
    1C        C  714   2.723   2.936   3.895
    1C        C  715   2.762   2.879   4.019
    1C        C  716   2.453   3.499   2.068
    1C        C  717   2.490   3.634   2.068
    1C        C  718   2.469   3.423   2.188
    1C        C  719   2.487   3.500   2.306
    1C        C  720   2.518   3.292   2.426
    1C        C  721   2.488   3.430   2.429
    1C        C  722   2.544   3.225   2.547
    1C        C  723   2.532   3.298   2.667
    1C        C  724   2.599   3.099   2.789
    1C        C  725   2.546   3.230   2.790
    1C        C  726   2.627   3.037   2.913
    1C        C  727   2.601   3.101   3.036
    1C        C  728   2.710   2.921   3.159
    1C        C  729   2.634   3.040   3.159
    1C        C  730   2.759   2.874   3.283
    1C        C  731   2.717   2.930   3.405
    1C        C  732   2.757   2.874   3.529
    1C        C  733   2.492   3.200   2.073
    1C        C  734   2.491   3.282   2.188
    1C        C  735   2.588   3.086   2.304
    1C        C  736   2.528   3.215   2.308
    1C        C  737   2.615   3.022   2.427
    1C        C  738   2.593   3.092   2.548
    1C        C  739   2.701   2.909   2.673
    1C        C  740   2.629   3.031   2.669
    1C        C  741   2.739   2.850   2.796
    1C        C  742   2.699   2.916   2.915
    1C        C  743   2.747   2.862   3.036
    1C        C  744   2.551   3.074   2.075
    1C        C  745   2.687   2.894   2.188
    1C        C  746   2.615   3.015   2.185
    1C        C  747   2.731   2.840   2.310
    1C        C  748   2.690   2.903   2.430
    1C        C  749   2.738   2.848   2.551
    1C        C  750   2.738   2.838   2.070
    1C        C  751   3.662   2.325   1.974
    1C        O  752   3.711   2.214   2.007
    1C        O  753   3.669   2.339   1.835
    1C        C  754   4.621   3.059   1.964
    1C        O  755   4.586   3.041   1.844
    1C        O  756   4.741   2.994   1.996
    1C        C  757   4.453   4.220   1.969
    1C        O  758   4.560   4.274   2.006
    1C        O  759   4.456   4.208   1.830
    1C        C  760   3.576   4.657   1.941
    1C        O  761   3.636   4.766   1.928
    1C        O  762   3.543   4.612   1.812
    1C        C  763   2.888   4.507   1.960
    1C        O  764   2.896   4.514   1.835
    1C        O  765   2.833   4.628   2.005
    1C        C  766   2.356   3.461   1.964
    1C        O  767   2.388   3.425   1.847
    1C        O  768   2.217   3.474   1.977
    1C        C  769   4.687   3.600   5.068
    1C        O  770   4.670   3.599   5.193
    1C        O  771   4.815   3.643   5.033
    1C        C  772   4.262   4.472   5.040
    1C        O  773   4.277   4.431   5.158
    1C        O  774   4.329   4.590   5.005
    1C        C  775   4.140   2.553   5.095
    1C        O  776   4.190   2.437   5.104
    1C        O  777   4.141   2.628   5.214
    1C        C  778   2.878   4.537   5.063
    1C        O  779   2.821   4.643   5.026
    1C        O  780   2.950   4.546   5.183
    1C        C  781   2.495   3.036   5.081
    1C        O  782   2.390   2.968   5.067
    1C        O  783   2.550   3.018   5.207
    1C        C  784   2.397   4.016   5.030
    1C        O  785   2.283   4.013   4.976
    1C        O  786   2.389   4.009   5.169
    1C        C  787   2.970   2.457   1.967
    1C        O  788   2.963   2.521   1.859
    1C        O  789   2.911   2.331   1.976
    1C        C  790   3.159   2.359   5.039
    1C        O  791   3.150   2.251   4.974
    1C        O  792   3.162   2.346   5.178
    1C        H  793   4.267   3.030   5.051
    1C        H  794   4.230   2.791   5.070
    1C        H  795   4.488   3.137   5.068
    1C        H  796   4.533   3.371   5.068
    1C        H  797   4.592   3.821   5.034
    1C        H  798   4.406   3.967   5.057
    1C        H  799   4.292   4.172   5.055
    1C        H  800   4.006   4.495   5.040
    1C        H  801   3.827   4.629   5.023
    1C        H  802   3.593   4.653   5.025
    1C        H  803   3.404   4.471   5.035
    1C        H  804   3.166   4.480   5.056
    1C        H  805   3.911   2.451   5.048
    1C        H  806   3.672   2.438   5.068
    1C        H  807   3.005   2.562   5.070
    1C        H  808   3.439   2.451   5.074
    1C        H  809   2.830   2.703   5.070
    1C        H  810   2.681   2.873   5.069
    1C        H  811   2.495   3.287   5.072
    1C        H  812   2.587   3.510   5.062
    1C        H  813   2.451   3.729   5.050
    1C        H  814   2.586   4.186   5.038
    1C        H  815   2.799   4.279   5.051
    1C        H  816   2.685   2.844   1.977
    1C        H  817   2.890   2.733   1.988
    1C        H  818   3.221   2.432   1.992
    1C        H  819   3.425   2.409   1.987
    1C        H  820   3.836   2.554   1.974
    1C        H  821   4.067   2.617   1.972
    1C        H  822   4.223   2.752   1.968
    1C        H  823   4.369   2.922   1.964
    1C        H  824   4.608   3.311   1.984
    1C        H  825   4.478   3.506   1.970
    1C        H  826   4.552   3.747   1.967
    1C        H  827   3.799   4.501   1.948
    1C        H  828   3.950   4.355   1.950
    1C        H  829   4.191   4.312   1.960
    1C        H  830   4.525   3.975   1.982
    1C        H  831   2.663   3.827   1.989
    1C        H  832   2.708   4.063   1.961
    1C        H  833   2.705   4.328   1.986
    1C        H  834   3.390   4.408   1.980
    1C        H  835   3.149   4.426   1.953
    1C        H  836   2.533   3.018   1.985
    1C        H  837   2.452   3.236   1.981
    1C        H  838   2.452   3.694   1.988
    2V3OU   H29  839   2.803   3.553   5.955
    2V3OU   C27  840   2.784   3.501   6.052
    2V3OU   H27  841   2.724   3.565   6.122
    2V3OU   H28  842   2.733   3.403   6.034
    2V3OU   O11  843   2.913   3.474   6.108
    2V3OU   C15  844   2.926   3.396   6.221
    2V3OU   C13  845   3.055   3.374   6.274
    2V3OU   C14  846   3.078   3.268   6.362
    2V3OU   C16  847   2.973   3.187   6.402
    2V3OU    H6  848   2.990   3.103   6.471
    2V3OU   C12  849   3.219   3.239   6.400
    2V3OU    O2  850   3.244   3.131   6.457
    2V3OU   C10  851   3.331   3.317   6.345
    2V3OU    C8  852   3.460   3.273   6.370
    2V3OU   O10  853   3.493   3.152   6.424
    2V3OU   H26  854   3.404   3.120   6.447
    2V3OU    C6  855   3.564   3.352   6.312
    2V3OU    C5  856   3.539   3.469   6.242
    2V3OU    C4  857   3.702   3.295   6.311
    2V3OU    H4  858   3.723   3.230   6.401
    2V3OU    H5  859   3.713   3.225   6.223
    2V3OU    C2  860   3.818   3.395   6.304
    2V3OU    O6  861   3.810   3.477   6.421
    2V3OU   H21  862   3.760   3.557   6.397
    2V3OU    C3  863   3.786   3.497   6.194
    2V3OU    H2  864   3.867   3.574   6.191
    2V3OU    H3  865   3.786   3.441   6.097
    2V3OU   C25  866   3.951   3.323   6.287
    2V3OU    O7  867   3.998   3.306   6.174
    2V3OU   C26  868   4.033   3.290   6.411
    2V3OU   H22  869   4.064   3.386   6.460
    2V3OU   H23  870   4.118   3.222   6.385
    2V3OU    O8  871   3.956   3.213   6.500
    2V3OU   H24  872   3.933   3.268   6.577
    2V3OU    C1  873   3.651   3.563   6.210
    2V3OU    H1  874   3.628   3.615   6.112
    2V3OU    O3  875   3.657   3.657   6.317
    2V3OU   C19  876   3.620   3.794   6.295
    2V3OU    H9  877   3.519   3.802   6.245
    2V3OU    O4  878   3.722   3.848   6.213
    2V3OU   C20  879   3.851   3.874   6.267
    2V3OU   H10  880   3.900   3.774   6.285
    2V3OU   C24  881   3.613   3.861   6.432
    2V3OU   H16  882   3.548   3.795   6.495
    2V3OU   H17  883   3.559   3.959   6.424
    2V3OU   C23  884   3.751   3.878   6.496
    2V3OU   H15  885   3.788   3.774   6.525
    2V3OU    N1  886   3.741   3.959   6.616
    2V3OU   H19  887   3.804   3.917   6.682
    2V3OU   H20  888   3.652   3.941   6.659
    2V3OU   C21  889   3.850   3.950   6.400
    2V3OU   H11  890   3.952   3.930   6.445
    2V3OU    O5  891   3.831   4.091   6.400
    2V3OU   H18  892   3.784   4.109   6.483
    2V3OU   C22  893   3.918   3.952   6.154
    2V3OU   H12  894   3.854   4.041   6.131
    2V3OU   H13  895   3.912   3.891   6.061
    2V3OU   H14  896   4.028   3.959   6.171
    2V3OU   C11  897   3.160   3.474   6.251
    2V3OU    O1  898   3.131   3.586   6.204
    2V3OU    C9  899   3.301   3.434   6.271
    2V3OU    C7  900   3.404   3.509   6.216
    2V3OU    O9  901   3.390   3.615   6.128
    2V3OU   H25  902   3.294   3.627   6.120
    2V3OU   C17  903   2.822   3.315   6.273
    2V3OU    H7  904   2.720   3.352   6.273
    2V3OU   C18  905   2.842   3.210   6.361
    2V3OU    H8  906   2.753   3.155   6.395
    3SOL     OW  907   3.537   3.117   4.407
    3SOL    HW1  908   3.449   3.113   4.360
    3SOL    HW2  909   3.552   3.032   4.457
    4SOL     OW  910   0.209   6.378   1.086
    4SOL    HW1  911   0.175   6.288   1.112
    4SOL    HW2  912   0.164   6.407   1.001
    5SOL     OW  913   4.275   2.336   0.700
    5SOL    HW1  914   4.357   2.382   0.734
    5SOL    HW2  915   4.261   2.251   0.751
    6SOL     OW  916   3.921   1.751   2.507
    6SOL    HW1  917   3.958   1.792   2.591
    6SOL    HW2  918   3.894   1.824   2.444
    7SOL     OW  919   2.642   2.392   4.137
    7SOL    HW1  920   2.631   2.473   4.079
    7SOL    HW2  921   2.561   2.334   4.129
    8SOL     OW  922   1.257   2.429   5.262
    8SOL    HW1  923   1.265   2.420   5.361
    8SOL    HW2  924   1.166   2.463   5.239
    9SOL     OW  925   1.672   2.258   6.446
    9SOL    HW1  926   1.712   2.185   6.391
    9SOL    HW2  927   1.630   2.326   6.386
   10SOL     OW  928   5.430   5.557   1.394
   10SOL    HW1  929   5.382   5.488   1.340
   10SOL    HW2  930   5.468   5.515   1.477
   11SOL     OW  931   3.112   2.036   0.393
   11SOL    HW1  932   3.065   1.948   0.388
   11SOL    HW2  933   3.171   2.047   0.313
   12SOL     OW  934   5.079   5.668   2.156
   12SOL    HW1  935   5.007   5.618   2.205
   12SOL    HW2  936   5.074   5.645   2.058
   13SOL     OW  937   5.457   5.981   2.387
   13SOL    HW1  938   5.391   5.928   2.441
   13SOL    HW2  939   5.514   5.918   2.333
   14SOL     OW  940   4.244   6.367   0.490
   14SOL    HW1  941   4.233   6.322   0.401
   14SOL    HW2  942   4.336   6.349   0.525
   15SOL     OW  943   0.522   6.044   6.522
   15SOL    HW1  944   0.525   6.025   6.620
   15SOL    HW2  945   0.610   6.022   6.481
   16SOL     OW  946   2.277   5.759   4.447
   16SOL    HW1  947   2.315   5.695   4.380
   16SOL    HW2  948   2.213   5.821   4.402
   17SOL     OW  949   6.914   1.566   4.222
   17SOL    HW1  950   6.921   1.561   4.122
   17SOL    HW2  951   7.003   1.590   4.261
   18SOL     OW  952   2.950   0.772   5.314
   18SOL    HW1  953   2.872   0.832   5.296
   18SOL    HW2  954   3.026   0.798   5.255
   19SOL     OW  955   2.907   6.109   2.888
   19SOL    HW1  956   2.874   6.146   2.802
   19SOL    HW2  957   2.835   6.114   2.957
   20SOL     OW  958   6.868   2.043   5.659
   20SOL    HW1  959   6.930   2.081   5.591
   20SOL    HW2  960   6.790   2.000   5.613
   21SOL     OW  961   2.099   3.871   2.038
   21SOL    HW1  962   2.019   3.885   1.980
   21SOL    HW2  963   2.164   3.945   2.023
   22SOL     OW  964   0.789   1.102   6.995
   22SOL    HW1  965   0.838   1.185   7.023
   22SOL    HW2  966   0.697   1.103   0.008
   23SOL     OW  967   6.776   5.321   0.186
   23SOL    HW1  968   6.718   5.331   0.105
   23SOL    HW2  969   6.719   5.316   0.268
   24SOL     OW  970   5.094   1.458   0.318
   24SOL    HW1  971   5.150   1.457   0.401
   24SOL    HW2  972   5.151   1.439   0.239
   25SOL     OW  973   1.326   1.090   4.773
   25SOL    HW1  974   1.397   1.153   4.741
   25SOL    HW2  975   1.276   1.053   4.695
   26SOL     OW  976   1.935   0.526   6.368
   26SOL    HW1  977   1.844   0.565   6.383
   26SOL    HW2  978   1.982   0.515   6.456
   27SOL     OW  979   0.191   0.034   2.392
   27SOL    HW1  980   0.255   0.035   2.469
   27SOL    HW2  981   0.099   0.013   2.425
   28SOL     OW  982   1.669   0.763   5.494
   28SOL    HW1  983   1.616   0.719   5.566
   28SOL    HW2  984   1.748   0.705   5.472
   29SOL     OW  985   5.720   1.115   1.509
   29SOL    HW1  986   5.640   1.056   1.516
   29SOL    HW2  987   5.700   1.191   1.446
   30SOL     OW  988   4.819   0.345   5.060
   30SOL    HW1  989   4.792   0.248   5.057
   30SOL    HW2  990   4.737   0.402   5.061
   31SOL     OW  991   6.512   4.639   4.388
   31SOL    HW1  992   6.420   4.652   4.351
   31SOL    HW2  993   6.562   4.726   4.384
   32SOL     OW  994   2.645   1.324   1.262
   32SOL    HW1  995   2.713   1.264   1.304
   32SOL    HW2  996   2.577   1.269   1.214
   33SOL     OW  997   1.731   5.212   5.812
   33SOL    HW1  998   1.773   5.302   5.818
   33SOL    HW2  999   1.775   5.160   5.739
   34SOL     OW 1000   1.731   6.056   5.418
   34SOL    HW1 1001   1.703   6.150   5.435
   34SOL    HW2 1002   1.679   5.995   5.478
   35SOL     OW 1003   1.625   3.294   4.593
   35SOL    HW1 1004   1.704   3.347   4.561
   35SOL    HW2 1005   1.634   3.275   4.691
   36SOL     OW 1006   5.757   1.285   4.039
   36SOL    HW1 1007   5.706   1.314   3.958
   36SOL    HW2 1008   5.826   1.355   4.062
   37SOL     OW 1009   1.641   6.621   4.215
   37SOL    HW1 1010   1.544   6.644   4.206
   37SOL    HW2 1011   1.656   6.525   4.193
   38SOL     OW 1012   0.985   3.925   2.115
   38SOL    HW1 1013   0.987   3.848   2.052
   38SOL    HW2 1014   1.077   3.961   2.128
   39SOL     OW 1015   6.281   5.006   1.209
   39SOL    HW1 1016   6.352   5.074   1.189
   39SOL    HW2 1017   6.227   5.037   1.287
   40SOL     OW 1018   3.775   0.897   6.561
   40SOL    HW1 1019   3.730   0.809   6.551
   40SOL    HW2 1020   3.854   0.902   6.500
   41SOL     OW 1021   5.088   4.040   2.001
   41SOL    HW1 1022   5.082   4.028   1.901
   41SOL    HW2 1023   4.997   4.053   2.038
   42SOL     OW 1024   2.774   3.933   6.585
   42SOL    HW1 1025   2.683   3.963   6.557
   42SOL    HW2 1026   2.788   3.838   6.558
   43SOL     OW 1027   5.191   6.802   5.003
   43SOL    HW1 1028   5.197   6.842   4.911
   43SOL    HW2 1029   5.279   6.763   5.028
   44SOL     OW 1030   6.166   0.968   6.249
   44SOL    HW1 1031   6.108   0.925   6.317
   44SOL    HW2 1032   6.137   1.063   6.235
   45SOL     OW 1033   3.073   4.351   5.688
   45SOL    HW1 1034   2.975   4.351   5.669
   45SOL    HW2 1035   3.124   4.371   5.605
   46SOL     OW 1036   0.960   4.754   4.543
   46SOL    HW1 1037   1.057   4.731   4.531
   46SOL    HW2 1038   0.915   4.756   4.454
   47SOL     OW 1039   6.282   4.113   0.038
   47SOL    HW1 1040   6.213   4.127   0.108
   47SOL    HW2 1041   6.320   4.201   0.010
   48SOL     OW 1042   0.343   4.247   0.178
   48SOL    HW1 1043   0.297   4.172   0.130
   48SOL    HW2 1044   0.306   4.335   0.147
   49SOL     OW 1045   3.032   2.517   6.495
   49SOL    HW1 1046   3.091   2.486   6.421
   49SOL    HW2 1047   3.050   2.613   6.515
   50SOL     OW 1048   5.311   2.133   0.410
   50SOL    HW1 1049   5.240   2.062   0.412
   50SOL    HW2 1050   5.268   2.223   0.407
   51SOL     OW 1051   0.749   6.408   2.159
   51SOL    HW1 1052   0.724   6.504   2.174
   51SOL    HW2 1053   0.837   6.390   2.203
   52SOL     OW 1054   5.409   1.670   2.430
   52SOL    HW1 1055   5.433   1.617   2.511
   52SOL    HW2 1056   5.310   1.679   2.425
   53SOL     OW 1057   4.401   0.647   0.819
   53SOL    HW1 1058   4.412   0.747   0.825
   53SOL    HW2 1059   4.322   0.619   0.873
   54SOL     OW 1060   6.207   0.190   6.652
   54SOL    HW1 1061   6.186   0.264   6.716
   54SOL    HW2 1062   6.224   0.228   6.561
   55SOL     OW 1063   1.864   3.769   5.788
   55SOL    HW1 1064   1.830   3.833   5.718
   55SOL    HW2 1065   1.846   3.806   5.879
   56SOL     OW 1066   0.705   2.388   6.692
   56SOL    HW1 1067   0.643   2.451   6.739
   56SOL    HW2 1068   0.799   2.420   6.702
   57SOL     OW 1069   3.915   5.809   1.597
   57SOL    HW1 1070   4.001   5.860   1.606
   57SOL    HW2 1071   3.841   5.859   1.642
   58SOL     OW 1072   0.900   0.498   6.914
   58SOL    HW1 1073   0.974   0.520   6.851
   58SOL    HW2 1074   0.935   0.495   7.007
   59SOL     OW 1075   4.125   3.011   6.926
   59SOL    HW1 1076   4.032   3.040   6.907
   59SOL    HW2 1077   4.131   2.912   6.921
   60SOL     OW 1078   6.890   3.265   2.592
   60SOL    HW1 1079   6.960   3.231   2.528
   60SOL    HW2 1080   6.802   3.267   2.546
   61SOL     OW 1081   1.649   5.848   2.974
   61SOL    HW1 1082   1.612   5.759   2.945
   61SOL    HW2 1083   1.646   5.912   2.897
   62SOL     OW 1084   5.352   2.622   3.000
   62SOL    HW1 1085   5.371   2.605   2.903
   62SOL    HW2 1086   5.395   2.551   3.056
   63SOL     OW 1087   3.685   0.398   6.288
   63SOL    HW1 1088   3.784   0.385   6.301
   63SOL    HW2 1089   3.664   0.397   6.190
   64SOL     OW 1090   1.761   2.105   6.657
   64SOL    HW1 1091   1.712   2.147   6.581
   64SOL    HW2 1092   1.755   2.006   6.649
   65SOL     OW 1093   1.183   5.021   5.363
   65SOL    HW1 1094   1.277   5.028   5.396
   65SOL    HW2 1095   1.178   5.057   5.270
   66SOL     OW 1096   4.584   1.211   1.310
   66SOL    HW1 1097   4.537   1.263   1.239
   66SOL    HW2 1098   4.675   1.249   1.325
   67SOL     OW 1099   0.271   3.551   1.089
   67SOL    HW1 1100   0.325   3.632   1.064
   67SOL    HW2 1101   0.333   3.473   1.101
   68SOL     OW 1102   0.533   0.979   6.113
   68SOL    HW1 1103   0.540   1.076   6.136
   68SOL    HW2 1104   0.522   0.926   6.197
   69SOL     OW 1105   1.397   6.768   6.616
   69SOL    HW1 1106   1.489   6.793   6.645
   69SOL    HW2 1107   1.369   6.828   6.541
   70SOL     OW 1108   5.022   4.390   2.970
   70SOL    HW1 1109   5.079   4.415   2.891
   70SOL    HW2 1110   4.930   4.367   2.940
   71SOL     OW 1111   4.662   2.062   5.284
   71SOL    HW1 1112   4.679   1.982   5.227
   71SOL    HW2 1113   4.706   2.142   5.243
   72SOL     OW 1114   6.996   1.305   2.257
   72SOL    HW1 1115   6.945   1.304   2.343
   72SOL    HW2 1116   6.944   1.255   2.187
   73SOL     OW 1117   2.485   0.862   1.326
   73SOL    HW1 1118   2.477   0.955   1.362
   73SOL    HW2 1119   2.577   0.846   1.292
   74SOL     OW 1120   2.649   1.054   0.165
   74SOL    HW1 1121   2.589   1.081   0.240
   74SOL    HW2 1122   2.597   1.055   0.079
   75SOL     OW 1123   2.630   2.793   1.315
   75SOL    HW1 1124   2.623   2.874   1.257
   75SOL    HW2 1125   2.687   2.724   1.270
   76SOL     OW 1126   3.855   5.400   6.371
   76SOL    HW1 1127   3.932   5.436   6.423
   76SOL    HW2 1128   3.790   5.357   6.434
   77SOL     OW 1129   6.819   5.177   4.697
   77SOL    HW1 1130   6.809   5.082   4.669
   77SOL    HW2 1131   6.737   5.207   4.746
   78SOL     OW 1132   5.416   1.464   1.523
   78SOL    HW1 1133   5.434   1.498   1.615
   78SOL    HW2 1134   5.502   1.444   1.477
   79SOL     OW 1135   1.182   4.192   4.385
   79SOL    HW1 1136   1.162   4.277   4.435
   79SOL    HW2 1137   1.280   4.176   4.386
   80SOL     OW 1138   3.616   2.141   5.469
   80SOL    HW1 1139   3.535   2.197   5.453
   80SOL    HW2 1140   3.695   2.183   5.425
   81SOL     OW 1141   3.566   5.051   2.641
   81SOL    HW1 1142   3.530   5.135   2.681
   81SOL    HW2 1143   3.495   5.007   2.586
   82SOL     OW 1144   3.169   0.426   1.887
   82SOL    HW1 1145   3.265   0.398   1.886
   82SOL    HW2 1146   3.135   0.422   1.981
   83SOL     OW 1147   5.367   1.156   4.171
   83SOL    HW1 1148   5.346   1.113   4.083
   83SOL    HW2 1149   5.281   1.187   4.214
   84SOL     OW 1150   6.244   2.561   2.792
   84SOL    HW1 1151   6.190   2.521   2.718
   84SOL    HW2 1152   6.292   2.642   2.759
   85SOL     OW 1153   2.087   5.575   3.566
   85SOL    HW1 1154   2.105   5.505   3.634
   85SOL    HW2 1155   2.172   5.623   3.543
   86SOL     OW 1156   4.765   0.741   0.445
   86SOL    HW1 1157   4.763   0.777   0.538
   86SOL    HW2 1158   4.846   0.776   0.397
   87SOL     OW 1159   2.955   3.127   6.855
   87SOL    HW1 1160   2.894   3.179   6.915
   87SOL    HW2 1161   3.048   3.128   6.892
   88SOL     OW 1162   1.621   2.628   1.403
   88SOL    HW1 1163   1.645   2.682   1.484
   88SOL    HW2 1164   1.700   2.620   1.343
   89SOL     OW 1165   3.036   4.082   4.969
   89SOL    HW1 1166   2.966   4.153   4.970
   89SOL    HW2 1167   3.006   4.005   5.026
   90SOL     OW 1168   6.597   4.239   1.881
   90SOL    HW1 1169   6.668   4.169   1.872
   90SOL    HW2 1170   6.574   4.275   1.791
   91SOL     OW 1171   4.403   6.110   1.310
   91SOL    HW1 1172   4.440   6.029   1.354
   91SOL    HW2 1173   4.304   6.101   1.302
   92SOL     OW 1174   5.694   4.965   0.263
   92SOL    HW1 1175   5.734   4.992   0.351
   92SOL    HW2 1176   5.677   4.866   0.263
   93SOL     OW 1177   3.185   4.017   1.764
   93SOL    HW1 1178   3.160   3.921   1.747
   93SOL    HW2 1179   3.216   4.026   1.859
   94SOL     OW 1180   3.136   1.460   4.187
   94SOL    HW1 1181   3.078   1.528   4.143
   94SOL    HW2 1182   3.099   1.368   4.169
   95SOL     OW 1183   0.418   6.435   3.990
   95SOL    HW1 1184   0.359   6.377   4.046
   95SOL    HW2 1185   0.370   6.461   3.906
   96SOL     OW 1186   0.191   6.041   6.888
   96SOL    HW1 1187   0.289   6.062   6.891
   96SOL    HW2 1188   0.178   5.944   6.869
   97SOL     OW 1189   3.670   4.779   5.239
   97SOL    HW1 1190   3.584   4.751   5.280
   97SOL    HW2 1191   3.700   4.866   5.279
   98SOL     OW 1192   0.939   3.115   4.806
   98SOL    HW1 1193   0.847   3.141   4.779
   98SOL    HW2 1194   0.998   3.115   4.725
   99SOL     OW 1195   4.360   4.808   4.874
   99SOL    HW1 1196   4.330   4.729   4.926
   99SOL    HW2 1197   4.298   4.884   4.889
  100SOL     OW 1198   1.449   0.755   5.322
  100SOL    HW1 1199   1.483   0.741   5.229
  100SOL    HW2 1200   1.515   0.718   5.387
  101SOL     OW 1201   5.250   3.086   2.674
  101SOL    HW1 1202   5.291   3.088   2.765
  101SOL    HW2 1203   5.295   3.016   2.619
  102SOL     OW 1204   3.687   0.201   0.033
  102SOL    HW1 1205   3.667   0.231   6.966
  102SOL    HW2 1206   3.784   0.213   0.052
  103SOL     OW 1207   1.259   2.200   1.548
  103SOL    HW1 1208   1.358   2.203   1.557
  103SOL    HW2 1209   1.225   2.113   1.586
  104SOL     OW 1210   0.188   4.847   1.633
  104SOL    HW1 1211   0.157   4.781   1.701
  104SOL    HW2 1212   0.215   4.799   1.549
  105SOL     OW 1213   6.677   0.887   5.301
  105SOL    HW1 1214   6.722   0.956   5.245
  105SOL    HW2 1215   6.709   0.796   5.274
  106SOL     OW 1216   4.357   3.091   1.708
  106SOL    HW1 1217   4.338   3.187   1.727
  106SOL    HW2 1218   4.444   3.065   1.749
  107SOL     OW 1219   4.563   6.760   2.442
  107SOL    HW1 1220   4.470   6.796   2.458
  107SOL    HW2 1221   4.563   6.661   2.455
  108SOL     OW 1222   3.607   1.290   4.612
  108SOL    HW1 1223   3.680   1.291   4.543
  108SOL    HW2 1224   3.619   1.366   4.675
  109SOL     OW 1225   2.033   1.301   5.354
  109SOL    HW1 1226   2.050   1.316   5.451
  109SOL    HW2 1227   2.107   1.342   5.300
  110SOL     OW 1228   4.184   4.702   5.447
  110SOL    HW1 1229   4.163   4.611   5.412
  110SOL    HW2 1230   4.120   4.725   5.520
  111SOL     OW 1231   5.996   3.264   1.812
  111SOL    HW1 1232   5.985   3.323   1.732
  111SOL    HW2 1233   6.033   3.317   1.888
  112SOL     OW 1234   4.650   6.834   4.997
  112SOL    HW1 1235   4.550   6.828   4.992
  112SOL    HW2 1236   4.683   6.773   5.070
  113SOL     OW 1237   0.770   5.079   2.495
  113SOL    HW1 1238   0.777   5.050   2.399
  113SOL    HW2 1239   0.705   5.156   2.501
  114SOL     OW 1240   0.204   1.994   2.203
  114SOL    HW1 1241   0.184   1.958   2.294
  114SOL    HW2 1242   0.217   2.093   2.208
  115SOL     OW 1243   4.065   1.086   3.018
  115SOL    HW1 1244   4.078   1.081   3.117
  115SOL    HW2 1245   4.154   1.087   2.973
  116SOL     OW 1246   6.235   5.793   0.845
  116SOL    HW1 1247   6.317   5.758   0.800
  116SOL    HW2 1248   6.216   5.886   0.812
  117SOL     OW 1249   2.634   1.738   0.226
  117SOL    HW1 1250   2.696   1.815   0.206
  117SOL    HW2 1251   2.591   1.754   0.315
  118SOL     OW 1252   0.019   2.407   2.364
  118SOL    HW1 1253   7.018   2.432   2.457
  118SOL    HW2 1254   0.012   2.487   2.304
  119SOL     OW 1255   6.101   6.267   4.900
  119SOL    HW1 1256   6.190   6.245   4.939
  119SOL    HW2 1257   6.055   6.334   4.957
  120SOL     OW 1258   4.193   1.517   4.842
  120SOL    HW1 1259   4.162   1.609   4.867
  120SOL    HW2 1260   4.145   1.450   4.899
  121SOL     OW 1261   0.185   5.543   6.080
  121SOL    HW1 1262   0.264   5.490   6.051
  121SOL    HW2 1263   0.211   5.638   6.092
  122SOL     OW 1264   0.013   4.937   5.785
  122SOL    HW1 1265   7.006   4.897   5.700
  122SOL    HW2 1266   6.963   4.946   5.849
  123SOL     OW 1267   0.633   2.837   1.127
  123SOL    HW1 1268   0.648   2.747   1.169
  123SOL    HW2 1269   0.711   2.860   1.068
  124SOL     OW 1270   2.111   3.471   6.756
  124SOL    HW1 1271   2.185   3.531   6.726
  124SOL    HW2 1272   2.106   3.391   6.696
  125SOL     OW 1273   4.360   2.107   0.485
  125SOL    HW1 1274   4.416   2.024   0.496
  125SOL    HW2 1275   4.341   2.146   0.575
  126SOL     OW 1276   3.936   3.687   4.828
  126SOL    HW1 1277   3.873   3.670   4.752
  126SOL    HW2 1278   4.020   3.636   4.813
  127SOL     OW 1279   6.942   5.077   6.215
  127SOL    HW1 1280   6.909   5.154   6.160
  127SOL    HW2 1281   6.865   5.017   6.239
  128SOL     OW 1282   4.509   4.426   6.021
  128SOL    HW1 1283   4.461   4.483   6.087
  128SOL    HW2 1284   4.555   4.352   6.069
  129SOL     OW 1285   1.003   4.766   1.410
  129SOL    HW1 1286   0.979   4.818   1.328
  129SOL    HW2 1287   0.953   4.680   1.410
  130SOL     OW 1288   6.078   3.875   4.745
  130SOL    HW1 1289   6.087   3.858   4.843
  130SOL    HW2 1290   6.089   3.789   4.695
  131SOL     OW 1291   1.314   3.546   3.025
  131SOL    HW1 1292   1.389   3.585   3.078
  131SOL    HW2 1293   1.341   3.537   2.929
  132SOL     OW 1294   4.541   2.756   1.261
  132SOL    HW1 1295   4.517   2.847   1.227
  132SOL    HW2 1296   4.459   2.711   1.296
  133SOL     OW 1297   4.284   4.525   6.211
  133SOL    HW1 1298   4.349   4.451   6.230
  133SOL    HW2 1299   4.260   4.571   6.297
  134SOL     OW 1300   6.826   2.100   0.434
  134SOL    HW1 1301   6.762   2.028   0.409
  134SOL    HW2 1302   6.777   2.187   0.440
  135SOL     OW 1303   4.466   4.599   3.728
  135SOL    HW1 1304   4.441   4.564   3.818
  135SOL    HW2 1305   4.382   4.619   3.677
  136SOL     OW 1306   4.035   6.786   6.480
  136SOL    HW1 1307   3.963   6.751   6.539
  136SOL    HW2 1308   4.113   6.724   6.482
  137SOL     OW 1309   1.973   4.290   6.855
  137SOL    HW1 1310   2.057   4.236   6.863
  137SOL    HW2 1311   1.934   4.277   6.764
  138SOL     OW 1312   0.934   6.001   0.184
  138SOL    HW1 1313   0.849   5.948   0.183
  138SOL    HW2 1314   0.920   6.085   0.237
  139SOL     OW 1315   0.587   1.061   0.951
  139SOL    HW1 1316   0.517   1.012   1.004
  139SOL    HW2 1317   0.671   1.067   1.005
  140SOL     OW 1318   3.748   0.198   1.638
  140SOL    HW1 1319   3.823   0.170   1.698
  140SOL    HW2 1320   3.777   0.278   1.584
  141SOL     OW 1321   0.990   1.309   6.776
  141SOL    HW1 1322   0.899   1.311   6.733
  141SOL    HW2 1323   0.980   1.288   6.873
  142SOL     OW 1324   1.938   3.795   6.714
  142SOL    HW1 1325   1.929   3.696   6.715
  142SOL    HW2 1326   1.848   3.837   6.726
  143SOL     OW 1327   5.058   5.903   1.798
  143SOL    HW1 1328   5.123   5.879   1.726
  143SOL    HW2 1329   4.966   5.909   1.760
  144SOL     OW 1330   3.016   5.598   3.084
  144SOL    HW1 1331   2.970   5.549   3.157
  144SOL    HW2 1332   3.076   5.668   3.122
  145SOL     OW 1333   0.394   5.451   3.258
  145SOL    HW1 1334   0.493   5.464   3.257
  145SOL    HW2 1335   0.359   5.462   3.351
  146SOL     OW 1336   6.882   1.006   5.747
  146SOL    HW1 1337   6.863   1.079   5.813
  146SOL    HW2 1338   6.971   1.022   5.704
  147SOL     OW 1339   5.946   0.790   4.979
  147SOL    HW1 1340   6.025   0.834   4.936
  147SOL    HW2 1341   5.917   0.844   5.058
  148SOL     OW 1342   2.123   6.347   1.822
  148SOL    HW1 1343   2.025   6.331   1.815
  148SOL    HW2 1344   2.171   6.288   1.756
  149SOL     OW 1345   1.677   2.948   4.768
  149SOL    HW1 1346   1.728   2.862   4.778
  149SOL    HW2 1347   1.629   2.969   4.853
  150SOL     OW 1348   4.861   2.744   5.784
  150SOL    HW1 1349   4.856   2.718   5.688
  150SOL    HW2 1350   4.803   2.824   5.800
  151SOL     OW 1351   6.318   2.749   1.372
  151SOL    HW1 1352   6.323   2.755   1.472
  151SOL    HW2 1353   6.346   2.836   1.332
  152SOL     OW 1354   0.013   2.916   0.294
  152SOL    HW1 1355   0.068   2.968   0.359
  152SOL    HW2 1356   0.072   2.877   0.223
  153SOL     OW 1357   1.524   2.025   3.831
  153SOL    HW1 1358   1.585   2.100   3.807
  153SOL    HW2 1359   1.473   1.996   3.750
  154SOL     OW 1360   6.908   1.216   3.782
  154SOL    HW1 1361   6.944   1.269   3.859
  154SOL    HW2 1362   6.911   1.271   3.699
  155SOL     OW 1363   5.517   4.674   3.597
  155SOL    HW1 1364   5.586   4.611   3.561
  155SOL    HW2 1365   5.549   4.711   3.684
  156SOL     OW 1366   4.544   0.432   1.752
  156SOL    HW1 1367   4.586   0.354   1.798
  156SOL    HW2 1368   4.460   0.457   1.799
  157SOL     OW 1369   5.256   6.964   1.390
  157SOL    HW1 1370   5.205   6.986   1.307
  157SOL    HW2 1371   5.195   6.967   1.469
  158SOL     OW 1372   0.877   3.474   3.944
  158SOL    HW1 1373   0.940   3.399   3.966
  158SOL    HW2 1374   0.819   3.492   4.023
  159SOL     OW 1375   6.543   5.063   6.677
  159SOL    HW1 1376   6.591   5.142   6.642
  159SOL    HW2 1377   6.557   5.057   6.776
  160SOL     OW 1378   4.122   0.424   1.279
  160SOL    HW1 1379   4.052   0.481   1.236
  160SOL    HW2 1380   4.209   0.438   1.233
  161SOL     OW 1381   6.956   6.917   0.579
  161SOL    HW1 1382   6.893   6.845   0.610
  161SOL    HW2 1383   6.904   6.991   0.536
  162SOL     OW 1384   4.457   6.945   5.632
  162SOL    HW1 1385   4.459   7.007   5.553
  162SOL    HW2 1386   4.454   6.850   5.599
  163SOL     OW 1387   0.918   3.820   2.547
  163SOL    HW1 1388   0.934   3.871   2.632
  163SOL    HW2 1389   0.926   3.883   2.469
  164SOL     OW 1390   2.050   2.084   2.158
  164SOL    HW1 1391   2.132   2.135   2.133
  164SOL    HW2 1392   2.066   2.037   2.245
  165SOL     OW 1393   0.610   6.080   4.428
  165SOL    HW1 1394   0.658   5.995   4.405
  165SOL    HW2 1395   0.601   6.136   4.346
  166SOL     OW 1396   0.575   4.823   3.784
  166SOL    HW1 1397   0.655   4.830   3.843
  166SOL    HW2 1398   0.528   4.735   3.801
  167SOL     OW 1399   0.897   1.259   3.084
  167SOL    HW1 1400   0.827   1.330   3.095
  167SOL    HW2 1401   0.951   1.278   3.002
  168SOL     OW 1402   3.165   3.506   3.048
  168SOL    HW1 1403   3.211   3.589   3.077
  168SOL    HW2 1404   3.078   3.498   3.097
  169SOL     OW 1405   5.445   2.442   6.964
  169SOL    HW1 1406   5.378   2.380   7.005
  169SOL    HW2 1407   5.399   2.501   6.897
  170SOL     OW 1408   6.595   5.326   2.013
  170SOL    HW1 1409   6.584   5.388   1.935
  170SOL    HW2 1410   6.511   5.273   2.025
  171SOL     OW 1411   2.888   2.370   0.744
  171SOL    HW1 1412   2.960   2.393   0.811
  171SOL    HW2 1413   2.902   2.278   0.710
  172SOL     OW 1414   1.575   1.275   0.170
  172SOL    HW1 1415   1.648   1.296   0.106
  172SOL    HW2 1416   1.578   1.178   0.195
  173SOL     OW 1417   5.733   0.596   4.999
  173SOL    HW1 1418   5.728   0.513   5.054
  173SOL    HW2 1419   5.825   0.636   5.007
  174SOL     OW 1420   6.305   4.059   5.311
  174SOL    HW1 1421   6.369   4.096   5.379
  174SOL    HW2 1422   6.310   3.959   5.312
  175SOL     OW 1423   0.468   6.497   2.719
  175SOL    HW1 1424   0.473   6.508   2.619
  175SOL    HW2 1425   0.479   6.586   2.763
  176SOL     OW 1426   6.844   3.883   0.876
  176SOL    HW1 1427   6.822   3.945   0.801
  176SOL    HW2 1428   6.931   3.837   0.857
  177SOL     OW 1429   6.732   2.596   3.531
  177SOL    HW1 1430   6.682   2.602   3.445
  177SOL    HW2 1431   6.681   2.642   3.604
  178SOL     OW 1432   2.141   5.877   4.747
  178SOL    HW1 1433   2.136   5.970   4.784
  178SOL    HW2 1434   2.219   5.871   4.684
  179SOL     OW 1435   3.665   4.121   2.141
  179SOL    HW1 1436   3.649   4.219   2.155
  179SOL    HW2 1437   3.611   4.069   2.206
  180SOL     OW 1438   4.806   1.526   6.747
  180SOL    HW1 1439   4.711   1.526   6.718
  180SOL    HW2 1440   4.863   1.488   6.673
  181SOL     OW 1441   3.802   0.333   5.407
  181SOL    HW1 1442   3.871   0.361   5.473
  181SOL    HW2 1443   3.715   0.315   5.454
  182SOL     OW 1444   2.988   3.183   5.680
  182SOL    HW1 1445   3.034   3.177   5.592
  182SOL    HW2 1446   3.047   3.148   5.752
  183SOL     OW 1447   2.998   1.288   3.332
  183SOL    HW1 1448   3.040   1.356   3.391
  183SOL    HW2 1449   2.972   1.208   3.386
  184SOL     OW 1450   4.684   5.527   3.323
  184SOL    HW1 1451   4.761   5.476   3.360
  184SOL    HW2 1452   4.603   5.468   3.320
  185SOL     OW 1453   0.015   6.733   4.896
  185SOL    HW1 1454   0.046   6.753   4.988
  185SOL    HW2 1455   0.092   6.701   4.841
  186SOL     OW 1456   2.643   6.001   5.827
  186SOL    HW1 1457   2.709   6.013   5.753
  186SOL    HW2 1458   2.638   6.085   5.882
  187SOL     OW 1459   3.744   5.606   0.967
  187SOL    HW1 1460   3.716   5.569   0.879
  187SOL    HW2 1461   3.742   5.706   0.963
  188SOL     OW 1462   1.572   3.785   3.267
  188SOL    HW1 1463   1.621   3.720   3.325
  188SOL    HW2 1464   1.605   3.777   3.173
  189SOL     OW 1465   5.311   4.398   6.028
  189SOL    HW1 1466   5.308   4.417   6.126
  189SOL    HW2 1467   5.406   4.380   6.001
  190SOL     OW 1468   5.735   6.654   0.685
  190SOL    HW1 1469   5.716   6.713   0.607
  190SOL    HW2 1470   5.759   6.710   0.764
  191SOL     OW 1471   1.965   2.454   5.354
  191SOL    HW1 1472   1.950   2.401   5.437
  191SOL    HW2 1473   2.039   2.519   5.369
  192SOL     OW 1474   0.220   6.631   1.403
  192SOL    HW1 1475   0.245   6.652   1.498
  192SOL    HW2 1476   0.286   6.674   1.341
  193SOL     OW 1477   3.055   0.722   1.590
  193SOL    HW1 1478   3.118   0.650   1.563
  193SOL    HW2 1479   2.990   0.687   1.658
  194SOL     OW 1480   4.175   6.010   3.434
  194SOL    HW1 1481   4.267   5.989   3.466
  194SOL    HW2 1482   4.173   6.103   3.397
  195SOL     OW 1483   2.858   0.761   1.062
  195SOL    HW1 1484   2.905   0.832   1.010
  195SOL    HW2 1485   2.823   0.692   0.998
  196SOL     OW 1486   4.360   2.605   1.446
  196SOL    HW1 1487   4.298   2.560   1.510
  196SOL    HW2 1488   4.394   2.538   1.380
  197SOL     OW 1489   1.777   6.241   0.810
  197SOL    HW1 1490   1.742   6.267   0.719
  197SOL    HW2 1491   1.823   6.153   0.804
  198SOL     OW 1492   5.339   6.618   6.299
  198SOL    HW1 1493   5.336   6.554   6.376
  198SOL    HW2 1494   5.298   6.575   6.219
  199SOL     OW 1495   2.154   0.696   3.237
  199SOL    HW1 1496   2.109   0.642   3.165
  199SOL    HW2 1497   2.245   0.724   3.206
  200SOL     OW 1498   1.379   3.843   4.078
  200SOL    HW1 1499   1.280   3.847   4.081
  200SOL    HW2 1500   1.417   3.935   4.081
  201SOL     OW 1501   4.546   1.575   6.949
  201SOL    HW1 1502   4.479   1.534   6.887
  201SOL    HW2 1503   4.510   1.662   6.984
  202SOL     OW 1504   4.386   0.247   3.259
  202SOL    HW1 1505   4.345   0.337   3.275
  202SOL    HW2 1506   4.441   0.249   3.176
  203SOL     OW 1507   6.003   2.865   0.241
  203SOL    HW1 1508   6.029   2.863   0.338
  203SOL    HW2 1509   5.931   2.798   0.225
  204SOL     OW 1510   1.745   6.124   1.222
  204SOL    HW1 1511   1.838   6.104   1.254
  204SOL    HW2 1512   1.697   6.038   1.205
  205SOL     OW 1513   5.219   0.625   1.478
  205SOL    HW1 1514   5.311   0.608   1.441
  205SOL    HW2 1515   5.213   0.721   1.508
  206SOL     OW 1516   6.760   6.272   1.230
  206SOL    HW1 1517   6.814   6.333   1.287
  206SOL    HW2 1518   6.779   6.290   1.133
  207SOL     OW 1519   6.539   2.165   5.935
  207SOL    HW1 1520   6.638   2.152   5.924
  207SOL    HW2 1521   6.491   2.115   5.863
  208SOL     OW 1522   4.012   4.195   6.839
  208SOL    HW1 1523   4.077   4.203   6.763
  208SOL    HW2 1524   3.920   4.217   6.808
  209SOL     OW 1525   0.184   6.053   4.163
  209SOL    HW1 1526   0.256   5.999   4.206
  209SOL    HW2 1527   0.139   5.998   4.093
  210SOL     OW 1528   3.984   2.322   0.721
  210SOL    HW1 1529   4.031   2.331   0.634
  210SOL    HW2 1530   3.892   2.362   0.714
  211SOL     OW 1531   1.050   3.104   1.767
  211SOL    HW1 1532   1.031   3.192   1.724
  211SOL    HW2 1533   0.963   3.057   1.786
  212SOL     OW 1534   1.153   5.367   5.183
  212SOL    HW1 1535   1.145   5.279   5.136
  212SOL    HW2 1536   1.246   5.378   5.217
  213SOL     OW 1537   3.811   2.376   0.294
  213SOL    HW1 1538   3.763   2.443   0.238
  213SOL    HW2 1539   3.859   2.423   0.368
  214SOL     OW 1540   1.624   6.237   3.074
  214SOL    HW1 1541   1.571   6.153   3.058
  214SOL    HW2 1542   1.721   6.219   3.059
  215SOL     OW 1543   3.152   4.062   2.946
  215SOL    HW1 1544   3.170   4.102   2.856
  215SOL    HW2 1545   3.093   3.982   2.935
  216SOL     OW 1546   2.935   0.372   5.345
  216SOL    HW1 1547   2.902   0.387   5.438
  216SOL    HW2 1548   2.859   0.385   5.281
  217SOL     OW 1549   6.929   2.086   5.290
  217SOL    HW1 1550   7.026   2.070   5.270
  217SOL    HW2 1551   6.918   2.175   5.335
  218SOL     OW 1552   2.680   3.953   5.580
  218SOL    HW1 1553   2.723   4.025   5.635
  218SOL    HW2 1554   2.663   3.988   5.488
  219SOL     OW 1555   2.889   5.391   6.989
  219SOL    HW1 1556   2.815   5.447   7.025
  219SOL    HW2 1557   2.940   5.351   0.039
  220SOL     OW 1558   1.580   4.659   7.003
  220SOL    HW1 1559   1.602   4.567   0.012
  220SOL    HW2 1560   1.485   4.681   7.024
  221SOL     OW 1561   6.008   2.427   4.839
  221SOL    HW1 1562   5.933   2.363   4.852
  221SOL    HW2 1563   5.972   2.515   4.808
  222SOL     OW 1564   2.119   6.753   4.674
  222SOL    HW1 1565   2.212   6.728   4.700
  222SOL    HW2 1566   2.075   6.800   4.751
  223SOL     OW 1567   5.762   4.867   2.609
  223SOL    HW1 1568   5.680   4.833   2.562
  223SOL    HW2 1569   5.737   4.942   2.670
  224SOL     OW 1570   4.850   2.215   2.445
  224SOL    HW1 1571   4.809   2.240   2.533
  224SOL    HW2 1572   4.861   2.297   2.389
  225SOL     OW 1573   4.995   6.385   1.237
  225SOL    HW1 1574   4.903   6.389   1.199
  225SOL    HW2 1575   5.056   6.342   1.170
  226SOL     OW 1576   0.585   5.572   2.437
  226SOL    HW1 1577   0.534   5.632   2.376
  226SOL    HW2 1578   0.537   5.566   2.525
  227SOL     OW 1579   1.300   3.676   3.375
  227SOL    HW1 1580   1.367   3.750   3.379
  227SOL    HW2 1581   1.347   3.589   3.365
  228SOL     OW 1582   4.148   6.429   2.567
  228SOL    HW1 1583   4.132   6.457   2.472
  228SOL    HW2 1584   4.153   6.510   2.624
  229SOL     OW 1585   6.536   5.318   3.052
  229SOL    HW1 1586   6.454   5.353   3.097
  229SOL    HW2 1587   6.592   5.395   3.022
  230SOL     OW 1588   0.752   4.643   5.926
  230SOL    HW1 1589   0.697   4.726   5.935
  230SOL    HW2 1590   0.703   4.576   5.870
  231SOL     OW 1591   0.292   2.269   6.440
  231SOL    HW1 1592   0.374   2.268   6.497
  231SOL    HW2 1593   0.294   2.191   6.378
  232SOL     OW 1594   1.364   4.006   6.239
  232SOL    HW1 1595   1.458   4.012   6.206
  232SOL    HW2 1596   1.310   3.951   6.176
  233SOL     OW 1597   3.262   6.940   6.678
  233SOL    HW1 1598   3.304   6.998   6.747
  233SOL    HW2 1599   3.187   6.888   6.718
  234SOL     OW 1600   2.387   4.687   6.340
  234SOL    HW1 1601   2.480   4.655   6.357
  234SOL    HW2 1602   2.324   4.638   6.400
  235SOL     OW 1603   3.404   3.068   5.750
  235SOL    HW1 1604   3.414   2.972   5.777
  235SOL    HW2 1605   3.346   3.074   5.669
  236SOL     OW 1606   0.263   2.016   5.967
  236SOL    HW1 1607   0.251   2.074   5.887
  236SOL    HW2 1608   0.344   1.958   5.956
  237SOL     OW 1609   6.597   6.423   1.933
  237SOL    HW1 1610   6.510   6.421   1.883
  237SOL    HW2 1611   6.658   6.489   1.891
  238SOL     OW 1612   0.301   1.734   2.667
  238SOL    HW1 1613   0.298   1.822   2.619
  238SOL    HW2 1614   0.380   1.733   2.729
  239SOL     OW 1615   6.382   5.188   0.488
  239SOL    HW1 1616   6.346   5.275   0.521
  239SOL    HW2 1617   6.402   5.195   0.390
  240SOL     OW 1618   6.819   2.542   5.231
  240SOL    HW1 1619   6.902   2.493   5.204
  240SOL    HW2 1620   6.782   2.502   5.316
  241SOL     OW 1621   5.314   2.163   4.869
  241SOL    HW1 1622   5.320   2.171   4.769
  241SOL    HW2 1623   5.363   2.239   4.911
  242SOL     OW 1624   2.898   2.247   4.227
  242SOL    HW1 1625   2.831   2.317   4.204
  242SOL    HW2 1626   2.895   2.174   4.159
  243SOL     OW 1627   4.971   1.055   7.016
  243SOL    HW1 1628   4.894   0.997   6.991
  243SOL    HW2 1629   4.979   1.130   6.950
  244SOL     OW 1630   0.721   1.853   5.761
  244SOL    HW1 1631   0.741   1.758   5.740
  244SOL    HW2 1632   0.805   1.899   5.791
  245SOL     OW 1633   4.830   2.935   3.623
  245SOL    HW1 1634   4.778   2.884   3.692
  245SOL    HW2 1635   4.928   2.916   3.634
  246SOL     OW 1636   4.768   2.914   4.538
  246SOL    HW1 1637   4.803   2.991   4.484
  246SOL    HW2 1638   4.816   2.910   4.625
  247SOL     OW 1639   2.940   0.628   2.708
  247SOL    HW1 1640   2.989   0.574   2.640
  247SOL    HW2 1641   3.003   0.656   2.781
  248SOL     OW 1642   0.336   2.040   2.576
  248SOL    HW1 1643   0.238   2.053   2.567
  248SOL    HW2 1644   0.381   2.060   2.489
  249SOL     OW 1645   2.157   5.653   5.159
  249SOL    HW1 1646   2.180   5.738   5.205
  249SOL    HW2 1647   2.223   5.582   5.185
  250SOL     OW 1648   5.489   2.452   0.535
  250SOL    HW1 1649   5.510   2.372   0.479
  250SOL    HW2 1650   5.566   2.516   0.532
  251SOL     OW 1651   1.985   1.155   0.784
  251SOL    HW1 1652   2.057   1.221   0.802
  251SOL    HW2 1653   1.912   1.166   0.852
  252SOL     OW 1654   0.399   2.260   6.968
  252SOL    HW1 1655   0.367   2.179   7.016
  252SOL    HW2 1656   0.498   2.252   6.952
  253SOL     OW 1657   1.883   4.627   6.331
  253SOL    HW1 1658   1.979   4.652   6.317
  253SOL    HW2 1659   1.837   4.623   6.243
  254SOL     OW 1660   4.880   3.975   6.244
  254SOL    HW1 1661   4.872   4.031   6.161
  254SOL    HW2 1662   4.859   4.032   6.324
  255SOL     OW 1663   4.203   2.275   2.083
  255SOL    HW1 1664   4.152   2.232   2.158
  255SOL    HW2 1665   4.142   2.288   2.005
  256SOL     OW 1666   6.521   5.863   1.276
  256SOL    HW1 1667   6.518   5.879   1.375
  256SOL    HW2 1668   6.597   5.915   1.237
  257SOL     OW 1669   2.670   5.723   5.603
  257SOL    HW1 1670   2.601   5.679   5.660
  257SOL    HW2 1671   2.741   5.657   5.579
  258SOL     OW 1672   4.183   5.063   4.005
  258SOL    HW1 1673   4.225   4.978   3.973
  258SOL    HW2 1674   4.086   5.063   3.981
  259SOL     OW 1675   0.768   1.927   3.059
  259SOL    HW1 1676   0.832   1.991   3.017
  259SOL    HW2 1677   0.762   1.844   3.005
  260SOL     OW 1678   6.347   6.684   5.387
  260SOL    HW1 1679   6.418   6.715   5.324
  260SOL    HW2 1680   6.294   6.762   5.419
  261SOL     OW 1681   0.382   0.937   4.024
  261SOL    HW1 1682   0.475   0.900   4.033
  261SOL    HW2 1683   0.364   0.998   4.101
  262SOL     OW 1684   1.294   4.962   1.741
  262SOL    HW1 1685   1.285   4.882   1.682
  262SOL    HW2 1686   1.223   4.959   1.812
  263SOL     OW 1687   0.621   4.468   4.045
  263SOL    HW1 1688   0.647   4.380   4.004
  263SOL    HW2 1689   0.524   4.467   4.070
  264SOL     OW 1690   3.318   4.119   0.373
  264SOL    HW1 1691   3.354   4.198   0.424
  264SOL    HW2 1692   3.273   4.151   0.289
  265SOL     OW 1693   3.951   5.332   3.678
  265SOL    HW1 1694   4.042   5.325   3.637
  265SOL    HW2 1695   3.908   5.418   3.650
  266SOL     OW 1696   4.627   3.628   6.817
  266SOL    HW1 1697   4.547   3.617   6.876
  266SOL    HW2 1698   4.700   3.673   6.869
  267SOL     OW 1699   2.285   2.363   5.994
  267SOL    HW1 1700   2.198   2.356   5.946
  267SOL    HW2 1701   2.312   2.460   5.999
  268SOL     OW 1702   2.149   4.518   3.538
  268SOL    HW1 1703   2.110   4.427   3.548
  268SOL    HW2 1704   2.182   4.551   3.626
  269SOL     OW 1705   2.646   2.061   5.447
  269SOL    HW1 1706   2.679   2.101   5.533
  269SOL    HW2 1707   2.580   2.123   5.405
  270SOL     OW 1708   5.059   6.188   4.856
  270SOL    HW1 1709   5.068   6.280   4.818
  270SOL    HW2 1710   5.007   6.131   4.793
  271SOL     OW 1711   2.390   1.835   0.131
  271SOL    HW1 1712   2.466   1.774   0.152
  271SOL    HW2 1713   2.415   1.896   0.056
  272SOL     OW 1714   4.279   5.506   0.242
  272SOL    HW1 1715   4.268   5.456   0.156
  272SOL    HW2 1716   4.238   5.452   0.316
  273SOL     OW 1717   1.888   5.864   4.037
  273SOL    HW1 1718   1.809   5.802   4.040
  273SOL    HW2 1719   1.971   5.813   4.063
  274SOL     OW 1720   6.034   2.259   2.041
  274SOL    HW1 1721   5.976   2.178   2.026
  274SOL    HW2 1722   5.981   2.329   2.087
  275SOL     OW 1723   6.115   5.688   5.785
  275SOL    HW1 1724   6.062   5.772   5.785
  275SOL    HW2 1725   6.213   5.711   5.786
  276SOL     OW 1726   0.631   0.183   4.120
  276SOL    HW1 1727   0.663   0.152   4.030
  276SOL    HW2 1728   0.594   0.276   4.112
  277SOL     OW 1729   3.984   2.893   5.268
  277SOL    HW1 1730   4.043   2.815   5.250
  277SOL    HW2 1731   3.888   2.867   5.257
  278SOL     OW 1732   5.974   3.930   2.998
  278SOL    HW1 1733   5.948   3.966   2.908
  278SOL    HW2 1734   5.979   3.831   2.994
  279SOL     OW 1735   6.941   3.963   3.510
  279SOL    HW1 1736   6.865   3.942   3.448
  279SOL    HW2 1737   6.939   4.060   3.535
  280SOL     OW 1738   4.174   2.242   3.815
  280SOL    HW1 1739   4.237   2.259   3.891
  280SOL    HW2 1740   4.080   2.243   3.848
  281SOL     OW 1741   4.958   6.000   5.258
  281SOL    HW1 1742   5.043   6.034   5.298
  281SOL    HW2 1743   4.890   5.987   5.330
  282SOL     OW 1744   1.076   2.437   0.267
  282SOL    HW1 1745   1.034   2.394   0.187
  282SOL    HW2 1746   1.039   2.395   0.350
  283SOL     OW 1747   6.065   3.622   3.591
  283SOL    HW1 1748   5.981   3.567   3.596
  283SOL    HW2 1749   6.043   3.713   3.556
  284SOL     OW 1750   5.522   6.576   2.902
  284SOL    HW1 1751   5.542   6.480   2.882
  284SOL    HW2 1752   5.423   6.587   2.917
  285SOL     OW 1753   4.026   6.142   6.430
  285SOL    HW1 1754   4.083   6.157   6.510
  285SOL    HW2 1755   4.063   6.194   6.352
  286SOL     OW 1756   2.442   5.143   5.477
  286SOL    HW1 1757   2.523   5.188   5.513
  286SOL    HW2 1758   2.467   5.092   5.394
  287SOL     OW 1759   3.413   5.492   0.626
  287SOL    HW1 1760   3.367   5.545   0.554
  287SOL    HW2 1761   3.372   5.401   0.631
  288SOL     OW 1762   4.363   1.477   0.354
  288SOL    HW1 1763   4.447   1.432   0.321
  288SOL    HW2 1764   4.290   1.408   0.363
  289SOL     OW 1765   5.456   5.092   4.692
  289SOL    HW1 1766   5.497   5.012   4.647
  289SOL    HW2 1767   5.363   5.104   4.660
  290SOL     OW 1768   3.857   0.621   5.332
  290SOL    HW1 1769   3.841   0.525   5.351
  290SOL    HW2 1770   3.770   0.668   5.319
  291SOL     OW 1771   5.329   0.931   5.191
  291SOL    HW1 1772   5.300   0.988   5.114
  291SOL    HW2 1773   5.408   0.876   5.162
  292SOL     OW 1774   3.339   0.513   3.387
  292SOL    HW1 1775   3.322   0.432   3.443
  292SOL    HW2 1776   3.360   0.591   3.447
  293SOL     OW 1777   5.429   0.401   2.936
  293SOL    HW1 1778   5.387   0.478   2.887
  293SOL    HW2 1779   5.495   0.437   3.002
  294SOL     OW 1780   6.823   1.941   6.223
  294SOL    HW1 1781   6.882   2.000   6.278
  294SOL    HW2 1782   6.875   1.904   6.146
  295SOL     OW 1783   0.557   0.406   4.755
  295SOL    HW1 1784   0.471   0.383   4.799
  295SOL    HW2 1785   0.541   0.425   4.658
  296SOL     OW 1786   0.967   1.775   1.588
  296SOL    HW1 1787   0.907   1.743   1.661
  296SOL    HW2 1788   1.053   1.723   1.591
  297SOL     OW 1789   5.116   3.130   3.483
  297SOL    HW1 1790   5.041   3.196   3.485
  297SOL    HW2 1791   5.155   3.127   3.391
  298SOL     OW 1792   4.339   1.140   5.632
  298SOL    HW1 1793   4.348   1.239   5.640
  298SOL    HW2 1794   4.389   1.109   5.550
  299SOL     OW 1795   0.654   1.375   5.914
  299SOL    HW1 1796   0.707   1.425   5.983
  299SOL    HW2 1797   0.638   1.281   5.945
  300SOL     OW 1798   4.584   6.361   3.992
  300SOL    HW1 1799   4.654   6.344   3.923
  300SOL    HW2 1800   4.626   6.355   4.083
  301SOL     OW 1801   0.287   6.361   5.774
  301SOL    HW1 1802   0.296   6.275   5.724
  301SOL    HW2 1803   0.201   6.361   5.824
  302SOL     OW 1804   6.889   6.780   2.081
  302SOL    HW1 1805   6.894   6.763   2.180
  302SOL    HW2 1806   6.935   6.706   2.032
  303SOL     OW 1807   5.648   5.814   2.560
  303SOL    HW1 1808   5.580   5.886   2.574
  303SOL    HW2 1809   5.607   5.725   2.581
  304SOL     OW 1810   2.078   0.040   4.298
  304SOL    HW1 1811   2.087   7.022   4.209
  304SOL    HW2 1812   2.010   7.017   4.353
  305SOL     OW 1813   1.449   1.894   1.351
  305SOL    HW1 1814   1.526   1.958   1.350
  305SOL    HW2 1815   1.424   1.874   1.445
  306SOL     OW 1816   6.947   6.991   2.424
  306SOL    HW1 1817   6.915   0.031   2.355
  306SOL    HW2 1818   6.896   7.005   2.509
  307SOL     OW 1819   3.437   3.258   4.105
  307SOL    HW1 1820   3.341   3.247   4.082
  307SOL    HW2 1821   3.446   3.307   4.192
  308SOL     OW 1822   6.053   1.296   2.093
  308SOL    HW1 1823   6.126   1.295   2.162
  308SOL    HW2 1824   5.976   1.351   2.126
  309SOL     OW 1825   1.818   4.811   0.127
  309SOL    HW1 1826   1.752   4.767   0.067
  309SOL    HW2 1827   1.799   4.909   0.131
  310SOL     OW 1828   4.864   6.434   4.860
  310SOL    HW1 1829   4.940   6.478   4.908
  310SOL    HW2 1830   4.841   6.349   4.906
  311SOL     OW 1831   1.363   6.808   2.048
  311SOL    HW1 1832   1.446   6.863   2.054
  311SOL    HW2 1833   1.329   6.789   2.140
  312SOL     OW 1834   3.734   0.491   4.400
  312SOL    HW1 1835   3.818   0.459   4.444
  312SOL    HW2 1836   3.672   0.527   4.469
  313SOL     OW 1837   3.072   3.137   3.041
  313SOL    HW1 1838   2.997   3.089   3.086
  313SOL    HW2 1839   3.153   3.078   3.039
  314SOL     OW 1840   2.981   5.334   6.390
  314SOL    HW1 1841   2.887   5.309   6.413
  314SOL    HW2 1842   2.992   5.433   6.396
  315SOL     OW 1843   5.991   0.540   4.240
  315SOL    HW1 1844   5.962   0.625   4.198
  315SOL    HW2 1845   5.912   0.492   4.277
  316SOL     OW 1846   3.475   1.299   5.920
  316SOL    HW1 1847   3.485   1.367   5.992
  316SOL    HW2 1848   3.553   1.304   5.858
  317SOL     OW 1849   0.630   2.148   1.061
  317SOL    HW1 1850   0.598   2.099   1.143
  317SOL    HW2 1851   0.670   2.083   0.997
  318SOL     OW 1852   0.653   0.690   3.203
  318SOL    HW1 1853   0.553   0.683   3.209
  318SOL    HW2 1854   0.677   0.773   3.153
  319SOL     OW 1855   0.299   0.708   2.464
  319SOL    HW1 1856   0.364   0.632   2.469
  319SOL    HW2 1857   0.223   0.683   2.404
  320SOL     OW 1858   5.043   1.741   0.206
  320SOL    HW1 1859   5.037   1.647   0.240
  320SOL    HW2 1860   5.051   1.740   0.107
  321SOL     OW 1861   4.658   3.117   0.863
  321SOL    HW1 1862   4.657   3.132   0.962
  321SOL    HW2 1863   4.744   3.152   0.825
  322SOL     OW 1864   3.294   2.713   6.868
  322SOL    HW1 1865   3.225   2.650   6.904
  322SOL    HW2 1866   3.345   2.752   6.945
  323SOL     OW 1867   1.554   3.271   2.163
  323SOL    HW1 1868   1.569   3.222   2.077
  323SOL    HW2 1869   1.631   3.256   2.225
  324SOL     OW 1870   6.976   0.408   3.342
  324SOL    HW1 1871   7.007   0.315   3.360
  324SOL    HW2 1872   0.017   0.455   3.284
  325SOL     OW 1873   6.388   3.352   0.836
  325SOL    HW1 1874   6.389   3.383   0.931
  325SOL    HW2 1875   6.314   3.398   0.787
  326SOL     OW 1876   0.171   5.697   0.073
  326SOL    HW1 1877   0.096   5.631   0.082
  326SOL    HW2 1878   0.156   5.753   7.017
  327SOL     OW 1879   4.160   6.495   6.526
  327SOL    HW1 1880   4.214   6.491   6.442
  327SOL    HW2 1881   4.110   6.409   6.537
  328SOL     OW 1882   1.328   5.184   3.553
  328SOL    HW1 1883   1.274   5.179   3.469
  328SOL    HW2 1884   1.411   5.130   3.542
  329SOL     OW 1885   3.645   2.998   1.868
  329SOL    HW1 1886   3.546   3.009   1.855
  329SOL    HW2 1887   3.690   2.999   1.779
  330SOL     OW 1888   2.692   3.449   6.902
  330SOL    HW1 1889   2.723   3.379   6.967
  330SOL    HW2 1890   2.733   3.432   6.812
  331SOL     OW 1891   5.154   4.882   4.713
  331SOL    HW1 1892   5.112   4.898   4.624
  331SOL    HW2 1893   5.131   4.957   4.775
  332SOL     OW 1894   5.760   2.096   3.196
  332SOL    HW1 1895   5.772   2.185   3.151
  332SOL    HW2 1896   5.724   2.110   3.288
  333SOL     OW 1897   4.145   6.666   3.767
  333SOL    HW1 1898   4.108   6.573   3.756
  333SOL    HW2 1899   4.205   6.687   3.690
  334SOL     OW 1900   3.583   3.585   4.353
  334SOL    HW1 1901   3.535   3.667   4.383
  334SOL    HW2 1902   3.531   3.504   4.381
  335SOL     OW 1903   3.666   0.984   1.037
  335SOL    HW1 1904   3.601   1.028   1.098
  335SOL    HW2 1905   3.699   0.899   1.079
  336SOL     OW 1906   4.235   2.046   5.150
  336SOL    HW1 1907   4.277   2.037   5.060
  336SOL    HW2 1908   4.269   1.974   5.211
  337SOL     OW 1909   6.993   0.921   5.257
  337SOL    HW1 1910   0.037   0.993   5.248
  337SOL    HW2 1911   6.905   0.957   5.227
  338SOL     OW 1912   4.850   1.488   1.575
  338SOL    HW1 1913   4.934   1.519   1.531
  338SOL    HW2 1914   4.869   1.410   1.633
  339SOL     OW 1915   4.307   5.225   5.971
  339SOL    HW1 1916   4.227   5.281   5.991
  339SOL    HW2 1917   4.281   5.128   5.974
  340SOL     OW 1918   4.917   3.215   5.122
  340SOL    HW1 1919   4.859   3.172   5.053
  340SOL    HW2 1920   4.984   3.149   5.155
  341SOL     OW 1921   6.688   0.118   1.804
  341SOL    HW1 1922   6.687   0.020   1.784
  341SOL    HW2 1923   6.778   0.145   1.838
  342SOL     OW 1924   4.572   1.327   2.143
  342SOL    HW1 1925   4.514   1.369   2.074
  342SOL    HW2 1926   4.668   1.347   2.122
  343SOL     OW 1927   5.189   0.333   1.031
  343SOL    HW1 1928   5.269   0.388   1.007
  343SOL    HW2 1929   5.143   0.302   0.948
  344SOL     OW 1930   6.589   3.137   1.280
  344SOL    HW1 1931   6.674   3.190   1.285
  344SOL    HW2 1932   6.512   3.194   1.308
  345SOL     OW 1933   6.883   2.159   3.944
  345SOL    HW1 1934   6.884   2.071   3.993
  345SOL    HW2 1935   6.811   2.217   3.982
  346SOL     OW 1936   2.258   5.736   2.776
  346SOL    HW1 1937   2.217   5.827   2.784
  346SOL    HW2 1938   2.321   5.720   2.852
  347SOL     OW 1939   2.653   4.694   0.944
  347SOL    HW1 1940   2.646   4.699   0.844
  347SOL    HW2 1941   2.739   4.736   0.973
  348SOL     OW 1942   4.721   5.022   1.723
  348SOL    HW1 1943   4.803   4.966   1.728
  348SOL    HW2 1944   4.640   4.963   1.716
  349SOL     OW 1945   5.703   4.683   0.938
  349SOL    HW1 1946   5.632   4.683   0.868
  349SOL    HW2 1947   5.708   4.593   0.980
  350SOL     OW 1948   2.341   2.032   0.323
  350SOL    HW1 1949   2.344   1.940   0.285
  350SOL    HW2 1950   2.255   2.076   0.297
  351SOL     OW 1951   3.667   4.274   1.112
  351SOL    HW1 1952   3.707   4.340   1.049
  351SOL    HW2 1953   3.576   4.307   1.141
  352SOL     OW 1954   4.348   6.251   2.554
  352SOL    HW1 1955   4.397   6.291   2.476
  352SOL    HW2 1956   4.266   6.306   2.573
  353SOL     OW 1957   2.088   0.042   0.498
  353SOL    HW1 1958   2.148   7.007   0.551
  353SOL    HW2 1959   2.025   7.013   0.443
  354SOL     OW 1960   1.650   2.271   0.808
  354SOL    HW1 1961   1.722   2.327   0.850
  354SOL    HW2 1962   1.561   2.297   0.845
  355SOL     OW 1963   0.447   2.728   3.490
  355SOL    HW1 1964   0.456   2.630   3.504
  355SOL    HW2 1965   0.533   2.766   3.457
  356SOL     OW 1966   2.480   0.578   5.483
  356SOL    HW1 1967   2.528   0.635   5.416
  356SOL    HW2 1968   2.392   0.549   5.446
  357SOL     OW 1969   5.779   6.223   4.385
  357SOL    HW1 1970   5.799   6.140   4.333
  357SOL    HW2 1971   5.812   6.213   4.479
  358SOL     OW 1972   3.225   5.938   6.907
  358SOL    HW1 1973   3.199   5.959   7.001
  358SOL    HW2 1974   3.147   5.952   6.847
  359SOL     OW 1975   1.428   2.160   2.017
  359SOL    HW1 1976   1.359   2.197   2.080
  359SOL    HW2 1977   1.446   2.226   1.945
  360SOL     OW 1978   2.115   3.808   3.467
  360SOL    HW1 1979   2.183   3.877   3.443
  360SOL    HW2 1980   2.104   3.804   3.566
  361SOL     OW 1981   0.133   1.797   1.989
  361SOL    HW1 1982   0.176   1.826   2.075
  361SOL    HW2 1983   0.092   1.877   1.944
  362SOL     OW 1984   3.908   3.962   2.642
  362SOL    HW1 1985   3.915   3.909   2.727
  362SOL    HW2 1986   3.835   4.029   2.651
  363SOL     OW 1987   4.512   5.603   0.885
  363SOL    HW1 1988   4.458   5.550   0.820
  363SOL    HW2 1989   4.523   5.696   0.852
  364SOL     OW 1990   1.170   0.505   0.282
  364SOL    HW1 1991   1.253   0.550   0.315
  364SOL    HW2 1992   1.138   0.440   0.351
  365SOL     OW 1993   6.150   0.810   3.959
  365SOL    HW1 1994   6.059   0.768   3.947
  365SOL    HW2 1995   6.165   0.830   4.056
  366SOL     OW 1996   5.332   1.747   0.046
  366SOL    HW1 1997   5.378   1.836   0.044
  366SOL    HW2 1998   5.265   1.743   6.997
  367SOL     OW 1999   5.408   0.880   0.026
  367SOL    HW1 2000   5.444   0.848   6.964
  367SOL    HW2 2001   5.432   0.977   0.038
  368SOL     OW 2002   2.212   1.894   5.818
  368SOL    HW1 2003   2.275   1.850   5.882
  368SOL    HW2 2004   2.119   1.888   5.854
  369SOL     OW 2005   5.927   4.305   0.309
  369SOL    HW1 2006   5.986   4.386   0.301
  369SOL    HW2 2007   5.831   4.332   0.300
  370SOL     OW 2008   2.445   2.570   3.154
  370SOL    HW1 2009   2.414   2.663   3.134
  370SOL    HW2 2010   2.448   2.557   3.253
  371SOL     OW 2011   2.114   5.797   0.427
  371SOL    HW1 2012   2.095   5.851   0.510
  371SOL    HW2 2013   2.080   5.704   0.440
  372SOL     OW 2014   2.237   5.665   5.847
  372SOL    HW1 2015   2.255   5.571   5.820
  372SOL    HW2 2016   2.307   5.725   5.808
  373SOL     OW 2017   6.496   4.395   2.844
  373SOL    HW1 2018   6.459   4.304   2.861
  373SOL    HW2 2019   6.513   4.406   2.746
  374SOL     OW 2020   2.781   1.872   2.125
  374SOL    HW1 2021   2.693   1.824   2.119
  374SOL    HW2 2022   2.764   1.969   2.145
  375SOL     OW 2023   1.309   6.142   4.377
  375SOL    HW1 2024   1.323   6.050   4.341
  375SOL    HW2 2025   1.291   6.137   4.475
  376SOL     OW 2026   4.253   0.476   3.319
  376SOL    HW1 2027   4.154   0.489   3.321
  376SOL    HW2 2028   4.297   0.550   3.370
  377SOL     OW 2029   2.788   2.393   6.591
  377SOL    HW1 2030   2.793   2.322   6.661
  377SOL    HW2 2031   2.881   2.414   6.558
  378SOL     OW 2032   3.965   1.103   2.189
  378SOL    HW1 2033   3.889   1.062   2.139
  378SOL    HW2 2034   4.051   1.059   2.163
  379SOL     OW 2035   4.157   2.777   6.747
  379SOL    HW1 2036   4.185   2.855   6.690
  379SOL    HW2 2037   4.226   2.705   6.741
  380SOL     OW 2038   4.688   1.816   0.753
  380SOL    HW1 2039   4.705   1.722   0.723
  380SOL    HW2 2040   4.717   1.826   0.848
  381SOL     OW 2041   2.083   4.422   2.860
  381SOL    HW1 2042   2.100   4.363   2.781
  381SOL    HW2 2043   2.070   4.366   2.942
  382SOL     OW 2044   6.022   6.867   0.003
  382SOL    HW1 2045   5.964   6.872   0.084
  382SOL    HW2 2046   5.985   6.926   6.957
  383SOL     OW 2047   4.407   3.488   0.210
  383SOL    HW1 2048   4.309   3.482   0.191
  383SOL    HW2 2049   4.435   3.410   0.267
  384SOL     OW 2050   0.456   3.459   5.047
  384SOL    HW1 2051   0.439   3.490   4.954
  384SOL    HW2 2052   0.554   3.467   5.067
  385SOL     OW 2053   4.495   2.591   0.544
  385SOL    HW1 2054   4.553   2.660   0.500
  385SOL    HW2 2055   4.469   2.523   0.476
  386SOL     OW 2056   4.279   6.327   5.212
  386SOL    HW1 2057   4.313   6.286   5.297
  386SOL    HW2 2058   4.180   6.339   5.218
  387SOL     OW 2059   3.494   6.179   4.357
  387SOL    HW1 2060   3.529   6.110   4.421
  387SOL    HW2 2061   3.440   6.135   4.286
  388SOL     OW 2062   1.336   5.155   5.923
  388SOL    HW1 2063   1.420   5.114   5.957
  388SOL    HW2 2064   1.278   5.182   6.000
  389SOL     OW 2065   2.719   3.259   1.250
  389SOL    HW1 2066   2.703   3.162   1.232
  389SOL    HW2 2067   2.792   3.269   1.318
  390SOL     OW 2068   2.687   0.729   4.786
  390SOL    HW1 2069   2.607   0.706   4.730
  390SOL    HW2 2070   2.733   0.809   4.748
  391SOL     OW 2071   1.470   2.311   6.955
  391SOL    HW1 2072   1.559   2.266   6.949
  391SOL    HW2 2073   1.455   2.341   0.023
  392SOL     OW 2074   3.367   5.646   4.934
  392SOL    HW1 2075   3.274   5.683   4.943
  392SOL    HW2 2076   3.431   5.721   4.918
  393SOL     OW 2077   5.851   4.105   5.568
  393SOL    HW1 2078   5.816   4.013   5.584
  393SOL    HW2 2079   5.899   4.137   5.650
  394SOL     OW 2080   2.062   1.151   6.342
  394SOL    HW1 2081   1.962   1.151   6.346
  394SOL    HW2 2082   2.096   1.059   6.361
  395SOL     OW 2083   0.083   3.216   0.837
  395SOL    HW1 2084   0.127   3.147   0.895
  395SOL    HW2 2085   0.128   3.218   0.748
  396SOL     OW 2086   3.677   3.236   5.190
  396SOL    HW1 2087   3.592   3.276   5.154
  396SOL    HW2 2088   3.681   3.251   5.288
  397SOL     OW 2089   4.279   1.579   6.801
  397SOL    HW1 2090   4.229   1.582   6.887
  397SOL    HW2 2091   4.277   1.485   6.765
  398SOL     OW 2092   0.829   4.470   2.533
  398SOL    HW1 2093   0.872   4.380   2.534
  398SOL    HW2 2094   0.792   4.491   2.623
  399SOL     OW 2095   4.841   4.816   2.166
  399SOL    HW1 2096   4.876   4.752   2.098
  399SOL    HW2 2097   4.745   4.836   2.146
  400SOL     OW 2098   2.517   4.939   4.519
  400SOL    HW1 2099   2.509   4.873   4.445
  400SOL    HW2 2100   2.446   4.922   4.587
  401SOL     OW 2101   5.881   1.334   0.300
  401SOL    HW1 2102   5.810   1.403   0.286
  401SOL    HW2 2103   5.839   1.244   0.310
  402SOL     OW 2104   6.956   4.486   1.060
  402SOL    HW1 2105   6.942   4.583   1.041
  402SOL    HW2 2106   7.008   4.445   0.985
  403SOL     OW 2107   4.950   4.721   0.828
  403SOL    HW1 2108   4.879   4.686   0.767
  403SOL    HW2 2109   4.917   4.803   0.874
  404SOL     OW 2110   0.773   6.380   4.497
  404SOL    HW1 2111   0.806   6.474   4.485
  404SOL    HW2 2112   0.790   6.328   4.413
  405SOL     OW 2113   0.764   2.599   1.696
  405SOL    HW1 2114   0.718   2.681   1.660
  405SOL    HW2 2115   0.732   2.519   1.646
  406SOL     OW 2116   1.112   2.202   3.458
  406SOL    HW1 2117   1.064   2.120   3.427
  406SOL    HW2 2118   1.208   2.197   3.429
  407SOL     OW 2119   3.174   1.662   3.938
  407SOL    HW1 2120   3.258   1.711   3.916
  407SOL    HW2 2121   3.180   1.568   3.905
  408SOL     OW 2122   2.353   0.496   4.051
  408SOL    HW1 2123   2.445   0.492   4.012
  408SOL    HW2 2124   2.336   0.587   4.088
  409SOL     OW 2125   6.823   3.213   4.310
  409SOL    HW1 2126   6.858   3.269   4.235
  409SOL    HW2 2127   6.826   3.117   4.284
  410SOL     OW 2128   3.056   7.022   6.242
  410SOL    HW1 2129   3.106   0.037   6.319
  410SOL    HW2 2130   2.992   0.063   6.204
  411SOL     OW 2131   0.690   3.235   4.755
  411SOL    HW1 2132   0.686   3.312   4.818
  411SOL    HW2 2133   0.600   3.218   4.717
  412SOL     OW 2134   4.393   0.242   2.300
  412SOL    HW1 2135   4.319   0.296   2.340
  412SOL    HW2 2136   4.480   0.273   2.338
  413SOL     OW 2137   2.431   0.284   2.677
  413SOL    HW1 2138   2.380   0.213   2.725
  413SOL    HW2 2139   2.514   0.244   2.638
  414SOL     OW 2140   4.796   4.450   0.878
  414SOL    HW1 2141   4.845   4.424   0.795
  414SOL    HW2 2142   4.846   4.522   0.925
  415SOL     OW 2143   3.748   6.806   2.390
  415SOL    HW1 2144   3.795   6.837   2.473
  415SOL    HW2 2145   3.799   6.836   2.309
  416SOL     OW 2146   3.505   5.451   0.104
  416SOL    HW1 2147   3.584   5.408   0.148
  416SOL    HW2 2148   3.536   5.532   0.054
  417SOL     OW 2149   5.011   5.155   1.585
  417SOL    HW1 2150   4.927   5.206   1.570
  417SOL    HW2 2151   5.070   5.205   1.648
  418SOL     OW 2152   6.366   5.325   6.909
  418SOL    HW1 2153   6.295   5.395   6.920
  418SOL    HW2 2154   6.326   5.242   6.871
  419SOL     OW 2155   5.331   6.098   0.848
  419SOL    HW1 2156   5.361   6.163   0.779
  419SOL    HW2 2157   5.296   6.016   0.803
  420SOL     OW 2158   5.126   4.236   6.924
  420SOL    HW1 2159   5.163   4.277   6.841
  420SOL    HW2 2160   5.044   4.183   6.903
  421SOL     OW 2161   1.496   6.512   6.526
  421SOL    HW1 2162   1.491   6.610   6.544
  421SOL    HW2 2163   1.441   6.463   6.593
  422SOL     OW 2164   5.269   4.673   6.613
  422SOL    HW1 2165   5.269   4.615   6.694
  422SOL    HW2 2166   5.225   4.760   6.634
  423SOL     OW 2167   1.056   3.108   5.921
  423SOL    HW1 2168   1.047   3.207   5.920
  423SOL    HW2 2169   1.127   3.080   5.856
  424SOL     OW 2170   2.131   3.880   6.916
  424SOL    HW1 2171   2.054   3.871   6.853
  424SOL    HW2 2172   2.162   3.976   6.918
  425SOL     OW 2173   2.935   6.882   0.130
  425SOL    HW1 2174   2.874   6.824   0.185
  425SOL    HW2 2175   2.956   6.836   0.044
  426SOL     OW 2176   6.348   4.084   6.020
  426SOL    HW1 2177   6.284   4.008   6.008
  426SOL    HW2 2178   6.321   4.160   5.962
  427SOL     OW 2179   4.609   3.278   0.626
  427SOL    HW1 2180   4.580   3.304   0.718
  427SOL    HW2 2181   4.707   3.258   0.627
  428SOL     OW 2182   3.571   1.912   5.919
  428SOL    HW1 2183   3.613   1.948   5.836
  428SOL    HW2 2184   3.637   1.852   5.966
  429SOL     OW 2185   3.081   5.872   0.499
  429SOL    HW1 2186   3.107   5.968   0.492
  429SOL    HW2 2187   2.983   5.862   0.481
  430SOL     OW 2188   2.663   0.211   4.418
  430SOL    HW1 2189   2.572   0.251   4.402
  430SOL    HW2 2190   2.658   0.112   4.412
  431SOL     OW 2191   3.257   1.509   6.764
  431SOL    HW1 2192   3.351   1.480   6.745
  431SOL    HW2 2193   3.200   1.428   6.780
  432SOL     OW 2194   6.892   1.553   1.109
  432SOL    HW1 2195   6.958   1.567   1.183
  432SOL    HW2 2196   6.816   1.498   1.143
  433SOL     OW 2197   3.020   5.948   4.705
  433SOL    HW1 2198   3.099   6.009   4.695
  433SOL    HW2 2199   3.010   5.893   4.622
  434SOL     OW 2200   6.397   3.437   1.093
  434SOL    HW1 2201   6.390   3.364   1.161
  434SOL    HW2 2202   6.486   3.481   1.099
  435SOL     OW 2203   4.022   3.177   0.911
  435SOL    HW1 2204   3.965   3.252   0.944
  435SOL    HW2 2205   3.964   3.103   0.879
  436SOL     OW 2206   2.557   0.466   0.155
  436SOL    HW1 2207   2.605   0.553   0.146
  436SOL    HW2 2208   2.605   0.408   0.221
  437SOL     OW 2209   6.355   0.390   5.461
  437SOL    HW1 2210   6.410   0.409   5.380
  437SOL    HW2 2211   6.299   0.470   5.483
  438SOL     OW 2212   1.999   3.373   1.362
  438SOL    HW1 2213   1.986   3.317   1.444
  438SOL    HW2 2214   2.067   3.329   1.303
  439SOL     OW 2215   6.300   4.270   2.157
  439SOL    HW1 2216   6.273   4.176   2.138
  439SOL    HW2 2217   6.385   4.290   2.108
  440SOL     OW 2218   1.427   3.048   3.019
  440SOL    HW1 2219   1.354   3.116   3.027
  440SOL    HW2 2220   1.496   3.066   3.089
  441SOL     OW 2221   0.867   0.990   3.115
  441SOL    HW1 2222   0.929   0.968   3.191
  441SOL    HW2 2223   0.876   1.087   3.092
  442SOL     OW 2224   0.067   4.717   6.662
  442SOL    HW1 2225   0.045   4.672   6.575
  442SOL    HW2 2226   7.017   4.777   6.688
  443SOL     OW 2227   1.034   4.371   5.229
  443SOL    HW1 2228   1.000   4.460   5.259
  443SOL    HW2 2229   0.991   4.346   5.142
  444SOL     OW 2230   4.908   3.347   6.567
  444SOL    HW1 2231   4.977   3.415   6.543
  444SOL    HW2 2232   4.951   3.259   6.584
  445SOL     OW 2233   1.658   4.689   2.999
  445SOL    HW1 2234   1.746   4.666   2.959
  445SOL    HW2 2235   1.649   4.789   3.007
  446SOL     OW 2236   3.484   4.973   4.058
  446SOL    HW1 2237   3.494   5.067   4.090
  446SOL    HW2 2238   3.568   4.945   4.012
  447SOL     OW 2239   0.413   5.897   0.252
  447SOL    HW1 2240   0.379   5.894   0.158
  447SOL    HW2 2241   0.384   5.815   0.301
  448SOL     OW 2242   4.673   0.626   6.078
  448SOL    HW1 2243   4.602   0.620   6.008
  448SOL    HW2 2244   4.751   0.568   6.053
  449SOL     OW 2245   5.652   6.694   4.102
  449SOL    HW1 2246   5.599   6.699   4.018
  449SOL    HW2 2247   5.591   6.709   4.180
  450SOL     OW 2248   7.002   5.882   3.692
  450SOL    HW1 2249   0.030   5.826   3.628
  450SOL    HW2 2250   6.911   5.842   3.702
  451SOL     OW 2251   6.186   2.600   3.985
  451SOL    HW1 2252   6.261   2.533   3.995
  451SOL    HW2 2253   6.103   2.553   3.955
  452SOL     OW 2254   6.437   5.320   6.527
  452SOL    HW1 2255   6.497   5.290   6.452
  452SOL    HW2 2256   6.347   5.277   6.516
  453SOL     OW 2257   2.978   0.837   5.580
  453SOL    HW1 2258   2.977   0.812   5.483
  453SOL    HW2 2259   3.057   0.895   5.598
  454SOL     OW 2260   0.955   6.247   0.286
  454SOL    HW1 2261   0.933   6.295   0.371
  454SOL    HW2 2262   1.051   6.220   0.287
  455SOL     OW 2263   4.712   0.332   5.341
  455SOL    HW1 2264   4.742   0.371   5.254
  455SOL    HW2 2265   4.697   0.405   5.407
  456SOL     OW 2266   4.745   5.634   6.914
  456SOL    HW1 2267   4.655   5.628   6.957
  456SOL    HW2 2268   4.793   5.546   6.925
  457SOL     OW 2269   0.878   4.609   1.877
  457SOL    HW1 2270   0.974   4.633   1.859
  457SOL    HW2 2271   0.870   4.509   1.881
  458SOL     OW 2272   6.566   6.579   5.853
  458SOL    HW1 2273   6.554   6.502   5.916
  458SOL    HW2 2274   6.573   6.664   5.905
  459SOL     OW 2275   1.648   0.493   3.609
  459SOL    HW1 2276   1.621   0.552   3.533
  459SOL    HW2 2277   1.609   0.528   3.694
  460SOL     OW 2278   6.706   1.426   3.827
  460SOL    HW1 2279   6.636   1.436   3.756
  460SOL    HW2 2280   6.663   1.409   3.915
  461SOL     OW 2281   5.181   6.139   5.455
  461SOL    HW1 2282   5.197   6.057   5.401
  461SOL    HW2 2283   5.242   6.212   5.424
  462SOL     OW 2284   3.143   2.521   6.963
  462SOL    HW1 2285   3.150   2.439   6.906
  462SOL    HW2 2286   3.082   2.503   0.014
  463SOL     OW 2287   0.132   5.969   1.546
  463SOL    HW1 2288   0.121   5.948   1.643
  463SOL    HW2 2289   0.097   6.061   1.528
  464SOL     OW 2290   2.061   1.339   5.613
  464SOL    HW1 2291   2.138   1.385   5.657
  464SOL    HW2 2292   2.038   1.256   5.664
  465SOL     OW 2293   6.970   3.122   5.396
  465SOL    HW1 2294   6.936   3.195   5.337
  465SOL    HW2 2295   6.921   3.037   5.374
  466SOL     OW 2296   2.621   0.614   3.158
  466SOL    HW1 2297   2.601   0.663   3.243
  466SOL    HW2 2298   2.549   0.546   3.141
  467SOL     OW 2299   1.732   1.544   5.264
  467SOL    HW1 2300   1.722   1.445   5.272
  467SOL    HW2 2301   1.641   1.586   5.258
  468SOL     OW 2302   3.466   4.153   1.814
  468SOL    HW1 2303   3.465   4.253   1.814
  468SOL    HW2 2304   3.385   4.119   1.861
  469SOL     OW 2305   2.900   4.675   6.947
  469SOL    HW1 2306   2.928   4.600   6.887
  469SOL    HW2 2307   2.904   4.645   0.017
  470SOL     OW 2308   3.788   0.388   2.828
  470SOL    HW1 2309   3.764   0.399   2.925
  470SOL    HW2 2310   3.886   0.407   2.816
  471SOL     OW 2311   2.975   1.832   4.709
  471SOL    HW1 2312   2.932   1.910   4.664
  471SOL    HW2 2313   2.915   1.752   4.702
  472SOL     OW 2314   4.364   4.339   5.405
  472SOL    HW1 2315   4.388   4.398   5.482
  472SOL    HW2 2316   4.370   4.391   5.320
  473SOL     OW 2317   1.124   4.045   3.758
  473SOL    HW1 2318   1.129   3.966   3.820
  473SOL    HW2 2319   1.117   4.129   3.811
  474SOL     OW 2320   4.753   4.680   4.726
  474SOL    HW1 2321   4.745   4.730   4.640
  474SOL    HW2 2322   4.781   4.743   4.799
  475SOL     OW 2323   1.012   7.024   6.655
  475SOL    HW1 2324   1.084   0.067   6.658
  475SOL    HW2 2325   1.018   6.972   6.569
  476SOL     OW 2326   0.296   5.320   2.324
  476SOL    HW1 2327   0.217   5.260   2.314
  476SOL    HW2 2328   0.342   5.301   2.410
  477SOL     OW 2329   1.828   5.425   3.882
  477SOL    HW1 2330   1.852   5.329   3.870
  477SOL    HW2 2331   1.827   5.470   3.793
  478SOL     OW 2332   1.531   5.251   3.165
  478SOL    HW1 2333   1.609   5.232   3.224
  478SOL    HW2 2334   1.456   5.188   3.186
  479SOL     OW 2335   3.300   1.564   1.180
  479SOL    HW1 2336   3.255   1.514   1.106
  479SOL    HW2 2337   3.249   1.552   1.264
  480SOL     OW 2338   1.609   6.345   2.658
  480SOL    HW1 2339   1.601   6.380   2.565
  480SOL    HW2 2340   1.519   6.318   2.691
  481SOL     OW 2341   2.876   6.793   1.890
  481SOL    HW1 2342   2.888   6.807   1.791
  481SOL    HW2 2343   2.803   6.727   1.905
  482SOL     OW 2344   5.777   5.039   1.752
  482SOL    HW1 2345   5.778   5.052   1.653
  482SOL    HW2 2346   5.690   4.997   1.780
  483SOL     OW 2347   5.663   1.783   0.963
  483SOL    HW1 2348   5.610   1.844   1.023
  483SOL    HW2 2349   5.758   1.813   0.962
  484SOL     OW 2350   6.602   2.868   4.978
  484SOL    HW1 2351   6.537   2.827   4.914
  484SOL    HW2 2352   6.691   2.877   4.933
  485SOL     OW 2353   3.610   5.499   2.011
  485SOL    HW1 2354   3.692   5.534   1.967
  485SOL    HW2 2355   3.605   5.399   1.999
  486SOL     OW 2356   0.437   0.578   6.564
  486SOL    HW1 2357   0.343   0.574   6.531
  486SOL    HW2 2358   0.499   0.595   6.487
  487SOL     OW 2359   6.644   3.070   6.317
  487SOL    HW1 2360   6.590   3.132   6.374
  487SOL    HW2 2361   6.705   3.016   6.375
  488SOL     OW 2362   0.561   3.075   2.331
  488SOL    HW1 2363   0.554   3.036   2.240
  488SOL    HW2 2364   0.540   3.172   2.328
  489SOL     OW 2365   3.320   6.037   5.958
  489SOL    HW1 2366   3.273   6.126   5.961
  489SOL    HW2 2367   3.389   6.034   6.030
  490SOL     OW 2368   5.471   6.065   4.219
  490SOL    HW1 2369   5.523   5.980   4.210
  490SOL    HW2 2370   5.458   6.106   4.129
  491SOL     OW 2371   6.911   2.209   3.238
  491SOL    HW1 2372   7.002   2.179   3.209
  491SOL    HW2 2373   6.848   2.206   3.159
  492SOL     OW 2374   1.829   1.134   4.773
  492SOL    HW1 2375   1.819   1.229   4.743
  492SOL    HW2 2376   1.869   1.132   4.865
  493SOL     OW 2377   6.288   4.128   3.889
  493SOL    HW1 2378   6.215   4.191   3.914
  493SOL    HW2 2379   6.257   4.070   3.814
  494SOL     OW 2380   6.230   2.055   0.162
  494SOL    HW1 2381   6.281   2.099   0.087
  494SOL    HW2 2382   6.220   1.958   0.143
  495SOL     OW 2383   4.515   4.660   1.037
  495SOL    HW1 2384   4.608   4.693   1.025
  495SOL    HW2 2385   4.452   4.737   1.046
  496SOL     OW 2386   6.084   2.720   3.190
  496SOL    HW1 2387   6.109   2.779   3.114
  496SOL    HW2 2388   6.136   2.635   3.186
  497SOL     OW 2389   4.150   0.344   4.214
  497SOL    HW1 2390   4.244   0.340   4.250
  497SOL    HW2 2391   4.151   0.319   4.117
  498SOL     OW 2392   1.127   3.331   2.708
  498SOL    HW1 2393   1.074   3.401   2.660
  498SOL    HW2 2394   1.219   3.326   2.669
  499SOL     OW 2395   3.292   1.359   5.316
  499SOL    HW1 2396   3.269   1.377   5.411
  499SOL    HW2 2397   3.214   1.380   5.258
  500SOL     OW 2398   1.370   3.932   2.653
  500SOL    HW1 2399   1.416   3.934   2.741
  500SOL    HW2 2400   1.436   3.953   2.580
  501SOL     OW 2401   1.188   5.229   6.481
  501SOL    HW1 2402   1.136   5.297   6.430
  501SOL    HW2 2403   1.264   5.196   6.425
  502SOL     OW 2404   3.093   5.074   6.362
  502SOL    HW1 2405   3.056   5.165   6.380
  502SOL    HW2 2406   3.149   5.076   6.280
  503SOL     OW 2407   5.706   6.098   5.198
  503SOL    HW1 2408   5.765   6.054   5.130
  503SOL    HW2 2409   5.665   6.180   5.158
  504SOL     OW 2410   2.163   5.169   4.064
  504SOL    HW1 2411   2.190   5.081   4.103
  504SOL    HW2 2412   2.114   5.222   4.133
  505SOL     OW 2413   4.402   7.000   5.380
  505SOL    HW1 2414   4.495   0.006   5.362
  505SOL    HW2 2415   4.340   0.014   5.312
  506SOL     OW 2416   2.281   3.707   6.686
  506SOL    HW1 2417   2.200   3.752   6.722
  506SOL    HW2 2418   2.354   3.711   6.754
  507SOL     OW 2419   3.628   1.706   4.261
  507SOL    HW1 2420   3.606   1.640   4.189
  507SOL    HW2 2421   3.720   1.687   4.296
  508SOL     OW 2422   6.101   4.538   4.000
  508SOL    HW1 2423   6.100   4.626   3.951
  508SOL    HW2 2424   6.159   4.546   4.081
  509SOL     OW 2425   4.766   2.377   1.547
  509SOL    HW1 2426   4.751   2.456   1.487
  509SOL    HW2 2427   4.775   2.407   1.641
  510SOL     OW 2428   0.378   3.610   4.271
  510SOL    HW1 2429   0.462   3.618   4.326
  510SOL    HW2 2430   0.324   3.532   4.304
  511SOL     OW 2431   0.590   6.563   1.302
  511SOL    HW1 2432   0.525   6.494   1.268
  511SOL    HW2 2433   0.651   6.520   1.369
  512SOL     OW 2434   0.628   3.744   6.356
  512SOL    HW1 2435   0.606   3.649   6.332
  512SOL    HW2 2436   0.642   3.751   6.455
  513SOL     OW 2437   0.261   5.365   4.410
  513SOL    HW1 2438   0.340   5.319   4.449
  513SOL    HW2 2439   0.178   5.310   4.424
  514SOL     OW 2440   6.230   1.625   3.251
  514SOL    HW1 2441   6.197   1.533   3.271
  514SOL    HW2 2442   6.294   1.622   3.175
  515SOL     OW 2443   2.107   6.166   0.166
  515SOL    HW1 2444   2.154   6.173   0.078
  515SOL    HW2 2445   2.060   6.077   0.172
  516SOL     OW 2446   1.164   5.336   2.399
  516SOL    HW1 2447   1.165   5.297   2.490
  516SOL    HW2 2448   1.258   5.339   2.363
  517SOL     OW 2449   4.772   0.363   6.895
  517SOL    HW1 2450   4.870   0.343   6.888
  517SOL    HW2 2451   4.749   0.437   6.832
  518SOL     OW 2452   2.712   1.930   0.614
  518SOL    HW1 2453   2.650   1.939   0.692
  518SOL    HW2 2454   2.753   1.839   0.615
  519SOL     OW 2455   0.638   6.530   0.805
  519SOL    HW1 2456   0.598   6.615   0.841
  519SOL    HW2 2457   0.602   6.514   0.713
  520SOL     OW 2458   6.649   4.385   4.834
  520SOL    HW1 2459   6.555   4.400   4.802
  520SOL    HW2 2460   6.651   4.307   4.896
  521SOL     OW 2461   6.416   0.436   1.109
  521SOL    HW1 2462   6.344   0.499   1.081
  521SOL    HW2 2463   6.446   0.459   1.202
  522SOL     OW 2464   3.515   3.643   5.307
  522SOL    HW1 2465   3.573   3.718   5.337
  522SOL    HW2 2466   3.473   3.666   5.219
  523SOL     OW 2467   6.599   6.513   4.954
  523SOL    HW1 2468   6.544   6.580   4.903
  523SOL    HW2 2469   6.694   6.542   4.956
  524SOL     OW 2470   4.255   1.700   6.016
  524SOL    HW1 2471   4.252   1.661   6.108
  524SOL    HW2 2472   4.350   1.714   5.989
  525SOL     OW 2473   2.883   2.950   6.650
  525SOL    HW1 2474   2.934   3.013   6.709
  525SOL    HW2 2475   2.811   2.906   6.703
  526SOL     OW 2476   4.576   5.775   4.846
  526SOL    HW1 2477   4.573   5.808   4.940
  526SOL    HW2 2478   4.614   5.846   4.787
  527SOL     OW 2479   1.320   1.917   7.025
  527SOL    HW1 2480   1.414   1.950   0.009
  527SOL    HW2 2481   1.272   1.974   6.958
  528SOL     OW 2482   1.954   0.236   5.680
  528SOL    HW1 2483   1.866   0.241   5.728
  528SOL    HW2 2484   2.028   0.239   5.747
  529SOL     OW 2485   6.837   4.224   4.406
  529SOL    HW1 2486   6.833   4.211   4.505
  529SOL    HW2 2487   6.765   4.287   4.378
  530SOL     OW 2488   1.480   2.788   5.189
  530SOL    HW1 2489   1.401   2.741   5.152
  530SOL    HW2 2490   1.562   2.731   5.177
  531SOL     OW 2491   6.949   0.887   0.030
  531SOL    HW1 2492   6.985   0.797   0.053
  531SOL    HW2 2493   6.850   0.882   0.019
  532SOL     OW 2494   1.721   0.255   5.785
  532SOL    HW1 2495   1.650   0.303   5.735
  532SOL    HW2 2496   1.732   0.296   5.875
  533SOL     OW 2497   5.618   0.256   4.577
  533SOL    HW1 2498   5.636   0.304   4.663
  533SOL    HW2 2499   5.705   0.229   4.535
  534SOL     OW 2500   3.582   5.457   2.481
  534SOL    HW1 2501   3.548   5.511   2.404
  534SOL    HW2 2502   3.587   5.514   2.562
  535SOL     OW 2503   6.790   4.175   2.966
  535SOL    HW1 2504   6.875   4.221   2.991
  535SOL    HW2 2505   6.775   4.096   3.025
  536SOL     OW 2506   1.074   6.063   0.604
  536SOL    HW1 2507   0.989   6.014   0.584
  536SOL    HW2 2508   1.133   6.005   0.660
  537SOL     OW 2509   2.067   0.459   3.385
  537SOL    HW1 2510   2.088   0.366   3.355
  537SOL    HW2 2511   2.088   0.523   3.312
  538SOL     OW 2512   1.246   4.454   3.659
  538SOL    HW1 2513   1.188   4.475   3.738
  538SOL    HW2 2514   1.326   4.402   3.689
  539SOL     OW 2515   1.215   5.305   1.388
  539SOL    HW1 2516   1.211   5.282   1.291
  539SOL    HW2 2517   1.124   5.297   1.428
  540SOL     OW 2518   1.145   2.920   1.202
  540SOL    HW1 2519   1.224   2.890   1.148
  540SOL    HW2 2520   1.069   2.857   1.188
  541SOL     OW 2521   3.763   5.045   5.269
  541SOL    HW1 2522   3.731   5.128   5.224
  541SOL    HW2 2523   3.856   5.025   5.241
  542SOL     OW 2524   5.736   6.076   6.704
  542SOL    HW1 2525   5.828   6.065   6.742
  542SOL    HW2 2526   5.680   5.996   6.726
  543SOL     OW 2527   6.991   5.981   0.063
  543SOL    HW1 2528   0.042   6.025   0.016
  543SOL    HW2 2529   7.001   5.994   0.162
  544SOL     OW 2530   1.046   6.293   6.945
  544SOL    HW1 2531   0.966   6.354   6.944
  544SOL    HW2 2532   1.020   6.203   6.910
  545SOL     OW 2533   3.366   1.710   3.600
  545SOL    HW1 2534   3.332   1.759   3.520
  545SOL    HW2 2535   3.457   1.672   3.579
  546SOL     OW 2536   1.376   3.167   0.053
  546SOL    HW1 2537   1.300   3.192   7.019
  546SOL    HW2 2538   1.442   3.242   0.056
  547SOL     OW 2539   2.717   2.608   6.942
  547SOL    HW1 2540   2.712   2.690   6.886
  547SOL    HW2 2541   2.678   2.531   6.892
  548SOL     OW 2542   3.424   3.312   5.159
  548SOL    HW1 2543   3.407   3.237   5.096
  548SOL    HW2 2544   3.337   3.349   5.193
  549SOL     OW 2545   0.940   3.850   1.545
  549SOL    HW1 2546   0.909   3.867   1.451
  549SOL    HW2 2547   0.976   3.935   1.584
  550SOL     OW 2548   6.839   3.790   1.203
  550SOL    HW1 2549   6.862   3.715   1.141
  550SOL    HW2 2550   6.851   3.759   1.297
  551SOL     OW 2551   6.831   1.752   6.429
  551SOL    HW1 2552   6.796   1.767   6.521
  551SOL    HW2 2553   6.811   1.832   6.372
  552SOL     OW 2554   4.729   5.251   0.292
  552SOL    HW1 2555   4.765   5.212   0.377
  552SOL    HW2 2556   4.645   5.301   0.311
  553SOL     OW 2557   1.582   2.322   1.400
  553SOL    HW1 2558   1.610   2.417   1.415
  553SOL    HW2 2559   1.556   2.282   1.488
  554SOL     OW 2560   4.776   5.357   4.614
  554SOL    HW1 2561   4.863   5.336   4.570
  554SOL    HW2 2562   4.771   5.455   4.634
  555SOL     OW 2563   2.014   4.228   4.431
  555SOL    HW1 2564   1.959   4.290   4.375
  555SOL    HW2 2565   1.960   4.198   4.510
  556SOL     OW 2566   6.216   3.397   2.672
  556SOL    HW1 2567   6.175   3.475   2.720
  556SOL    HW2 2568   6.155   3.319   2.676
  557SOL     OW 2569   0.244   5.496   6.746
  557SOL    HW1 2570   0.314   5.425   6.742
  557SOL    HW2 2571   0.182   5.486   6.669
  558SOL     OW 2572   4.318   3.545   5.594
  558SOL    HW1 2573   4.232   3.562   5.547
  558SOL    HW2 2574   4.395   3.566   5.532
  559SOL     OW 2575   6.230   5.483   6.186
  559SOL    HW1 2576   6.140   5.513   6.155
  559SOL    HW2 2577   6.288   5.466   6.107
  560SOL     OW 2578   3.876   6.701   7.005
  560SOL    HW1 2579   3.856   6.798   7.020
  560SOL    HW2 2580   3.961   6.677   0.026
  561SOL     OW 2581   5.496   6.652   1.528
  561SOL    HW1 2582   5.425   6.682   1.465
  561SOL    HW2 2583   5.573   6.714   1.524
  562SOL     OW 2584   6.859   0.631   6.842
  562SOL    HW1 2585   6.835   0.653   6.747
  562SOL    HW2 2586   6.802   0.556   6.875
  563SOL     OW 2587   3.244   0.146   4.701
  563SOL    HW1 2588   3.264   0.099   4.616
  563SOL    HW2 2589   3.177   0.219   4.685
  564SOL     OW 2590   0.432   1.817   6.201
  564SOL    HW1 2591   0.392   1.907   6.184
  564SOL    HW2 2592   0.365   1.758   6.244
  565SOL     OW 2593   4.607   4.277   5.167
  565SOL    HW1 2594   4.705   4.262   5.157
  565SOL    HW2 2595   4.563   4.191   5.195
  566SOL     OW 2596   5.705   5.068   2.325
  566SOL    HW1 2597   5.681   4.972   2.314
  566SOL    HW2 2598   5.714   5.110   2.234
  567SOL     OW 2599   3.860   4.083   4.292
  567SOL    HW1 2600   3.929   4.017   4.261
  567SOL    HW2 2601   3.865   4.092   4.392
  568SOL     OW 2602   1.955   1.340   6.046
  568SOL    HW1 2603   1.997   1.407   5.986
  568SOL    HW2 2604   2.021   1.311   6.116
  569SOL     OW 2605   2.504   3.626   6.925
  569SOL    HW1 2606   2.412   3.599   6.954
  569SOL    HW2 2607   2.567   3.550   6.937
  570SOL     OW 2608   0.436   6.075   1.100
  570SOL    HW1 2609   0.525   6.031   1.087
  570SOL    HW2 2610   0.365   6.016   1.061
  571SOL     OW 2611   4.093   5.309   3.049
  571SOL    HW1 2612   4.174   5.354   3.010
  571SOL    HW2 2613   4.090   5.214   3.018
  572SOL     OW 2614   2.228   4.012   4.436
  572SOL    HW1 2615   2.170   3.965   4.503
  572SOL    HW2 2616   2.182   4.096   4.405
  573SOL     OW 2617   3.760   2.524   6.789
  573SOL    HW1 2618   3.801   2.605   6.748
  573SOL    HW2 2619   3.799   2.442   6.747
  574SOL     OW 2620   2.587   1.352   4.396
  574SOL    HW1 2621   2.645   1.433   4.399
  574SOL    HW2 2622   2.491   1.379   4.396
  575SOL     OW 2623   5.765   2.765   6.115
  575SOL    HW1 2624   5.772   2.738   6.019
  575SOL    HW2 2625   5.766   2.865   6.122
  576SOL     OW 2626   1.048   2.315   2.581
  576SOL    HW1 2627   1.112   2.310   2.657
  576SOL    HW2 2628   1.054   2.405   2.537
  577SOL     OW 2629   3.546   2.152   4.373
  577SOL    HW1 2630   3.590   2.113   4.454
  577SOL    HW2 2631   3.483   2.224   4.401
  578SOL     OW 2632   0.325   3.477   4.566
  578SOL    HW1 2633   0.290   3.384   4.556
  578SOL    HW2 2634   0.252   3.542   4.546
  579SOL     OW 2635   3.830   3.496   0.527
  579SOL    HW1 2636   3.899   3.476   0.597
  579SOL    HW2 2637   3.870   3.559   0.460
  580SOL     OW 2638   0.683   6.035   6.776
  580SOL    HW1 2639   0.758   5.977   6.807
  580SOL    HW2 2640   0.721   6.113   6.726
  581SOL     OW 2641   4.076   3.396   2.682
  581SOL    HW1 2642   4.087   3.496   2.678
  581SOL    HW2 2643   4.069   3.360   2.589
  582SOL     OW 2644   6.517   4.255   1.598
  582SOL    HW1 2645   6.535   4.157   1.603
  582SOL    HW2 2646   6.593   4.301   1.552
  583SOL     OW 2647   2.506   5.946   6.777
  583SOL    HW1 2648   2.552   5.997   6.850
  583SOL    HW2 2649   2.569   5.877   6.740
  584SOL     OW 2650   0.915   5.465   5.110
  584SOL    HW1 2651   0.846   5.394   5.096
  584SOL    HW2 2652   0.996   5.425   5.153
  585SOL     OW 2653   6.123   1.236   5.718
  585SOL    HW1 2654   6.142   1.162   5.783
  585SOL    HW2 2655   6.204   1.252   5.662
  586SOL     OW 2656   2.680   5.877   1.323
  586SOL    HW1 2657   2.718   5.819   1.395
  586SOL    HW2 2658   2.625   5.821   1.261
  587SOL     OW 2659   1.297   3.677   5.950
  587SOL    HW1 2660   1.353   3.600   5.922
  587SOL    HW2 2661   1.202   3.661   5.921
  588SOL     OW 2662   2.087   7.016   1.702
  588SOL    HW1 2663   2.134   6.962   1.632
  588SOL    HW2 2664   2.005   0.031   1.663
  589SOL     OW 2665   4.689   5.323   2.429
  589SOL    HW1 2666   4.729   5.293   2.515
  589SOL    HW2 2667   4.590   5.335   2.440
  590SOL     OW 2668   6.613   2.427   1.884
  590SOL    HW1 2669   6.581   2.463   1.796
  590SOL    HW2 2670   6.706   2.392   1.874
  591SOL     OW 2671   2.898   6.636   3.142
  591SOL    HW1 2672   2.950   6.627   3.226
  591SOL    HW2 2673   2.912   6.555   3.084
  592SOL     OW 2674   5.544   0.294   6.985
  592SOL    HW1 2675   5.583   0.227   6.922
  592SOL    HW2 2676   5.468   0.254   0.009
  593SOL     OW 2677   6.242   1.469   4.620
  593SOL    HW1 2678   6.321   1.442   4.565
  593SOL    HW2 2679   6.259   1.447   4.716
  594SOL     OW 2680   5.495   2.911   1.526
  594SOL    HW1 2681   5.506   2.832   1.587
  594SOL    HW2 2682   5.474   2.878   1.434
  595SOL     OW 2683   4.717   6.919   3.927
  595SOL    HW1 2684   4.622   6.945   3.946
  595SOL    HW2 2685   4.778   6.964   3.993
  596SOL     OW 2686   0.925   4.021   2.359
  596SOL    HW1 2687   0.926   3.993   2.262
  596SOL    HW2 2688   1.009   4.070   2.380
  597SOL     OW 2689   4.096   2.393   6.143
  597SOL    HW1 2690   4.020   2.341   6.183
  597SOL    HW2 2691   4.147   2.334   6.080
  598SOL     OW 2692   3.098   4.163   1.300
  598SOL    HW1 2693   3.086   4.166   1.400
  598SOL    HW2 2694   3.045   4.236   1.258
  599SOL     OW 2695   6.762   6.203   3.476
  599SOL    HW1 2696   6.820   6.232   3.552
  599SOL    HW2 2697   6.782   6.108   3.453
  600SOL     OW 2698   2.594   1.594   1.283
  600SOL    HW1 2699   2.577   1.497   1.299
  600SOL    HW2 2700   2.690   1.608   1.260
  601SOL     OW 2701   2.378   4.768   3.118
  601SOL    HW1 2702   2.433   4.843   3.080
  601SOL    HW2 2703   2.358   4.701   3.047
  602SOL     OW 2704   6.860   0.623   1.973
  602SOL    HW1 2705   6.789   0.569   2.019
  602SOL    HW2 2706   6.908   0.679   2.041
  603SOL     OW 2707   3.716   1.624   3.327
  603SOL    HW1 2708   3.769   1.605   3.245
  603SOL    HW2 2709   3.764   1.692   3.383
  604SOL     OW 2710   0.883   4.098   5.670
  604SOL    HW1 2711   0.791   4.093   5.710
  604SOL    HW2 2712   0.878   4.146   5.582
  605SOL     OW 2713   5.942   0.090   4.847
  605SOL    HW1 2714   6.020   0.152   4.852
  605SOL    HW2 2715   5.942   0.029   4.926
  606SOL     OW 2716   3.377   0.129   2.569
  606SOL    HW1 2717   3.302   0.085   2.618
  606SOL    HW2 2718   3.428   0.188   2.631
  607SOL     OW 2719   4.034   0.746   4.009
  607SOL    HW1 2720   3.975   0.817   3.971
  607SOL    HW2 2721   4.036   0.754   4.109
  608SOL     OW 2722   5.244   2.239   2.051
  608SOL    HW1 2723   5.321   2.175   2.058
  608SOL    HW2 2724   5.160   2.188   2.033
  609SOL     OW 2725   2.982   3.533   4.658
  609SOL    HW1 2726   2.948   3.591   4.733
  609SOL    HW2 2727   3.014   3.446   4.695
  610SOL     OW 2728   5.749   1.578   4.493
  610SOL    HW1 2729   5.821   1.513   4.516
  610SOL    HW2 2730   5.782   1.639   4.420
  611SOL     OW 2731   6.295   6.886   0.472
  611SOL    HW1 2732   6.223   6.844   0.527
  611SOL    HW2 2733   6.268   6.979   0.446
  612SOL     OW 2734   2.241   5.362   5.820
  612SOL    HW1 2735   2.228   5.302   5.741
  612SOL    HW2 2736   2.166   5.348   5.885
  613SOL     OW 2737   3.808   1.682   6.986
  613SOL    HW1 2738   3.791   1.776   7.015
  613SOL    HW2 2739   3.731   1.624   7.012
  614SOL     OW 2740   5.503   3.177   1.397
  614SOL    HW1 2741   5.480   3.091   1.444
  614SOL    HW2 2742   5.523   3.157   1.301
  615SOL     OW 2743   5.079   6.728   0.595
  615SOL    HW1 2744   5.112   6.803   0.538
  615SOL    HW2 2745   5.098   6.749   0.691
  616SOL     OW 2746   5.220   0.403   4.667
  616SOL    HW1 2747   5.272   0.317   4.671
  616SOL    HW2 2748   5.208   0.429   4.571
  617SOL     OW 2749   0.210   6.144   5.592
  617SOL    HW1 2750   0.124   6.176   5.552
  617SOL    HW2 2751   0.287   6.184   5.542
  618SOL     OW 2752   5.676   4.652   0.267
  618SOL    HW1 2753   5.773   4.662   0.287
  618SOL    HW2 2754   5.651   4.555   0.266
  619SOL     OW 2755   2.350   6.687   6.111
  619SOL    HW1 2756   2.446   6.715   6.104
  619SOL    HW2 2757   2.311   6.724   6.195
  620SOL     OW 2758   4.589   1.909   2.170
  620SOL    HW1 2759   4.517   1.840   2.170
  620SOL    HW2 2760   4.550   1.997   2.142
  621SOL     OW 2761   2.984   0.477   6.607
  621SOL    HW1 2762   3.038   0.404   6.649
  621SOL    HW2 2763   2.928   0.521   6.676
  622SOL     OW 2764   0.174   3.428   5.663
  622SOL    HW1 2765   0.164   3.335   5.627
  622SOL    HW2 2766   0.094   3.452   5.718
  623SOL     OW 2767   6.660   0.271   3.107
  623SOL    HW1 2768   6.741   0.299   3.054
  623SOL    HW2 2769   6.663   0.314   3.197
  624SOL     OW 2770   6.709   1.626   5.863
  624SOL    HW1 2771   6.663   1.538   5.850
  624SOL    HW2 2772   6.682   1.666   5.950
  625SOL     OW 2773   3.719   0.918   1.326
  625SOL    HW1 2774   3.640   0.903   1.387
  625SOL    HW2 2775   3.741   1.015   1.324
  626SOL     OW 2776   0.563   6.216   3.487
  626SOL    HW1 2777   0.635   6.282   3.463
  626SOL    HW2 2778   0.575   6.187   3.582
  627SOL     OW 2779   6.441   5.667   0.366
  627SOL    HW1 2780   6.410   5.760   0.343
  627SOL    HW2 2781   6.522   5.645   0.312
  628SOL     OW 2782   3.571   5.140   6.325
  628SOL    HW1 2783   3.523   5.082   6.259
  628SOL    HW2 2784   3.543   5.235   6.310
  629SOL     OW 2785   1.245   6.720   6.876
  629SOL    HW1 2786   1.315   6.720   6.948
  629SOL    HW2 2787   1.289   6.736   6.788
  630SOL     OW 2788   0.012   1.904   1.267
  630SOL    HW1 2789   6.988   1.883   1.183
  630SOL    HW2 2790   0.110   1.914   1.247
  631SOL     OW 2791   1.586   3.042   3.623
  631SOL    HW1 2792   1.622   3.092   3.702
  631SOL    HW2 2793   1.661   2.995   3.577
  632SOL     OW 2794   2.897   4.183   1.023
  632SOL    HW1 2795   2.857   4.098   1.058
  632SOL    HW2 2796   2.912   4.246   1.099
  633SOL     OW 2797   1.478   5.884   0.684
  633SOL    HW1 2798   1.555   5.924   0.634
  633SOL    HW2 2799   1.411   5.848   0.618
  634SOL     OW 2800   2.982   3.233   5.035
  634SOL    HW1 2801   3.005   3.298   5.108
  634SOL    HW2 2802   2.924   3.161   5.073
  635SOL     OW 2803   5.706   0.015   6.180
  635SOL    HW1 2804   5.788   0.056   6.218
  635SOL    HW2 2805   5.627   0.038   6.238
  636SOL     OW 2806   2.766   1.009   4.942
  636SOL    HW1 2807   2.694   0.946   4.970
  636SOL    HW2 2808   2.853   0.961   4.936
  637SOL     OW 2809   0.109   1.265   2.867
  637SOL    HW1 2810   0.172   1.258   2.791
  637SOL    HW2 2811   0.131   1.195   2.935
  638SOL     OW 2812   6.842   3.331   5.260
  638SOL    HW1 2813   6.778   3.352   5.334
  638SOL    HW2 2814   6.802   3.262   5.200
  639SOL     OW 2815   5.901   3.995   1.800
  639SOL    HW1 2816   5.806   3.975   1.777
  639SOL    HW2 2817   5.910   4.003   1.899
  640SOL     OW 2818   0.059   3.144   2.452
  640SOL    HW1 2819   0.120   3.148   2.373
  640SOL    HW2 2820   0.056   3.051   2.488
  641SOL     OW 2821   2.384   5.259   4.388
  641SOL    HW1 2822   2.411   5.195   4.316
  641SOL    HW2 2823   2.390   5.213   4.477
  642SOL     OW 2824   0.490   5.264   4.538
  642SOL    HW1 2825   0.583   5.295   4.560
  642SOL    HW2 2826   0.455   5.209   4.614
  643SOL     OW 2827   4.356   5.509   0.689
  643SOL    HW1 2828   4.270   5.458   0.686
  643SOL    HW2 2829   4.354   5.583   0.622
  644SOL     OW 2830   6.805   6.536   5.228
  644SOL    HW1 2831   6.855   6.617   5.258
  644SOL    HW2 2832   6.810   6.529   5.128
  645SOL     OW 2833   4.326   5.665   2.520
  645SOL    HW1 2834   4.237   5.701   2.491
  645SOL    HW2 2835   4.397   5.731   2.501
  646SOL     OW 2836   3.495   1.668   4.937
  646SOL    HW1 2837   3.399   1.659   4.963
  646SOL    HW2 2838   3.503   1.738   4.865
  647SOL     OW 2839   3.496   2.454   6.873
  647SOL    HW1 2840   3.594   2.473   6.861
  647SOL    HW2 2841   3.445   2.540   6.871
  648SOL     OW 2842   6.220   1.351   4.003
  648SOL    HW1 2843   6.202   1.266   3.954
  648SOL    HW2 2844   6.232   1.425   3.938
  649SOL     OW 2845   2.603   5.547   0.660
  649SOL    HW1 2846   2.570   5.462   0.617
  649SOL    HW2 2847   2.697   5.564   0.631
  650SOL     OW 2848   0.634   3.230   0.981
  650SOL    HW1 2849   0.664   3.287   0.904
  650SOL    HW2 2850   0.703   3.160   0.999
  651SOL     OW 2851   0.094   0.564   3.835
  651SOL    HW1 2852   0.111   0.468   3.857
  651SOL    HW2 2853   7.023   0.585   3.850
  652SOL     OW 2854   4.201   5.515   1.075
  652SOL    HW1 2855   4.207   5.445   1.146
  652SOL    HW2 2856   4.275   5.503   1.009
  653SOL     OW 2857   1.545   6.550   2.430
  653SOL    HW1 2858   1.555   6.516   2.336
  653SOL    HW2 2859   1.453   6.531   2.463
  654SOL     OW 2860   0.827   7.001   5.405
  654SOL    HW1 2861   0.870   0.056   5.364
  654SOL    HW2 2862   0.757   0.005   5.471
  655SOL     OW 2863   1.082   3.565   1.293
  655SOL    HW1 2864   1.175   3.564   1.331
  655SOL    HW2 2865   1.016   3.563   1.368
  656SOL     OW 2866   2.797   6.481   6.657
  656SOL    HW1 2867   2.804   6.388   6.619
  656SOL    HW2 2868   2.724   6.483   6.725
  657SOL     OW 2869   3.718   3.274   3.444
  657SOL    HW1 2870   3.652   3.238   3.509
  657SOL    HW2 2871   3.809   3.239   3.466
  658SOL     OW 2872   1.297   1.063   4.228
  658SOL    HW1 2873   1.323   1.064   4.131
  658SOL    HW2 2874   1.278   0.970   4.257
  659SOL     OW 2875   1.738   5.584   6.444
  659SOL    HW1 2876   1.785   5.547   6.523
  659SOL    HW2 2877   1.740   5.517   6.369
  660SOL     OW 2878   5.894   4.616   2.706
  660SOL    HW1 2879   5.836   4.689   2.667
  660SOL    HW2 2880   5.938   4.649   2.789
  661SOL     OW 2881   4.292   4.835   3.918
  661SOL    HW1 2882   4.285   4.762   3.987
  661SOL    HW2 2883   4.235   4.812   3.839
  662SOL     OW 2884   5.014   3.914   0.148
  662SOL    HW1 2885   4.972   3.829   0.181
  662SOL    HW2 2886   5.111   3.915   0.172
  663SOL     OW 2887   0.064   4.544   6.898
  663SOL    HW1 2888   0.087   4.457   6.854
  663SOL    HW2 2889   0.085   4.619   6.836
  664SOL     OW 2890   1.165   6.906   6.308
  664SOL    HW1 2891   1.265   6.912   6.304
  664SOL    HW2 2892   1.132   6.853   6.231
  665SOL     OW 2893   2.788   4.709   2.778
  665SOL    HW1 2894   2.813   4.702   2.681
  665SOL    HW2 2895   2.862   4.753   2.828
  666SOL     OW 2896   3.176   1.247   6.813
  666SOL    HW1 2897   3.249   1.212   6.872
  666SOL    HW2 2898   3.198   1.228   6.718
  667SOL     OW 2899   1.778   3.231   2.410
  667SOL    HW1 2900   1.709   3.168   2.448
  667SOL    HW2 2901   1.825   3.186   2.334
  668SOL     OW 2902   4.902   0.194   0.985
  668SOL    HW1 2903   4.892   0.130   0.910
  668SOL    HW2 2904   4.813   0.211   1.028
  669SOL     OW 2905   0.621   5.748   2.776
  669SOL    HW1 2906   0.550   5.679   2.786
  669SOL    HW2 2907   0.622   5.782   2.682
  670SOL     OW 2908   3.938   3.451   3.000
  670SOL    HW1 2909   3.993   3.534   3.008
  670SOL    HW2 2910   3.998   3.371   2.995
  671SOL     OW 2911   1.496   0.874   6.509
  671SOL    HW1 2912   1.515   0.958   6.560
  671SOL    HW2 2913   1.476   0.800   6.573
  672SOL     OW 2914   0.927   2.247   3.202
  672SOL    HW1 2915   0.937   2.198   3.116
  672SOL    HW2 2916   0.993   2.212   3.269
  673SOL     OW 2917   4.918   0.327   0.250
  673SOL    HW1 2918   4.908   0.413   0.200
  673SOL    HW2 2919   4.987   0.339   0.322
  674SOL     OW 2920   0.110   2.325   4.644
  674SOL    HW1 2921   0.136   2.307   4.549
  674SOL    HW2 2922   0.181   2.380   4.688
  675SOL     OW 2923   6.309   6.365   3.775
  675SOL    HW1 2924   6.250   6.445   3.762
  675SOL    HW2 2925   6.405   6.395   3.780
  676SOL     OW 2926   3.014   5.655   4.233
  676SOL    HW1 2927   3.060   5.719   4.171
  676SOL    HW2 2928   2.917   5.676   4.237
  677SOL     OW 2929   4.401   6.680   0.699
  677SOL    HW1 2930   4.377   6.671   0.795
  677SOL    HW2 2931   4.338   6.745   0.655
  678SOL     OW 2932   2.388   0.991   5.307
  678SOL    HW1 2933   2.472   1.016   5.258
  678SOL    HW2 2934   2.392   1.027   5.400
  679SOL     OW 2935   5.878   0.973   2.112
  679SOL    HW1 2936   5.930   0.993   2.195
  679SOL    HW2 2937   5.935   0.924   2.047
  680SOL     OW 2938   5.583   4.347   4.477
  680SOL    HW1 2939   5.656   4.300   4.526
  680SOL    HW2 2940   5.495   4.304   4.498
  681SOL     OW 2941   1.198   6.596   1.969
  681SOL    HW1 2942   1.211   6.504   2.005
  681SOL    HW2 2943   1.276   6.653   1.992
  682SOL     OW 2944   0.340   0.285   6.132
  682SOL    HW1 2945   0.267   0.281   6.064
  682SOL    HW2 2946   0.299   0.283   6.224
  683SOL     OW 2947   4.833   1.358   1.283
  683SOL    HW1 2948   4.895   1.288   1.248
  683SOL    HW2 2949   4.877   1.405   1.360
  684SOL     OW 2950   0.203   5.961   6.506
  684SOL    HW1 2951   0.278   5.895   6.495
  684SOL    HW2 2952   0.241   6.053   6.509
  685SOL     OW 2953   6.468   0.672   6.696
  685SOL    HW1 2954   6.556   0.626   6.700
  685SOL    HW2 2955   6.445   0.691   6.600
  686SOL     OW 2956   5.995   4.957   2.850
  686SOL    HW1 2957   5.982   4.960   2.949
  686SOL    HW2 2958   6.066   4.891   2.828
  687SOL     OW 2959   5.740   2.173   5.425
  687SOL    HW1 2960   5.784   2.116   5.495
  687SOL    HW2 2961   5.758   2.269   5.445
  688SOL     OW 2962   6.713   3.745   4.786
  688SOL    HW1 2963   6.626   3.703   4.762
  688SOL    HW2 2964   6.738   3.719   4.880
  689SOL     OW 2965   5.746   4.219   4.679
  689SOL    HW1 2966   5.682   4.204   4.754
  689SOL    HW2 2967   5.818   4.281   4.709
  690SOL     OW 2968   0.206   3.305   3.860
  690SOL    HW1 2969   0.230   3.257   3.776
  690SOL    HW2 2970   0.194   3.403   3.841
  691SOL     OW 2971   0.225   3.167   6.683
  691SOL    HW1 2972   0.222   3.082   6.630
  691SOL    HW2 2973   0.168   3.236   6.639
  692SOL     OW 2974   2.657   0.299   3.244
  692SOL    HW1 2975   2.730   0.360   3.212
  692SOL    HW2 2976   2.616   0.336   3.327
  693SOL     OW 2977   6.408   1.171   2.887
  693SOL    HW1 2978   6.399   1.083   2.842
  693SOL    HW2 2979   6.320   1.219   2.884
  694SOL     OW 2980   1.501   0.353   2.257
  694SOL    HW1 2981   1.535   0.395   2.172
  694SOL    HW2 2982   1.577   0.311   2.306
  695SOL     OW 2983   4.915   5.665   6.680
  695SOL    HW1 2984   4.868   5.694   6.763
  695SOL    HW2 2985   4.958   5.745   6.637
  696SOL     OW 2986   5.169   6.812   2.730
  696SOL    HW1 2987   5.069   6.803   2.722
  696SOL    HW2 2988   5.204   6.738   2.788
  697SOL     OW 2989   1.550   3.987   3.814
  697SOL    HW1 2990   1.497   4.031   3.886
  697SOL    HW2 2991   1.490   3.965   3.737
  698SOL     OW 2992   5.666   5.896   4.048
  698SOL    HW1 2993   5.750   5.842   4.050
  698SOL    HW2 2994   5.671   5.963   3.974
  699SOL     OW 2995   0.836   4.437   6.424
  699SOL    HW1 2996   0.903   4.403   6.359
  699SOL    HW2 2997   0.751   4.385   6.416
  700SOL     OW 2998   1.929   1.748   4.540
  700SOL    HW1 2999   1.906   1.844   4.523
  700SOL    HW2 3000   1.885   1.690   4.472
  701SOL     OW 3001   0.845   4.811   5.701
  701SOL    HW1 3002   0.810   4.719   5.683
  701SOL    HW2 3003   0.863   4.821   5.799
  702SOL     OW 3004   5.325   5.763   4.853
  702SOL    HW1 3005   5.312   5.829   4.779
  702SOL    HW2 3006   5.408   5.710   4.835
  703SOL     OW 3007   5.051   4.251   6.297
  703SOL    HW1 3008   5.028   4.204   6.212
  703SOL    HW2 3009   4.999   4.211   6.372
  704SOL     OW 3010   2.305   0.145   1.706
  704SOL    HW1 3011   2.285   0.242   1.701
  704SOL    HW2 3012   2.223   0.092   1.685
  705SOL     OW 3013   0.132   1.882   3.616
  705SOL    HW1 3014   0.140   1.977   3.647
  705SOL    HW2 3015   0.067   1.833   3.673
  706SOL     OW 3016   4.989   2.777   4.002
  706SOL    HW1 3017   4.981   2.852   4.068
  706SOL    HW2 3018   5.037   2.810   3.921
  707SOL     OW 3019   4.909   1.932   2.515
  707SOL    HW1 3020   4.989   1.883   2.481
  707SOL    HW2 3021   4.887   2.008   2.454
  708SOL     OW 3022   4.157   0.295   2.078
  708SOL    HW1 3023   4.193   0.371   2.131
  708SOL    HW2 3024   4.232   0.237   2.046
  709SOL     OW 3025   0.637   5.158   0.200
  709SOL    HW1 3026   0.700   5.176   0.275
  709SOL    HW2 3027   0.629   5.240   0.143
  710SOL     OW 3028   3.082   3.039   2.439
  710SOL    HW1 3029   3.011   2.974   2.411
  710SOL    HW2 3030   3.141   3.059   2.361
  711SOL     OW 3031   0.458   1.094   4.891
  711SOL    HW1 3032   0.528   1.164   4.877
  711SOL    HW2 3033   0.377   1.137   4.932
  712SOL     OW 3034   1.237   3.648   2.200
  712SOL    HW1 3035   1.236   3.726   2.263
  712SOL    HW2 3036   1.144   3.613   2.189
  713SOL     OW 3037   3.106   3.966   4.127
  713SOL    HW1 3038   3.170   3.910   4.179
  713SOL    HW2 3039   3.075   4.043   4.184
  714SOL     OW 3040   5.161   4.800   5.480
  714SOL    HW1 3041   5.241   4.766   5.431
  714SOL    HW2 3042   5.142   4.894   5.453
  715SOL     OW 3043   5.296   0.447   6.326
  715SOL    HW1 3044   5.288   0.544   6.305
  715SOL    HW2 3045   5.280   0.433   6.424
  716SOL     OW 3046   6.659   5.096   1.870
  716SOL    HW1 3047   6.656   5.187   1.911
  716SOL    HW2 3048   6.751   5.078   1.836
  717SOL     OW 3049   6.271   3.172   6.659
  717SOL    HW1 3050   6.343   3.124   6.709
  717SOL    HW2 3051   6.255   3.262   6.700
  718SOL     OW 3052   2.825   3.365   6.674
  718SOL    HW1 3053   2.734   3.367   6.634
  718SOL    HW2 3054   2.890   3.326   6.609
  719SOL     OW 3055   4.674   5.042   0.499
  719SOL    HW1 3056   4.708   5.042   0.593
  719SOL    HW2 3057   4.587   4.994   0.496
  720SOL     OW 3058   3.177   0.893   6.034
  720SOL    HW1 3059   3.225   0.924   6.117
  720SOL    HW2 3060   3.196   0.956   5.959
  721SOL     OW 3061   1.233   6.745   5.547
  721SOL    HW1 3062   1.192   6.761   5.637
  721SOL    HW2 3063   1.325   6.709   5.559
  722SOL     OW 3064   4.499   6.523   5.279
  722SOL    HW1 3065   4.506   6.483   5.371
  722SOL    HW2 3066   4.424   6.480   5.229
  723SOL     OW 3067   1.756   3.176   1.925
  723SOL    HW1 3068   1.739   3.079   1.941
  723SOL    HW2 3069   1.736   3.197   1.829
  724SOL     OW 3070   6.753   0.565   4.758
  724SOL    HW1 3071   6.699   0.481   4.762
  724SOL    HW2 3072   6.700   0.641   4.795
  725SOL     OW 3073   2.491   4.616   1.665
  725SOL    HW1 3074   2.539   4.652   1.745
  725SOL    HW2 3075   2.519   4.521   1.650
  726SOL     OW 3076   4.715   6.489   5.712
  726SOL    HW1 3077   4.633   6.547   5.713
  726SOL    HW2 3078   4.737   6.461   5.805
  727SOL     OW 3079   1.999   4.290   3.635
  727SOL    HW1 3080   1.906   4.285   3.671
  727SOL    HW2 3081   2.063   4.251   3.702
  728SOL     OW 3082   0.190   3.197   5.506
  728SOL    HW1 3083   0.108   3.159   5.463
  728SOL    HW2 3084   0.261   3.212   5.436
  729SOL     OW 3085   3.491   1.179   0.629
  729SOL    HW1 3086   3.506   1.098   0.687
  729SOL    HW2 3087   3.466   1.257   0.686
  730SOL     OW 3088   5.073   1.338   5.253
  730SOL    HW1 3089   5.078   1.396   5.172
  730SOL    HW2 3090   5.042   1.247   5.228
  731SOL     OW 3091   0.120   2.637   3.792
  731SOL    HW1 3092   0.062   2.711   3.757
  731SOL    HW2 3093   0.110   2.557   3.733
  732SOL     OW 3094   6.993   3.216   3.381
  732SOL    HW1 3095   0.025   3.279   3.329
  732SOL    HW2 3096   6.897   3.242   3.371
  733SOL     OW 3097   4.754   5.083   4.461
  733SOL    HW1 3098   4.853   5.078   4.454
  733SOL    HW2 3099   4.728   5.129   4.546
  734SOL     OW 3100   0.678   5.355   7.009
  734SOL    HW1 3101   0.635   5.418   6.944
  734SOL    HW2 3102   0.776   5.351   6.991
  735SOL     OW 3103   2.935   4.587   0.199
  735SOL    HW1 3104   2.981   4.618   0.282
  735SOL    HW2 3105   2.857   4.528   0.224
  736SOL     OW 3106   5.758   0.973   2.742
  736SOL    HW1 3107   5.779   0.977   2.645
  736SOL    HW2 3108   5.838   1.003   2.795
  737SOL     OW 3109   5.568   4.034   0.847
  737SOL    HW1 3110   5.512   4.077   0.776
  737SOL    HW2 3111   5.511   3.972   0.901
  738SOL     OW 3112   0.758   4.508   3.034
  738SOL    HW1 3113   0.688   4.446   3.069
  738SOL    HW2 3114   0.828   4.522   3.104
  739SOL     OW 3115   4.587   6.472   6.428
  739SOL    HW1 3116   4.609   6.484   6.331
  739SOL    HW2 3117   4.657   6.517   6.484
  740SOL     OW 3118   5.133   0.436   0.483
  740SOL    HW1 3119   5.179   0.424   0.395
  740SOL    HW2 3120   5.133   0.350   0.533
  741SOL     OW 3121   2.918   0.209   3.950
  741SOL    HW1 3122   2.827   0.201   3.991
  741SOL    HW2 3123   2.988   0.202   4.022
  742SOL     OW 3124   1.252   6.699   2.293
  742SOL    HW1 3125   1.181   6.629   2.302
  742SOL    HW2 3126   1.263   6.746   2.381
  743SOL     OW 3127   1.868   2.949   4.469
  743SOL    HW1 3128   1.787   2.952   4.409
  743SOL    HW2 3129   1.898   2.854   4.479
  744SOL     OW 3130   7.022   5.372   0.788
  744SOL    HW1 3131   0.035   5.344   0.876
  744SOL    HW2 3132   6.923   5.357   0.788
  745SOL     OW 3133   1.937   5.734   3.304
  745SOL    HW1 3134   1.992   5.817   3.303
  745SOL    HW2 3135   1.971   5.670   3.235
  746SOL     OW 3136   3.057   0.521   3.756
  746SOL    HW1 3137   3.104   0.438   3.726
  746SOL    HW2 3138   2.999   0.555   3.682
  747SOL     OW 3139   6.156   4.114   1.064
  747SOL    HW1 3140   6.241   4.151   1.029
  747SOL    HW2 3141   6.161   4.106   1.164
  748SOL     OW 3142   3.801   2.945   2.389
  748SOL    HW1 3143   3.793   2.920   2.293
  748SOL    HW2 3144   3.810   3.044   2.398
  749SOL     OW 3145   6.144   2.048   5.362
  749SOL    HW1 3146   6.091   2.044   5.278
  749SOL    HW2 3147   6.242   2.044   5.341
  750SOL     OW 3148   3.284   3.532   1.577
  750SOL    HW1 3149   3.294   3.589   1.495
  750SOL    HW2 3150   3.349   3.456   1.572
  751SOL     OW 3151   5.537   1.297   0.571
  751SOL    HW1 3152   5.592   1.313   0.653
  751SOL    HW2 3153   5.521   1.199   0.560
  752SOL     OW 3154   4.525   1.088   1.728
  752SOL    HW1 3155   4.520   0.993   1.759
  752SOL    HW2 3156   4.506   1.092   1.630
  753SOL     OW 3157   2.549   1.191   2.836
  753SOL    HW1 3158   2.640   1.206   2.875
  753SOL    HW2 3159   2.481   1.242   2.889
  754SOL     OW 3160   5.162   5.775   0.118
  754SOL    HW1 3161   5.169   5.679   0.090
  754SOL    HW2 3162   5.248   5.803   0.161
  755SOL     OW 3163   6.894   5.607   3.090
  755SOL    HW1 3164   6.968   5.587   3.027
  755SOL    HW2 3165   6.922   5.582   3.183
  756SOL     OW 3166   3.648   6.377   3.865
  756SOL    HW1 3167   3.591   6.334   3.795
  756SOL    HW2 3168   3.703   6.449   3.824
  757SOL     OW 3169   6.483   1.433   4.522
  757SOL    HW1 3170   6.538   1.444   4.605
  757SOL    HW2 3171   6.496   1.341   4.485
  758SOL     OW 3172   4.595   2.136   1.581
  758SOL    HW1 3173   4.502   2.148   1.548
  758SOL    HW2 3174   4.647   2.221   1.569
  759SOL     OW 3175   1.620   0.624   1.148
  759SOL    HW1 3176   1.660   0.715   1.151
  759SOL    HW2 3177   1.555   0.619   1.072
  760SOL     OW 3178   4.545   2.383   5.990
  760SOL    HW1 3179   4.551   2.297   6.041
  760SOL    HW2 3180   4.478   2.374   5.916
  761SOL     OW 3181   5.443   1.673   6.808
  761SOL    HW1 3182   5.433   1.694   6.905
  761SOL    HW2 3183   5.378   1.601   6.782
  762SOL     OW 3184   2.241   4.926   4.184
  762SOL    HW1 3185   2.331   4.887   4.199
  762SOL    HW2 3186   2.209   4.969   4.269
  763SOL     OW 3187   5.726   5.282   0.088
  763SOL    HW1 3188   5.823   5.270   0.069
  763SOL    HW2 3189   5.704   5.243   0.177
  764SOL     OW 3190   5.130   0.885   2.391
  764SOL    HW1 3191   5.100   0.792   2.416
  764SOL    HW2 3192   5.226   0.896   2.415
  765SOL     OW 3193   6.562   6.544   3.486
  765SOL    HW1 3194   6.547   6.642   3.500
  765SOL    HW2 3195   6.601   6.504   3.569
  766SOL     OW 3196   0.167   6.305   0.309
  766SOL    HW1 3197   0.255   6.274   0.273
  766SOL    HW2 3198   0.122   6.362   0.240
  767SOL     OW 3199   5.929   0.056   1.171
  767SOL    HW1 3200   5.913   7.004   1.233
  767SOL    HW2 3201   6.001   0.032   1.107
  768SOL     OW 3202   3.362   6.663   3.723
  768SOL    HW1 3203   3.355   6.599   3.800
  768SOL    HW2 3204   3.421   6.739   3.748
  769SOL     OW 3205   3.262   0.806   6.813
  769SOL    HW1 3206   3.284   0.900   6.787
  769SOL    HW2 3207   3.316   0.743   6.756
  770SOL     OW 3208   2.787   4.784   3.476
  770SOL    HW1 3209   2.729   4.861   3.451
  770SOL    HW2 3210   2.881   4.814   3.486
  771SOL     OW 3211   0.707   5.368   4.657
  771SOL    HW1 3212   0.709   5.463   4.689
  771SOL    HW2 3213   0.800   5.331   4.658
  772SOL     OW 3214   6.874   4.635   5.301
  772SOL    HW1 3215   6.831   4.549   5.271
  772SOL    HW2 3216   6.953   4.614   5.359
  773SOL     OW 3217   0.161   3.411   1.950
  773SOL    HW1 3218   0.103   3.355   1.891
  773SOL    HW2 3219   0.104   3.475   2.002
  774SOL     OW 3220   1.264   1.391   1.635
  774SOL    HW1 3221   1.222   1.311   1.677
  774SOL    HW2 3222   1.351   1.365   1.594
  775SOL     OW 3223   1.357   2.573   4.427
  775SOL    HW1 3224   1.315   2.534   4.345
  775SOL    HW2 3225   1.449   2.604   4.405
  776SOL     OW 3226   2.121   6.718   5.595
  776SOL    HW1 3227   2.109   6.816   5.581
  776SOL    HW2 3228   2.127   6.698   5.692
  777SOL     OW 3229   4.572   0.249   0.703
  777SOL    HW1 3230   4.529   0.339   0.694
  777SOL    HW2 3231   4.670   0.256   0.680
  778SOL     OW 3232   4.167   5.654   4.907
  778SOL    HW1 3233   4.202   5.739   4.868
  778SOL    HW2 3234   4.165   5.583   4.836
  779SOL     OW 3235   1.178   0.568   2.794
  779SOL    HW1 3236   1.172   0.647   2.734
  779SOL    HW2 3237   1.259   0.514   2.772
  780SOL     OW 3238   5.047   3.471   5.206
  780SOL    HW1 3239   5.108   3.443   5.280
  780SOL    HW2 3240   5.010   3.390   5.160
  781SOL     OW 3241   0.843   1.953   6.486
  781SOL    HW1 3242   0.790   1.943   6.402
  781SOL    HW2 3243   0.940   1.961   6.464
  782SOL     OW 3244   0.342   4.119   0.449
  782SOL    HW1 3245   0.441   4.103   0.445
  782SOL    HW2 3246   0.312   4.160   0.363
  783SOL     OW 3247   2.541   4.265   0.088
  783SOL    HW1 3248   2.521   4.228   7.023
  783SOL    HW2 3249   2.506   4.358   0.094
  784SOL     OW 3250   4.744   5.800   3.829
  784SOL    HW1 3251   4.786   5.847   3.907
  784SOL    HW2 3252   4.649   5.777   3.851
  785SOL     OW 3253   6.081   2.171   4.210
  785SOL    HW1 3254   6.049   2.127   4.294
  785SOL    HW2 3255   6.166   2.220   4.228
  786SOL     OW 3256   6.425   6.673   0.380
  786SOL    HW1 3257   6.407   6.598   0.443
  786SOL    HW2 3258   6.381   6.756   0.413
  787SOL     OW 3259   4.363   1.153   6.941
  787SOL    HW1 3260   4.308   1.199   6.872
  787SOL    HW2 3261   4.346   1.054   6.937
  788SOL     OW 3262   0.984   4.433   3.497
  788SOL    HW1 3263   1.080   4.431   3.524
  788SOL    HW2 3264   0.930   4.474   3.570
  789SOL     OW 3265   5.437   3.499   1.209
  789SOL    HW1 3266   5.470   3.589   1.236
  789SOL    HW2 3267   5.515   3.437   1.201
  790SOL     OW 3268   3.558   0.548   3.716
  790SOL    HW1 3269   3.499   0.603   3.775
  790SOL    HW2 3270   3.546   0.451   3.739
  791SOL     OW 3271   3.885   1.809   4.800
  791SOL    HW1 3272   3.832   1.894   4.802
  791SOL    HW2 3273   3.832   1.739   4.753
  792SOL     OW 3274   5.608   0.395   3.867
  792SOL    HW1 3275   5.671   0.352   3.933
  792SOL    HW2 3276   5.627   0.359   3.775
  793SOL     OW 3277   6.953   0.201   6.087
  793SOL    HW1 3278   7.025   0.142   6.051
  793SOL    HW2 3279   6.919   0.260   6.014
  794SOL     OW 3280   3.991   5.068   4.685
  794SOL    HW1 3281   3.931   5.034   4.757
  794SOL    HW2 3282   4.039   4.992   4.642
  795SOL     OW 3283   4.978   5.310   6.491
  795SOL    HW1 3284   4.878   5.304   6.498
  795SOL    HW2 3285   5.009   5.399   6.525
  796SOL     OW 3286   0.448   1.928   5.747
  796SOL    HW1 3287   0.547   1.917   5.749
  796SOL    HW2 3288   0.407   1.851   5.698
  797SOL     OW 3289   6.094   2.415   5.414
  797SOL    HW1 3290   6.075   2.440   5.319
  797SOL    HW2 3291   6.179   2.363   5.419
  798SOL     OW 3292   6.255   0.744   5.063
  798SOL    HW1 3293   6.287   0.748   4.968
  798SOL    HW2 3294   6.322   0.790   5.122
  799SOL     OW 3295   6.888   3.536   3.668
  799SOL    HW1 3296   6.912   3.472   3.741
  799SOL    HW2 3297   6.835   3.488   3.598
  800SOL     OW 3298   6.558   1.608   1.809
  800SOL    HW1 3299   6.636   1.666   1.834
  800SOL    HW2 3300   6.560   1.590   1.710
  801SOL     OW 3301   0.835   1.712   3.871
  801SOL    HW1 3302   0.929   1.744   3.883
  801SOL    HW2 3303   0.774   1.762   3.933
  802SOL     OW 3304   5.859   1.147   1.167
  802SOL    HW1 3305   5.936   1.114   1.111
  802SOL    HW2 3306   5.838   1.241   1.142
  803SOL     OW 3307   1.674   0.547   4.723
  803SOL    HW1 3308   1.579   0.528   4.699
  803SOL    HW2 3309   1.729   0.557   4.640
  804SOL     OW 3310   6.633   6.631   1.359
  804SOL    HW1 3311   6.706   6.563   1.355
  804SOL    HW2 3312   6.663   6.710   1.413
  805SOL     OW 3313   1.302   3.052   5.735
  805SOL    HW1 3314   1.236   3.088   5.669
  805SOL    HW2 3315   1.393   3.087   5.713
  806SOL     OW 3316   5.025   0.633   0.959
  806SOL    HW1 3317   5.113   0.654   0.916
  806SOL    HW2 3318   4.981   0.717   0.989
  807SOL     OW 3319   0.864   6.863   2.772
  807SOL    HW1 3320   0.954   6.863   2.815
  807SOL    HW2 3321   0.804   6.801   2.822
  808SOL     OW 3322   6.152   3.785   4.994
  808SOL    HW1 3323   6.195   3.697   4.974
  808SOL    HW2 3324   6.114   3.783   5.086
  809SOL     OW 3325   0.940   5.476   5.965
  809SOL    HW1 3326   1.012   5.440   5.906
  809SOL    HW2 3327   0.970   5.561   6.006
  810SOL     OW 3328   6.275   5.104   6.742
  810SOL    HW1 3329   6.235   5.137   6.657
  810SOL    HW2 3330   6.374   5.092   6.730
  811SOL     OW 3331   4.469   4.890   3.541
  811SOL    HW1 3332   4.432   4.798   3.551
  811SOL    HW2 3333   4.441   4.946   3.619
  812SOL     OW 3334   0.181   0.485   2.236
  812SOL    HW1 3335   0.195   0.407   2.175
  812SOL    HW2 3336   0.265   0.539   2.241
  813SOL     OW 3337   5.656   5.824   2.182
  813SOL    HW1 3338   5.711   5.797   2.261
  813SOL    HW2 3339   5.706   5.891   2.128
  814SOL     OW 3340   5.219   5.747   1.564
  814SOL    HW1 3341   5.230   5.815   1.491
  814SOL    HW2 3342   5.279   5.669   1.546
  815SOL     OW 3343   0.433   1.292   0.155
  815SOL    HW1 3344   0.473   1.340   0.233
  815SOL    HW2 3345   0.334   1.284   0.167
  816SOL     OW 3346   5.644   0.550   1.173
  816SOL    HW1 3347   5.597   0.637   1.162
  816SOL    HW2 3348   5.737   0.566   1.207
  817SOL     OW 3349   0.647   1.923   1.369
  817SOL    HW1 3350   0.620   1.837   1.413
  817SOL    HW2 3351   0.737   1.912   1.328
  818SOL     OW 3352   5.687   1.431   2.531
  818SOL    HW1 3353   5.589   1.415   2.514
  818SOL    HW2 3354   5.718   1.506   2.472
  819SOL     OW 3355   0.379   5.148   2.544
  819SOL    HW1 3356   0.471   5.187   2.554
  819SOL    HW2 3357   0.386   5.053   2.515
  820SOL     OW 3358   1.525   2.860   4.562
  820SOL    HW1 3359   1.584   2.887   4.638
  820SOL    HW2 3360   1.433   2.842   4.596
  821SOL     OW 3361   1.226   4.189   0.523
  821SOL    HW1 3362   1.313   4.182   0.572
  821SOL    HW2 3363   1.166   4.115   0.551
  822SOL     OW 3364   1.423   3.733   4.637
  822SOL    HW1 3365   1.394   3.779   4.553
  822SOL    HW2 3366   1.414   3.634   4.625
  823SOL     OW 3367   3.482   3.513   1.282
  823SOL    HW1 3368   3.562   3.556   1.239
  823SOL    HW2 3369   3.509   3.426   1.322
  824SOL     OW 3370   6.093   2.459   6.197
  824SOL    HW1 3371   6.034   2.433   6.274
  824SOL    HW2 3372   6.145   2.541   6.220
  825SOL     OW 3373   1.259   4.006   2.108
  825SOL    HW1 3374   1.246   4.015   2.009
  825SOL    HW2 3375   1.343   3.955   2.126
  826SOL     OW 3376   1.027   4.379   5.756
  826SOL    HW1 3377   1.014   4.419   5.846
  826SOL    HW2 3378   1.029   4.279   5.764
  827SOL     OW 3379   3.942   5.410   0.953
  827SOL    HW1 3380   4.033   5.433   0.987
  827SOL    HW2 3381   3.886   5.493   0.947
  828SOL     OW 3382   6.286   0.137   5.346
  828SOL    HW1 3383   6.322   0.198   5.417
  828SOL    HW2 3384   6.342   0.144   5.264
  829SOL     OW 3385   3.457   3.116   4.941
  829SOL    HW1 3386   3.508   3.172   4.875
  829SOL    HW2 3387   3.521   3.061   4.995
  830SOL     OW 3388   4.264   3.885   6.314
  830SOL    HW1 3389   4.256   3.836   6.227
  830SOL    HW2 3390   4.198   3.847   6.379
  831SOL     OW 3391   6.203   6.979   4.738
  831SOL    HW1 3392   6.105   6.988   4.720
  831SOL    HW2 3393   6.239   6.900   4.689
  832SOL     OW 3394   2.467   1.290   5.476
  832SOL    HW1 3395   2.429   1.372   5.520
  832SOL    HW2 3396   2.423   1.209   5.514
  833SOL     OW 3397   0.999   6.993   5.876
  833SOL    HW1 3398   0.965   0.002   5.963
  833SOL    HW2 3399   0.934   7.014   5.803
  834SOL     OW 3400   3.280   4.638   5.550
  834SOL    HW1 3401   3.181   4.645   5.541
  834SOL    HW2 3402   3.308   4.670   5.640
  835SOL     OW 3403   4.681   0.925   3.155
  835SOL    HW1 3404   4.761   0.960   3.204
  835SOL    HW2 3405   4.683   0.825   3.156
  836SOL     OW 3406   2.642   0.571   6.691
  836SOL    HW1 3407   2.688   0.621   6.618
  836SOL    HW2 3408   2.635   0.628   6.772
  837SOL     OW 3409   4.204   0.997   4.899
  837SOL    HW1 3410   4.207   1.012   4.998
  837SOL    HW2 3411   4.109   0.995   4.868
  838SOL     OW 3412   1.238   5.185   2.644
  838SOL    HW1 3413   1.311   5.116   2.645
  838SOL    HW2 3414   1.162   5.155   2.701
  839SOL     OW 3415   3.423   1.101   1.684
  839SOL    HW1 3416   3.347   1.052   1.725
  839SOL    HW2 3417   3.414   1.199   1.701
  840SOL     OW 3418   0.475   1.540   5.758
  840SOL    HW1 3419   0.517   1.555   5.668
  840SOL    HW2 3420   0.518   1.462   5.803
  841SOL     OW 3421   0.654   3.841   0.326
  841SOL    HW1 3422   0.712   3.796   0.259
  841SOL    HW2 3423   0.620   3.774   0.392
  842SOL     OW 3424   3.486   5.276   3.690
  842SOL    HW1 3425   3.495   5.261   3.591
  842SOL    HW2 3426   3.535   5.359   3.715
  843SOL     OW 3427   6.996   4.402   2.154
  843SOL    HW1 3428   6.921   4.467   2.139
  843SOL    HW2 3429   7.022   4.403   2.251
  844SOL     OW 3430   5.377   5.553   0.216
  844SOL    HW1 3431   5.328   5.474   0.253
  844SOL    HW2 3432   5.378   5.547   0.116
  845SOL     OW 3433   1.942   5.288   4.806
  845SOL    HW1 3434   1.874   5.326   4.869
  845SOL    HW2 3435   2.002   5.225   4.856
  846SOL     OW 3436   5.060   2.937   6.873
  846SOL    HW1 3437   5.007   3.017   6.898
  846SOL    HW2 3438   5.141   2.931   6.931
  847SOL     OW 3439   5.313   4.075   2.185
  847SOL    HW1 3440   5.225   4.058   2.140
  847SOL    HW2 3441   5.385   4.023   2.139
  848SOL     OW 3442   6.033   0.207   5.524
  848SOL    HW1 3443   5.984   0.120   5.524
  848SOL    HW2 3444   6.072   0.224   5.433
  849SOL     OW 3445   0.936   5.601   4.135
  849SOL    HW1 3446   0.908   5.529   4.199
  849SOL    HW2 3447   0.862   5.620   4.071
  850SOL     OW 3448   3.965   0.595   3.395
  850SOL    HW1 3449   4.002   0.683   3.366
  850SOL    HW2 3450   3.876   0.608   3.439
  851SOL     OW 3451   0.350   0.673   5.248
  851SOL    HW1 3452   0.259   0.669   5.206
  851SOL    HW2 3453   0.367   0.588   5.298
  852SOL     OW 3454   2.793   4.538   5.761
  852SOL    HW1 3455   2.778   4.500   5.852
  852SOL    HW2 3456   2.775   4.636   5.762
  853SOL     OW 3457   1.398   3.978   0.685
  853SOL    HW1 3458   1.332   3.903   0.692
  853SOL    HW2 3459   1.486   3.948   0.722
  854SOL     OW 3460   6.535   4.889   2.002
  854SOL    HW1 3461   6.585   4.945   1.936
  854SOL    HW2 3462   6.476   4.824   1.955
  855SOL     OW 3463   5.233   0.768   0.799
  855SOL    HW1 3464   5.190   0.739   0.713
  855SOL    HW2 3465   5.251   0.866   0.796
  856SOL     OW 3466   1.162   1.188   4.955
  856SOL    HW1 3467   1.218   1.136   4.891
  856SOL    HW2 3468   1.200   1.180   5.047
  857SOL     OW 3469   6.255   3.614   1.716
  857SOL    HW1 3470   6.179   3.677   1.734
  857SOL    HW2 3471   6.310   3.649   1.640
  858SOL     OW 3472   3.507   3.294   1.545
  858SOL    HW1 3473   3.423   3.241   1.533
  858SOL    HW2 3474   3.521   3.312   1.643
  859SOL     OW 3475   6.607   4.641   0.949
  859SOL    HW1 3476   6.556   4.644   1.035
  859SOL    HW2 3477   6.544   4.653   0.872
  860SOL     OW 3478   1.894   4.389   0.330
  860SOL    HW1 3479   1.978   4.337   0.339
  860SOL    HW2 3480   1.816   4.326   0.329
  861SOL     OW 3481   3.378   4.626   6.087
  861SOL    HW1 3482   3.338   4.692   6.024
  861SOL    HW2 3483   3.478   4.632   6.082
  862SOL     OW 3484   4.780   4.270   3.399
  862SOL    HW1 3485   4.703   4.323   3.433
  862SOL    HW2 3486   4.863   4.327   3.400
  863SOL     OW 3487   5.909   2.261   0.922
  863SOL    HW1 3488   5.897   2.196   0.847
  863SOL    HW2 3489   5.908   2.211   1.009
  864SOL     OW 3490   6.888   4.639   2.705
  864SOL    HW1 3491   6.922   4.732   2.690
  864SOL    HW2 3492   6.799   4.642   2.749
  865SOL     OW 3493   2.124   0.974   3.920
  865SOL    HW1 3494   2.153   1.064   3.887
  865SOL    HW2 3495   2.180   0.904   3.876
  866SOL     OW 3496   4.113   1.342   0.703
  866SOL    HW1 3497   4.050   1.312   0.631
  866SOL    HW2 3498   4.067   1.335   0.792
  867SOL     OW 3499   2.349   1.593   6.418
  867SOL    HW1 3500   2.375   1.496   6.416
  867SOL    HW2 3501   2.396   1.642   6.345
  868SOL     OW 3502   5.687   2.413   3.566
  868SOL    HW1 3503   5.761   2.480   3.555
  868SOL    HW2 3504   5.614   2.453   3.620
  869SOL     OW 3505   6.536   4.086   1.284
  869SOL    HW1 3506   6.467   4.149   1.319
  869SOL    HW2 3507   6.625   4.131   1.285
  870SOL     OW 3508   6.564   2.622   0.373
  870SOL    HW1 3509   6.479   2.669   0.353
  870SOL    HW2 3510   6.572   2.541   0.314
  871SOL     OW 3511   6.035   3.956   0.829
  871SOL    HW1 3512   6.077   4.026   0.887
  871SOL    HW2 3513   6.076   3.867   0.849
  872SOL     OW 3514   6.413   1.998   2.213
  872SOL    HW1 3515   6.434   1.902   2.192
  872SOL    HW2 3516   6.497   2.052   2.206
  873SOL     OW 3517   3.589   6.671   5.092
  873SOL    HW1 3518   3.628   6.616   5.018
  873SOL    HW2 3519   3.664   6.714   5.144
  874SOL     OW 3520   0.187   4.075   6.661
  874SOL    HW1 3521   0.101   4.051   6.617
  874SOL    HW2 3522   0.245   3.994   6.667
  875SOL     OW 3523   6.174   5.230   6.504
  875SOL    HW1 3524   6.089   5.184   6.480
  875SOL    HW2 3525   6.162   5.329   6.493
  876SOL     OW 3526   1.377   2.121   0.796
  876SOL    HW1 3527   1.422   2.121   0.707
  876SOL    HW2 3528   1.287   2.079   0.788
  877SOL     OW 3529   5.424   5.824   0.540
  877SOL    HW1 3530   5.418   5.770   0.457
  877SOL    HW2 3531   5.483   5.904   0.524
  878SOL     OW 3532   3.679   2.363   0.730
  878SOL    HW1 3533   3.603   2.392   0.672
  878SOL    HW2 3534   3.663   2.269   0.761
  879SOL     OW 3535   4.606   1.933   2.443
  879SOL    HW1 3536   4.692   1.903   2.483
  879SOL    HW2 3537   4.615   1.939   2.343
  880SOL     OW 3538   4.387   5.292   2.078
  880SOL    HW1 3539   4.398   5.279   1.980
  880SOL    HW2 3540   4.365   5.388   2.097
  881SOL     OW 3541   5.002   5.046   3.575
  881SOL    HW1 3542   4.956   4.973   3.524
  881SOL    HW2 3543   4.947   5.072   3.654
  882SOL     OW 3544   0.688   2.028   4.364
  882SOL    HW1 3545   0.738   1.992   4.443
  882SOL    HW2 3546   0.747   2.091   4.313
  883SOL     OW 3547   3.402   4.792   0.380
  883SOL    HW1 3548   3.355   4.721   0.433
  883SOL    HW2 3549   3.411   4.763   0.285
  884SOL     OW 3550   3.927   3.808   1.803
  884SOL    HW1 3551   3.845   3.862   1.786
  884SOL    HW2 3552   3.969   3.783   1.715
  885SOL     OW 3553   4.493   6.368   6.101
  885SOL    HW1 3554   4.582   6.329   6.122
  885SOL    HW2 3555   4.448   6.313   6.031
  886SOL     OW 3556   4.062   1.997   6.605
  886SOL    HW1 3557   4.002   1.975   6.682
  886SOL    HW2 3558   4.128   2.068   6.632
  887SOL     OW 3559   5.587   6.670   5.259
  887SOL    HW1 3560   5.616   6.594   5.316
  887SOL    HW2 3561   5.492   6.693   5.279
  888SOL     OW 3562   5.968   6.895   3.007
  888SOL    HW1 3563   5.887   6.837   3.013
  888SOL    HW2 3564   6.045   6.848   3.050
  889SOL     OW 3565   1.065   6.718   4.249
  889SOL    HW1 3566   1.121   6.795   4.279
  889SOL    HW2 3567   1.124   6.648   4.208
  890SOL     OW 3568   1.783   4.215   2.131
  890SOL    HW1 3569   1.720   4.291   2.147
  890SOL    HW2 3570   1.855   4.244   2.069
  891SOL     OW 3571   5.362   3.850   6.368
  891SOL    HW1 3572   5.366   3.757   6.332
  891SOL    HW2 3573   5.287   3.857   6.434
  892SOL     OW 3574   2.006   5.226   1.538
  892SOL    HW1 3575   2.022   5.285   1.617
  892SOL    HW2 3576   2.049   5.137   1.553
  893SOL     OW 3577   1.910   6.488   2.066
  893SOL    HW1 3578   1.849   6.456   1.994
  893SOL    HW2 3579   2.002   6.502   2.028
  894SOL     OW 3580   1.494   5.583   4.199
  894SOL    HW1 3581   1.479   5.582   4.298
  894SOL    HW2 3582   1.521   5.491   4.169
  895SOL     OW 3583   2.427   0.957   4.385
  895SOL    HW1 3584   2.332   0.938   4.408
  895SOL    HW2 3585   2.463   1.027   4.446
  896SOL     OW 3586   5.210   6.848   3.493
  896SOL    HW1 3587   5.163   6.898   3.420
  896SOL    HW2 3588   5.145   6.822   3.564
  897SOL     OW 3589   5.302   1.446   6.235
  897SOL    HW1 3590   5.304   1.509   6.158
  897SOL    HW2 3591   5.214   1.399   6.236
  898SOL     OW 3592   5.587   6.410   3.960
  898SOL    HW1 3593   5.654   6.441   3.893
  898SOL    HW2 3594   5.634   6.391   4.047
  899SOL     OW 3595   1.248   4.355   0.003
  899SOL    HW1 3596   1.160   4.316   7.003
  899SOL    HW2 3597   1.315   4.282   0.015
  900SOL     OW 3598   0.473   5.664   3.581
  900SOL    HW1 3599   0.425   5.735   3.529
  900SOL    HW2 3600   0.564   5.651   3.543
  901SOL     OW 3601   5.409   1.659   3.674
  901SOL    HW1 3602   5.411   1.720   3.753
  901SOL    HW2 3603   5.316   1.654   3.639
  902SOL     OW 3604   1.092   6.460   0.197
  902SOL    HW1 3605   1.029   6.396   0.240
  902SOL    HW2 3606   1.150   6.411   0.132
  903SOL     OW 3607   0.639   4.871   6.823
  903SOL    HW1 3608   0.616   4.929   6.745
  903SOL    HW2 3609   0.590   4.784   6.816
  904SOL     OW 3610   1.595   0.844   3.835
  904SOL    HW1 3611   1.589   0.859   3.934
  904SOL    HW2 3612   1.657   0.911   3.794
  905SOL     OW 3613   6.345   2.161   4.526
  905SOL    HW1 3614   6.300   2.091   4.581
  905SOL    HW2 3615   6.431   2.189   4.570
  906SOL     OW 3616   6.464   4.134   5.521
  906SOL    HW1 3617   6.508   4.061   5.574
  906SOL    HW2 3618   6.479   4.221   5.567
  907SOL     OW 3619   0.194   3.160   2.146
  907SOL    HW1 3620   0.161   3.233   2.087
  907SOL    HW2 3621   0.294   3.155   2.139
  908SOL     OW 3622   2.873   1.072   3.472
  908SOL    HW1 3623   2.825   1.014   3.408
  908SOL    HW2 3624   2.876   1.028   3.562
  909SOL     OW 3625   4.040   6.903   1.291
  909SOL    HW1 3626   4.096   6.964   1.346
  909SOL    HW2 3627   4.025   6.817   1.340
  910SOL     OW 3628   1.549   1.440   2.112
  910SOL    HW1 3629   1.502   1.528   2.110
  910SOL    HW2 3630   1.647   1.455   2.126
  911SOL     OW 3631   0.734   3.671   0.748
  911SOL    HW1 3632   0.794   3.592   0.762
  911SOL    HW2 3633   0.693   3.698   0.835
  912SOL     OW 3634   0.834   0.851   6.324
  912SOL    HW1 3635   0.746   0.805   6.331
  912SOL    HW2 3636   0.819   0.950   6.326
  913SOL     OW 3637   1.858   1.210   2.327
  913SOL    HW1 3638   1.851   1.284   2.260
  913SOL    HW2 3639   1.953   1.182   2.336
  914SOL     OW 3640   2.893   5.757   1.983
  914SOL    HW1 3641   2.902   5.815   2.064
  914SOL    HW2 3642   2.913   5.810   1.901
  915SOL     OW 3643   1.904   2.610   0.332
  915SOL    HW1 3644   1.903   2.674   0.409
  915SOL    HW2 3645   1.979   2.545   0.343
  916SOL     OW 3646   1.551   2.806   2.431
  916SOL    HW1 3647   1.582   2.730   2.374
  916SOL    HW2 3648   1.452   2.798   2.447
  917SOL     OW 3649   4.041   1.456   6.539
  917SOL    HW1 3650   3.998   1.388   6.599
  917SOL    HW2 3651   4.002   1.546   6.558
  918SOL     OW 3652   0.217   2.099   4.731
  918SOL    HW1 3653   0.177   2.190   4.720
  918SOL    HW2 3654   0.241   2.084   4.827
  919SOL     OW 3655   1.764   0.373   1.233
  919SOL    HW1 3656   1.751   0.464   1.192
  919SOL    HW2 3657   1.690   0.355   1.298
  920SOL     OW 3658   1.603   1.012   3.155
  920SOL    HW1 3659   1.548   0.983   3.233
  920SOL    HW2 3660   1.556   1.086   3.107
  921SOL     OW 3661   4.083   3.988   0.578
  921SOL    HW1 3662   4.134   3.905   0.600
  921SOL    HW2 3663   4.143   4.052   0.530
  922SOL     OW 3664   2.265   5.354   6.923
  922SOL    HW1 3665   2.313   5.270   6.949
  922SOL    HW2 3666   2.218   5.392   7.003
  923SOL     OW 3667   3.834   1.362   6.884
  923SOL    HW1 3668   3.772   1.428   6.842
  923SOL    HW2 3669   3.829   1.370   6.983
  924SOL     OW 3670   6.547   5.186   2.705
  924SOL    HW1 3671   6.533   5.127   2.625
  924SOL    HW2 3672   6.458   5.211   2.744
  925SOL     OW 3673   6.866   1.580   3.003
  925SOL    HW1 3674   6.833   1.585   2.909
  925SOL    HW2 3675   6.788   1.579   3.066
  926SOL     OW 3676   4.151   6.312   1.367
  926SOL    HW1 3677   4.226   6.378   1.363
  926SOL    HW2 3678   4.186   6.223   1.394
  927SOL     OW 3679   4.361   5.626   5.119
  927SOL    HW1 3680   4.324   5.700   5.174
  927SOL    HW2 3681   4.306   5.617   5.035
  928SOL     OW 3682   0.320   1.259   1.241
  928SOL    HW1 3683   0.366   1.184   1.194
  928SOL    HW2 3684   0.236   1.225   1.283
  929SOL     OW 3685   6.974   2.175   2.184
  929SOL    HW1 3686   6.982   2.269   2.149
  929SOL    HW2 3687   6.956   2.178   2.282
  930SOL     OW 3688   5.881   5.660   2.334
  930SOL    HW1 3689   5.922   5.698   2.251
  930SOL    HW2 3690   5.885   5.727   2.407
  931SOL     OW 3691   1.468   2.838   1.715
  931SOL    HW1 3692   1.392   2.869   1.657
  931SOL    HW2 3693   1.458   2.877   1.806
  932SOL     OW 3694   4.170   6.036   1.431
  932SOL    HW1 3695   4.113   5.988   1.365
  932SOL    HW2 3696   4.192   5.975   1.507
  933SOL     OW 3697   1.239   6.734   3.605
  933SOL    HW1 3698   1.209   6.752   3.511
  933SOL    HW2 3699   1.339   6.733   3.608
  934SOL     OW 3700   3.304   0.549   5.572
  934SOL    HW1 3701   3.279   0.595   5.657
  934SOL    HW2 3702   3.322   0.617   5.501
  935SOL     OW 3703   1.433   3.560   4.972
  935SOL    HW1 3704   1.507   3.602   5.024
  935SOL    HW2 3705   1.471   3.491   4.911
  936SOL     OW 3706   0.708   2.028   1.607
  936SOL    HW1 3707   0.761   2.096   1.557
  936SOL    HW2 3708   0.676   1.957   1.544
  937SOL     OW 3709   5.359   2.336   3.771
  937SOL    HW1 3710   5.416   2.326   3.852
  937SOL    HW2 3711   5.323   2.430   3.768
  938SOL     OW 3712   0.273   1.175   6.534
  938SOL    HW1 3713   0.276   1.077   6.517
  938SOL    HW2 3714   0.354   1.203   6.587
  939SOL     OW 3715   6.427   1.410   5.477
  939SOL    HW1 3716   6.404   1.360   5.560
  939SOL    HW2 3717   6.348   1.464   5.448
  940SOL     OW 3718   0.166   0.561   4.343
  940SOL    HW1 3719   0.203   0.654   4.350
  940SOL    HW2 3720   0.110   0.542   4.424
  941SOL     OW 3721   5.804   2.477   5.425
  941SOL    HW1 3722   5.899   2.447   5.432
  941SOL    HW2 3723   5.800   2.576   5.436
  942SOL     OW 3724   4.591   0.495   5.153
  942SOL    HW1 3725   4.560   0.529   5.242
  942SOL    HW2 3726   4.518   0.440   5.112
  943SOL     OW 3727   5.542   2.006   0.322
  943SOL    HW1 3728   5.490   2.085   0.352
  943SOL    HW2 3729   5.480   1.929   0.306
  944SOL     OW 3730   4.741   4.237   4.572
  944SOL    HW1 3731   4.669   4.201   4.630
  944SOL    HW2 3732   4.784   4.315   4.617
  945SOL     OW 3733   5.464   3.595   6.278
  945SOL    HW1 3734   5.453   3.506   6.324
  945SOL    HW2 3735   5.482   3.580   6.181
  946SOL     OW 3736   5.705   3.765   6.659
  946SOL    HW1 3737   5.670   3.805   6.574
  946SOL    HW2 3738   5.805   3.761   6.656
  947SOL     OW 3739   0.645   2.730   5.736
  947SOL    HW1 3740   0.585   2.650   5.725
  947SOL    HW2 3741   0.597   2.812   5.708
  948SOL     OW 3742   3.895   1.455   0.370
  948SOL    HW1 3743   3.963   1.498   0.430
  948SOL    HW2 3744   3.834   1.398   0.424
  949SOL     OW 3745   5.518   5.912   6.826
  949SOL    HW1 3746   5.425   5.879   6.842
  949SOL    HW2 3747   5.560   5.939   6.913
  950SOL     OW 3748   3.539   5.315   1.371
  950SOL    HW1 3749   3.620   5.261   1.346
  950SOL    HW2 3750   3.540   5.402   1.322
  951SOL     OW 3751   1.058   2.825   3.887
  951SOL    HW1 3752   0.979   2.885   3.898
  951SOL    HW2 3753   1.137   2.878   3.858
  952SOL     OW 3754   5.027   1.738   1.203
  952SOL    HW1 3755   4.998   1.763   1.296
  952SOL    HW2 3756   5.053   1.821   1.153
  953SOL     OW 3757   3.786   6.666   6.050
  953SOL    HW1 3758   3.714   6.653   6.118
  953SOL    HW2 3759   3.861   6.717   6.090
  954SOL     OW 3760   6.644   0.958   1.862
  954SOL    HW1 3761   6.735   0.917   1.851
  954SOL    HW2 3762   6.632   0.987   1.957
  955SOL     OW 3763   0.570   6.468   2.433
  955SOL    HW1 3764   0.589   6.542   2.369
  955SOL    HW2 3765   0.638   6.396   2.423
  956SOL     OW 3766   1.430   2.765   0.922
  956SOL    HW1 3767   1.439   2.673   0.961
  956SOL    HW2 3768   1.432   2.759   0.822
  957SOL     OW 3769   1.829   6.859   4.842
  957SOL    HW1 3770   1.922   6.881   4.872
  957SOL    HW2 3771   1.779   6.818   4.918
  958SOL     OW 3772   4.846   2.835   0.285
  958SOL    HW1 3773   4.827   2.930   0.261
  958SOL    HW2 3774   4.918   2.799   0.226
  959SOL     OW 3775   1.726   3.413   1.266
  959SOL    HW1 3776   1.816   3.412   1.309
  959SOL    HW2 3777   1.737   3.409   1.166
  960SOL     OW 3778   1.501   5.313   5.757
  960SOL    HW1 3779   1.587   5.267   5.778
  960SOL    HW2 3780   1.427   5.269   5.808
  961SOL     OW 3781   3.528   6.988   0.007
  961SOL    HW1 3782   3.569   0.053   0.002
  961SOL    HW2 3783   3.541   6.950   0.098
  962SOL     OW 3784   1.150   6.271   3.805
  962SOL    HW1 3785   1.104   6.352   3.768
  962SOL    HW2 3786   1.117   6.190   3.757
  963SOL     OW 3787   5.996   7.007   1.865
  963SOL    HW1 3788   6.009   0.050   1.935
  963SOL    HW2 3789   5.939   0.018   1.792
  964SOL     OW 3790   5.386   3.415   1.543
  964SOL    HW1 3791   5.414   3.373   1.629
  964SOL    HW2 3792   5.412   3.356   1.467
  965SOL     OW 3793   1.836   1.773   0.192
  965SOL    HW1 3794   1.797   1.708   0.127
  965SOL    HW2 3795   1.936   1.767   0.189
  966SOL     OW 3796   7.001   2.596   2.133
  966SOL    HW1 3797   0.017   2.578   2.044
  966SOL    HW2 3798   7.015   2.692   2.157
  967SOL     OW 3799   0.905   6.115   2.375
  967SOL    HW1 3800   0.925   6.036   2.433
  967SOL    HW2 3801   0.829   6.167   2.415
  968SOL     OW 3802   6.959   4.235   0.882
  968SOL    HW1 3803   0.025   4.196   0.887
  968SOL    HW2 3804   6.965   4.328   0.845
  969SOL     OW 3805   4.379   0.000   6.601
  969SOL    HW1 3806   4.420   0.092   6.599
  969SOL    HW2 3807   4.449   6.958   6.576
  970SOL     OW 3808   4.704   2.936   5.800
  970SOL    HW1 3809   4.627   2.897   5.750
  970SOL    HW2 3810   4.674   2.965   5.891
  971SOL     OW 3811   0.349   2.984   0.252
  971SOL    HW1 3812   0.374   3.059   0.190
  971SOL    HW2 3813   0.283   3.017   0.319
  972SOL     OW 3814   5.111   6.886   0.853
  972SOL    HW1 3815   5.140   6.819   0.921
  972SOL    HW2 3816   5.017   6.916   0.873
  973SOL     OW 3817   5.752   3.207   5.334
  973SOL    HW1 3818   5.741   3.242   5.241
  973SOL    HW2 3819   5.662   3.184   5.371
  974SOL     OW 3820   2.495   0.362   4.760
  974SOL    HW1 3821   2.446   0.351   4.674
  974SOL    HW2 3822   2.591   0.338   4.748
  975SOL     OW 3823   3.229   0.060   5.346
  975SOL    HW1 3824   3.230   0.160   5.347
  975SOL    HW2 3825   3.156   0.029   5.285
  976SOL     OW 3826   0.275   5.191   3.508
  976SOL    HW1 3827   0.360   5.202   3.560
  976SOL    HW2 3828   0.197   5.210   3.568
  977SOL     OW 3829   0.915   2.430   1.953
  977SOL    HW1 3830   0.842   2.389   2.009
  977SOL    HW2 3831   0.937   2.370   1.877
  978SOL     OW 3832   5.534   3.538   4.729
  978SOL    HW1 3833   5.445   3.570   4.762
  978SOL    HW2 3834   5.606   3.600   4.760
  979SOL     OW 3835   5.479   1.496   3.297
  979SOL    HW1 3836   5.437   1.584   3.319
  979SOL    HW2 3837   5.519   1.500   3.205
  980SOL     OW 3838   0.236   0.547   4.815
  980SOL    HW1 3839   0.261   0.614   4.884
  980SOL    HW2 3840   0.251   0.585   4.724
  981SOL     OW 3841   6.313   3.126   5.949
  981SOL    HW1 3842   6.382   3.197   5.962
  981SOL    HW2 3843   6.246   3.131   6.023
  982SOL     OW 3844   1.512   3.760   1.245
  982SOL    HW1 3845   1.592   3.812   1.215
  982SOL    HW2 3846   1.526   3.732   1.340
  983SOL     OW 3847   5.213   1.917   3.408
  983SOL    HW1 3848   5.257   1.836   3.371
  983SOL    HW2 3849   5.146   1.891   3.477
  984SOL     OW 3850   5.085   2.493   5.371
  984SOL    HW1 3851   5.039   2.422   5.424
  984SOL    HW2 3852   5.075   2.473   5.273
  985SOL     OW 3853   2.475   4.761   0.554
  985SOL    HW1 3854   2.452   4.821   0.631
  985SOL    HW2 3855   2.410   4.775   0.480
  986SOL     OW 3856   4.321   4.486   6.842
  986SOL    HW1 3857   4.248   4.428   6.881
  986SOL    HW2 3858   4.288   4.580   6.835
  987SOL     OW 3859   3.409   6.800   2.854
  987SOL    HW1 3860   3.361   6.770   2.771
  987SOL    HW2 3861   3.364   6.761   2.934
  988SOL     OW 3862   3.373   3.046   1.747
  988SOL    HW1 3863   3.365   3.092   1.658
  988SOL    HW2 3864   3.349   2.950   1.738
  989SOL     OW 3865   0.498   0.523   4.486
  989SOL    HW1 3866   0.447   0.463   4.425
  989SOL    HW2 3867   0.479   0.619   4.463
  990SOL     OW 3868   4.697   6.106   2.567
  990SOL    HW1 3869   4.642   6.141   2.643
  990SOL    HW2 3870   4.712   6.008   2.579
  991SOL     OW 3871   5.624   1.657   4.921
  991SOL    HW1 3872   5.653   1.750   4.940
  991SOL    HW2 3873   5.524   1.651   4.924
  992SOL     OW 3874   6.771   3.336   1.328
  992SOL    HW1 3875   6.775   3.289   1.416
  992SOL    HW2 3876   6.852   3.394   1.317
  993SOL     OW 3877   3.659   5.840   4.865
  993SOL    HW1 3878   3.711   5.814   4.946
  993SOL    HW2 3879   3.717   5.834   4.784
  994SOL     OW 3880   3.202   3.044   2.196
  994SOL    HW1 3881   3.190   3.139   2.167
  994SOL    HW2 3882   3.298   3.018   2.188
  995SOL     OW 3883   0.192   1.158   5.052
  995SOL    HW1 3884   0.153   1.243   5.087
  995SOL    HW2 3885   0.267   1.128   5.112
  996SOL     OW 3886   0.976   3.513   0.917
  996SOL    HW1 3887   1.063   3.512   0.868
  996SOL    HW2 3888   0.953   3.421   0.948
  997SOL     OW 3889   0.419   1.344   0.641
  997SOL    HW1 3890   0.486   1.291   0.693
  997SOL    HW2 3891   0.328   1.329   0.680
  998SOL     OW 3892   4.961   6.693   3.666
  998SOL    HW1 3893   4.992   6.598   3.673
  998SOL    HW2 3894   4.900   6.703   3.588
  999SOL     OW 3895   6.198   5.438   1.543
  999SOL    HW1 3896   6.227   5.462   1.450
  999SOL    HW2 3897   6.238   5.503   1.608
 1000SOL     OW 3898   4.556   2.592   4.216
 1000SOL    HW1 3899   4.588   2.664   4.278
 1000SOL    HW2 3900   4.559   2.504   4.264
 1001SOL     OW 3901   4.347   1.410   6.319
 1001SOL    HW1 3902   4.408   1.422   6.241
 1001SOL    HW2 3903   4.274   1.479   6.315
 1002SOL     OW 3904   0.111   1.185   6.931
 1002SOL    HW1 3905   0.165   1.114   6.885
 1002SOL    HW2 3906   0.132   1.185   0.003
 1003SOL     OW 3907   4.842   4.796   2.909
 1003SOL    HW1 3908   4.932   4.754   2.918
 1003SOL    HW2 3909   4.778   4.732   2.867
 1004SOL     OW 3910   5.914   5.412   0.562
 1004SOL    HW1 3911   5.857   5.412   0.644
 1004SOL    HW2 3912   5.880   5.345   0.496
 1005SOL     OW 3913   6.894   5.388   3.773
 1005SOL    HW1 3914   6.837   5.322   3.822
 1005SOL    HW2 3915   6.875   5.480   3.806
 1006SOL     OW 3916   2.287   3.959   0.286
 1006SOL    HW1 3917   2.373   4.008   0.278
 1006SOL    HW2 3918   2.288   3.878   0.227
 1007SOL     OW 3919   1.017   0.975   3.341
 1007SOL    HW1 3920   1.084   0.966   3.267
 1007SOL    HW2 3921   1.062   1.013   3.422
 1008SOL     OW 3922   2.809   2.007   4.576
 1008SOL    HW1 3923   2.756   2.078   4.623
 1008SOL    HW2 3924   2.878   2.051   4.518
 1009SOL     OW 3925   2.658   6.077   5.429
 1009SOL    HW1 3926   2.559   6.067   5.421
 1009SOL    HW2 3927   2.684   6.171   5.408
 1010SOL     OW 3928   5.005   0.682   6.104
 1010SOL    HW1 3929   4.949   0.758   6.072
 1010SOL    HW2 3930   4.986   0.601   6.048
 1011SOL     OW 3931   3.392   6.036   3.882
 1011SOL    HW1 3932   3.459   6.077   3.943
 1011SOL    HW2 3933   3.420   6.049   3.787
 1012SOL     OW 3934   3.674   5.583   0.709
 1012SOL    HW1 3935   3.707   5.656   0.649
 1012SOL    HW2 3936   3.588   5.548   0.673
 1013SOL     OW 3937   0.631   0.768   0.101
 1013SOL    HW1 3938   0.547   0.727   0.138
 1013SOL    HW2 3939   0.627   0.867   0.110
 1014SOL     OW 3940   5.441   0.217   6.251
 1014SOL    HW1 3941   5.421   0.309   6.283
 1014SOL    HW2 3942   5.455   0.156   6.329
 1015SOL     OW 3943   3.478   6.995   4.831
 1015SOL    HW1 3944   3.413   6.934   4.876
 1015SOL    HW2 3945   3.490   6.966   4.735
 1016SOL     OW 3946   4.640   2.640   2.284
 1016SOL    HW1 3947   4.622   2.661   2.187
 1016SOL    HW2 3948   4.557   2.606   2.326
 1017SOL     OW 3949   5.094   0.859   6.570
 1017SOL    HW1 3950   5.053   0.950   6.563
 1017SOL    HW2 3951   5.022   0.790   6.571
 1018SOL     OW 3952   1.402   2.566   1.601
 1018SOL    HW1 3953   1.407   2.663   1.624
 1018SOL    HW2 3954   1.456   2.549   1.518
 1019SOL     OW 3955   6.197   1.411   0.662
 1019SOL    HW1 3956   6.228   1.488   0.606
 1019SOL    HW2 3957   6.144   1.445   0.739
 1020SOL     OW 3958   3.312   2.084   1.255
 1020SOL    HW1 3959   3.305   2.139   1.339
 1020SOL    HW2 3960   3.408   2.065   1.235
 1021SOL     OW 3961   6.738   1.302   0.761
 1021SOL    HW1 3962   6.680   1.279   0.684
 1021SOL    HW2 3963   6.808   1.367   0.732
 1022SOL     OW 3964   3.712   2.743   0.114
 1022SOL    HW1 3965   3.722   2.752   0.213
 1022SOL    HW2 3966   3.749   2.655   0.085
 1023SOL     OW 3967   6.387   0.491   4.671
 1023SOL    HW1 3968   6.455   0.432   4.715
 1023SOL    HW2 3969   6.423   0.524   4.583
 1024SOL     OW 3970   6.498   1.633   4.063
 1024SOL    HW1 3971   6.540   1.555   4.016
 1024SOL    HW2 3972   6.409   1.653   4.022
 1025SOL     OW 3973   3.470   4.329   1.308
 1025SOL    HW1 3974   3.483   4.409   1.367
 1025SOL    HW2 3975   3.372   4.319   1.287
 1026SOL     OW 3976   0.976   2.940   6.464
 1026SOL    HW1 3977   0.927   3.005   6.407
 1026SOL    HW2 3978   0.913   2.868   6.493
 1027SOL     OW 3979   2.066   4.739   1.304
 1027SOL    HW1 3980   2.136   4.764   1.371
 1027SOL    HW2 3981   2.110   4.690   1.228
 1028SOL     OW 3982   0.408   5.443   0.870
 1028SOL    HW1 3983   0.436   5.412   0.961
 1028SOL    HW2 3984   0.455   5.528   0.847
 1029SOL     OW 3985   3.669   0.819   5.562
 1029SOL    HW1 3986   3.608   0.852   5.490
 1029SOL    HW2 3987   3.663   0.719   5.568
 1030SOL     OW 3988   4.106   4.455   5.369
 1030SOL    HW1 3989   4.011   4.435   5.344
 1030SOL    HW2 3990   4.161   4.459   5.286
 1031SOL     OW 3991   2.305   5.234   0.821
 1031SOL    HW1 3992   2.283   5.292   0.743
 1031SOL    HW2 3993   2.322   5.141   0.790
 1032SOL     OW 3994   1.238   1.546   5.048
 1032SOL    HW1 3995   1.187   1.537   4.962
 1032SOL    HW2 3996   1.330   1.509   5.035
 1033SOL     OW 3997   2.329   6.144   3.220
 1033SOL    HW1 3998   2.365   6.063   3.267
 1033SOL    HW2 3999   2.377   6.225   3.253
 1034SOL     OW 4000   0.982   0.081   1.703
 1034SOL    HW1 4001   0.981   7.018   1.658
 1034SOL    HW2 4002   1.077   0.106   1.725
 1035SOL     OW 4003   3.145   0.759   3.071
 1035SOL    HW1 4004   3.104   0.808   2.994
 1035SOL    HW2 4005   3.117   0.801   3.157
 1036SOL     OW 4006   4.792   0.045   6.712
 1036SOL    HW1 4007   4.885   0.045   6.749
 1036SOL    HW2 4008   4.792   7.025   6.623
 1037SOL     OW 4009   3.232   1.596   6.131
 1037SOL    HW1 4010   3.304   1.660   6.157
 1037SOL    HW2 4011   3.241   1.573   6.034
 1038SOL     OW 4012   2.577   1.459   5.016
 1038SOL    HW1 4013   2.523   1.455   4.931
 1038SOL    HW2 4014   2.537   1.398   5.084
 1039SOL     OW 4015   4.285   2.218   3.559
 1039SOL    HW1 4016   4.353   2.284   3.529
 1039SOL    HW2 4017   4.252   2.242   3.650
 1040SOL     OW 4018   5.832   3.238   4.305
 1040SOL    HW1 4019   5.793   3.329   4.317
 1040SOL    HW2 4020   5.902   3.221   4.375
 1041SOL     OW 4021   1.993   6.606   4.233
 1041SOL    HW1 4022   1.964   6.692   4.191
 1041SOL    HW2 4023   2.059   6.625   4.305
 1042SOL     OW 4024   4.631   3.780   0.984
 1042SOL    HW1 4025   4.544   3.788   1.032
 1042SOL    HW2 4026   4.705   3.778   1.051
 1043SOL     OW 4027   3.795   0.374   6.680
 1043SOL    HW1 4028   3.700   0.353   6.702
 1043SOL    HW2 4029   3.850   0.291   6.681
 1044SOL     OW 4030   4.040   3.837   2.391
 1044SOL    HW1 4031   4.121   3.887   2.422
 1044SOL    HW2 4032   3.959   3.873   2.435
 1045SOL     OW 4033   3.758   1.064   2.935
 1045SOL    HW1 4034   3.847   1.036   2.972
 1045SOL    HW2 4035   3.716   1.131   2.996
 1046SOL     OW 4036   3.481   0.722   2.333
 1046SOL    HW1 4037   3.499   0.813   2.370
 1046SOL    HW2 4038   3.544   0.656   2.375
 1047SOL     OW 4039   0.610   5.332   1.956
 1047SOL    HW1 4040   0.675   5.292   2.021
 1047SOL    HW2 4041   0.550   5.396   2.004
 1048SOL     OW 4042   6.035   4.791   5.140
 1048SOL    HW1 4043   5.943   4.753   5.151
 1048SOL    HW2 4044   6.102   4.717   5.144
 1049SOL     OW 4045   0.794   3.542   5.095
 1049SOL    HW1 4046   0.842   3.513   5.178
 1049SOL    HW2 4047   0.844   3.618   5.053
 1050SOL     OW 4048   2.461   0.635   0.480
 1050SOL    HW1 4049   2.386   0.681   0.529
 1050SOL    HW2 4050   2.429   0.609   0.389
 1051SOL     OW 4051   4.928   4.687   2.436
 1051SOL    HW1 4052   5.004   4.639   2.479
 1051SOL    HW2 4053   4.922   4.662   2.340
 1052SOL     OW 4054   3.957   0.309   4.757
 1052SOL    HW1 4055   4.015   0.241   4.802
 1052SOL    HW2 4056   3.908   0.266   4.681
 1053SOL     OW 4057   3.754   4.929   3.446
 1053SOL    HW1 4058   3.786   5.009   3.498
 1053SOL    HW2 4059   3.832   4.871   3.422
 1054SOL     OW 4060   4.235   5.974   4.860
 1054SOL    HW1 4061   4.260   6.012   4.771
 1054SOL    HW2 4062   4.174   6.038   4.907
 1055SOL     OW 4063   3.733   4.922   3.903
 1055SOL    HW1 4064   3.826   4.945   3.875
 1055SOL    HW2 4065   3.688   4.870   3.831
 1056SOL     OW 4066   2.274   5.591   6.119
 1056SOL    HW1 4067   2.240   5.603   6.026
 1056SOL    HW2 4068   2.197   5.589   6.183
 1057SOL     OW 4069   3.939   3.769   1.182
 1057SOL    HW1 4070   4.014   3.722   1.230
 1057SOL    HW2 4071   3.957   3.768   1.084
 1058SOL     OW 4072   2.725   6.619   2.303
 1058SOL    HW1 4073   2.681   6.533   2.332
 1058SOL    HW2 4074   2.807   6.634   2.357
 1059SOL     OW 4075   3.374   0.540   0.237
 1059SOL    HW1 4076   3.386   0.546   0.137
 1059SOL    HW2 4077   3.291   0.588   0.263
 1060SOL     OW 4078   2.613   1.115   4.518
 1060SOL    HW1 4079   2.547   1.100   4.591
 1060SOL    HW2 4080   2.613   1.212   4.492
 1061SOL     OW 4081   3.071   6.274   1.215
 1061SOL    HW1 4082   3.125   6.293   1.297
 1061SOL    HW2 4083   3.001   6.206   1.236
 1062SOL     OW 4084   4.889   4.797   4.948
 1062SOL    HW1 4085   4.962   4.729   4.937
 1062SOL    HW2 4086   4.899   4.843   5.036
 1063SOL     OW 4087   2.566   2.692   6.033
 1063SOL    HW1 4088   2.532   2.679   5.940
 1063SOL    HW2 4089   2.628   2.618   6.057
 1064SOL     OW 4090   0.411   3.300   1.943
 1064SOL    HW1 4091   0.471   3.356   2.000
 1064SOL    HW2 4092   0.320   3.342   1.938
 1065SOL     OW 4093   4.272   4.967   5.926
 1065SOL    HW1 4094   4.349   4.985   5.864
 1065SOL    HW2 4095   4.284   4.877   5.968
 1066SOL     OW 4096   4.215   6.642   3.425
 1066SOL    HW1 4097   4.275   6.716   3.458
 1066SOL    HW2 4098   4.228   6.561   3.482
 1067SOL     OW 4099   2.645   3.103   0.864
 1067SOL    HW1 4100   2.662   3.051   0.781
 1067SOL    HW2 4101   2.714   3.175   0.874
 1068SOL     OW 4102   0.338   4.316   0.648
 1068SOL    HW1 4103   0.323   4.251   0.573
 1068SOL    HW2 4104   0.338   4.409   0.612
 1069SOL     OW 4105   3.795   3.260   2.426
 1069SOL    HW1 4106   3.792   3.317   2.508
 1069SOL    HW2 4107   3.884   3.270   2.382
 1070SOL     OW 4108   2.538   6.944   0.633
 1070SOL    HW1 4109   2.503   6.873   0.695
 1070SOL    HW2 4110   2.489   0.003   0.648
 1071SOL     OW 4111   4.794   5.470   3.854
 1071SOL    HW1 4112   4.769   5.406   3.781
 1071SOL    HW2 4113   4.801   5.563   3.816
 1072SOL     OW 4114   3.669   5.552   2.718
 1072SOL    HW1 4115   3.608   5.606   2.775
 1072SOL    HW2 4116   3.738   5.507   2.776
 1073SOL     OW 4117   2.749   5.780   2.956
 1073SOL    HW1 4118   2.768   5.682   2.962
 1073SOL    HW2 4119   2.768   5.823   3.044
 1074SOL     OW 4120   1.455   5.621   2.173
 1074SOL    HW1 4121   1.473   5.702   2.229
 1074SOL    HW2 4122   1.473   5.539   2.226
 1075SOL     OW 4123   1.233   4.320   3.253
 1075SOL    HW1 4124   1.277   4.319   3.164
 1075SOL    HW2 4125   1.271   4.395   3.308
 1076SOL     OW 4126   6.991   3.945   2.642
 1076SOL    HW1 4127   6.925   4.018   2.661
 1076SOL    HW2 4128   7.021   3.950   2.547
 1077SOL     OW 4129   5.064   0.500   1.662
 1077SOL    HW1 4130   4.969   0.511   1.632
 1077SOL    HW2 4131   5.125   0.535   1.591
 1078SOL     OW 4132   0.449   3.144   1.707
 1078SOL    HW1 4133   0.535   3.167   1.662
 1078SOL    HW2 4134   0.457   3.164   1.805
 1079SOL     OW 4135   2.049   5.334   3.241
 1079SOL    HW1 4136   2.021   5.242   3.213
 1079SOL    HW2 4137   1.971   5.382   3.280
 1080SOL     OW 4138   1.790   5.842   3.767
 1080SOL    HW1 4139   1.807   5.850   3.866
 1080SOL    HW2 4140   1.858   5.896   3.718
 1081SOL     OW 4141   1.549   0.564   0.217
 1081SOL    HW1 4142   1.572   0.572   0.120
 1081SOL    HW2 4143   1.541   0.467   0.241
 1082SOL     OW 4144   2.147   0.128   0.869
 1082SOL    HW1 4145   2.203   0.065   0.815
 1082SOL    HW2 4146   2.057   0.138   0.825
 1083SOL     OW 4147   3.460   2.398   1.695
 1083SOL    HW1 4148   3.533   2.381   1.761
 1083SOL    HW2 4149   3.378   2.346   1.721
 1084SOL     OW 4150   6.626   3.693   0.865
 1084SOL    HW1 4151   6.555   3.712   0.933
 1084SOL    HW2 4152   6.672   3.778   0.840
 1085SOL     OW 4153   1.644   5.189   3.572
 1085SOL    HW1 4154   1.692   5.163   3.488
 1085SOL    HW2 4155   1.637   5.288   3.577
 1086SOL     OW 4156   3.623   5.207   2.384
 1086SOL    HW1 4157   3.601   5.297   2.420
 1086SOL    HW2 4158   3.588   5.136   2.446
 1087SOL     OW 4159   4.157   3.536   4.797
 1087SOL    HW1 4160   4.182   3.523   4.893
 1087SOL    HW2 4161   4.161   3.449   4.748
 1088SOL     OW 4162   6.489   4.381   2.531
 1088SOL    HW1 4163   6.487   4.472   2.488
 1088SOL    HW2 4164   6.413   4.327   2.496
 1089SOL     OW 4165   6.218   6.785   3.088
 1089SOL    HW1 4166   6.198   6.719   3.159
 1089SOL    HW2 4167   6.310   6.821   3.100
 1090SOL     OW 4168   1.933   1.718   6.245
 1090SOL    HW1 4169   1.862   1.678   6.304
 1090SOL    HW2 4170   1.889   1.766   6.169
 1091SOL     OW 4171   1.045   2.699   5.812
 1091SOL    HW1 4172   0.995   2.719   5.728
 1091SOL    HW2 4173   1.140   2.726   5.801
 1092SOL     OW 4174   2.145   4.554   1.144
 1092SOL    HW1 4175   2.232   4.505   1.134
 1092SOL    HW2 4176   2.087   4.534   1.065
 1093SOL     OW 4177   6.852   2.579   1.716
 1093SOL    HW1 4178   6.860   2.483   1.745
 1093SOL    HW2 4179   6.755   2.604   1.710
 1094SOL     OW 4180   0.494   6.829   1.934
 1094SOL    HW1 4181   0.495   6.872   1.844
 1094SOL    HW2 4182   0.412   6.772   1.943
 1095SOL     OW 4183   0.174   3.707   5.632
 1095SOL    HW1 4184   0.216   3.759   5.557
 1095SOL    HW2 4185   0.186   3.609   5.616
 1096SOL     OW 4186   3.551   3.421   1.775
 1096SOL    HW1 4187   3.642   3.449   1.808
 1096SOL    HW2 4188   3.482   3.444   1.844
 1097SOL     OW 4189   2.333   4.339   5.746
 1097SOL    HW1 4190   2.250   4.312   5.794
 1097SOL    HW2 4191   2.413   4.303   5.795
 1098SOL     OW 4192   4.003   0.502   2.459
 1098SOL    HW1 4193   4.020   0.597   2.436
 1098SOL    HW2 4194   3.991   0.493   2.558
 1099SOL     OW 4195   3.212   0.637   2.313
 1099SOL    HW1 4196   3.199   0.598   2.222
 1099SOL    HW2 4197   3.302   0.681   2.318
 1100SOL     OW 4198   6.505   0.918   6.811
 1100SOL    HW1 4199   6.504   0.830   6.763
 1100SOL    HW2 4200   6.584   0.921   6.873
 1101SOL     OW 4201   5.268   3.030   1.627
 1101SOL    HW1 4202   5.346   2.983   1.586
 1101SOL    HW2 4203   5.241   3.107   1.570
 1102SOL     OW 4204   0.118   4.054   3.801
 1102SOL    HW1 4205   0.071   4.107   3.731
 1102SOL    HW2 4206   0.157   4.115   3.869
 1103SOL     OW 4207   0.037   3.430   0.014
 1103SOL    HW1 4208   0.134   3.406   0.020
 1103SOL    HW2 4209   7.018   3.411   0.101
 1104SOL     OW 4210   2.739   5.331   6.516
 1104SOL    HW1 4211   2.667   5.300   6.453
 1104SOL    HW2 4212   2.700   5.344   6.607
 1105SOL     OW 4213   3.677   5.541   1.236
 1105SOL    HW1 4214   3.756   5.530   1.296
 1105SOL    HW2 4215   3.708   5.538   1.140
 1106SOL     OW 4216   1.159   0.903   6.335
 1106SOL    HW1 4217   1.239   0.880   6.280
 1106SOL    HW2 4218   1.133   0.823   6.389
 1107SOL     OW 4219   6.790   0.633   1.299
 1107SOL    HW1 4220   6.767   0.701   1.369
 1107SOL    HW2 4221   6.746   0.657   1.213
 1108SOL     OW 4222   1.120   0.964   6.772
 1108SOL    HW1 4223   1.139   1.026   6.847
 1108SOL    HW2 4224   1.118   1.015   6.686
 1109SOL     OW 4225   4.947   0.768   3.911
 1109SOL    HW1 4226   5.001   0.713   3.847
 1109SOL    HW2 4227   4.909   0.709   3.982
 1110SOL     OW 4228   3.708   2.937   2.658
 1110SOL    HW1 4229   3.746   2.885   2.582
 1110SOL    HW2 4230   3.621   2.978   2.630
 1111SOL     OW 4231   4.940   6.927   6.984
 1111SOL    HW1 4232   4.984   6.936   6.895
 1111SOL    HW2 4233   4.894   7.013   7.008
 1112SOL     OW 4234   0.906   1.210   2.338
 1112SOL    HW1 4235   0.829   1.256   2.382
 1112SOL    HW2 4236   0.946   1.271   2.270
 1113SOL     OW 4237   6.151   3.927   1.538
 1113SOL    HW1 4238   6.053   3.907   1.543
 1113SOL    HW2 4239   6.165   4.010   1.485
 1114SOL     OW 4240   5.584   0.981   5.610
 1114SOL    HW1 4241   5.636   1.066   5.623
 1114SOL    HW2 4242   5.574   0.963   5.512
 1115SOL     OW 4243   2.511   4.459   0.647
 1115SOL    HW1 4244   2.525   4.408   0.732
 1115SOL    HW2 4245   2.598   4.498   0.617
 1116SOL     OW 4246   3.822   6.541   6.321
 1116SOL    HW1 4247   3.870   6.623   6.351
 1116SOL    HW2 4248   3.726   6.545   6.350
 1117SOL     OW 4249   2.741   2.724   0.807
 1117SOL    HW1 4250   2.651   2.763   0.824
 1117SOL    HW2 4251   2.773   2.751   0.716
 1118SOL     OW 4252   1.698   2.909   1.981
 1118SOL    HW1 4253   1.736   2.816   1.978
 1118SOL    HW2 4254   1.601   2.905   2.006
 1119SOL     OW 4255   2.911   3.284   2.861
 1119SOL    HW1 4256   2.967   3.213   2.905
 1119SOL    HW2 4257   2.871   3.343   2.931
 1120SOL     OW 4258   4.753   0.935   4.053
 1120SOL    HW1 4259   4.746   0.900   4.147
 1120SOL    HW2 4260   4.839   0.903   4.013
 1121SOL     OW 4261   5.343   3.086   2.951
 1121SOL    HW1 4262   5.415   3.131   3.005
 1121SOL    HW2 4263   5.320   2.998   2.993
 1122SOL     OW 4264   4.210   5.148   6.821
 1122SOL    HW1 4265   4.237   5.234   6.778
 1122SOL    HW2 4266   4.183   5.083   6.750
 1123SOL     OW 4267   3.581   1.373   1.991
 1123SOL    HW1 4268   3.646   1.383   2.066
 1123SOL    HW2 4269   3.629   1.335   1.911
 1124SOL     OW 4270   1.521   5.011   4.671
 1124SOL    HW1 4271   1.438   4.968   4.706
 1124SOL    HW2 4272   1.601   4.961   4.703
 1125SOL     OW 4273   2.883   3.522   5.166
 1125SOL    HW1 4274   2.849   3.610   5.199
 1125SOL    HW2 4275   2.842   3.449   5.220
 1126SOL     OW 4276   6.320   0.280   2.264
 1126SOL    HW1 4277   6.314   0.229   2.178
 1126SOL    HW2 4278   6.333   0.216   2.340
 1127SOL     OW 4279   2.025   5.641   6.221
 1127SOL    HW1 4280   2.006   5.544   6.212
 1127SOL    HW2 4281   1.947   5.687   6.264
 1128SOL     OW 4282   2.500   1.585   4.138
 1128SOL    HW1 4283   2.409   1.564   4.174
 1128SOL    HW2 4284   2.495   1.598   4.039
 1129SOL     OW 4285   4.820   6.930   6.132
 1129SOL    HW1 4286   4.798   6.850   6.077
 1129SOL    HW2 4287   4.902   6.974   6.095
 1130SOL     OW 4288   0.514   5.751   5.957
 1130SOL    HW1 4289   0.421   5.767   5.988
 1130SOL    HW2 4290   0.578   5.805   6.012
 1131SOL     OW 4291   0.640   5.314   5.439
 1131SOL    HW1 4292   0.726   5.263   5.431
 1131SOL    HW2 4293   0.580   5.289   5.363
 1132SOL     OW 4294   5.497   6.697   4.957
 1132SOL    HW1 4295   5.524   6.648   5.040
 1132SOL    HW2 4296   5.579   6.735   4.912
 1133SOL     OW 4297   0.061   2.687   6.574
 1133SOL    HW1 4298   0.018   2.669   6.662
 1133SOL    HW2 4299   0.135   2.622   6.558
 1134SOL     OW 4300   0.017   2.494   5.770
 1134SOL    HW1 4301   0.028   2.574   5.828
 1134SOL    HW2 4302   0.030   2.411   5.825
 1135SOL     OW 4303   6.334   1.844   4.169
 1135SOL    HW1 4304   6.395   1.921   4.156
 1135SOL    HW2 4305   6.377   1.760   4.135
 1136SOL     OW 4306   3.467   5.220   4.152
 1136SOL    HW1 4307   3.444   5.301   4.097
 1136SOL    HW2 4308   3.428   5.229   4.243
 1137SOL     OW 4309   1.398   0.867   6.217
 1137SOL    HW1 4310   1.457   0.887   6.295
 1137SOL    HW2 4311   1.455   0.840   6.139
 1138SOL     OW 4312   1.114   4.101   5.811
 1138SOL    HW1 4313   1.112   4.144   5.901
 1138SOL    HW2 4314   1.021   4.074   5.786
 1139SOL     OW 4315   1.060   6.892   2.064
 1139SOL    HW1 4316   0.981   6.849   2.021
 1139SOL    HW2 4317   1.132   6.823   2.078
 1140SOL     OW 4318   3.738   2.134   3.225
 1140SOL    HW1 4319   3.778   2.204   3.165
 1140SOL    HW2 4320   3.798   2.054   3.227
 1141SOL     OW 4321   0.084   6.065   6.055
 1141SOL    HW1 4322   0.007   6.114   6.014
 1141SOL    HW2 4323   0.097   6.096   6.149
 1142SOL     OW 4324   6.581   0.764   4.603
 1142SOL    HW1 4325   6.560   0.753   4.700
 1142SOL    HW2 4326   6.509   0.818   4.559
 1143SOL     OW 4327   4.638   1.737   1.919
 1143SOL    HW1 4328   4.639   1.836   1.930
 1143SOL    HW2 4329   4.626   1.714   1.822
 1144SOL     OW 4330   1.088   0.134   5.074
 1144SOL    HW1 4331   1.183   0.106   5.061
 1144SOL    HW2 4332   1.073   0.222   5.028
 1145SOL     OW 4333   1.906   4.542   4.825
 1145SOL    HW1 4334   1.901   4.544   4.725
 1145SOL    HW2 4335   1.870   4.455   4.858
 1146SOL     OW 4336   5.909   1.946   0.912
 1146SOL    HW1 4337   5.938   1.996   0.994
 1146SOL    HW2 4338   5.986   1.892   0.877
 1147SOL     OW 4339   6.734   3.623   2.157
 1147SOL    HW1 4340   6.749   3.708   2.207
 1147SOL    HW2 4341   6.680   3.641   2.075
 1148SOL     OW 4342   5.269   1.091   6.786
 1148SOL    HW1 4343   5.332   1.125   6.856
 1148SOL    HW2 4344   5.312   1.017   6.736
 1149SOL     OW 4345   5.664   2.176   3.439
 1149SOL    HW1 4346   5.629   2.096   3.487
 1149SOL    HW2 4347   5.679   2.250   3.504
 1150SOL     OW 4348   1.462   5.175   5.438
 1150SOL    HW1 4349   1.490   5.247   5.502
 1150SOL    HW2 4350   1.475   5.207   5.344
 1151SOL     OW 4351   2.971   5.176   0.119
 1151SOL    HW1 4352   2.894   5.216   0.169
 1151SOL    HW2 4353   2.941   5.091   0.075
 1152SOL     OW 4354   0.680   0.959   4.080
 1152SOL    HW1 4355   0.709   1.013   4.159
 1152SOL    HW2 4356   0.626   0.880   4.111
 1153SOL     OW 4357   2.574   4.598   2.556
 1153SOL    HW1 4358   2.556   4.581   2.459
 1153SOL    HW2 4359   2.668   4.630   2.567
 1154SOL     OW 4360   1.773   3.981   2.327
 1154SOL    HW1 4361   1.790   4.067   2.278
 1154SOL    HW2 4362   1.835   3.975   2.405
 1155SOL     OW 4363   4.171   6.637   2.730
 1155SOL    HW1 4364   4.079   6.628   2.770
 1155SOL    HW2 4365   4.194   6.733   2.720
 1156SOL     OW 4366   1.616   1.614   3.815
 1156SOL    HW1 4367   1.538   1.611   3.752
 1156SOL    HW2 4368   1.586   1.584   3.906
 1157SOL     OW 4369   1.328   3.129   4.315
 1157SOL    HW1 4370   1.424   3.142   4.337
 1157SOL    HW2 4371   1.273   3.194   4.367
 1158SOL     OW 4372   4.283   6.076   6.550
 1158SOL    HW1 4373   4.275   5.986   6.593
 1158SOL    HW2 4374   4.324   6.066   6.459
 1159SOL     OW 4375   5.975   4.793   2.350
 1159SOL    HW1 4376   5.964   4.876   2.404
 1159SOL    HW2 4377   5.906   4.726   2.379
 1160SOL     OW 4378   2.986   3.026   1.138
 1160SOL    HW1 4379   3.002   2.988   1.229
 1160SOL    HW2 4380   3.069   3.015   1.082
 1161SOL     OW 4381   4.433   0.778   3.998
 1161SOL    HW1 4382   4.392   0.778   3.907
 1161SOL    HW2 4383   4.381   0.838   4.058
 1162SOL     OW 4384   4.084   5.050   1.313
 1162SOL    HW1 4385   4.065   5.014   1.404
 1162SOL    HW2 4386   4.077   4.977   1.245
 1163SOL     OW 4387   5.173   0.369   2.367
 1163SOL    HW1 4388   5.102   0.363   2.297
 1163SOL    HW2 4389   5.255   0.322   2.335
 1164SOL     OW 4390   6.140   3.771   3.807
 1164SOL    HW1 4391   6.111   3.695   3.749
 1164SOL    HW2 4392   6.228   3.807   3.773
 1165SOL     OW 4393   1.330   4.685   2.611
 1165SOL    HW1 4394   1.288   4.659   2.698
 1165SOL    HW2 4395   1.306   4.617   2.541
 1166SOL     OW 4396   3.131   2.197   6.512
 1166SOL    HW1 4397   3.052   2.213   6.453
 1166SOL    HW2 4398   3.214   2.227   6.466
 1167SOL     OW 4399   4.126   1.768   5.450
 1167SOL    HW1 4400   4.200   1.825   5.412
 1167SOL    HW2 4401   4.057   1.753   5.380
 1168SOL     OW 4402   5.885   6.959   3.313
 1168SOL    HW1 4403   5.795   6.977   3.273
 1168SOL    HW2 4404   5.940   0.017   3.311
 1169SOL     OW 4405   0.714   3.335   1.541
 1169SOL    HW1 4406   0.715   3.238   1.518
 1169SOL    HW2 4407   0.657   3.384   1.475
 1170SOL     OW 4408   2.954   0.519   1.172
 1170SOL    HW1 4409   2.934   0.606   1.126
 1170SOL    HW2 4410   2.973   0.449   1.103
 1171SOL     OW 4411   2.992   0.572   0.102
 1171SOL    HW1 4412   3.033   0.583   0.192
 1171SOL    HW2 4413   2.903   0.618   0.099
 1172SOL     OW 4414   3.261   3.528   4.966
 1172SOL    HW1 4415   3.166   3.508   4.941
 1172SOL    HW2 4416   3.320   3.512   4.888
 1173SOL     OW 4417   5.112   0.074   6.388
 1173SOL    HW1 4418   5.196   0.128   6.383
 1173SOL    HW2 4419   5.128   7.010   6.346
 1174SOL     OW 4420   3.668   6.099   6.892
 1174SOL    HW1 4421   3.679   6.063   6.985
 1174SOL    HW2 4422   3.651   6.024   6.829
 1175SOL     OW 4423   0.104   4.984   4.805
 1175SOL    HW1 4424   0.028   4.933   4.844
 1175SOL    HW2 4425   0.159   4.924   4.747
 1176SOL     OW 4426   6.234   2.959   1.045
 1176SOL    HW1 4427   6.194   3.050   1.047
 1176SOL    HW2 4428   6.252   2.933   0.950
 1177SOL     OW 4429   5.605   3.263   0.037
 1177SOL    HW1 4430   5.623   3.172   7.024
 1177SOL    HW2 4431   5.688   3.318   0.033
 1178SOL     OW 4432   5.586   4.331   2.540
 1178SOL    HW1 4433   5.558   4.274   2.463
 1178SOL    HW2 4434   5.685   4.322   2.555
 1179SOL     OW 4435   2.021   5.813   5.970
 1179SOL    HW1 4436   2.099   5.792   5.911
 1179SOL    HW2 4437   2.051   5.813   6.065
 1180SOL     OW 4438   1.790   1.036   3.779
 1180SOL    HW1 4439   1.809   1.044   3.877
 1180SOL    HW2 4440   1.871   1.066   3.728
 1181SOL     OW 4441   1.726   4.298   2.546
 1181SOL    HW1 4442   1.627   4.302   2.563
 1181SOL    HW2 4443   1.774   4.348   2.617
 1182SOL     OW 4444   1.110   3.888   3.995
 1182SOL    HW1 4445   1.094   3.922   4.087
 1182SOL    HW2 4446   1.033   3.832   3.966
 1183SOL     OW 4447   4.693   6.157   0.882
 1183SOL    HW1 4448   4.628   6.186   0.953
 1183SOL    HW2 4449   4.695   6.057   0.878
 1184SOL     OW 4450   3.588   3.008   6.116
 1184SOL    HW1 4451   3.509   3.065   6.094
 1184SOL    HW2 4452   3.558   2.914   6.130
 1185SOL     OW 4453   2.728   1.498   6.352
 1185SOL    HW1 4454   2.786   1.418   6.337
 1185SOL    HW2 4455   2.643   1.471   6.397
 1186SOL     OW 4456   3.637   0.772   5.053
 1186SOL    HW1 4457   3.727   0.816   5.059
 1186SOL    HW2 4458   3.566   0.839   5.076
 1187SOL     OW 4459   0.535   1.900   5.027
 1187SOL    HW1 4460   0.546   1.887   4.928
 1187SOL    HW2 4461   0.573   1.822   5.075
 1188SOL     OW 4462   1.200   0.518   4.742
 1188SOL    HW1 4463   1.170   0.495   4.649
 1188SOL    HW2 4464   1.240   0.609   4.742
 1189SOL     OW 4465   0.079   1.117   1.276
 1189SOL    HW1 4466   0.074   1.065   1.361
 1189SOL    HW2 4467   0.097   1.055   1.200
 1190SOL     OW 4468   4.466   4.911   2.430
 1190SOL    HW1 4469   4.489   4.982   2.364
 1190SOL    HW2 4470   4.533   4.913   2.505
 1191SOL     OW 4471   2.649   4.288   1.431
 1191SOL    HW1 4472   2.633   4.334   1.518
 1191SOL    HW2 4473   2.625   4.350   1.356
 1192SOL     OW 4474   4.660   4.939   2.637
 1192SOL    HW1 4475   4.743   4.961   2.585
 1192SOL    HW2 4476   4.673   4.852   2.685
 1193SOL     OW 4477   3.927   6.893   4.213
 1193SOL    HW1 4478   3.930   6.887   4.313
 1193SOL    HW2 4479   4.021   6.890   4.177
 1194SOL     OW 4480   5.745   1.491   1.578
 1194SOL    HW1 4481   5.844   1.494   1.587
 1194SOL    HW2 4482   5.703   1.542   1.653
 1195SOL     OW 4483   3.234   6.574   0.265
 1195SOL    HW1 4484   3.173   6.551   0.341
 1195SOL    HW2 4485   3.279   6.661   0.284
 1196SOL     OW 4486   1.223   5.215   3.310
 1196SOL    HW1 4487   1.255   5.310   3.305
 1196SOL    HW2 4488   1.134   5.208   3.265
 1197SOL     OW 4489   3.378   5.029   6.982
 1197SOL    HW1 4490   3.343   5.121   7.000
 1197SOL    HW2 4491   3.383   5.015   6.883
 1198SOL     OW 4492   3.538   1.008   2.351
 1198SOL    HW1 4493   3.483   1.051   2.280
 1198SOL    HW2 4494   3.631   1.045   2.349
 1199SOL     OW 4495   3.191   3.579   3.974
 1199SOL    HW1 4496   3.164   3.504   3.914
 1199SOL    HW2 4497   3.267   3.630   3.932
 1200SOL     OW 4498   4.559   3.252   1.091
 1200SOL    HW1 4499   4.461   3.241   1.110
 1200SOL    HW2 4500   4.604   3.293   1.170
 1201SOL     OW 4501   1.543   1.462   4.963
 1201SOL    HW1 4502   1.511   1.409   4.884
 1201SOL    HW2 4503   1.617   1.413   5.009
 1202SOL     OW 4504   6.341   0.190   4.886
 1202SOL    HW1 4505   6.313   0.099   4.854
 1202SOL    HW2 4506   6.268   0.255   4.869
 1203SOL     OW 4507   6.420   6.437   1.733
 1203SOL    HW1 4508   6.386   6.479   1.649
 1203SOL    HW2 4509   6.368   6.472   1.811
 1204SOL     OW 4510   1.568   6.973   7.003
 1204SOL    HW1 4511   1.472   6.998   7.010
 1204SOL    HW2 4512   1.583   6.884   0.019
 1205SOL     OW 4513   0.723   3.264   5.295
 1205SOL    HW1 4514   0.639   3.317   5.306
 1205SOL    HW2 4515   0.771   3.259   5.383
 1206SOL     OW 4516   0.261   2.293   4.359
 1206SOL    HW1 4517   0.322   2.266   4.434
 1206SOL    HW2 4518   0.306   2.276   4.272
 1207SOL     OW 4519   6.094   6.625   6.778
 1207SOL    HW1 4520   6.094   6.674   6.691
 1207SOL    HW2 4521   6.085   6.690   6.853
 1208SOL     OW 4522   3.618   3.552   2.856
 1208SOL    HW1 4523   3.524   3.531   2.830
 1208SOL    HW2 4524   3.641   3.645   2.828
 1209SOL     OW 4525   6.622   4.670   4.866
 1209SOL    HW1 4526   6.648   4.574   4.868
 1209SOL    HW2 4527   6.610   4.703   4.960
 1210SOL     OW 4528   2.504   7.001   2.959
 1210SOL    HW1 4529   2.443   6.997   2.880
 1210SOL    HW2 4530   2.468   0.041   3.025
 1211SOL     OW 4531   0.979   2.728   3.088
 1211SOL    HW1 4532   1.038   2.787   3.031
 1211SOL    HW2 4533   0.919   2.786   3.143
 1212SOL     OW 4534   0.760   4.506   3.711
 1212SOL    HW1 4535   0.662   4.486   3.717
 1212SOL    HW2 4536   0.784   4.573   3.782
 1213SOL     OW 4537   5.815   3.332   5.052
 1213SOL    HW1 4538   5.728   3.359   5.012
 1213SOL    HW2 4539   5.888   3.390   5.016
 1214SOL     OW 4540   1.513   2.210   1.643
 1214SOL    HW1 4541   1.574   2.139   1.678
 1214SOL    HW2 4542   1.488   2.273   1.717
 1215SOL     OW 4543   0.088   5.165   2.233
 1215SOL    HW1 4544   0.066   5.238   2.169
 1215SOL    HW2 4545   0.085   5.077   2.185
 1216SOL     OW 4546   2.455   6.973   1.802
 1216SOL    HW1 4547   2.525   7.012   1.862
 1216SOL    HW2 4548   2.410   0.021   1.751
 1217SOL     OW 4549   2.260   2.148   2.716
 1217SOL    HW1 4550   2.166   2.131   2.687
 1217SOL    HW2 4551   2.261   2.167   2.815
 1218SOL     OW 4552   0.383   3.208   3.584
 1218SOL    HW1 4553   0.432   3.178   3.503
 1218SOL    HW2 4554   0.287   3.182   3.576
 1219SOL     OW 4555   2.595   5.608   3.367
 1219SOL    HW1 4556   2.572   5.539   3.299
 1219SOL    HW2 4557   2.637   5.564   3.446
 1220SOL     OW 4558   6.142   4.512   2.539
 1220SOL    HW1 4559   6.081   4.592   2.544
 1220SOL    HW2 4560   6.193   4.505   2.625
 1221SOL     OW 4561   4.885   4.708   6.216
 1221SOL    HW1 4562   4.928   4.712   6.306
 1221SOL    HW2 4563   4.866   4.801   6.184
 1222SOL     OW 4564   6.145   4.762   1.285
 1222SOL    HW1 4565   6.186   4.695   1.347
 1222SOL    HW2 4566   6.205   4.842   1.278
 1223SOL     OW 4567   6.971   5.082   5.285
 1223SOL    HW1 4568   6.956   5.000   5.340
 1223SOL    HW2 4569   6.917   5.077   5.201
 1224SOL     OW 4570   4.318   4.870   1.002
 1224SOL    HW1 4571   4.396   4.921   0.966
 1224SOL    HW2 4572   4.236   4.893   0.950
 1225SOL     OW 4573   3.655   2.082   6.803
 1225SOL    HW1 4574   3.678   2.151   6.735
 1225SOL    HW2 4575   3.730   2.017   6.811
 1226SOL     OW 4576   5.806   5.384   0.820
 1226SOL    HW1 4577   5.814   5.463   0.882
 1226SOL    HW2 4578   5.710   5.367   0.801
 1227SOL     OW 4579   4.891   4.920   6.815
 1227SOL    HW1 4580   4.889   5.018   6.800
 1227SOL    HW2 4581   4.810   4.892   6.867
 1228SOL     OW 4582   3.609   4.188   4.200
 1228SOL    HW1 4583   3.531   4.196   4.263
 1228SOL    HW2 4584   3.691   4.164   4.252
 1229SOL     OW 4585   2.307   5.691   3.213
 1229SOL    HW1 4586   2.366   5.610   3.221
 1229SOL    HW2 4587   2.217   5.663   3.180
 1230SOL     OW 4588   4.835   5.508   1.261
 1230SOL    HW1 4589   4.819   5.459   1.175
 1230SOL    HW2 4590   4.769   5.478   1.330
 1231SOL     OW 4591   2.474   1.319   6.836
 1231SOL    HW1 4592   2.473   1.375   6.919
 1231SOL    HW2 4593   2.383   1.281   6.820
 1232SOL     OW 4594   3.101   1.426   5.128
 1232SOL    HW1 4595   3.055   1.343   5.097
 1232SOL    HW2 4596   3.034   1.499   5.141
 1233SOL     OW 4597   0.023   5.228   4.868
 1233SOL    HW1 4598   6.977   5.262   4.807
 1233SOL    HW2 4599   0.055   5.139   4.834
 1234SOL     OW 4600   6.207   4.589   6.963
 1234SOL    HW1 4601   6.285   4.621   6.909
 1234SOL    HW2 4602   6.174   4.664   7.021
 1235SOL     OW 4603   6.093   4.685   1.027
 1235SOL    HW1 4604   6.041   4.751   0.974
 1235SOL    HW2 4605   6.121   4.727   1.114
 1236SOL     OW 4606   1.434   1.138   2.608
 1236SOL    HW1 4607   1.479   1.171   2.524
 1236SOL    HW2 4608   1.501   1.136   2.682
 1237SOL     OW 4609   1.028   0.004   4.199
 1237SOL    HW1 4610   0.984   0.081   4.244
 1237SOL    HW2 4611   1.094   6.988   4.262
 1238SOL     OW 4612   0.745   0.642   4.330
 1238SOL    HW1 4613   0.708   0.603   4.414
 1238SOL    HW2 4614   0.805   0.576   4.286
 1239SOL     OW 4615   4.767   4.470   4.059
 1239SOL    HW1 4616   4.854   4.504   4.094
 1239SOL    HW2 4617   4.762   4.485   3.960
 1240SOL     OW 4618   0.559   3.634   0.523
 1240SOL    HW1 4619   0.536   3.537   0.510
 1240SOL    HW2 4620   0.619   3.643   0.602
 1241SOL     OW 4621   4.101   5.368   6.069
 1241SOL    HW1 4622   4.120   5.343   6.164
 1241SOL    HW2 4623   4.003   5.355   6.051
 1242SOL     OW 4624   2.067   5.279   0.392
 1242SOL    HW1 4625   2.163   5.303   0.374
 1242SOL    HW2 4626   2.061   5.227   0.477
 1243SOL     OW 4627   1.176   3.527   3.581
 1243SOL    HW1 4628   1.214   3.565   3.666
 1243SOL    HW2 4629   1.209   3.580   3.503
 1244SOL     OW 4630   6.178   0.002   5.125
 1244SOL    HW1 4631   6.275   0.006   5.149
 1244SOL    HW2 4632   6.131   0.083   5.160
 1245SOL     OW 4633   4.472   6.780   1.325
 1245SOL    HW1 4634   4.487   6.866   1.276
 1245SOL    HW2 4635   4.387   6.739   1.292
 1246SOL     OW 4636   5.525   1.925   1.136
 1246SOL    HW1 4637   5.432   1.940   1.169
 1246SOL    HW2 4638   5.558   2.006   1.088
 1247SOL     OW 4639   5.714   6.610   2.479
 1247SOL    HW1 4640   5.719   6.529   2.538
 1247SOL    HW2 4641   5.724   6.692   2.535
 1248SOL     OW 4642   0.902   6.671   4.470
 1248SOL    HW1 4643   0.814   6.713   4.450
 1248SOL    HW2 4644   0.968   6.695   4.399
 1249SOL     OW 4645   6.005   6.349   6.773
 1249SOL    HW1 4646   5.995   6.311   6.681
 1249SOL    HW2 4647   6.064   6.430   6.769
 1250SOL     OW 4648   0.690   4.407   4.790
 1250SOL    HW1 4649   0.692   4.326   4.731
 1250SOL    HW2 4650   0.712   4.488   4.735
 1251SOL     OW 4651   3.064   0.223   2.656
 1251SOL    HW1 4652   3.005   0.203   2.577
 1251SOL    HW2 4653   3.092   0.319   2.653
 1252SOL     OW 4654   2.652   5.214   6.969
 1252SOL    HW1 4655   2.737   5.266   6.975
 1252SOL    HW2 4656   2.670   5.124   6.930
 1253SOL     OW 4657   2.949   6.322   0.038
 1253SOL    HW1 4658   2.967   6.268   0.120
 1253SOL    HW2 4659   3.029   6.377   0.016
 1254SOL     OW 4660   6.222   1.547   3.769
 1254SOL    HW1 4661   6.180   1.516   3.684
 1254SOL    HW2 4662   6.159   1.607   3.818
 1255SOL     OW 4663   6.067   2.134   5.617
 1255SOL    HW1 4664   6.099   2.089   5.533
 1255SOL    HW2 4665   6.026   2.222   5.593
 1256SOL     OW 4666   0.323   5.818   5.258
 1256SOL    HW1 4667   0.420   5.791   5.259
 1256SOL    HW2 4668   0.270   5.754   5.314
 1257SOL     OW 4669   6.795   5.938   3.440
 1257SOL    HW1 4670   6.753   5.883   3.367
 1257SOL    HW2 4671   6.872   5.888   3.478
 1258SOL     OW 4672   4.558   5.825   6.517
 1258SOL    HW1 4673   4.495   5.787   6.585
 1258SOL    HW2 4674   4.598   5.910   6.552
 1259SOL     OW 4675   5.541   6.971   5.314
 1259SOL    HW1 4676   5.620   6.911   5.303
 1259SOL    HW2 4677   5.491   6.977   5.227
 1260SOL     OW 4678   3.184   1.157   0.764
 1260SOL    HW1 4679   3.211   1.230   0.827
 1260SOL    HW2 4680   3.214   1.069   0.801
 1261SOL     OW 4681   0.031   4.294   4.819
 1261SOL    HW1 4682   0.111   4.268   4.872
 1261SOL    HW2 4683   7.007   4.212   4.789
 1262SOL     OW 4684   4.076   5.700   1.891
 1262SOL    HW1 4685   4.005   5.720   1.959
 1262SOL    HW2 4686   4.068   5.604   1.863
 1263SOL     OW 4687   6.888   1.737   0.866
 1263SOL    HW1 4688   6.871   1.651   0.913
 1263SOL    HW2 4689   6.823   1.806   0.898
 1264SOL     OW 4690   6.189   2.575   4.482
 1264SOL    HW1 4691   6.182   2.622   4.570
 1264SOL    HW2 4692   6.185   2.642   4.407
 1265SOL     OW 4693   6.536   5.990   4.590
 1265SOL    HW1 4694   6.537   5.939   4.504
 1265SOL    HW2 4695   6.475   6.069   4.581
 1266SOL     OW 4696   2.964   0.945   3.705
 1266SOL    HW1 4697   2.911   0.864   3.678
 1266SOL    HW2 4698   3.055   0.915   3.736
 1267SOL     OW 4699   0.306   4.306   2.627
 1267SOL    HW1 4700   0.271   4.396   2.602
 1267SOL    HW2 4701   0.255   4.271   2.706
 1268SOL     OW 4702   5.995   4.472   6.857
 1268SOL    HW1 4703   5.909   4.514   6.885
 1268SOL    HW2 4704   6.071   4.522   6.899
 1269SOL     OW 4705   6.819   5.148   6.520
 1269SOL    HW1 4706   6.741   5.132   6.460
 1269SOL    HW2 4707   6.889   5.200   6.471
 1270SOL     OW 4708   1.623   1.543   4.382
 1270SOL    HW1 4709   1.715   1.546   4.343
 1270SOL    HW2 4710   1.556   1.556   4.310
 1271SOL     OW 4711   5.157   2.635   3.729
 1271SOL    HW1 4712   5.192   2.620   3.637
 1271SOL    HW2 4713   5.180   2.728   3.759
 1272SOL     OW 4714   6.094   6.668   1.003
 1272SOL    HW1 4715   6.187   6.655   0.968
 1272SOL    HW2 4716   6.047   6.581   1.006
 1273SOL     OW 4717   2.496   6.637   5.651
 1273SOL    HW1 4718   2.581   6.651   5.702
 1273SOL    HW2 4719   2.467   6.542   5.661
 1274SOL     OW 4720   6.013   1.867   2.751
 1274SOL    HW1 4721   6.011   1.927   2.671
 1274SOL    HW2 4722   6.091   1.805   2.745
 1275SOL     OW 4723   3.748   1.860   4.016
 1275SOL    HW1 4724   3.702   1.941   3.978
 1275SOL    HW2 4725   3.809   1.888   4.090
 1276SOL     OW 4726   6.550   6.840   2.749
 1276SOL    HW1 4727   6.462   6.886   2.758
 1276SOL    HW2 4728   6.555   6.794   2.661
 1277SOL     OW 4729   0.728   2.069   4.648
 1277SOL    HW1 4730   0.752   1.978   4.683
 1277SOL    HW2 4731   0.737   2.136   4.722
 1278SOL     OW 4732   3.206   1.385   5.576
 1278SOL    HW1 4733   3.246   1.379   5.667
 1278SOL    HW2 4734   3.113   1.349   5.578
 1279SOL     OW 4735   2.312   4.810   0.338
 1279SOL    HW1 4736   2.232   4.778   0.287
 1279SOL    HW2 4737   2.352   4.889   0.292
 1280SOL     OW 4738   1.853   5.708   2.677
 1280SOL    HW1 4739   1.765   5.728   2.636
 1280SOL    HW2 4740   1.914   5.787   2.668
 1281SOL     OW 4741   0.465   6.784   4.109
 1281SOL    HW1 4742   0.507   6.698   4.137
 1281SOL    HW2 4743   0.505   6.859   4.162
 1282SOL     OW 4744   1.192   0.155   2.427
 1282SOL    HW1 4745   1.218   0.251   2.434
 1282SOL    HW2 4746   1.233   0.115   2.346
 1283SOL     OW 4747   4.806   4.046   5.122
 1283SOL    HW1 4748   4.726   4.022   5.177
 1283SOL    HW2 4749   4.887   3.999   5.159
 1284SOL     OW 4750   2.748   2.095   2.583
 1284SOL    HW1 4751   2.724   2.006   2.622
 1284SOL    HW2 4752   2.845   2.097   2.560
 1285SOL     OW 4753   5.512   2.846   5.872
 1285SOL    HW1 4754   5.445   2.847   5.797
 1285SOL    HW2 4755   5.538   2.752   5.892
 1286SOL     OW 4756   6.054   6.404   1.541
 1286SOL    HW1 4757   5.980   6.438   1.599
 1286SOL    HW2 4758   6.138   6.397   1.594
 1287SOL     OW 4759   6.337   4.346   5.913
 1287SOL    HW1 4760   6.354   4.379   5.820
 1287SOL    HW2 4761   6.395   4.396   5.977
 1288SOL     OW 4762   6.559   2.677   3.840
 1288SOL    HW1 4763   6.521   2.766   3.816
 1288SOL    HW2 4764   6.647   2.690   3.885
 1289SOL     OW 4765   6.784   5.007   2.518
 1289SOL    HW1 4766   6.689   5.004   2.486
 1289SOL    HW2 4767   6.834   5.077   2.467
 1290SOL     OW 4768   0.514   0.206   1.074
 1290SOL    HW1 4769   0.423   0.201   1.033
 1290SOL    HW2 4770   0.584   0.206   1.002
 1291SOL     OW 4771   1.726   0.132   0.990
 1291SOL    HW1 4772   1.681   0.221   0.987
 1291SOL    HW2 4773   1.803   0.136   1.054
 1292SOL     OW 4774   0.918   5.743   6.664
 1292SOL    HW1 4775   0.902   5.804   6.741
 1292SOL    HW2 4776   1.007   5.698   6.675
 1293SOL     OW 4777   6.283   2.834   5.936
 1293SOL    HW1 4778   6.224   2.803   6.011
 1293SOL    HW2 4779   6.311   2.928   5.953
 1294SOL     OW 4780   0.222   1.850   3.378
 1294SOL    HW1 4781   0.195   1.836   3.473
 1294SOL    HW2 4782   0.322   1.855   3.372
 1295SOL     OW 4783   4.820   3.396   1.767
 1295SOL    HW1 4784   4.726   3.402   1.734
 1295SOL    HW2 4785   4.858   3.488   1.777
 1296SOL     OW 4786   3.847   2.163   0.126
 1296SOL    HW1 4787   3.785   2.089   0.099
 1296SOL    HW2 4788   3.804   2.217   0.198
 1297SOL     OW 4789   6.669   0.851   6.140
 1297SOL    HW1 4790   6.664   0.752   6.152
 1297SOL    HW2 4791   6.763   0.881   6.151
 1298SOL     OW 4792   6.478   2.668   3.379
 1298SOL    HW1 4793   6.440   2.648   3.288
 1298SOL    HW2 4794   6.422   2.622   3.448
 1299SOL     OW 4795   1.409   3.104   4.020
 1299SOL    HW1 4796   1.347   3.096   4.099
 1299SOL    HW2 4797   1.489   3.157   4.047
 1300SOL     OW 4798   3.823   3.482   1.859
 1300SOL    HW1 4799   3.901   3.483   1.797
 1300SOL    HW2 4800   3.821   3.395   1.909
 1301SOL     OW 4801   0.461   0.436   2.475
 1301SOL    HW1 4802   0.443   0.343   2.443
 1301SOL    HW2 4803   0.470   0.435   2.575
 1302SOL     OW 4804   2.693   5.807   5.357
 1302SOL    HW1 4805   2.693   5.907   5.358
 1302SOL    HW2 4806   2.672   5.773   5.449
 1303SOL     OW 4807   2.871   0.203   1.202
 1303SOL    HW1 4808   2.891   0.221   1.299
 1303SOL    HW2 4809   2.945   0.148   1.163
 1304SOL     OW 4810   3.759   1.166   6.469
 1304SOL    HW1 4811   3.773   1.162   6.370
 1304SOL    HW2 4812   3.742   1.074   6.505
 1305SOL     OW 4813   6.065   6.204   4.176
 1305SOL    HW1 4814   6.003   6.161   4.241
 1305SOL    HW2 4815   6.018   6.279   4.129
 1306SOL     OW 4816   1.300   4.886   4.738
 1306SOL    HW1 4817   1.258   4.868   4.827
 1306SOL    HW2 4818   1.261   4.824   4.670
 1307SOL     OW 4819   1.554   1.853   4.047
 1307SOL    HW1 4820   1.537   1.914   3.969
 1307SOL    HW2 4821   1.567   1.760   4.014
 1308SOL     OW 4822   4.553   6.130   3.236
 1308SOL    HW1 4823   4.631   6.070   3.251
 1308SOL    HW2 4824   4.496   6.093   3.163
 1309SOL     OW 4825   5.688   2.745   4.834
 1309SOL    HW1 4826   5.688   2.653   4.793
 1309SOL    HW2 4827   5.617   2.750   4.904
 1310SOL     OW 4828   5.370   3.753   5.152
 1310SOL    HW1 4829   5.421   3.799   5.079
 1310SOL    HW2 4830   5.273   3.776   5.145
 1311SOL     OW 4831   5.252   5.025   5.245
 1311SOL    HW1 4832   5.244   5.123   5.261
 1311SOL    HW2 4833   5.347   4.996   5.258
 1312SOL     OW 4834   6.128   0.249   2.598
 1312SOL    HW1 4835   6.117   0.262   2.500
 1312SOL    HW2 4836   6.150   0.153   2.616
 1313SOL     OW 4837   3.261   4.899   4.933
 1313SOL    HW1 4838   3.178   4.877   4.983
 1313SOL    HW2 4839   3.321   4.818   4.931
 1314SOL     OW 4840   5.844   1.598   5.606
 1314SOL    HW1 4841   5.885   1.607   5.515
 1314SOL    HW2 4842   5.875   1.513   5.649
 1315SOL     OW 4843   2.367   6.992   3.485
 1315SOL    HW1 4844   2.434   7.007   3.412
 1315SOL    HW2 4845   2.378   0.036   3.556
 1316SOL     OW 4846   3.681   6.395   2.841
 1316SOL    HW1 4847   3.596   6.383   2.789
 1316SOL    HW2 4848   3.690   6.491   2.869
 1317SOL     OW 4849   0.204   3.630   4.068
 1317SOL    HW1 4850   0.286   3.622   4.126
 1317SOL    HW2 4851   0.127   3.660   4.123
 1318SOL     OW 4852   0.769   6.382   1.442
 1318SOL    HW1 4853   0.844   6.330   1.482
 1318SOL    HW2 4854   0.694   6.388   1.508
 1319SOL     OW 4855   6.649   0.442   6.905
 1319SOL    HW1 4856   6.556   0.464   6.932
 1319SOL    HW2 4857   6.671   0.348   6.932
 1320SOL     OW 4858   5.507   6.130   5.417
 1320SOL    HW1 4859   5.589   6.122   5.360
 1320SOL    HW2 4860   5.455   6.045   5.410
 1321SOL     OW 4861   3.033   1.656   6.637
 1321SOL    HW1 4862   3.129   1.631   6.654
 1321SOL    HW2 4863   3.026   1.753   6.617
 1322SOL     OW 4864   5.020   1.840   5.977
 1322SOL    HW1 4865   5.031   1.864   5.881
 1322SOL    HW2 4866   5.045   1.918   6.034
 1323SOL     OW 4867   5.981   1.409   4.470
 1323SOL    HW1 4868   6.030   1.427   4.555
 1323SOL    HW2 4869   6.044   1.415   4.392
 1324SOL     OW 4870   1.082   3.444   7.025
 1324SOL    HW1 4871   1.107   3.364   6.971
 1324SOL    HW2 4872   0.988   3.434   0.032
 1325SOL     OW 4873   3.734   5.155   3.663
 1325SOL    HW1 4874   3.653   5.212   3.678
 1325SOL    HW2 4875   3.816   5.207   3.686
 1326SOL     OW 4876   5.141   4.080   4.344
 1326SOL    HW1 4877   5.070   4.023   4.386
 1326SOL    HW2 4878   5.103   4.126   4.264
 1327SOL     OW 4879   3.113   5.888   4.115
 1327SOL    HW1 4880   3.150   5.866   4.025
 1327SOL    HW2 4881   3.038   5.953   4.106
 1328SOL     OW 4882   1.911   1.485   0.389
 1328SOL    HW1 4883   1.811   1.485   0.391
 1328SOL    HW2 4884   1.947   1.535   0.467
 1329SOL     OW 4885   0.673   0.085   1.680
 1329SOL    HW1 4886   0.676   0.123   1.773
 1329SOL    HW2 4887   0.764   0.053   1.654
 1330SOL     OW 4888   4.664   6.438   0.992
 1330SOL    HW1 4889   4.605   6.436   0.912
 1330SOL    HW2 4890   4.628   6.375   1.061
 1331SOL     OW 4891   6.785   1.739   2.221
 1331SOL    HW1 4892   6.785   1.689   2.135
 1331SOL    HW2 4893   6.775   1.837   2.203
 1332SOL     OW 4894   4.061   1.901   1.197
 1332SOL    HW1 4895   4.126   1.841   1.245
 1332SOL    HW2 4896   4.073   1.891   1.098
 1333SOL     OW 4897   4.113   3.764   4.379
 1333SOL    HW1 4898   4.101   3.670   4.410
 1333SOL    HW2 4899   4.210   3.781   4.362
 1334SOL     OW 4900   0.485   3.954   3.805
 1334SOL    HW1 4901   0.403   3.970   3.749
 1334SOL    HW2 4902   0.564   3.942   3.746
 1335SOL     OW 4903   2.758   5.361   1.792
 1335SOL    HW1 4904   2.738   5.456   1.766
 1335SOL    HW2 4905   2.823   5.360   1.868
 1336SOL     OW 4906   0.387   0.848   4.797
 1336SOL    HW1 4907   0.428   0.933   4.832
 1336SOL    HW2 4908   0.323   0.812   4.865
 1337SOL     OW 4909   3.379   0.620   6.595
 1337SOL    HW1 4910   3.471   0.623   6.556
 1337SOL    HW2 4911   3.332   0.538   6.563
 1338SOL     OW 4912   3.622   5.710   1.504
 1338SOL    HW1 4913   3.630   5.622   1.551
 1338SOL    HW2 4914   3.677   5.709   1.420
 1339SOL     OW 4915   0.386   4.476   6.395
 1339SOL    HW1 4916   0.363   4.572   6.410
 1339SOL    HW2 4917   0.352   4.421   6.471
 1340SOL     OW 4918   1.803   1.085   6.418
 1340SOL    HW1 4919   1.712   1.114   6.450
 1340SOL    HW2 4920   1.796   0.995   6.375
 1341SOL     OW 4921   6.351   2.789   4.121
 1341SOL    HW1 4922   6.300   2.718   4.073
 1341SOL    HW2 4923   6.449   2.774   4.107
 1342SOL     OW 4924   0.627   6.262   1.715
 1342SOL    HW1 4925   0.701   6.253   1.782
 1342SOL    HW2 4926   0.623   6.356   1.682
 1343SOL     OW 4927   3.031   5.495   3.725
 1343SOL    HW1 4928   2.973   5.459   3.799
 1343SOL    HW2 4929   3.090   5.423   3.691
 1344SOL     OW 4930   5.030   1.334   2.905
 1344SOL    HW1 4931   4.976   1.404   2.952
 1344SOL    HW2 4932   5.031   1.353   2.807
 1345SOL     OW 4933   0.934   6.519   3.076
 1345SOL    HW1 4934   0.905   6.520   3.172
 1345SOL    HW2 4935   1.034   6.529   3.072
 1346SOL     OW 4936   0.228   0.994   3.803
 1346SOL    HW1 4937   0.273   0.955   3.884
 1346SOL    HW2 4938   0.249   1.092   3.798
 1347SOL     OW 4939   5.016   0.582   3.547
 1347SOL    HW1 4940   5.028   0.488   3.513
 1347SOL    HW2 4941   5.068   0.594   3.631
 1348SOL     OW 4942   4.686   5.962   4.673
 1348SOL    HW1 4943   4.776   5.995   4.703
 1348SOL    HW2 4944   4.698   5.902   4.594
 1349SOL     OW 4945   4.668   2.262   0.200
 1349SOL    HW1 4946   4.752   2.231   0.245
 1349SOL    HW2 4947   4.631   2.340   0.250
 1350SOL     OW 4948   3.339   0.433   4.884
 1350SOL    HW1 4949   3.418   0.484   4.853
 1350SOL    HW2 4950   3.320   0.456   4.980
 1351SOL     OW 4951   1.251   1.524   4.470
 1351SOL    HW1 4952   1.222   1.619   4.472
 1351SOL    HW2 4953   1.270   1.492   4.563
 1352SOL     OW 4954   0.593   6.563   4.157
 1352SOL    HW1 4955   0.525   6.513   4.103
 1352SOL    HW2 4956   0.650   6.497   4.207
 1353SOL     OW 4957   2.247   2.430   4.709
 1353SOL    HW1 4958   2.155   2.439   4.746
 1353SOL    HW2 4959   2.256   2.488   4.628
 1354SOL     OW 4960   0.444   0.035   0.581
 1354SOL    HW1 4961   0.434   0.082   0.669
 1354SOL    HW2 4962   0.354   0.015   0.543
 1355SOL     OW 4963   3.874   3.104   6.857
 1355SOL    HW1 4964   3.855   3.198   6.829
 1355SOL    HW2 4965   3.792   3.048   6.847
 1356SOL     OW 4966   3.131   2.787   1.694
 1356SOL    HW1 4967   3.137   2.812   1.790
 1356SOL    HW2 4968   3.117   2.869   1.638
 1357SOL     OW 4969   2.585   2.850   5.730
 1357SOL    HW1 4970   2.502   2.810   5.769
 1357SOL    HW2 4971   2.586   2.949   5.748
 1358SOL     OW 4972   1.800   3.865   6.067
 1358SOL    HW1 4973   1.721   3.805   6.058
 1358SOL    HW2 4974   1.836   3.860   6.161
 1359SOL     OW 4975   6.755   1.222   0.181
 1359SOL    HW1 4976   6.681   1.240   0.246
 1359SOL    HW2 4977   6.793   1.309   0.147
 1360SOL     OW 4978   3.562   2.877   3.814
 1360SOL    HW1 4979   3.572   2.779   3.796
 1360SOL    HW2 4980   3.510   2.891   3.899
 1361SOL     OW 4981   0.867   6.229   1.228
 1361SOL    HW1 4982   0.838   6.306   1.286
 1361SOL    HW2 4983   0.930   6.263   1.158
 1362SOL     OW 4984   3.021   1.863   6.341
 1362SOL    HW1 4985   2.949   1.924   6.374
 1362SOL    HW2 4986   3.086   1.845   6.415
 1363SOL     OW 4987   6.920   7.011   0.993
 1363SOL    HW1 4988   6.910   0.074   1.038
 1363SOL    HW2 4989   6.830   6.970   0.980
 1364SOL     OW 4990   1.125   3.820   1.134
 1364SOL    HW1 4991   1.159   3.731   1.166
 1364SOL    HW2 4992   1.197   3.889   1.145
 1365SOL     OW 4993   0.983   3.942   5.259
 1365SOL    HW1 4994   0.943   4.032   5.277
 1365SOL    HW2 4995   1.067   3.931   5.313
 1366SOL     OW 4996   3.845   0.439   1.544
 1366SOL    HW1 4997   3.857   0.512   1.612
 1366SOL    HW2 4998   3.777   0.469   1.476
 1367SOL     OW 4999   1.569   0.134   4.509
 1367SOL    HW1 5000   1.542   0.052   4.458
 1367SOL    HW2 5001   1.639   0.110   4.576
 1368SOL     OW 5002   1.680   6.690   4.641
 1368SOL    HW1 5003   1.726   6.741   4.713
 1368SOL    HW2 5004   1.631   6.613   4.680
 1369SOL     OW 5005   2.451   5.412   3.672
 1369SOL    HW1 5006   2.395   5.476   3.724
 1369SOL    HW2 5007   2.484   5.456   3.588
 1370SOL     OW 5008   6.897   2.399   2.985
 1370SOL    HW1 5009   6.838   2.464   3.032
 1370SOL    HW2 5010   6.870   2.305   3.010
 1371SOL     OW 5011   6.315   2.316   5.739
 1371SOL    HW1 5012   6.271   2.361   5.662
 1371SOL    HW2 5013   6.285   2.220   5.743
 1372SOL     OW 5014   6.011   2.949   1.423
 1372SOL    HW1 5015   5.940   2.935   1.492
 1372SOL    HW2 5016   6.081   2.878   1.433
 1373SOL     OW 5017   5.960   3.318   2.341
 1373SOL    HW1 5018   5.962   3.293   2.244
 1373SOL    HW2 5019   5.876   3.284   2.382
 1374SOL     OW 5020   3.782   3.248   1.998
 1374SOL    HW1 5021   3.735   3.170   1.958
 1374SOL    HW2 5022   3.868   3.218   2.039
 1375SOL     OW 5023   5.217   4.527   4.526
 1375SOL    HW1 5024   5.142   4.553   4.586
 1375SOL    HW2 5025   5.300   4.511   4.581
 1376SOL     OW 5026   3.116   4.561   6.145
 1376SOL    HW1 5027   3.087   4.476   6.102
 1376SOL    HW2 5028   3.215   4.561   6.155
 1377SOL     OW 5029   2.118   1.698   2.750
 1377SOL    HW1 5030   2.024   1.718   2.723
 1377SOL    HW2 5031   2.134   1.600   2.746
 1378SOL     OW 5032   5.419   2.446   4.230
 1378SOL    HW1 5033   5.377   2.537   4.235
 1378SOL    HW2 5034   5.480   2.442   4.151
 1379SOL     OW 5035   4.492   5.670   7.009
 1379SOL    HW1 5036   4.518   5.763   0.007
 1379SOL    HW2 5037   4.453   5.625   0.064
 1380SOL     OW 5038   0.300   5.791   2.632
 1380SOL    HW1 5039   0.377   5.854   2.642
 1380SOL    HW2 5040   0.218   5.842   2.607
 1381SOL     OW 5041   6.371   2.634   6.177
 1381SOL    HW1 5042   6.379   2.574   6.256
 1381SOL    HW2 5043   6.291   2.693   6.189
 1382SOL     OW 5044   5.064   2.407   0.050
 1382SOL    HW1 5045   5.108   2.317   0.053
 1382SOL    HW2 5046   5.096   2.463   0.127
 1383SOL     OW 5047   6.792   0.744   0.682
 1383SOL    HW1 5048   6.810   0.655   0.724
 1383SOL    HW2 5049   6.695   0.766   0.693
 1384SOL     OW 5050   5.913   1.984   1.969
 1384SOL    HW1 5051   6.009   1.955   1.977
 1384SOL    HW2 5052   5.857   1.934   2.036
 1385SOL     OW 5053   0.520   6.074   1.388
 1385SOL    HW1 5054   0.535   6.173   1.396
 1385SOL    HW2 5055   0.479   6.054   1.299
 1386SOL     OW 5056   2.268   5.514   4.333
 1386SOL    HW1 5057   2.308   5.423   4.325
 1386SOL    HW2 5058   2.175   5.507   4.369
 1387SOL     OW 5059   2.385   5.705   1.714
 1387SOL    HW1 5060   2.332   5.656   1.783
 1387SOL    HW2 5061   2.454   5.645   1.675
 1388SOL     OW 5062   6.389   0.082   2.086
 1388SOL    HW1 5063   6.364   0.081   1.989
 1388SOL    HW2 5064   6.480   0.121   2.096
 1389SOL     OW 5065   6.070   1.004   2.303
 1389SOL    HW1 5066   6.163   1.042   2.303
 1389SOL    HW2 5067   6.064   0.930   2.369
 1390SOL     OW 5068   1.569   1.741   5.022
 1390SOL    HW1 5069   1.558   1.643   5.039
 1390SOL    HW2 5070   1.523   1.767   4.937
 1391SOL     OW 5071   0.249   2.921   3.471
 1391SOL    HW1 5072   0.249   2.953   3.376
 1391SOL    HW2 5073   0.304   2.838   3.479
 1392SOL     OW 5074   4.985   4.261   4.197
 1392SOL    HW1 5075   4.966   4.315   4.278
 1392SOL    HW2 5076   4.902   4.214   4.168
 1393SOL     OW 5077   3.532   5.828   6.367
 1393SOL    HW1 5078   3.459   5.841   6.434
 1393SOL    HW2 5079   3.573   5.738   6.378
 1394SOL     OW 5080   1.736   6.124   6.686
 1394SOL    HW1 5081   1.748   6.057   6.613
 1394SOL    HW2 5082   1.717   6.214   6.646
 1395SOL     OW 5083   3.590   4.722   5.859
 1395SOL    HW1 5084   3.609   4.695   5.765
 1395SOL    HW2 5085   3.491   4.739   5.870
 1396SOL     OW 5086   6.238   6.149   3.963
 1396SOL    HW1 5087   6.204   6.176   4.053
 1396SOL    HW2 5088   6.223   6.222   3.897
 1397SOL     OW 5089   4.379   6.072   5.833
 1397SOL    HW1 5090   4.316   6.137   5.791
 1397SOL    HW2 5091   4.435   6.030   5.762
 1398SOL     OW 5092   2.156   0.942   4.392
 1398SOL    HW1 5093   2.132   0.975   4.301
 1398SOL    HW2 5094   2.102   0.992   4.461
 1399SOL     OW 5095   2.846   6.199   2.106
 1399SOL    HW1 5096   2.932   6.164   2.068
 1399SOL    HW2 5097   2.802   6.259   2.040
 1400SOL     OW 5098   2.117   6.505   2.550
 1400SOL    HW1 5099   2.084   6.569   2.619
 1400SOL    HW2 5100   2.165   6.429   2.594
 1401SOL     OW 5101   6.684   1.720   4.254
 1401SOL    HW1 5102   6.775   1.691   4.223
 1401SOL    HW2 5103   6.614   1.665   4.210
 1402SOL     OW 5104   6.870   3.388   0.492
 1402SOL    HW1 5105   6.810   3.445   0.547
 1402SOL    HW2 5106   6.858   3.292   0.518
 1403SOL     OW 5107   3.462   0.396   2.196
 1403SOL    HW1 5108   3.395   0.340   2.244
 1403SOL    HW2 5109   3.536   0.421   2.259
 1404SOL     OW 5110   5.839   1.545   0.669
 1404SOL    HW1 5111   5.864   1.458   0.710
 1404SOL    HW2 5112   5.757   1.581   0.715
 1405SOL     OW 5113   3.335   2.903   1.171
 1405SOL    HW1 5114   3.378   2.877   1.258
 1405SOL    HW2 5115   3.256   2.845   1.154
 1406SOL     OW 5116   1.820   4.438   1.213
 1406SOL    HW1 5117   1.905   4.391   1.192
 1406SOL    HW2 5118   1.836   4.507   1.284
 1407SOL     OW 5119   6.298   2.408   3.005
 1407SOL    HW1 5120   6.301   2.462   2.921
 1407SOL    HW2 5121   6.210   2.421   3.051
 1408SOL     OW 5122   6.239   0.592   6.189
 1408SOL    HW1 5123   6.182   0.631   6.261
 1408SOL    HW2 5124   6.259   0.662   6.121
 1409SOL     OW 5125   0.294   1.578   4.017
 1409SOL    HW1 5126   0.262   1.497   4.065
 1409SOL    HW2 5127   0.385   1.602   4.049
 1410SOL     OW 5128   6.866   2.858   6.965
 1410SOL    HW1 5129   6.820   2.878   0.025
 1410SOL    HW2 5130   6.862   2.939   6.906
 1411SOL     OW 5131   1.599   0.260   1.608
 1411SOL    HW1 5132   1.560   0.169   1.620
 1411SOL    HW2 5133   1.571   0.319   1.684
 1412SOL     OW 5134   1.290   3.030   0.272
 1412SOL    HW1 5135   1.284   2.931   0.255
 1412SOL    HW2 5136   1.342   3.073   0.197
 1413SOL     OW 5137   3.180   0.150   3.811
 1413SOL    HW1 5138   3.253   0.219   3.813
 1413SOL    HW2 5139   3.097   0.188   3.853
 1414SOL     OW 5140   3.213   0.915   1.771
 1414SOL    HW1 5141   3.150   0.885   1.699
 1414SOL    HW2 5142   3.167   0.910   1.859
 1415SOL     OW 5143   4.263   6.019   6.085
 1415SOL    HW1 5144   4.180   5.989   6.040
 1415SOL    HW2 5145   4.333   6.040   6.017
 1416SOL     OW 5146   4.699   5.679   3.098
 1416SOL    HW1 5147   4.620   5.705   3.043
 1416SOL    HW2 5148   4.669   5.631   3.181
 1417SOL     OW 5149   3.397   2.644   6.377
 1417SOL    HW1 5150   3.348   2.558   6.361
 1417SOL    HW2 5151   3.338   2.721   6.354
 1418SOL     OW 5152   3.286   3.996   2.708
 1418SOL    HW1 5153   3.353   4.046   2.654
 1418SOL    HW2 5154   3.199   3.992   2.659
 1419SOL     OW 5155   4.607   6.249   4.658
 1419SOL    HW1 5156   4.655   6.162   4.648
 1419SOL    HW2 5157   4.618   6.283   4.752
 1420SOL     OW 5158   6.911   5.315   1.904
 1420SOL    HW1 5159   6.997   5.323   1.953
 1420SOL    HW2 5160   6.835   5.330   1.968
 1421SOL     OW 5161   3.481   1.034   2.879
 1421SOL    HW1 5162   3.470   1.033   2.780
 1421SOL    HW2 5163   3.578   1.042   2.902
 1422SOL     OW 5164   2.755   6.537   0.014
 1422SOL    HW1 5165   2.785   6.623   6.998
 1422SOL    HW2 5166   2.833   6.475   0.021
 1423SOL     OW 5167   4.967   0.333   2.567
 1423SOL    HW1 5168   5.059   0.369   2.553
 1423SOL    HW2 5169   4.908   0.364   2.493
 1424SOL     OW 5170   6.524   4.948   2.965
 1424SOL    HW1 5171   6.564   5.032   3.000
 1424SOL    HW2 5172   6.437   4.968   2.921
 1425SOL     OW 5173   1.839   0.164   4.946
 1425SOL    HW1 5174   1.878   0.248   4.909
 1425SOL    HW2 5175   1.894   0.134   5.024
 1426SOL     OW 5176   1.730   1.376   5.847
 1426SOL    HW1 5177   1.757   1.411   5.757
 1426SOL    HW2 5178   1.807   1.327   5.888
 1427SOL     OW 5179   6.147   0.947   4.810
 1427SOL    HW1 5180   6.211   0.877   4.777
 1427SOL    HW2 5181   6.197   1.015   4.864
 1428SOL     OW 5182   5.553   1.416   0.036
 1428SOL    HW1 5183   5.576   1.442   0.130
 1428SOL    HW2 5184   5.610   1.467   6.998
 1429SOL     OW 5185   5.299   0.084   0.276
 1429SOL    HW1 5186   5.328   0.153   0.343
 1429SOL    HW2 5187   5.263   0.130   0.195
 1430SOL     OW 5188   1.910   4.688   3.731
 1430SOL    HW1 5189   1.889   4.776   3.774
 1430SOL    HW2 5190   2.002   4.659   3.756
 1431SOL     OW 5191   1.100   0.692   1.305
 1431SOL    HW1 5192   1.086   0.611   1.362
 1431SOL    HW2 5193   1.109   0.664   1.209
 1432SOL     OW 5194   2.855   0.196   1.972
 1432SOL    HW1 5195   2.850   0.229   1.878
 1432SOL    HW2 5196   2.940   0.144   1.984
 1433SOL     OW 5197   4.582   0.724   4.195
 1433SOL    HW1 5198   4.521   0.738   4.117
 1433SOL    HW2 5199   4.527   0.699   4.275
 1434SOL     OW 5200   0.672   1.002   5.096
 1434SOL    HW1 5201   0.676   1.066   5.020
 1434SOL    HW2 5202   0.750   1.017   5.157
 1435SOL     OW 5203   0.254   1.386   3.555
 1435SOL    HW1 5204   0.232   1.464   3.614
 1435SOL    HW2 5205   0.291   1.419   3.468
 1436SOL     OW 5206   4.338   4.144   0.791
 1436SOL    HW1 5207   4.378   4.083   0.722
 1436SOL    HW2 5208   4.411   4.196   0.835
 1437SOL     OW 5209   3.780   1.130   2.399
 1437SOL    HW1 5210   3.779   1.134   2.499
 1437SOL    HW2 5211   3.873   1.111   2.368
 1438SOL     OW 5212   2.124   0.640   1.170
 1438SOL    HW1 5213   2.094   0.619   1.077
 1438SOL    HW2 5214   2.046   0.636   1.233
 1439SOL     OW 5215   0.431   5.562   2.696
 1439SOL    HW1 5216   0.357   5.629   2.695
 1439SOL    HW2 5217   0.402   5.481   2.748
 1440SOL     OW 5218   2.335   3.215   1.641
 1440SOL    HW1 5219   2.266   3.234   1.710
 1440SOL    HW2 5220   2.408   3.159   1.681
 1441SOL     OW 5221   4.946   5.925   1.065
 1441SOL    HW1 5222   4.871   5.889   1.121
 1441SOL    HW2 5223   4.998   5.991   1.118
 1442SOL     OW 5224   5.129   5.513   0.711
 1442SOL    HW1 5225   5.103   5.558   0.796
 1442SOL    HW2 5226   5.221   5.475   0.719
 1443SOL     OW 5227   0.483   2.583   2.909
 1443SOL    HW1 5228   0.448   2.494   2.877
 1443SOL    HW2 5229   0.418   2.623   2.973
 1444SOL     OW 5230   0.480   4.836   6.429
 1444SOL    HW1 5231   0.444   4.928   6.415
 1444SOL    HW2 5232   0.444   4.798   6.514
 1445SOL     OW 5233   1.184   3.690   1.733
 1445SOL    HW1 5234   1.223   3.761   1.675
 1445SOL    HW2 5235   1.095   3.662   1.696
 1446SOL     OW 5236   6.565   6.536   1.047
 1446SOL    HW1 5237   6.495   6.465   1.053
 1446SOL    HW2 5238   6.581   6.575   1.138
 1447SOL     OW 5239   5.404   5.542   4.464
 1447SOL    HW1 5240   5.370   5.635   4.469
 1447SOL    HW2 5241   5.451   5.519   4.549
 1448SOL     OW 5242   0.900   2.720   5.595
 1448SOL    HW1 5243   0.919   2.785   5.521
 1448SOL    HW2 5244   0.806   2.730   5.626
 1449SOL     OW 5245   2.102   3.131   3.154
 1449SOL    HW1 5246   2.158   3.109   3.074
 1449SOL    HW2 5247   2.105   3.229   3.170
 1450SOL     OW 5248   2.745   2.173   3.533
 1450SOL    HW1 5249   2.698   2.250   3.491
 1450SOL    HW2 5250   2.756   2.189   3.631
 1451SOL     OW 5251   2.837   1.246   2.602
 1451SOL    HW1 5252   2.790   1.332   2.625
 1451SOL    HW2 5253   2.931   1.250   2.635
 1452SOL     OW 5254   4.752   2.911   6.697
 1452SOL    HW1 5255   4.776   3.002   6.732
 1452SOL    HW2 5256   4.674   2.876   6.747
 1453SOL     OW 5257   7.006   4.341   5.494
 1453SOL    HW1 5258   0.064   4.363   5.545
 1453SOL    HW2 5259   7.019   4.255   5.445
 1454SOL     OW 5260   3.478   2.116   3.142
 1454SOL    HW1 5261   3.436   2.138   3.230
 1454SOL    HW2 5262   3.578   2.120   3.150
 1455SOL     OW 5263   0.273   5.728   1.965
 1455SOL    HW1 5264   0.240   5.734   2.060
 1455SOL    HW2 5265   0.248   5.639   1.927
 1456SOL     OW 5266   6.361   5.117   4.174
 1456SOL    HW1 5267   6.332   5.202   4.217
 1456SOL    HW2 5268   6.426   5.070   4.235
 1457SOL     OW 5269   1.215   5.260   6.140
 1457SOL    HW1 5270   1.142   5.328   6.147
 1457SOL    HW2 5271   1.304   5.306   6.145
 1458SOL     OW 5272   5.525   4.817   5.091
 1458SOL    HW1 5273   5.580   4.901   5.089
 1458SOL    HW2 5274   5.538   4.767   5.005
 1459SOL     OW 5275   6.064   6.682   5.231
 1459SOL    HW1 5276   6.119   6.640   5.303
 1459SOL    HW2 5277   6.040   6.775   5.257
 1460SOL     OW 5278   1.414   6.684   4.948
 1460SOL    HW1 5279   1.378   6.636   5.027
 1460SOL    HW2 5280   1.363   6.768   4.933
 1461SOL     OW 5281   6.587   3.101   4.047
 1461SOL    HW1 5282   6.579   3.016   4.099
 1461SOL    HW2 5283   6.516   3.165   4.076
 1462SOL     OW 5284   0.459   1.097   1.617
 1462SOL    HW1 5285   0.432   1.190   1.643
 1462SOL    HW2 5286   0.495   1.098   1.524
 1463SOL     OW 5287   2.422   5.585   6.879
 1463SOL    HW1 5288   2.377   5.642   6.948
 1463SOL    HW2 5289   2.357   5.517   6.845
 1464SOL     OW 5290   1.020   4.291   3.887
 1464SOL    HW1 5291   1.056   4.376   3.847
 1464SOL    HW2 5292   0.921   4.288   3.876
 1465SOL     OW 5293   1.150   3.311   4.457
 1465SOL    HW1 5294   1.184   3.371   4.386
 1465SOL    HW2 5295   1.050   3.318   4.462
 1466SOL     OW 5296   5.615   1.937   2.639
 1466SOL    HW1 5297   5.589   1.917   2.544
 1466SOL    HW2 5298   5.533   1.935   2.697
 1467SOL     OW 5299   0.483   0.518   3.673
 1467SOL    HW1 5300   0.419   0.533   3.597
 1467SOL    HW2 5301   0.446   0.560   3.756
 1468SOL     OW 5302   3.015   5.634   2.420
 1468SOL    HW1 5303   3.050   5.587   2.501
 1468SOL    HW2 5304   2.942   5.697   2.446
 1469SOL     OW 5305   6.024   3.889   3.532
 1469SOL    HW1 5306   5.937   3.891   3.581
 1469SOL    HW2 5307   6.094   3.935   3.586
 1470SOL     OW 5308   5.801   1.652   2.442
 1470SOL    HW1 5309   5.778   1.709   2.521
 1470SOL    HW2 5310   5.892   1.678   2.409
 1471SOL     OW 5311   4.535   6.966   1.128
 1471SOL    HW1 5312   4.483   0.022   1.103
 1471SOL    HW2 5313   4.564   6.919   1.045
 1472SOL     OW 5314   1.420   0.017   6.330
 1472SOL    HW1 5315   1.519   0.005   6.341
 1472SOL    HW2 5316   1.400   0.051   6.238
 1473SOL     OW 5317   1.524   5.759   3.689
 1473SOL    HW1 5318   1.600   5.816   3.721
 1473SOL    HW2 5319   1.498   5.694   3.760
 1474SOL     OW 5320   2.738   4.811   1.208
 1474SOL    HW1 5321   2.741   4.712   1.221
 1474SOL    HW2 5322   2.726   4.855   1.297
 1475SOL     OW 5323   5.543   0.508   6.488
 1475SOL    HW1 5324   5.561   0.577   6.418
 1475SOL    HW2 5325   5.625   0.495   6.544
 1476SOL     OW 5326   4.881   0.598   0.166
 1476SOL    HW1 5327   4.981   0.601   0.173
 1476SOL    HW2 5328   4.848   0.683   0.126
 1477SOL     OW 5329   3.391   4.581   1.425
 1477SOL    HW1 5330   3.400   4.680   1.435
 1477SOL    HW2 5331   3.307   4.560   1.375
 1478SOL     OW 5332   4.449   5.490   6.818
 1478SOL    HW1 5333   4.506   5.488   6.736
 1478SOL    HW2 5334   4.481   5.561   6.880
 1479SOL     OW 5335   4.367   3.380   1.716
 1479SOL    HW1 5336   4.306   3.448   1.757
 1479SOL    HW2 5337   4.459   3.418   1.709
 1480SOL     OW 5338   3.367   0.596   4.246
 1480SOL    HW1 5339   3.419   0.680   4.226
 1480SOL    HW2 5340   3.310   0.611   4.327
 1481SOL     OW 5341   5.002   2.774   6.142
 1481SOL    HW1 5342   5.057   2.744   6.064
 1481SOL    HW2 5343   4.906   2.753   6.124
 1482SOL     OW 5344   5.629   1.340   1.343
 1482SOL    HW1 5345   5.685   1.401   1.400
 1482SOL    HW2 5346   5.656   1.350   1.248
 1483SOL     OW 5347   6.080   0.950   0.396
 1483SOL    HW1 5348   6.123   0.923   0.310
 1483SOL    HW2 5349   6.004   1.012   0.378
 1484SOL     OW 5350   3.716   5.382   5.334
 1484SOL    HW1 5351   3.665   5.406   5.251
 1484SOL    HW2 5352   3.806   5.348   5.309
 1485SOL     OW 5353   5.161   2.868   3.509
 1485SOL    HW1 5354   5.140   2.810   3.431
 1485SOL    HW2 5355   5.144   2.963   3.485
 1486SOL     OW 5356   4.545   6.050   4.020
 1486SOL    HW1 5357   4.555   6.148   4.003
 1486SOL    HW2 5358   4.597   6.024   4.101
 1487SOL     OW 5359   6.884   0.777   0.413
 1487SOL    HW1 5360   6.981   0.783   0.390
 1487SOL    HW2 5361   6.872   0.787   0.512
 1488SOL     OW 5362   6.495   1.829   2.776
 1488SOL    HW1 5363   6.519   1.845   2.680
 1488SOL    HW2 5364   6.468   1.733   2.789
 1489SOL     OW 5365   3.061   4.717   0.417
 1489SOL    HW1 5366   2.993   4.764   0.472
 1489SOL    HW2 5367   3.093   4.778   0.345
 1490SOL     OW 5368   6.370   2.344   2.274
 1490SOL    HW1 5369   6.380   2.338   2.373
 1490SOL    HW2 5370   6.459   2.365   2.232
 1491SOL     OW 5371   5.922   2.453   4.013
 1491SOL    HW1 5372   5.869   2.400   3.946
 1491SOL    HW2 5373   5.943   2.395   4.092
 1492SOL     OW 5374   6.140   1.357   3.310
 1492SOL    HW1 5375   6.072   1.344   3.238
 1492SOL    HW2 5376   6.223   1.307   3.286
 1493SOL     OW 5377   5.848   1.693   6.119
 1493SOL    HW1 5378   5.786   1.641   6.059
 1493SOL    HW2 5379   5.870   1.781   6.076
 1494SOL     OW 5380   6.743   4.922   6.292
 1494SOL    HW1 5381   6.751   4.824   6.312
 1494SOL    HW2 5382   6.653   4.954   6.322
 1495SOL     OW 5383   6.658   3.863   4.195
 1495SOL    HW1 5384   6.576   3.918   4.184
 1495SOL    HW2 5385   6.662   3.828   4.289
 1496SOL     OW 5386   6.101   6.624   5.927
 1496SOL    HW1 5387   6.086   6.603   6.023
 1496SOL    HW2 5388   6.165   6.558   5.888
 1497SOL     OW 5389   6.258   2.565   2.472
 1497SOL    HW1 5390   6.306   2.506   2.537
 1497SOL    HW2 5391   6.178   2.516   2.435
 1498SOL     OW 5392   3.398   3.911   0.509
 1498SOL    HW1 5393   3.382   3.994   0.456
 1498SOL    HW2 5394   3.492   3.881   0.497
 1499SOL     OW 5395   0.346   4.529   4.334
 1499SOL    HW1 5396   0.266   4.530   4.395
 1499SOL    HW2 5397   0.388   4.619   4.334
 1500SOL     OW 5398   0.484   5.772   2.297
 1500SOL    HW1 5399   0.384   5.772   2.299
 1500SOL    HW2 5400   0.515   5.779   2.202
 1501SOL     OW 5401   6.348   1.587   0.468
 1501SOL    HW1 5402   6.439   1.546   0.459
 1501SOL    HW2 5403   6.311   1.606   0.377
 1502SOL     OW 5404   6.522   0.386   6.151
 1502SOL    HW1 5405   6.437   0.385   6.099
 1502SOL    HW2 5406   6.538   0.296   6.191
 1503SOL     OW 5407   0.373   4.851   1.391
 1503SOL    HW1 5408   0.407   4.901   1.471
 1503SOL    HW2 5409   0.431   4.872   1.312
 1504SOL     OW 5410   2.173   6.838   2.573
 1504SOL    HW1 5411   2.197   6.846   2.476
 1504SOL    HW2 5412   2.114   6.758   2.586
 1505SOL     OW 5413   6.470   5.288   5.117
 1505SOL    HW1 5414   6.378   5.281   5.154
 1505SOL    HW2 5415   6.499   5.384   5.117
 1506SOL     OW 5416   0.710   1.023   0.577
 1506SOL    HW1 5417   0.704   1.120   0.603
 1506SOL    HW2 5418   0.804   0.992   0.589
 1507SOL     OW 5419   2.218   2.589   3.554
 1507SOL    HW1 5420   2.226   2.561   3.649
 1507SOL    HW2 5421   2.176   2.516   3.500
 1508SOL     OW 5422   2.113   1.144   1.380
 1508SOL    HW1 5423   2.175   1.223   1.389
 1508SOL    HW2 5424   2.052   1.158   1.302
 1509SOL     OW 5425   5.462   0.961   4.462
 1509SOL    HW1 5426   5.533   0.989   4.527
 1509SOL    HW2 5427   5.484   0.870   4.427
 1510SOL     OW 5428   3.574   6.301   4.854
 1510SOL    HW1 5429   3.478   6.279   4.871
 1510SOL    HW2 5430   3.586   6.323   4.757
 1511SOL     OW 5431   3.117   3.386   5.212
 1511SOL    HW1 5432   3.041   3.451   5.208
 1511SOL    HW2 5433   3.199   3.433   5.246
 1512SOL     OW 5434   5.514   6.673   0.908
 1512SOL    HW1 5435   5.433   6.625   0.874
 1512SOL    HW2 5436   5.531   6.646   1.003
 1513SOL     OW 5437   2.227   6.972   5.850
 1513SOL    HW1 5438   2.293   6.983   5.924
 1513SOL    HW2 5439   2.273   6.932   5.770
 1514SOL     OW 5440   2.942   2.803   6.228
 1514SOL    HW1 5441   2.980   2.866   6.160
 1514SOL    HW2 5442   2.911   2.720   6.182
 1515SOL     OW 5443   4.470   0.624   2.306
 1515SOL    HW1 5444   4.428   0.714   2.300
 1515SOL    HW2 5445   4.543   0.617   2.238
 1516SOL     OW 5446   5.939   6.980   5.470
 1516SOL    HW1 5447   5.879   6.960   5.391
 1516SOL    HW2 5448   5.883   6.989   5.552
 1517SOL     OW 5449   3.190   6.553   4.045
 1517SOL    HW1 5450   3.227   6.464   4.018
 1517SOL    HW2 5451   3.101   6.567   4.003
 1518SOL     OW 5452   0.567   3.485   6.334
 1518SOL    HW1 5453   0.643   3.453   6.390
 1518SOL    HW2 5454   0.554   3.424   6.256
 1519SOL     OW 5455   6.701   5.290   0.479
 1519SOL    HW1 5456   6.604   5.275   0.494
 1519SOL    HW2 5457   6.753   5.214   0.519
 1520SOL     OW 5458   0.591   6.258   3.105
 1520SOL    HW1 5459   0.660   6.256   3.177
 1520SOL    HW2 5460   0.616   6.196   3.031
 1521SOL     OW 5461   2.043   5.335   6.244
 1521SOL    HW1 5462   2.098   5.384   6.311
 1521SOL    HW2 5463   2.067   5.239   6.243
 1522SOL     OW 5464   6.172   5.757   4.076
 1522SOL    HW1 5465   6.223   5.810   4.009
 1522SOL    HW2 5466   6.203   5.662   4.076
 1523SOL     OW 5467   3.549   6.323   0.696
 1523SOL    HW1 5468   3.524   6.411   0.736
 1523SOL    HW2 5469   3.491   6.305   0.616
 1524SOL     OW 5470   2.211   1.503   3.436
 1524SOL    HW1 5471   2.114   1.503   3.459
 1524SOL    HW2 5472   2.240   1.409   3.416
 1525SOL     OW 5473   5.444   4.685   7.006
 1525SOL    HW1 5474   5.524   4.737   6.975
 1525SOL    HW2 5475   5.471   4.626   0.057
 1526SOL     OW 5476   0.923   1.769   0.933
 1526SOL    HW1 5477   0.951   1.682   0.894
 1526SOL    HW2 5478   0.993   1.838   0.914
 1527SOL     OW 5479   4.381   1.923   3.678
 1527SOL    HW1 5480   4.367   2.006   3.624
 1527SOL    HW2 5481   4.449   1.942   3.750
 1528SOL     OW 5482   3.285   3.886   2.198
 1528SOL    HW1 5483   3.316   3.816   2.134
 1528SOL    HW2 5484   3.209   3.850   2.253
 1529SOL     OW 5485   4.546   1.781   6.014
 1529SOL    HW1 5486   4.578   1.858   5.960
 1529SOL    HW2 5487   4.553   1.803   6.111
 1530SOL     OW 5488   2.593   6.550   1.085
 1530SOL    HW1 5489   2.684   6.534   1.045
 1530SOL    HW2 5490   2.537   6.603   1.021
 1531SOL     OW 5491   4.780   5.960   4.320
 1531SOL    HW1 5492   4.813   5.920   4.405
 1531SOL    HW2 5493   4.752   5.887   4.257
 1532SOL     OW 5494   3.162   5.339   0.309
 1532SOL    HW1 5495   3.103   5.295   0.242
 1532SOL    HW2 5496   3.153   5.439   0.302
 1533SOL     OW 5497   5.667   5.942   1.324
 1533SOL    HW1 5498   5.585   5.995   1.302
 1533SOL    HW2 5499   5.643   5.846   1.334
 1534SOL     OW 5500   2.898   4.427   6.752
 1534SOL    HW1 5501   2.966   4.369   6.796
 1534SOL    HW2 5502   2.924   4.443   6.657
 1535SOL     OW 5503   5.619   4.467   3.849
 1535SOL    HW1 5504   5.657   4.557   3.828
 1535SOL    HW2 5505   5.593   4.464   3.946
 1536SOL     OW 5506   4.884   3.784   6.769
 1536SOL    HW1 5507   4.841   3.806   6.681
 1536SOL    HW2 5508   4.907   3.869   6.817
 1537SOL     OW 5509   3.107   5.492   2.633
 1537SOL    HW1 5510   3.067   5.403   2.652
 1537SOL    HW2 5511   3.098   5.551   2.713
 1538SOL     OW 5512   2.784   1.672   0.583
 1538SOL    HW1 5513   2.814   1.580   0.558
 1538SOL    HW2 5514   2.747   1.672   0.675
 1539SOL     OW 5515   5.787   3.384   0.930
 1539SOL    HW1 5516   5.698   3.379   0.885
 1539SOL    HW2 5517   5.836   3.298   0.915
 1540SOL     OW 5518   3.399   0.177   3.328
 1540SOL    HW1 5519   3.354   0.221   3.251
 1540SOL    HW2 5520   3.332   0.158   3.400
 1541SOL     OW 5521   4.035   3.039   5.943
 1541SOL    HW1 5522   4.105   3.080   6.001
 1541SOL    HW2 5523   4.078   2.990   5.868
 1542SOL     OW 5524   0.097   5.942   2.556
 1542SOL    HW1 5525   0.132   5.984   2.472
 1542SOL    HW2 5526   0.034   6.006   2.601
 1543SOL     OW 5527   3.133   4.886   0.215
 1543SOL    HW1 5528   3.163   4.945   0.291
 1543SOL    HW2 5529   3.056   4.929   0.168
 1544SOL     OW 5530   3.811   3.633   3.841
 1544SOL    HW1 5531   3.722   3.627   3.885
 1544SOL    HW2 5532   3.801   3.662   3.746
 1545SOL     OW 5533   5.679   5.842   1.825
 1545SOL    HW1 5534   5.613   5.789   1.772
 1545SOL    HW2 5535   5.634   5.877   1.907
 1546SOL     OW 5536   5.717   6.241   6.083
 1546SOL    HW1 5537   5.678   6.156   6.119
 1546SOL    HW2 5538   5.808   6.223   6.046
 1547SOL     OW 5539   1.861   3.116   6.734
 1547SOL    HW1 5540   1.881   3.068   6.820
 1547SOL    HW2 5541   1.809   3.199   6.753
 1548SOL     OW 5542   6.660   2.363   0.564
 1548SOL    HW1 5543   6.606   2.301   0.506
 1548SOL    HW2 5544   6.631   2.457   0.548
 1549SOL     OW 5545   5.097   1.016   4.638
 1549SOL    HW1 5546   5.163   1.005   4.712
 1549SOL    HW2 5547   5.030   1.085   4.663
 1550SOL     OW 5548   4.073   3.152   4.417
 1550SOL    HW1 5549   3.989   3.099   4.431
 1550SOL    HW2 5550   4.149   3.090   4.397
 1551SOL     OW 5551   6.889   4.923   5.473
 1551SOL    HW1 5552   6.795   4.891   5.469
 1551SOL    HW2 5553   6.950   4.844   5.482
 1552SOL     OW 5554   1.828   4.079   0.965
 1552SOL    HW1 5555   1.868   4.151   0.909
 1552SOL    HW2 5556   1.855   4.091   1.060
 1553SOL     OW 5557   2.089   1.613   5.941
 1553SOL    HW1 5558   2.183   1.580   5.938
 1553SOL    HW2 5559   2.080   1.684   6.012
 1554SOL     OW 5560   3.625   2.094   3.944
 1554SOL    HW1 5561   3.587   2.084   3.852
 1554SOL    HW2 5562   3.551   2.101   4.010
 1555SOL     OW 5563   6.007   4.629   5.864
 1555SOL    HW1 5564   5.925   4.675   5.897
 1555SOL    HW2 5565   6.072   4.619   5.939
 1556SOL     OW 5566   2.002   0.810   5.862
 1556SOL    HW1 5567   1.918   0.781   5.907
 1556SOL    HW2 5568   2.056   0.865   5.925
 1557SOL     OW 5569   0.202   2.669   5.019
 1557SOL    HW1 5570   0.195   2.675   5.119
 1557SOL    HW2 5571   0.123   2.620   4.983
 1558SOL     OW 5572   0.306   0.098   4.713
 1558SOL    HW1 5573   0.371   0.056   4.776
 1558SOL    HW2 5574   0.285   0.191   4.743
 1559SOL     OW 5575   1.381   1.597   6.014
 1559SOL    HW1 5576   1.380   1.590   5.915
 1559SOL    HW2 5577   1.460   1.548   6.051
 1560SOL     OW 5578   6.957   0.381   6.697
 1560SOL    HW1 5579   0.006   0.435   6.737
 1560SOL    HW2 5580   6.992   0.331   6.618
 1561SOL     OW 5581   5.705   6.074   2.011
 1561SOL    HW1 5582   5.667   6.160   2.043
 1561SOL    HW2 5583   5.800   6.087   1.983
 1562SOL     OW 5584   6.300   0.675   3.768
 1562SOL    HW1 5585   6.398   0.652   3.770
 1562SOL    HW2 5586   6.271   0.703   3.859
 1563SOL     OW 5587   3.848   6.858   5.209
 1563SOL    HW1 5588   3.821   6.913   5.130
 1563SOL    HW2 5589   3.871   6.918   5.285
 1564SOL     OW 5590   0.908   2.084   2.641
 1564SOL    HW1 5591   0.811   2.090   2.666
 1564SOL    HW2 5592   0.947   2.175   2.634
 1565SOL     OW 5593   5.921   4.562   1.291
 1565SOL    HW1 5594   5.990   4.633   1.293
 1565SOL    HW2 5595   5.901   4.531   1.384
 1566SOL     OW 5596   5.812   4.607   3.219
 1566SOL    HW1 5597   5.739   4.538   3.214
 1566SOL    HW2 5598   5.775   4.692   3.257
 1567SOL     OW 5599   6.079   5.647   5.392
 1567SOL    HW1 5600   6.164   5.693   5.417
 1567SOL    HW2 5601   6.090   5.548   5.401
 1568SOL     OW 5602   0.270   6.871   6.985
 1568SOL    HW1 5603   0.223   6.935   6.924
 1568SOL    HW2 5604   0.359   6.848   6.946
 1569SOL     OW 5605   3.311   6.543   5.059
 1569SOL    HW1 5606   3.286   6.497   4.975
 1569SOL    HW2 5607   3.405   6.576   5.052
 1570SOL     OW 5608   3.233   1.997   1.816
 1570SOL    HW1 5609   3.299   1.984   1.889
 1570SOL    HW2 5610   3.228   2.094   1.791
 1571SOL     OW 5611   0.071   3.781   0.838
 1571SOL    HW1 5612   0.111   3.696   0.874
 1571SOL    HW2 5613   0.136   3.824   0.775
 1572SOL     OW 5614   1.633   5.910   2.290
 1572SOL    HW1 5615   1.605   5.934   2.197
 1572SOL    HW2 5616   1.659   5.993   2.340
 1573SOL     OW 5617   4.136   0.563   0.660
 1573SOL    HW1 5618   4.173   0.486   0.713
 1573SOL    HW2 5619   4.189   0.574   0.576
 1574SOL     OW 5620   6.041   2.494   2.302
 1574SOL    HW1 5621   5.982   2.415   2.320
 1574SOL    HW2 5622   5.988   2.578   2.309
 1575SOL     OW 5623   3.121   1.911   0.089
 1575SOL    HW1 5624   3.035   1.958   0.067
 1575SOL    HW2 5625   3.102   1.814   0.106
 1576SOL     OW 5626   6.372   5.716   3.728
 1576SOL    HW1 5627   6.342   5.810   3.746
 1576SOL    HW2 5628   6.441   5.690   3.796
 1577SOL     OW 5629   1.464   0.318   0.295
 1577SOL    HW1 5630   1.463   0.270   0.383
 1577SOL    HW2 5631   1.460   0.251   0.221
 1578SOL     OW 5632   5.772   5.767   4.612
 1578SOL    HW1 5633   5.842   5.839   4.615
 1578SOL    HW2 5634   5.799   5.697   4.546
 1579SOL     OW 5635   0.324   0.034   3.466
 1579SOL    HW1 5636   0.375   0.114   3.497
 1579SOL    HW2 5637   0.299   7.002   3.544
 1580SOL     OW 5638   3.258   3.646   5.761
 1580SOL    HW1 5639   3.316   3.565   5.767
 1580SOL    HW2 5640   3.285   3.701   5.682
 1581SOL     OW 5641   6.373   3.952   4.076
 1581SOL    HW1 5642   6.293   3.893   4.080
 1581SOL    HW2 5643   6.354   4.029   4.015
 1582SOL     OW 5644   6.430   5.856   5.246
 1582SOL    HW1 5645   6.523   5.893   5.242
 1582SOL    HW2 5646   6.377   5.891   5.168
 1583SOL     OW 5647   2.422   1.713   2.207
 1583SOL    HW1 5648   2.336   1.762   2.221
 1583SOL    HW2 5649   2.408   1.616   2.226
 1584SOL     OW 5650   1.757   0.369   6.037
 1584SOL    HW1 5651   1.848   0.330   6.025
 1584SOL    HW2 5652   1.763   0.469   6.034
 1585SOL     OW 5653   5.744   1.188   5.637
 1585SOL    HW1 5654   5.801   1.260   5.596
 1585SOL    HW2 5655   5.801   1.127   5.691
 1586SOL     OW 5656   3.773   4.056   3.133
 1586SOL    HW1 5657   3.792   4.051   3.231
 1586SOL    HW2 5658   3.856   4.031   3.082
 1587SOL     OW 5659   2.424   6.498   6.505
 1587SOL    HW1 5660   2.410   6.409   6.549
 1587SOL    HW2 5661   2.364   6.566   6.547
 1588SOL     OW 5662   5.604   3.996   1.460
 1588SOL    HW1 5663   5.536   3.923   1.472
 1588SOL    HW2 5664   5.566   4.083   1.493
 1589SOL     OW 5665   5.154   4.298   3.200
 1589SOL    HW1 5666   5.103   4.315   3.284
 1589SOL    HW2 5667   5.110   4.344   3.123
 1590SOL     OW 5668   1.811   6.968   5.404
 1590SOL    HW1 5669   1.725   6.923   5.379
 1590SOL    HW2 5670   1.807   6.998   5.499
 1591SOL     OW 5671   0.714   3.814   1.017
 1591SOL    HW1 5672   0.733   3.831   1.114
 1591SOL    HW2 5673   0.800   3.806   0.967
 1592SOL     OW 5674   3.145   4.034   3.602
 1592SOL    HW1 5675   3.162   4.064   3.696
 1592SOL    HW2 5676   3.080   3.958   3.603
 1593SOL     OW 5677   0.952   5.257   4.602
 1593SOL    HW1 5678   0.975   5.189   4.672
 1593SOL    HW2 5679   1.006   5.239   4.520
 1594SOL     OW 5680   1.094   4.964   3.141
 1594SOL    HW1 5681   1.122   4.915   3.058
 1594SOL    HW2 5682   1.161   4.950   3.213
 1595SOL     OW 5683   7.022   5.252   5.677
 1595SOL    HW1 5684   6.949   5.194   5.712
 1595SOL    HW2 5685   0.041   5.208   5.599
 1596SOL     OW 5686   2.927   4.922   0.055
 1596SOL    HW1 5687   2.945   4.841   7.025
 1596SOL    HW2 5688   2.841   4.911   0.104
 1597SOL     OW 5689   2.481   6.824   0.388
 1597SOL    HW1 5690   2.490   6.862   0.480
 1597SOL    HW2 5691   2.502   6.894   0.320
 1598SOL     OW 5692   6.592   5.623   1.609
 1598SOL    HW1 5693   6.564   5.715   1.580
 1598SOL    HW2 5694   6.687   5.607   1.581
 1599SOL     OW 5695   3.218   4.927   0.868
 1599SOL    HW1 5696   3.181   4.999   0.926
 1599SOL    HW2 5697   3.246   4.966   0.780
 1600SOL     OW 5698   3.462   0.988   5.099
 1600SOL    HW1 5699   3.505   1.048   5.033
 1600SOL    HW2 5700   3.375   1.028   5.130
 1601SOL     OW 5701   1.182   5.136   5.069
 1601SOL    HW1 5702   1.142   5.121   4.978
 1601SOL    HW2 5703   1.263   5.078   5.079
 1602SOL     OW 5704   0.481   3.970   2.339
 1602SOL    HW1 5705   0.435   3.986   2.251
 1602SOL    HW2 5706   0.549   4.041   2.353
 1603SOL     OW 5707   5.757   6.241   0.741
 1603SOL    HW1 5708   5.729   6.202   0.828
 1603SOL    HW2 5709   5.678   6.250   0.681
 1604SOL     OW 5710   0.290   6.073   5.121
 1604SOL    HW1 5711   0.352   6.020   5.178
 1604SOL    HW2 5712   0.264   6.156   5.169
 1605SOL     OW 5713   5.180   6.637   3.167
 1605SOL    HW1 5714   5.111   6.707   3.186
 1605SOL    HW2 5715   5.254   6.644   3.234
 1606SOL     OW 5716   5.289   6.968   5.464
 1606SOL    HW1 5717   5.376   6.934   5.428
 1606SOL    HW2 5718   5.243   7.023   5.394
 1607SOL     OW 5719   4.859   3.159   0.646
 1607SOL    HW1 5720   4.840   3.082   0.585
 1607SOL    HW2 5721   4.955   3.186   0.637
 1608SOL     OW 5722   2.150   0.482   0.458
 1608SOL    HW1 5723   2.179   0.566   0.504
 1608SOL    HW2 5724   2.117   0.417   0.525
 1609SOL     OW 5725   5.346   1.073   5.740
 1609SOL    HW1 5726   5.337   1.167   5.706
 1609SOL    HW2 5727   5.426   1.030   5.698
 1610SOL     OW 5728   5.397   6.599   3.928
 1610SOL    HW1 5729   5.470   6.532   3.941
 1610SOL    HW2 5730   5.309   6.552   3.923
 1611SOL     OW 5731   3.686   2.863   1.526
 1611SOL    HW1 5732   3.702   2.947   1.473
 1611SOL    HW2 5733   3.727   2.786   1.480
 1612SOL     OW 5734   3.205   1.163   4.455
 1612SOL    HW1 5735   3.234   1.076   4.415
 1612SOL    HW2 5736   3.250   1.239   4.408
 1613SOL     OW 5737   1.650   6.846   0.973
 1613SOL    HW1 5738   1.683   6.940   0.972
 1613SOL    HW2 5739   1.706   6.791   1.034
 1614SOL     OW 5740   0.822   3.085   6.286
 1614SOL    HW1 5741   0.837   3.052   6.193
 1614SOL    HW2 5742   0.725   3.076   6.309
 1615SOL     OW 5743   6.222   4.875   5.922
 1615SOL    HW1 5744   6.227   4.817   5.841
 1615SOL    HW2 5745   6.144   4.848   5.978
 1616SOL     OW 5746   2.477   1.637   5.486
 1616SOL    HW1 5747   2.392   1.689   5.493
 1616SOL    HW2 5748   2.533   1.674   5.412
 1617SOL     OW 5749   4.440   0.510   4.060
 1617SOL    HW1 5750   4.379   0.491   3.983
 1617SOL    HW2 5751   4.435   0.607   4.084
 1618SOL     OW 5752   5.936   1.952   1.554
 1618SOL    HW1 5753   5.852   1.944   1.607
 1618SOL    HW2 5754   5.999   2.013   1.600
 1619SOL     OW 5755   2.223   2.646   4.508
 1619SOL    HW1 5756   2.293   2.609   4.447
 1619SOL    HW2 5757   2.264   2.714   4.569
 1620SOL     OW 5758   3.513   5.912   1.800
 1620SOL    HW1 5759   3.421   5.887   1.831
 1620SOL    HW2 5760   3.580   5.876   1.864
 1621SOL     OW 5761   1.831   1.830   2.002
 1621SOL    HW1 5762   1.869   1.909   1.953
 1621SOL    HW2 5763   1.736   1.847   2.025
 1622SOL     OW 5764   2.011   2.161   4.803
 1622SOL    HW1 5765   2.030   2.258   4.814
 1622SOL    HW2 5766   1.933   2.135   4.860
 1623SOL     OW 5767   2.792   2.312   4.643
 1623SOL    HW1 5768   2.721   2.354   4.699
 1623SOL    HW2 5769   2.779   2.340   4.548
 1624SOL     OW 5770   2.238   0.677   0.639
 1624SOL    HW1 5771   2.225   0.764   0.687
 1624SOL    HW2 5772   2.255   0.604   0.706
 1625SOL     OW 5773   0.147   5.330   1.990
 1625SOL    HW1 5774   0.213   5.290   1.927
 1625SOL    HW2 5775   0.192   5.401   2.046
 1626SOL     OW 5776   1.981   2.751   5.803
 1626SOL    HW1 5777   2.064   2.805   5.793
 1626SOL    HW2 5778   1.937   2.773   5.890
 1627SOL     OW 5779   5.335   3.105   3.900
 1627SOL    HW1 5780   5.313   3.103   3.998
 1627SOL    HW2 5781   5.428   3.139   3.887
 1628SOL     OW 5782   3.125   3.446   0.385
 1628SOL    HW1 5783   3.182   3.457   0.467
 1628SOL    HW2 5784   3.118   3.534   0.338
 1629SOL     OW 5785   3.636   2.118   2.886
 1629SOL    HW1 5786   3.580   2.133   2.805
 1629SOL    HW2 5787   3.579   2.081   2.960
 1630SOL     OW 5788   6.954   4.734   4.809
 1630SOL    HW1 5789   6.946   4.738   4.909
 1630SOL    HW2 5790   6.944   4.639   4.779
 1631SOL     OW 5791   0.242   6.624   5.822
 1631SOL    HW1 5792   0.244   6.637   5.921
 1631SOL    HW2 5793   0.264   6.530   5.800
 1632SOL     OW 5794   4.825   0.254   0.590
 1632SOL    HW1 5795   4.859   0.334   0.641
 1632SOL    HW2 5796   4.903   0.203   0.554
 1633SOL     OW 5797   5.692   2.893   3.277
 1633SOL    HW1 5798   5.765   2.873   3.342
 1633SOL    HW2 5799   5.665   2.809   3.229
 1634SOL     OW 5800   4.007   0.483   0.276
 1634SOL    HW1 5801   4.080   0.451   0.336
 1634SOL    HW2 5802   3.975   0.573   0.306
 1635SOL     OW 5803   0.903   5.071   4.315
 1635SOL    HW1 5804   0.976   5.050   4.380
 1635SOL    HW2 5805   0.930   5.149   4.260
 1636SOL     OW 5806   2.420   6.459   1.290
 1636SOL    HW1 5807   2.448   6.499   1.202
 1636SOL    HW2 5808   2.429   6.528   1.362
 1637SOL     OW 5809   0.351   2.862   2.828
 1637SOL    HW1 5810   0.347   2.924   2.750
 1637SOL    HW2 5811   0.446   2.852   2.857
 1638SOL     OW 5812   1.304   2.788   5.778
 1638SOL    HW1 5813   1.390   2.740   5.760
 1638SOL    HW2 5814   1.316   2.886   5.760
 1639SOL     OW 5815   5.176   4.484   2.751
 1639SOL    HW1 5816   5.239   4.407   2.755
 1639SOL    HW2 5817   5.171   4.518   2.657
 1640SOL     OW 5818   5.500   0.605   1.390
 1640SOL    HW1 5819   5.563   0.548   1.338
 1640SOL    HW2 5820   5.468   0.681   1.332
 1641SOL     OW 5821   6.636   2.860   5.485
 1641SOL    HW1 5822   6.687   2.786   5.529
 1641SOL    HW2 5823   6.636   2.847   5.386
 1642SOL     OW 5824   0.294   1.913   1.183
 1642SOL    HW1 5825   0.355   1.885   1.109
 1642SOL    HW2 5826   0.313   2.008   1.208
 1643SOL     OW 5827   3.817   0.749   6.242
 1643SOL    HW1 5828   3.872   0.742   6.325
 1643SOL    HW2 5829   3.732   0.797   6.262
 1644SOL     OW 5830   2.994   0.867   0.843
 1644SOL    HW1 5831   2.981   0.942   0.778
 1644SOL    HW2 5832   2.996   0.780   0.794
 1645SOL     OW 5833   2.017   6.349   6.149
 1645SOL    HW1 5834   2.011   6.249   6.145
 1645SOL    HW2 5835   2.109   6.376   6.176
 1646SOL     OW 5836   1.396   4.118   0.080
 1646SOL    HW1 5837   1.306   4.109   0.122
 1646SOL    HW2 5838   1.448   4.034   0.096
 1647SOL     OW 5839   5.919   2.565   3.372
 1647SOL    HW1 5840   5.972   2.640   3.331
 1647SOL    HW2 5841   5.978   2.485   3.383
 1648SOL     OW 5842   4.015   0.120   2.244
 1648SOL    HW1 5843   4.080   0.182   2.200
 1648SOL    HW2 5844   3.982   0.160   2.329
 1649SOL     OW 5845   3.053   6.910   2.933
 1649SOL    HW1 5846   3.054   6.873   3.026
 1649SOL    HW2 5847   2.984   6.982   2.927
 1650SOL     OW 5848   3.537   6.953   3.799
 1650SOL    HW1 5849   3.589   6.932   3.882
 1650SOL    HW2 5850   3.562   0.019   3.767
 1651SOL     OW 5851   1.505   0.243   1.339
 1651SOL    HW1 5852   1.534   0.155   1.301
 1651SOL    HW2 5853   1.545   0.255   1.430
 1652SOL     OW 5854   3.005   3.450   1.563
 1652SOL    HW1 5855   2.983   3.426   1.468
 1652SOL    HW2 5856   3.105   3.452   1.574
 1653SOL     OW 5857   1.191   4.883   0.901
 1653SOL    HW1 5858   1.271   4.895   0.960
 1653SOL    HW2 5859   1.107   4.894   0.955
 1654SOL     OW 5860   0.424   2.072   3.314
 1654SOL    HW1 5861   0.407   2.166   3.284
 1654SOL    HW2 5862   0.522   2.052   3.307
 1655SOL     OW 5863   4.509   4.995   5.807
 1655SOL    HW1 5864   4.550   4.998   5.716
 1655SOL    HW2 5865   4.530   5.080   5.856
 1656SOL     OW 5866   0.533   4.313   3.056
 1656SOL    HW1 5867   0.527   4.299   2.958
 1656SOL    HW2 5868   0.530   4.224   3.103
 1657SOL     OW 5869   0.870   0.794   4.767
 1657SOL    HW1 5870   0.821   0.711   4.793
 1657SOL    HW2 5871   0.919   0.831   4.846
 1658SOL     OW 5872   6.651   6.593   3.085
 1658SOL    HW1 5873   6.648   6.545   2.998
 1658SOL    HW2 5874   6.659   6.528   3.160
 1659SOL     OW 5875   4.949   1.842   6.446
 1659SOL    HW1 5876   4.918   1.848   6.541
 1659SOL    HW2 5877   4.883   1.789   6.393
 1660SOL     OW 5878   2.043   6.091   3.413
 1660SOL    HW1 5879   2.133   6.122   3.444
 1660SOL    HW2 5880   2.051   6.050   3.322
 1661SOL     OW 5881   3.246   0.064   2.992
 1661SOL    HW1 5882   3.312   7.015   3.000
 1661SOL    HW2 5883   3.165   0.032   2.942
 1662SOL     OW 5884   0.339   0.155   2.906
 1662SOL    HW1 5885   0.421   0.148   2.964
 1662SOL    HW2 5886   0.301   0.064   2.890
 1663SOL     OW 5887   2.104   7.015   3.336
 1663SOL    HW1 5888   2.015   7.020   3.382
 1663SOL    HW2 5889   2.170   6.968   3.395
 1664SOL     OW 5890   2.413   5.226   4.011
 1664SOL    HW1 5891   2.314   5.216   4.006
 1664SOL    HW2 5892   2.456   5.165   3.943
 1665SOL     OW 5893   1.090   0.564   4.356
 1665SOL    HW1 5894   1.082   0.512   4.441
 1665SOL    HW2 5895   1.063   0.659   4.373
 1666SOL     OW 5896   5.316   3.647   6.943
 1666SOL    HW1 5897   5.374   3.605   6.873
 1666SOL    HW2 5898   5.264   3.722   6.901
 1667SOL     OW 5899   6.970   0.814   6.477
 1667SOL    HW1 5900   6.979   0.827   6.576
 1667SOL    HW2 5901   6.934   0.898   6.436
 1668SOL     OW 5902   2.424   0.287   5.008
 1668SOL    HW1 5903   2.452   0.307   4.914
 1668SOL    HW2 5904   2.324   0.297   5.015
 1669SOL     OW 5905   5.796   6.538   6.577
 1669SOL    HW1 5906   5.879   6.587   6.550
 1669SOL    HW2 5907   5.804   6.508   6.672
 1670SOL     OW 5908   5.939   3.714   6.403
 1670SOL    HW1 5909   5.867   3.645   6.405
 1670SOL    HW2 5910   5.914   3.787   6.339
 1671SOL     OW 5911   6.166   4.875   0.250
 1671SOL    HW1 5912   6.256   4.832   0.241
 1671SOL    HW2 5913   6.174   4.959   0.303
 1672SOL     OW 5914   1.985   5.005   1.882
 1672SOL    HW1 5915   1.929   4.928   1.850
 1672SOL    HW2 5916   2.029   4.981   1.968
 1673SOL     OW 5917   6.378   2.083   3.557
 1673SOL    HW1 5918   6.315   2.156   3.534
 1673SOL    HW2 5919   6.331   1.995   3.551
 1674SOL     OW 5920   2.192   5.199   6.665
 1674SOL    HW1 5921   2.210   5.224   6.760
 1674SOL    HW2 5922   2.271   5.152   6.627
 1675SOL     OW 5923   4.790   2.120   0.849
 1675SOL    HW1 5924   4.713   2.181   0.834
 1675SOL    HW2 5925   4.826   2.088   0.762
 1676SOL     OW 5926   2.313   1.336   4.396
 1676SOL    HW1 5927   2.303   1.311   4.300
 1676SOL    HW2 5928   2.309   1.254   4.453
 1677SOL     OW 5929   6.027   0.933   5.590
 1677SOL    HW1 5930   5.947   0.874   5.598
 1677SOL    HW2 5931   6.034   0.992   5.671
 1678SOL     OW 5932   4.905   0.418   1.340
 1678SOL    HW1 5933   4.900   0.442   1.243
 1678SOL    HW2 5934   5.001   0.406   1.366
 1679SOL     OW 5935   6.102   4.095   0.355
 1679SOL    HW1 5936   6.044   4.176   0.348
 1679SOL    HW2 5937   6.070   4.038   0.431
 1680SOL     OW 5938   1.635   2.577   4.757
 1680SOL    HW1 5939   1.629   2.485   4.717
 1680SOL    HW2 5940   1.544   2.618   4.760
 1681SOL     OW 5941   4.688   5.829   0.867
 1681SOL    HW1 5942   4.634   5.871   0.794
 1681SOL    HW2 5943   4.783   5.821   0.837
 1682SOL     OW 5944   6.711   3.675   5.439
 1682SOL    HW1 5945   6.673   3.582   5.440
 1682SOL    HW2 5946   6.799   3.673   5.392
 1683SOL     OW 5947   5.432   5.947   6.577
 1683SOL    HW1 5948   5.516   5.968   6.526
 1683SOL    HW2 5949   5.454   5.938   6.674
 1684SOL     OW 5950   0.438   6.399   4.845
 1684SOL    HW1 5951   0.458   6.324   4.781
 1684SOL    HW2 5952   0.512   6.465   4.843
 1685SOL     OW 5953   1.328   1.423   0.290
 1685SOL    HW1 5954   1.418   1.383   0.272
 1685SOL    HW2 5955   1.289   1.456   0.204
 1686SOL     OW 5956   2.004   5.717   6.554
 1686SOL    HW1 5957   1.948   5.764   6.486
 1686SOL    HW2 5958   2.098   5.750   6.547
 1687SOL     OW 5959   2.186   6.071   1.878
 1687SOL    HW1 5960   2.243   6.033   1.950
 1687SOL    HW2 5961   2.095   6.091   1.914
 1688SOL     OW 5962   0.598   1.559   3.875
 1688SOL    HW1 5963   0.608   1.461   3.858
 1688SOL    HW2 5964   0.686   1.604   3.861
 1689SOL     OW 5965   3.301   1.382   2.220
 1689SOL    HW1 5966   3.253   1.452   2.166
 1689SOL    HW2 5967   3.399   1.399   2.216
 1690SOL     OW 5968   0.710   2.064   0.664
 1690SOL    HW1 5969   0.737   2.159   0.682
 1690SOL    HW2 5970   0.699   2.050   0.565
 1691SOL     OW 5971   4.705   4.567   2.561
 1691SOL    HW1 5972   4.641   4.564   2.484
 1691SOL    HW2 5973   4.789   4.613   2.532
 1692SOL     OW 5974   1.672   6.919   3.285
 1692SOL    HW1 5975   1.603   6.847   3.293
 1692SOL    HW2 5976   1.666   6.961   3.195
 1693SOL     OW 5977   3.070   1.935   3.827
 1693SOL    HW1 5978   3.160   1.979   3.835
 1693SOL    HW2 5979   3.077   1.841   3.860
 1694SOL     OW 5980   4.867   6.018   5.713
 1694SOL    HW1 5981   4.815   6.023   5.798
 1694SOL    HW2 5982   4.837   5.938   5.660
 1695SOL     OW 5983   3.311   1.193   6.154
 1695SOL    HW1 5984   3.317   1.108   6.206
 1695SOL    HW2 5985   3.383   1.195   6.085
 1696SOL     OW 5986   3.438   5.453   1.793
 1696SOL    HW1 5987   3.478   5.491   1.877
 1696SOL    HW2 5988   3.364   5.390   1.816
 1697SOL     OW 5989   1.187   1.141   2.341
 1697SOL    HW1 5990   1.216   1.176   2.430
 1697SOL    HW2 5991   1.091   1.112   2.346
 1698SOL     OW 5992   5.315   1.765   0.744
 1698SOL    HW1 5993   5.284   1.767   0.839
 1698SOL    HW2 5994   5.284   1.681   0.700
 1699SOL     OW 5995   2.747   4.081   0.755
 1699SOL    HW1 5996   2.812   4.115   0.687
 1699SOL    HW2 5997   2.796   4.033   0.827
 1700SOL     OW 5998   6.427   2.827   4.575
 1700SOL    HW1 5999   6.457   2.741   4.535
 1700SOL    HW2 6000   6.335   2.816   4.613
 1701SOL     OW 6001   5.933   3.087   5.052
 1701SOL    HW1 6002   6.028   3.115   5.069
 1701SOL    HW2 6003   5.873   3.167   5.058
 1702SOL     OW 6004   4.972   2.981   1.849
 1702SOL    HW1 6005   4.978   2.894   1.801
 1702SOL    HW2 6006   4.878   2.994   1.881
 1703SOL     OW 6007   1.533   3.602   0.157
 1703SOL    HW1 6008   1.612   3.661   0.139
 1703SOL    HW2 6009   1.450   3.657   0.158
 1704SOL     OW 6010   0.302   0.785   1.477
 1704SOL    HW1 6011   0.320   0.747   1.386
 1704SOL    HW2 6012   0.388   0.796   1.527
 1705SOL     OW 6013   3.793   3.508   2.574
 1705SOL    HW1 6014   3.853   3.564   2.631
 1705SOL    HW2 6015   3.778   3.555   2.486
 1706SOL     OW 6016   2.319   0.662   6.496
 1706SOL    HW1 6017   2.347   0.573   6.533
 1706SOL    HW2 6018   2.399   0.710   6.461
 1707SOL     OW 6019   5.577   1.357   2.988
 1707SOL    HW1 6020   5.512   1.432   3.002
 1707SOL    HW2 6021   5.568   1.323   2.894
 1708SOL     OW 6022   0.586   4.624   1.757
 1708SOL    HW1 6023   0.657   4.562   1.791
 1708SOL    HW2 6024   0.567   4.604   1.661
 1709SOL     OW 6025   3.045   5.765   4.513
 1709SOL    HW1 6026   3.063   5.689   4.575
 1709SOL    HW2 6027   3.039   5.732   4.419
 1710SOL     OW 6028   0.525   5.552   4.138
 1710SOL    HW1 6029   0.526   5.626   4.071
 1710SOL    HW2 6030   0.440   5.501   4.130
 1711SOL     OW 6031   2.238   4.426   5.154
 1711SOL    HW1 6032   2.246   4.359   5.228
 1711SOL    HW2 6033   2.183   4.504   5.185
 1712SOL     OW 6034   1.721   4.839   1.364
 1712SOL    HW1 6035   1.818   4.859   1.364
 1712SOL    HW2 6036   1.669   4.922   1.380
 1713SOL     OW 6037   1.592   3.435   0.401
 1713SOL    HW1 6038   1.609   3.475   0.311
 1713SOL    HW2 6039   1.667   3.373   0.424
 1714SOL     OW 6040   3.563   1.399   1.232
 1714SOL    HW1 6041   3.653   1.441   1.225
 1714SOL    HW2 6042   3.493   1.468   1.212
 1715SOL     OW 6043   0.341   2.926   3.763
 1715SOL    HW1 6044   0.363   2.942   3.667
 1715SOL    HW2 6045   0.317   2.830   3.776
 1716SOL     OW 6046   0.005   6.984   6.966
 1716SOL    HW1 6047   0.002   6.887   6.990
 1716SOL    HW2 6048   6.954   0.006   7.010
 1717SOL     OW 6049   3.165   0.159   0.052
 1717SOL    HW1 6050   3.165   0.112   0.140
 1717SOL    HW2 6051   3.071   0.165   0.017
 1718SOL     OW 6052   1.274   4.384   5.688
 1718SOL    HW1 6053   1.177   4.386   5.713
 1718SOL    HW2 6054   1.298   4.291   5.659
 1719SOL     OW 6055   2.190   3.500   1.522
 1719SOL    HW1 6056   2.107   3.501   1.578
 1719SOL    HW2 6057   2.166   3.487   1.426
 1720SOL     OW 6058   6.656   1.294   2.768
 1720SOL    HW1 6059   6.581   1.262   2.826
 1720SOL    HW2 6060   6.742   1.251   2.797
 1721SOL     OW 6061   1.802   6.210   3.676
 1721SOL    HW1 6062   1.891   6.167   3.687
 1721SOL    HW2 6063   1.814   6.309   3.662
 1722SOL     OW 6064   5.834   0.068   1.672
 1722SOL    HW1 6065   5.747   0.047   1.717
 1722SOL    HW2 6066   5.818   0.137   1.601
 1723SOL     OW 6067   5.984   1.013   2.920
 1723SOL    HW1 6068   6.055   1.022   2.851
 1723SOL    HW2 6069   5.966   0.915   2.936
 1724SOL     OW 6070   5.189   0.634   0.048
 1724SOL    HW1 6071   5.200   0.643   6.974
 1724SOL    HW2 6072   5.178   0.725   0.089
 1725SOL     OW 6073   3.992   5.342   2.252
 1725SOL    HW1 6074   4.022   5.249   2.272
 1725SOL    HW2 6075   3.931   5.374   2.325
 1726SOL     OW 6076   0.168   3.998   4.229
 1726SOL    HW1 6077   0.245   3.995   4.165
 1726SOL    HW2 6078   0.098   4.060   4.194
 1727SOL     OW 6079   3.066   3.190   5.375
 1727SOL    HW1 6080   2.972   3.156   5.370
 1727SOL    HW2 6081   3.076   3.271   5.317
 1728SOL     OW 6082   4.274   4.706   3.580
 1728SOL    HW1 6083   4.194   4.713   3.640
 1728SOL    HW2 6084   4.245   4.717   3.485
 1729SOL     OW 6085   2.114   3.581   2.525
 1729SOL    HW1 6086   2.074   3.670   2.504
 1729SOL    HW2 6087   2.097   3.559   2.621
 1730SOL     OW 6088   5.842   2.215   4.513
 1730SOL    HW1 6089   5.942   2.227   4.512
 1730SOL    HW2 6090   5.799   2.301   4.541
 1731SOL     OW 6091   0.560   6.267   0.525
 1731SOL    HW1 6092   0.565   6.367   0.523
 1731SOL    HW2 6093   0.652   6.229   0.529
 1732SOL     OW 6094   0.612   4.516   6.898
 1732SOL    HW1 6095   0.545   4.577   6.855
 1732SOL    HW2 6096   0.573   4.425   6.908
 1733SOL     OW 6097   1.011   4.007   0.457
 1733SOL    HW1 6098   0.953   3.930   0.484
 1733SOL    HW2 6099   1.052   3.988   0.368
 1734SOL     OW 6100   4.735   3.632   1.398
 1734SOL    HW1 6101   4.729   3.723   1.358
 1734SOL    HW2 6102   4.831   3.604   1.403
 1735SOL     OW 6103   5.157   6.274   0.607
 1735SOL    HW1 6104   5.075   6.266   0.663
 1735SOL    HW2 6105   5.191   6.184   0.583
 1736SOL     OW 6106   3.354   3.749   0.038
 1736SOL    HW1 6107   3.387   3.843   0.027
 1736SOL    HW2 6108   3.430   3.689   0.064
 1737SOL     OW 6109   1.074   6.047   3.622
 1737SOL    HW1 6110   1.158   5.993   3.623
 1737SOL    HW2 6111   1.006   6.001   3.564
 1738SOL     OW 6112   1.199   1.643   1.582
 1738SOL    HW1 6113   1.270   1.709   1.609
 1738SOL    HW2 6114   1.230   1.551   1.605
 1739SOL     OW 6115   4.476   2.590   6.249
 1739SOL    HW1 6116   4.385   2.630   6.250
 1739SOL    HW2 6117   4.525   2.621   6.167
 1740SOL     OW 6118   0.912   1.254   5.459
 1740SOL    HW1 6119   0.933   1.314   5.536
 1740SOL    HW2 6120   0.966   1.282   5.379
 1741SOL     OW 6121   2.279   0.876   2.320
 1741SOL    HW1 6122   2.201   0.883   2.381
 1741SOL    HW2 6123   2.338   0.800   2.349
 1742SOL     OW 6124   6.386   6.213   4.607
 1742SOL    HW1 6125   6.308   6.234   4.548
 1742SOL    HW2 6126   6.454   6.286   4.600
 1743SOL     OW 6127   4.445   0.917   0.755
 1743SOL    HW1 6128   4.355   0.948   0.786
 1743SOL    HW2 6129   4.461   0.946   0.661
 1744SOL     OW 6130   2.906   6.831   1.627
 1744SOL    HW1 6131   2.979   6.899   1.624
 1744SOL    HW2 6132   2.844   6.845   1.549
 1745SOL     OW 6133   6.203   3.094   5.087
 1745SOL    HW1 6134   6.255   3.179   5.075
 1745SOL    HW2 6135   6.254   3.031   5.145
 1746SOL     OW 6136   2.323   1.082   5.578
 1746SOL    HW1 6137   2.269   0.998   5.586
 1746SOL    HW2 6138   2.308   1.139   5.658
 1747SOL     OW 6139   5.038   6.894   5.634
 1747SOL    HW1 6140   5.035   6.817   5.698
 1747SOL    HW2 6141   5.126   6.895   5.586
 1748SOL     OW 6142   5.881   1.541   1.884
 1748SOL    HW1 6143   5.957   1.587   1.839
 1748SOL    HW2 6144   5.896   1.442   1.881
 1749SOL     OW 6145   4.438   0.137   5.907
 1749SOL    HW1 6146   4.340   0.126   5.893
 1749SOL    HW2 6147   4.455   0.180   5.996
 1750SOL     OW 6148   4.861   0.377   3.995
 1750SOL    HW1 6149   4.876   0.465   4.040
 1750SOL    HW2 6150   4.805   0.319   4.055
 1751SOL     OW 6151   1.850   5.600   3.686
 1751SOL    HW1 6152   1.932   5.613   3.630
 1751SOL    HW2 6153   1.820   5.687   3.723
 1752SOL     OW 6154   0.026   2.070   7.006
 1752SOL    HW1 6155   0.045   2.030   6.916
 1752SOL    HW2 6156   0.071   2.159   7.013
 1753SOL     OW 6157   2.509   6.770   2.184
 1753SOL    HW1 6158   2.526   6.868   2.190
 1753SOL    HW2 6159   2.565   6.722   2.252
 1754SOL     OW 6160   3.709   2.678   1.289
 1754SOL    HW1 6161   3.616   2.643   1.274
 1754SOL    HW2 6162   3.772   2.602   1.304
 1755SOL     OW 6163   5.845   3.668   0.399
 1755SOL    HW1 6164   5.804   3.753   0.365
 1755SOL    HW2 6165   5.803   3.644   0.486
 1756SOL     OW 6166   5.682   5.690   4.880
 1756SOL    HW1 6167   5.654   5.753   4.952
 1756SOL    HW2 6168   5.721   5.742   4.804
 1757SOL     OW 6169   3.564   0.528   5.246
 1757SOL    HW1 6170   3.468   0.506   5.226
 1757SOL    HW2 6171   3.601   0.584   5.171
 1758SOL     OW 6172   2.878   1.737   3.338
 1758SOL    HW1 6173   2.839   1.676   3.407
 1758SOL    HW2 6174   2.836   1.827   3.345
 1759SOL     OW 6175   0.397   5.416   5.993
 1759SOL    HW1 6176   0.423   5.319   5.996
 1759SOL    HW2 6177   0.475   5.471   5.966
 1760SOL     OW 6178   5.068   0.292   2.083
 1760SOL    HW1 6179   5.125   0.220   2.044
 1760SOL    HW2 6180   5.074   0.374   2.027
 1761SOL     OW 6181   5.844   2.724   1.605
 1761SOL    HW1 6182   5.796   2.769   1.680
 1761SOL    HW2 6183   5.780   2.668   1.552
 1762SOL     OW 6184   5.573   2.826   0.780
 1762SOL    HW1 6185   5.592   2.728   0.778
 1762SOL    HW2 6186   5.474   2.841   0.782
 1763SOL     OW 6187   2.105   3.569   3.759
 1763SOL    HW1 6188   2.176   3.637   3.775
 1763SOL    HW2 6189   2.110   3.498   3.829
 1764SOL     OW 6190   6.487   3.045   4.447
 1764SOL    HW1 6191   6.450   3.049   4.354
 1764SOL    HW2 6192   6.467   2.955   4.487
 1765SOL     OW 6193   2.138   2.923   6.266
 1765SOL    HW1 6194   2.097   3.010   6.240
 1765SOL    HW2 6195   2.108   2.851   6.204
 1766SOL     OW 6196   6.184   3.387   5.383
 1766SOL    HW1 6197   6.228   3.371   5.294
 1766SOL    HW2 6198   6.087   3.406   5.368
 1767SOL     OW 6199   6.772   4.071   1.738
 1767SOL    HW1 6200   6.739   4.069   1.643
 1767SOL    HW2 6201   6.845   4.004   1.749
 1768SOL     OW 6202   5.902   6.737   3.838
 1768SOL    HW1 6203   5.992   6.766   3.806
 1768SOL    HW2 6204   5.851   6.816   3.871
 1769SOL     OW 6205   5.453   0.585   3.587
 1769SOL    HW1 6206   5.545   0.625   3.588
 1769SOL    HW2 6207   5.393   0.638   3.647
 1770SOL     OW 6208   3.327   5.334   5.024
 1770SOL    HW1 6209   3.356   5.258   5.082
 1770SOL    HW2 6210   3.345   5.311   4.928
 1771SOL     OW 6211   4.320   6.784   6.867
 1771SOL    HW1 6212   4.364   6.740   6.945
 1771SOL    HW2 6213   4.245   6.726   6.835
 1772SOL     OW 6214   3.276   6.426   3.301
 1772SOL    HW1 6215   3.202   6.468   3.353
 1772SOL    HW2 6216   3.364   6.459   3.335
 1773SOL     OW 6217   0.825   6.449   6.958
 1773SOL    HW1 6218   0.806   6.461   0.030
 1773SOL    HW2 6219   0.739   6.449   6.908
 1774SOL     OW 6220   3.228   4.888   2.228
 1774SOL    HW1 6221   3.299   4.837   2.181
 1774SOL    HW2 6222   3.139   4.866   2.188
 1775SOL     OW 6223   0.909   4.512   1.306
 1775SOL    HW1 6224   0.868   4.433   1.352
 1775SOL    HW2 6225   0.984   4.481   1.247
 1776SOL     OW 6226   3.040   6.036   5.447
 1776SOL    HW1 6227   2.963   5.994   5.496
 1776SOL    HW2 6228   3.039   6.135   5.462
 1777SOL     OW 6229   3.281   5.669   0.471
 1777SOL    HW1 6230   3.337   5.731   0.417
 1777SOL    HW2 6231   3.201   5.718   0.506
 1778SOL     OW 6232   6.523   3.917   5.711
 1778SOL    HW1 6233   6.591   3.966   5.766
 1778SOL    HW2 6234   6.567   3.839   5.667
 1779SOL     OW 6235   3.899   0.445   5.641
 1779SOL    HW1 6236   3.935   0.455   5.734
 1779SOL    HW2 6237   3.824   0.511   5.628
 1780SOL     OW 6238   3.591   3.648   6.735
 1780SOL    HW1 6239   3.529   3.578   6.699
 1780SOL    HW2 6240   3.676   3.647   6.683
 1781SOL     OW 6241   3.674   5.464   3.714
 1781SOL    HW1 6242   3.672   5.541   3.777
 1781SOL    HW2 6243   3.690   5.497   3.621
 1782SOL     OW 6244   3.482   1.700   4.503
 1782SOL    HW1 6245   3.516   1.684   4.411
 1782SOL    HW2 6246   3.435   1.618   4.536
 1783SOL     OW 6247   2.257   5.724   0.020
 1783SOL    HW1 6248   2.248   5.810   6.995
 1783SOL    HW2 6249   2.170   5.703   0.065
 1784SOL     OW 6250   3.414   6.645   5.837
 1784SOL    HW1 6251   3.429   6.731   5.788
 1784SOL    HW2 6252   3.405   6.664   5.935
 1785SOL     OW 6253   7.009   4.575   1.481
 1785SOL    HW1 6254   7.020   4.515   1.402
 1785SOL    HW2 6255   0.047   4.547   1.553
 1786SOL     OW 6256   4.040   2.262   1.022
 1786SOL    HW1 6257   4.098   2.226   0.949
 1786SOL    HW2 6258   4.027   2.192   1.092
 1787SOL     OW 6259   3.841   0.813   5.996
 1787SOL    HW1 6260   3.769   0.875   5.965
 1787SOL    HW2 6261   3.819   0.782   6.089
 1788SOL     OW 6262   1.525   4.726   6.067
 1788SOL    HW1 6263   1.502   4.732   6.164
 1788SOL    HW2 6264   1.616   4.684   6.056
 1789SOL     OW 6265   6.009   0.260   0.474
 1789SOL    HW1 6266   5.975   0.285   0.564
 1789SOL    HW2 6267   6.091   0.312   0.454
 1790SOL     OW 6268   3.293   6.757   3.133
 1790SOL    HW1 6269   3.243   6.692   3.076
 1790SOL    HW2 6270   3.240   6.778   3.215
 1791SOL     OW 6271   0.187   6.595   2.480
 1791SOL    HW1 6272   0.168   6.628   2.572
 1791SOL    HW2 6273   0.251   6.657   2.434
 1792SOL     OW 6274   1.270   4.166   4.840
 1792SOL    HW1 6275   1.334   4.235   4.806
 1792SOL    HW2 6276   1.306   4.075   4.821
 1793SOL     OW 6277   0.202   0.618   3.581
 1793SOL    HW1 6278   0.173   0.592   3.673
 1793SOL    HW2 6279   0.227   0.714   3.580
 1794SOL     OW 6280   4.476   6.300   6.610
 1794SOL    HW1 6281   4.521   6.367   6.551
 1794SOL    HW2 6282   4.433   6.229   6.554
 1795SOL     OW 6283   0.951   3.090   0.063
 1795SOL    HW1 6284   1.043   3.113   0.034
 1795SOL    HW2 6285   0.955   3.026   0.140
 1796SOL     OW 6286   3.327   0.474   6.360
 1796SOL    HW1 6287   3.236   0.438   6.339
 1796SOL    HW2 6288   3.387   0.399   6.388
 1797SOL     OW 6289   0.944   0.485   0.877
 1797SOL    HW1 6290   0.899   0.436   0.802
 1797SOL    HW2 6291   0.881   0.493   0.954
 1798SOL     OW 6292   5.387   2.262   3.512
 1798SOL    HW1 6293   5.439   2.177   3.500
 1798SOL    HW2 6294   5.377   2.281   3.610
 1799SOL     OW 6295   2.472   1.770   6.574
 1799SOL    HW1 6296   2.417   1.697   6.534
 1799SOL    HW2 6297   2.419   1.855   6.575
 1800SOL     OW 6298   4.012   4.867   2.391
 1800SOL    HW1 6299   3.947   4.792   2.402
 1800SOL    HW2 6300   3.968   4.954   2.416
 1801SOL     OW 6301   5.652   0.006   1.158
 1801SOL    HW1 6302   5.748   0.031   1.157
 1801SOL    HW2 6303   5.626   7.003   1.251
 1802SOL     OW 6304   5.321   5.108   3.820
 1802SOL    HW1 6305   5.249   5.176   3.822
 1802SOL    HW2 6306   5.405   5.147   3.858
 1803SOL     OW 6307   5.664   5.538   1.050
 1803SOL    HW1 6308   5.630   5.611   1.110
 1803SOL    HW2 6309   5.607   5.534   0.968
 1804SOL     OW 6310   3.355   3.153   6.031
 1804SOL    HW1 6311   3.370   3.103   5.946
 1804SOL    HW2 6312   3.292   3.229   6.015
 1805SOL     OW 6313   5.565   3.083   6.416
 1805SOL    HW1 6314   5.517   3.005   6.458
 1805SOL    HW2 6315   5.622   3.127   6.485
 1806SOL     OW 6316   0.209   0.812   0.596
 1806SOL    HW1 6317   0.305   0.801   0.570
 1806SOL    HW2 6318   0.199   0.894   0.652
 1807SOL     OW 6319   5.876   1.965   6.014
 1807SOL    HW1 6320   5.888   2.063   6.032
 1807SOL    HW2 6321   5.795   1.951   5.958
 1808SOL     OW 6322   2.000   4.475   4.071
 1808SOL    HW1 6323   2.007   4.536   4.149
 1808SOL    HW2 6324   2.019   4.381   4.100
 1809SOL     OW 6325   3.501   0.290   6.462
 1809SOL    HW1 6326   3.566   0.346   6.409
 1809SOL    HW2 6327   3.528   0.194   6.456
 1810SOL     OW 6328   3.546   5.717   2.914
 1810SOL    HW1 6329   3.467   5.777   2.904
 1810SOL    HW2 6330   3.630   5.771   2.904
 1811SOL     OW 6331   6.199   5.750   2.605
 1811SOL    HW1 6332   6.241   5.774   2.518
 1811SOL    HW2 6333   6.254   5.788   2.680
 1812SOL     OW 6334   4.297   5.339   6.635
 1812SOL    HW1 6335   4.348   5.394   6.701
 1812SOL    HW2 6336   4.325   5.362   6.542
 1813SOL     OW 6337   6.805   5.288   5.436
 1813SOL    HW1 6338   6.828   5.259   5.529
 1813SOL    HW2 6339   6.859   5.235   5.371
 1814SOL     OW 6340   4.970   6.420   2.372
 1814SOL    HW1 6341   4.946   6.466   2.286
 1814SOL    HW2 6342   5.069   6.415   2.381
 1815SOL     OW 6343   0.289   0.998   2.286
 1815SOL    HW1 6344   0.338   0.924   2.332
 1815SOL    HW2 6345   0.331   1.086   2.311
 1816SOL     OW 6346   0.894   4.263   0.462
 1816SOL    HW1 6347   0.954   4.184   0.451
 1816SOL    HW2 6348   0.949   4.343   0.485
 1817SOL     OW 6349   1.035   5.465   2.015
 1817SOL    HW1 6350   0.965   5.444   1.946
 1817SOL    HW2 6351   1.086   5.382   2.037
 1818SOL     OW 6352   1.928   1.221   2.979
 1818SOL    HW1 6353   1.881   1.136   2.954
 1818SOL    HW2 6354   1.981   1.206   3.063
 1819SOL     OW 6355   1.361   4.339   2.408
 1819SOL    HW1 6356   1.342   4.434   2.385
 1819SOL    HW2 6357   1.363   4.328   2.508
 1820SOL     OW 6358   5.650   0.327   2.727
 1820SOL    HW1 6359   5.633   0.425   2.739
 1820SOL    HW2 6360   5.747   0.310   2.713
 1821SOL     OW 6361   1.871   1.763   3.385
 1821SOL    HW1 6362   1.882   1.669   3.417
 1821SOL    HW2 6363   1.937   1.822   3.432
 1822SOL     OW 6364   3.685   3.538   1.547
 1822SOL    HW1 6365   3.634   3.454   1.568
 1822SOL    HW2 6366   3.654   3.573   1.459
 1823SOL     OW 6367   4.291   0.090   2.770
 1823SOL    HW1 6368   4.318   0.170   2.718
 1823SOL    HW2 6369   4.222   0.116   2.838
 1824SOL     OW 6370   5.117   2.369   1.821
 1824SOL    HW1 6371   5.119   2.360   1.921
 1824SOL    HW2 6372   5.052   2.304   1.783
 1825SOL     OW 6373   1.086   1.172   1.309
 1825SOL    HW1 6374   1.068   1.270   1.318
 1825SOL    HW2 6375   1.084   1.146   1.212
 1826SOL     OW 6376   2.986   5.926   6.489
 1826SOL    HW1 6377   2.893   5.893   6.480
 1826SOL    HW2 6378   3.023   5.950   6.399
 1827SOL     OW 6379   6.119   6.739   1.787
 1827SOL    HW1 6380   6.110   6.753   1.688
 1827SOL    HW2 6381   6.089   6.822   1.834
 1828SOL     OW 6382   1.743   2.382   0.226
 1828SOL    HW1 6383   1.779   2.476   0.220
 1828SOL    HW2 6384   1.730   2.357   0.322
 1829SOL     OW 6385   6.174   5.831   1.579
 1829SOL    HW1 6386   6.229   5.759   1.621
 1829SOL    HW2 6387   6.157   5.808   1.483
 1830SOL     OW 6388   5.697   6.049   3.803
 1830SOL    HW1 6389   5.759   6.049   3.724
 1830SOL    HW2 6390   5.632   6.124   3.794
 1831SOL     OW 6391   5.013   0.708   3.311
 1831SOL    HW1 6392   5.009   0.680   3.407
 1831SOL    HW2 6393   4.958   0.790   3.297
 1832SOL     OW 6394   5.363   2.789   0.469
 1832SOL    HW1 6395   5.457   2.766   0.444
 1832SOL    HW2 6396   5.336   2.735   0.549
 1833SOL     OW 6397   5.882   1.919   5.540
 1833SOL    HW1 6398   5.948   1.972   5.593
 1833SOL    HW2 6399   5.898   1.821   5.556
 1834SOL     OW 6400   2.887   3.625   0.460
 1834SOL    HW1 6401   2.960   3.684   0.496
 1834SOL    HW2 6402   2.888   3.538   0.510
 1835SOL     OW 6403   1.007   4.285   6.961
 1835SOL    HW1 6404   0.965   4.263   6.873
 1835SOL    HW2 6405   0.940   4.328   7.021
 1836SOL     OW 6406   0.465   5.906   0.702
 1836SOL    HW1 6407   0.382   5.880   0.653
 1836SOL    HW2 6408   0.467   6.006   0.714
 1837SOL     OW 6409   1.016   2.140   4.633
 1837SOL    HW1 6410   0.916   2.142   4.639
 1837SOL    HW2 6411   1.047   2.216   4.576
 1838SOL     OW 6412   0.747   2.607   4.037
 1838SOL    HW1 6413   0.800   2.680   3.995
 1838SOL    HW2 6414   0.650   2.619   4.017
 1839SOL     OW 6415   0.032   1.876   6.028
 1839SOL    HW1 6416   0.072   1.785   6.038
 1839SOL    HW2 6417   0.105   1.943   6.014
 1840SOL     OW 6418   1.742   5.201   0.365
 1840SOL    HW1 6419   1.741   5.148   0.280
 1840SOL    HW2 6420   1.705   5.145   0.439
 1841SOL     OW 6421   1.614   3.034   2.788
 1841SOL    HW1 6422   1.699   3.011   2.836
 1841SOL    HW2 6423   1.542   3.052   2.855
 1842SOL     OW 6424   0.693   4.895   0.078
 1842SOL    HW1 6425   0.662   4.878   7.010
 1842SOL    HW2 6426   0.662   4.984   0.108
 1843SOL     OW 6427   3.603   2.127   4.921
 1843SOL    HW1 6428   3.553   2.174   4.849
 1843SOL    HW2 6429   3.548   2.050   4.955
 1844SOL     OW 6430   5.336   3.510   3.666
 1844SOL    HW1 6431   5.285   3.425   3.675
 1844SOL    HW2 6432   5.282   3.585   3.705
 1845SOL     OW 6433   4.074   0.120   0.815
 1845SOL    HW1 6434   4.087   0.119   0.914
 1845SOL    HW2 6435   3.982   0.090   0.793
 1846SOL     OW 6436   3.312   0.826   5.432
 1846SOL    HW1 6437   3.387   0.888   5.409
 1846SOL    HW2 6438   3.257   0.866   5.505
 1847SOL     OW 6439   1.911   6.867   0.355
 1847SOL    HW1 6440   1.909   6.882   0.256
 1847SOL    HW2 6441   1.907   6.769   0.374
 1848SOL     OW 6442   2.945   6.715   2.448
 1848SOL    HW1 6443   2.993   6.719   2.536
 1848SOL    HW2 6444   2.924   6.808   2.417
 1849SOL     OW 6445   2.823   1.248   6.243
 1849SOL    HW1 6446   2.902   1.294   6.204
 1849SOL    HW2 6447   2.819   1.154   6.210
 1850SOL     OW 6448   5.477   1.548   1.765
 1850SOL    HW1 6449   5.531   1.475   1.806
 1850SOL    HW2 6450   5.536   1.628   1.748
 1851SOL     OW 6451   6.606   3.495   3.169
 1851SOL    HW1 6452   6.695   3.539   3.167
 1851SOL    HW2 6453   6.554   3.529   3.247
 1852SOL     OW 6454   5.344   3.139   6.790
 1852SOL    HW1 6455   5.338   3.147   6.691
 1852SOL    HW2 6456   5.285   3.207   6.833
 1853SOL     OW 6457   1.564   4.513   0.564
 1853SOL    HW1 6458   1.524   4.451   0.496
 1853SOL    HW2 6459   1.630   4.573   0.520
 1854SOL     OW 6460   2.920   5.342   3.929
 1854SOL    HW1 6461   2.990   5.368   3.995
 1854SOL    HW2 6462   2.830   5.344   3.974
 1855SOL     OW 6463   5.472   4.364   1.739
 1855SOL    HW1 6464   5.566   4.336   1.759
 1855SOL    HW2 6465   5.430   4.399   1.823
 1856SOL     OW 6466   4.780   3.249   6.206
 1856SOL    HW1 6467   4.759   3.231   6.302
 1856SOL    HW2 6468   4.871   3.213   6.184
 1857SOL     OW 6469   4.779   1.320   3.886
 1857SOL    HW1 6470   4.796   1.373   3.969
 1857SOL    HW2 6471   4.758   1.382   3.811
 1858SOL     OW 6472   5.428   3.627   3.422
 1858SOL    HW1 6473   5.379   3.714   3.432
 1858SOL    HW2 6474   5.400   3.565   3.495
 1859SOL     OW 6475   5.060   1.391   3.688
 1859SOL    HW1 6476   5.039   1.402   3.785
 1859SOL    HW2 6477   5.094   1.299   3.672
 1860SOL     OW 6478   4.338   1.891   5.334
 1860SOL    HW1 6479   4.369   1.808   5.290
 1860SOL    HW2 6480   4.417   1.947   5.359
 1861SOL     OW 6481   5.310   6.418   2.149
 1861SOL    HW1 6482   5.330   6.322   2.129
 1861SOL    HW2 6483   5.374   6.452   2.217
 1862SOL     OW 6484   1.595   1.564   0.708
 1862SOL    HW1 6485   1.592   1.572   0.608
 1862SOL    HW2 6486   1.618   1.470   0.734
 1863SOL     OW 6487   2.244   2.576   1.639
 1863SOL    HW1 6488   2.147   2.599   1.630
 1863SOL    HW2 6489   2.297   2.629   1.573
 1864SOL     OW 6490   1.077   6.542   3.682
 1864SOL    HW1 6491   1.149   6.598   3.640
 1864SOL    HW2 6492   1.079   6.553   3.781
 1865SOL     OW 6493   5.192   2.265   6.658
 1865SOL    HW1 6494   5.139   2.245   6.576
 1865SOL    HW2 6495   5.144   2.333   6.714
 1866SOL     OW 6496   5.507   5.540   2.567
 1866SOL    HW1 6497   5.409   5.551   2.586
 1866SOL    HW2 6498   5.550   5.487   2.640
 1867SOL     OW 6499   0.907   4.883   6.860
 1867SOL    HW1 6500   0.939   4.788   6.859
 1867SOL    HW2 6501   0.807   4.885   6.860
 1868SOL     OW 6502   6.223   3.897   5.724
 1868SOL    HW1 6503   6.174   3.984   5.736
 1868SOL    HW2 6504   6.309   3.914   5.677
 1869SOL     OW 6505   5.680   1.250   4.736
 1869SOL    HW1 6506   5.738   1.267   4.816
 1869SOL    HW2 6507   5.615   1.325   4.726
 1870SOL     OW 6508   2.337   4.242   4.307
 1870SOL    HW1 6509   2.359   4.305   4.382
 1870SOL    HW2 6510   2.347   4.148   4.339
 1871SOL     OW 6511   1.417   0.347   0.898
 1871SOL    HW1 6512   1.357   0.405   0.954
 1871SOL    HW2 6513   1.395   0.251   0.914
 1872SOL     OW 6514   2.429   4.506   0.158
 1872SOL    HW1 6515   2.489   4.559   0.218
 1872SOL    HW2 6516   2.361   4.567   0.116
 1873SOL     OW 6517   5.317   1.047   0.766
 1873SOL    HW1 6518   5.387   1.083   0.827
 1873SOL    HW2 6519   5.331   1.083   0.674
 1874SOL     OW 6520   1.377   3.513   2.772
 1874SOL    HW1 6521   1.393   3.435   2.711
 1874SOL    HW2 6522   1.440   3.587   2.748
 1875SOL     OW 6523   1.272   6.995   1.192
 1875SOL    HW1 6524   1.307   6.929   1.125
 1875SOL    HW2 6525   1.321   0.056   1.183
 1876SOL     OW 6526   2.347   6.943   4.351
 1876SOL    HW1 6527   2.261   6.986   4.324
 1876SOL    HW2 6528   2.388   6.994   4.427
 1877SOL     OW 6529   6.801   6.749   3.733
 1877SOL    HW1 6530   6.874   6.714   3.792
 1877SOL    HW2 6531   6.841   6.793   3.653
 1878SOL     OW 6532   5.907   2.420   5.807
 1878SOL    HW1 6533   5.975   2.394   5.876
 1878SOL    HW2 6534   5.870   2.510   5.830
 1879SOL     OW 6535   1.826   4.519   5.603
 1879SOL    HW1 6536   1.780   4.564   5.526
 1879SOL    HW2 6537   1.925   4.520   5.588
 1880SOL     OW 6538   6.006   0.370   5.247
 1880SOL    HW1 6539   5.944   0.316   5.190
 1880SOL    HW2 6540   6.054   0.437   5.190
 1881SOL     OW 6541   0.462   2.540   6.725
 1881SOL    HW1 6542   0.402   2.471   6.685
 1881SOL    HW2 6543   0.423   2.631   6.711
 1882SOL     OW 6544   1.370   6.121   6.562
 1882SOL    HW1 6545   1.343   6.191   6.627
 1882SOL    HW2 6546   1.420   6.163   6.486
 1883SOL     OW 6547   0.385   2.250   4.115
 1883SOL    HW1 6548   0.476   2.219   4.086
 1883SOL    HW2 6549   0.316   2.211   4.053
 1884SOL     OW 6550   0.432   2.859   0.916
 1884SOL    HW1 6551   0.514   2.831   0.965
 1884SOL    HW2 6552   0.363   2.787   0.921
 1885SOL     OW 6553   1.756   1.226   4.400
 1885SOL    HW1 6554   1.828   1.260   4.460
 1885SOL    HW2 6555   1.751   1.283   4.318
 1886SOL     OW 6556   0.679   6.614   3.286
 1886SOL    HW1 6557   0.614   6.614   3.362
 1886SOL    HW2 6558   0.631   6.592   3.201
 1887SOL     OW 6559   2.950   6.265   6.179
 1887SOL    HW1 6560   2.867   6.215   6.202
 1887SOL    HW2 6561   2.943   6.359   6.212
 1888SOL     OW 6562   2.823   1.238   2.931
 1888SOL    HW1 6563   2.848   1.313   2.992
 1888SOL    HW2 6564   2.889   1.233   2.856
 1889SOL     OW 6565   0.486   3.215   2.654
 1889SOL    HW1 6566   0.458   3.131   2.610
 1889SOL    HW2 6567   0.560   3.196   2.719
 1890SOL     OW 6568   0.917   5.807   4.763
 1890SOL    HW1 6569   0.850   5.880   4.770
 1890SOL    HW2 6570   0.874   5.720   4.788
 1891SOL     OW 6571   3.051   3.147   3.526
 1891SOL    HW1 6572   3.074   3.060   3.570
 1891SOL    HW2 6573   3.135   3.191   3.494
 1892SOL     OW 6574   0.959   0.487   2.565
 1892SOL    HW1 6575   1.017   0.528   2.494
 1892SOL    HW2 6576   0.913   0.559   2.616
 1893SOL     OW 6577   3.936   3.809   4.201
 1893SOL    HW1 6578   3.984   3.799   4.288
 1893SOL    HW2 6579   3.891   3.723   4.177
 1894SOL     OW 6580   3.205   3.536   4.502
 1894SOL    HW1 6581   3.164   3.537   4.410
 1894SOL    HW2 6582   3.132   3.532   4.570
 1895SOL     OW 6583   1.852   6.366   0.152
 1895SOL    HW1 6584   1.947   6.358   0.185
 1895SOL    HW2 6585   1.832   6.289   0.091
 1896SOL     OW 6586   5.818   2.479   1.355
 1896SOL    HW1 6587   5.851   2.570   1.331
 1896SOL    HW2 6588   5.756   2.446   1.284
 1897SOL     OW 6589   1.520   4.451   4.620
 1897SOL    HW1 6590   1.593   4.519   4.630
 1897SOL    HW2 6591   1.493   4.445   4.524
 1898SOL     OW 6592   1.860   6.185   2.894
 1898SOL    HW1 6593   1.918   6.199   2.975
 1898SOL    HW2 6594   1.885   6.252   2.824
 1899SOL     OW 6595   0.285   0.905   1.982
 1899SOL    HW1 6596   0.197   0.895   1.935
 1899SOL    HW2 6597   0.298   1.001   2.007
 1900SOL     OW 6598   2.547   6.520   6.796
 1900SOL    HW1 6599   2.497   6.581   6.858
 1900SOL    HW2 6600   2.535   6.425   6.825
 1901SOL     OW 6601   2.706   3.811   1.693
 1901SOL    HW1 6602   2.767   3.865   1.636
 1901SOL    HW2 6603   2.760   3.761   1.762
 1902SOL     OW 6604   1.423   0.386   4.841
 1902SOL    HW1 6605   1.439   0.304   4.785
 1902SOL    HW2 6606   1.341   0.433   4.809
 1903SOL     OW 6607   1.533   2.380   3.964
 1903SOL    HW1 6608   1.502   2.345   4.052
 1903SOL    HW2 6609   1.457   2.423   3.916
 1904SOL     OW 6610   5.959   5.834   1.836
 1904SOL    HW1 6611   5.862   5.850   1.819
 1904SOL    HW2 6612   6.014   5.886   1.770
 1905SOL     OW 6613   1.135   1.678   3.903
 1905SOL    HW1 6614   1.168   1.589   3.936
 1905SOL    HW2 6615   1.123   1.740   3.980
 1906SOL     OW 6616   1.313   6.751   4.656
 1906SOL    HW1 6617   1.385   6.722   4.719
 1906SOL    HW2 6618   1.289   6.846   4.674
 1907SOL     OW 6619   4.785   2.899   0.545
 1907SOL    HW1 6620   4.825   2.889   0.454
 1907SOL    HW2 6621   4.848   2.861   0.613
 1908SOL     OW 6622   3.483   1.136   1.176
 1908SOL    HW1 6623   3.508   1.221   1.222
 1908SOL    HW2 6624   3.398   1.101   1.215
 1909SOL     OW 6625   6.269   5.092   4.671
 1909SOL    HW1 6626   6.215   5.097   4.755
 1909SOL    HW2 6627   6.208   5.086   4.592
 1910SOL     OW 6628   0.480   5.994   6.185
 1910SOL    HW1 6629   0.441   6.076   6.143
 1910SOL    HW2 6630   0.446   5.985   6.278
 1911SOL     OW 6631   6.124   6.314   4.487
 1911SOL    HW1 6632   6.048   6.304   4.551
 1911SOL    HW2 6633   6.097   6.278   4.398
 1912SOL     OW 6634   3.507   4.959   2.051
 1912SOL    HW1 6635   3.434   4.938   1.985
 1912SOL    HW2 6636   3.595   4.925   2.015
 1913SOL     OW 6637   3.638   4.244   6.528
 1913SOL    HW1 6638   3.694   4.260   6.609
 1913SOL    HW2 6639   3.659   4.312   6.458
 1914SOL     OW 6640   3.449   4.426   0.011
 1914SOL    HW1 6641   3.358   4.439   0.049
 1914SOL    HW2 6642   3.442   4.407   6.939
 1915SOL     OW 6643   3.534   2.825   6.499
 1915SOL    HW1 6644   3.476   2.889   6.550
 1915SOL    HW2 6645   3.478   2.754   6.458
 1916SOL     OW 6646   4.071   0.759   2.398
 1916SOL    HW1 6647   4.080   0.824   2.473
 1916SOL    HW2 6648   4.146   0.774   2.332
 1917SOL     OW 6649   1.948   4.100   1.260
 1917SOL    HW1 6650   2.036   4.051   1.259
 1917SOL    HW2 6651   1.953   4.175   1.325
 1918SOL     OW 6652   5.690   2.308   3.880
 1918SOL    HW1 6653   5.706   2.274   3.787
 1918SOL    HW2 6654   5.644   2.238   3.934
 1919SOL     OW 6655   0.015   2.736   5.883
 1919SOL    HW1 6656   7.021   2.796   5.806
 1919SOL    HW2 6657   0.002   2.785   5.969
 1920SOL     OW 6658   5.064   3.357   1.036
 1920SOL    HW1 6659   5.004   3.357   0.956
 1920SOL    HW2 6660   5.015   3.317   1.114
 1921SOL     OW 6661   2.592   2.181   6.666
 1921SOL    HW1 6662   2.667   2.149   6.723
 1921SOL    HW2 6663   2.508   2.134   6.692
 1922SOL     OW 6664   3.294   3.035   3.270
 1922SOL    HW1 6665   3.263   3.104   3.336
 1922SOL    HW2 6666   3.392   3.048   3.253
 1923SOL     OW 6667   3.644   0.776   4.420
 1923SOL    HW1 6668   3.616   0.764   4.325
 1923SOL    HW2 6669   3.648   0.688   4.466
 1924SOL     OW 6670   4.900   1.181   0.921
 1924SOL    HW1 6671   4.832   1.255   0.914
 1924SOL    HW2 6672   4.861   1.096   0.886
 1925SOL     OW 6673   1.323   3.868   1.585
 1925SOL    HW1 6674   1.417   3.879   1.554
 1925SOL    HW2 6675   1.262   3.925   1.530
 1926SOL     OW 6676   3.837   0.682   2.263
 1926SOL    HW1 6677   3.787   0.618   2.321
 1926SOL    HW2 6678   3.897   0.739   2.319
 1927SOL     OW 6679   2.066   5.222   0.998
 1927SOL    HW1 6680   2.070   5.243   1.096
 1927SOL    HW2 6681   2.151   5.251   0.955
 1928SOL     OW 6682   6.263   4.515   2.788
 1928SOL    HW1 6683   6.341   4.473   2.834
 1928SOL    HW2 6684   6.254   4.610   2.819
 1929SOL     OW 6685   3.363   6.808   3.504
 1929SOL    HW1 6686   3.463   6.817   3.496
 1929SOL    HW2 6687   3.341   6.753   3.584
 1930SOL     OW 6688   3.792   3.197   0.431
 1930SOL    HW1 6689   3.884   3.215   0.397
 1930SOL    HW2 6690   3.758   3.279   0.478
 1931SOL     OW 6691   0.245   2.082   3.945
 1931SOL    HW1 6692   0.325   2.033   3.909
 1931SOL    HW2 6693   0.198   2.128   3.870
 1932SOL     OW 6694   4.879   1.841   2.186
 1932SOL    HW1 6695   4.794   1.856   2.135
 1932SOL    HW2 6696   4.955   1.882   2.136
 1933SOL     OW 6697   1.290   0.961   1.095
 1933SOL    HW1 6698   1.315   0.874   1.137
 1933SOL    HW2 6699   1.333   1.036   1.145
 1934SOL     OW 6700   6.900   1.127   6.798
 1934SOL    HW1 6701   6.956   1.156   6.875
 1934SOL    HW2 6702   6.920   1.031   6.776
 1935SOL     OW 6703   6.104   4.986   3.642
 1935SOL    HW1 6704   6.085   4.890   3.663
 1935SOL    HW2 6705   6.082   5.004   3.546
 1936SOL     OW 6706   4.584   3.344   6.053
 1936SOL    HW1 6707   4.509   3.319   6.113
 1936SOL    HW2 6708   4.671   3.329   6.101
 1937SOL     OW 6709   6.101   4.907   6.818
 1937SOL    HW1 6710   6.166   4.977   6.787
 1937SOL    HW2 6711   6.063   4.859   6.739
 1938SOL     OW 6712   6.615   3.075   0.357
 1938SOL    HW1 6713   6.646   3.110   0.446
 1938SOL    HW2 6714   6.579   3.150   0.302
 1939SOL     OW 6715   0.369   0.351   4.303
 1939SOL    HW1 6716   0.285   0.404   4.309
 1939SOL    HW2 6717   0.421   0.381   4.223
 1940SOL     OW 6718   0.323   4.798   0.500
 1940SOL    HW1 6719   0.401   4.847   0.460
 1940SOL    HW2 6720   0.346   4.701   0.507
 1941SOL     OW 6721   5.077   1.868   4.798
 1941SOL    HW1 6722   5.074   1.936   4.871
 1941SOL    HW2 6723   5.025   1.901   4.719
 1942SOL     OW 6724   0.428   4.686   1.975
 1942SOL    HW1 6725   0.515   4.663   1.930
 1942SOL    HW2 6726   0.368   4.606   1.974
 1943SOL     OW 6727   0.936   2.832   3.456
 1943SOL    HW1 6728   0.862   2.778   3.415
 1943SOL    HW2 6729   0.965   2.789   3.542
 1944SOL     OW 6730   0.614   3.234   3.778
 1944SOL    HW1 6731   0.690   3.239   3.714
 1944SOL    HW2 6732   0.528   3.231   3.727
 1945SOL     OW 6733   5.223   1.336   1.945
 1945SOL    HW1 6734   5.180   1.258   1.991
 1945SOL    HW2 6735   5.277   1.388   2.010
 1946SOL     OW 6736   6.285   6.079   0.596
 1946SOL    HW1 6737   6.232   6.015   0.539
 1946SOL    HW2 6738   6.222   6.138   0.646
 1947SOL     OW 6739   6.289   5.057   2.893
 1947SOL    HW1 6740   6.309   5.153   2.874
 1947SOL    HW2 6741   6.274   5.046   2.991
 1948SOL     OW 6742   5.254   3.247   3.681
 1948SOL    HW1 6743   5.278   3.192   3.760
 1948SOL    HW2 6744   5.211   3.189   3.611
 1949SOL     OW 6745   3.368   4.186   6.462
 1949SOL    HW1 6746   3.462   4.150   6.470
 1949SOL    HW2 6747   3.371   4.276   6.418
 1950SOL     OW 6748   3.831   3.990   3.408
 1950SOL    HW1 6749   3.862   3.981   3.503
 1950SOL    HW2 6750   3.732   3.978   3.404
 1951SOL     OW 6751   6.215   5.218   5.961
 1951SOL    HW1 6752   6.227   5.148   5.891
 1951SOL    HW2 6753   6.138   5.193   6.020
 1952SOL     OW 6754   5.635   4.890   6.992
 1952SOL    HW1 6755   5.673   4.951   6.922
 1952SOL    HW2 6756   5.651   4.929   0.057
 1953SOL     OW 6757   1.202   1.512   0.042
 1953SOL    HW1 6758   1.273   1.530   7.000
 1953SOL    HW2 6759   1.135   1.586   0.041
 1954SOL     OW 6760   3.875   6.490   1.954
 1954SOL    HW1 6761   3.898   6.423   2.025
 1954SOL    HW2 6762   3.872   6.444   1.865
 1955SOL     OW 6763   0.008   2.705   3.453
 1955SOL    HW1 6764   0.078   2.694   3.383
 1955SOL    HW2 6765   0.002   2.622   3.508
 1956SOL     OW 6766   5.205   0.871   1.557
 1956SOL    HW1 6767   5.286   0.900   1.607
 1956SOL    HW2 6768   5.123   0.907   1.602
 1957SOL     OW 6769   6.724   2.347   4.081
 1957SOL    HW1 6770   6.650   2.387   4.027
 1957SOL    HW2 6771   6.745   2.407   4.159
 1958SOL     OW 6772   4.035   1.582   0.588
 1958SOL    HW1 6773   4.081   1.527   0.658
 1958SOL    HW2 6774   4.017   1.673   0.625
 1959SOL     OW 6775   1.236   2.237   5.080
 1959SOL    HW1 6776   1.263   2.312   5.141
 1959SOL    HW2 6777   1.272   2.255   4.988
 1960SOL     OW 6778   5.750   3.887   3.616
 1960SOL    HW1 6779   5.723   3.791   3.605
 1960SOL    HW2 6780   5.669   3.944   3.629
 1961SOL     OW 6781   0.689   3.650   3.567
 1961SOL    HW1 6782   0.595   3.615   3.569
 1961SOL    HW2 6783   0.746   3.597   3.630
 1962SOL     OW 6784   0.553   0.519   1.757
 1962SOL    HW1 6785   0.537   0.617   1.745
 1962SOL    HW2 6786   0.559   0.499   1.855
 1963SOL     OW 6787   0.974   2.758   6.880
 1963SOL    HW1 6788   0.885   2.788   6.913
 1963SOL    HW2 6789   0.997   2.810   6.797
 1964SOL     OW 6790   5.726   3.563   0.653
 1964SOL    HW1 6791   5.668   3.501   0.706
 1964SOL    HW2 6792   5.723   3.654   0.693
 1965SOL     OW 6793   6.186   4.457   3.607
 1965SOL    HW1 6794   6.109   4.442   3.545
 1965SOL    HW2 6795   6.262   4.397   3.582
 1966SOL     OW 6796   0.930   4.646   6.586
 1966SOL    HW1 6797   0.890   4.727   6.541
 1966SOL    HW2 6798   0.888   4.563   6.548
 1967SOL     OW 6799   6.313   3.367   5.116
 1967SOL    HW1 6800   6.393   3.411   5.158
 1967SOL    HW2 6801   6.322   3.370   5.016
 1968SOL     OW 6802   2.563   1.035   5.779
 1968SOL    HW1 6803   2.510   0.957   5.745
 1968SOL    HW2 6804   2.501   1.109   5.805
 1969SOL     OW 6805   1.332   6.125   0.948
 1969SOL    HW1 6806   1.429   6.139   0.927
 1969SOL    HW2 6807   1.278   6.192   0.898
 1970SOL     OW 6808   5.419   4.565   4.147
 1970SOL    HW1 6809   5.338   4.507   4.137
 1970SOL    HW2 6810   5.501   4.507   4.154
 1971SOL     OW 6811   1.829   4.305   4.919
 1971SOL    HW1 6812   1.878   4.292   5.005
 1971SOL    HW2 6813   1.803   4.216   4.882
 1972SOL     OW 6814   6.249   2.072   2.632
 1972SOL    HW1 6815   6.172   2.076   2.569
 1972SOL    HW2 6816   6.216   2.082   2.726
 1973SOL     OW 6817   3.398   2.174   0.833
 1973SOL    HW1 6818   3.336   2.149   0.758
 1973SOL    HW2 6819   3.493   2.171   0.801
 1974SOL     OW 6820   2.290   0.030   5.013
 1974SOL    HW1 6821   2.229   0.035   5.092
 1974SOL    HW2 6822   2.331   0.119   4.996
 1975SOL     OW 6823   2.127   2.677   2.978
 1975SOL    HW1 6824   2.198   2.715   3.037
 1975SOL    HW2 6825   2.151   2.694   2.882
 1976SOL     OW 6826   1.001   0.856   5.007
 1976SOL    HW1 6827   1.095   0.822   5.007
 1976SOL    HW2 6828   0.955   0.824   5.089
 1977SOL     OW 6829   1.678   3.863   6.803
 1977SOL    HW1 6830   1.634   3.808   6.732
 1977SOL    HW2 6831   1.634   3.952   6.809
 1978SOL     OW 6832   3.120   0.398   2.164
 1978SOL    HW1 6833   3.179   0.329   2.207
 1978SOL    HW2 6834   3.044   0.420   2.225
 1979SOL     OW 6835   5.854   4.744   6.265
 1979SOL    HW1 6836   5.771   4.768   6.314
 1979SOL    HW2 6837   5.869   4.645   6.271
 1980SOL     OW 6838   3.866   0.511   0.735
 1980SOL    HW1 6839   3.950   0.544   0.693
 1980SOL    HW2 6840   3.888   0.465   0.822
 1981SOL     OW 6841   3.939   1.848   2.232
 1981SOL    HW1 6842   3.891   1.936   2.238
 1981SOL    HW2 6843   3.901   1.795   2.157
 1982SOL     OW 6844   1.646   2.801   6.087
 1982SOL    HW1 6845   1.552   2.801   6.053
 1982SOL    HW2 6846   1.706   2.846   6.021
 1983SOL     OW 6847   6.226   1.617   1.919
 1983SOL    HW1 6848   6.264   1.533   1.959
 1983SOL    HW2 6849   6.207   1.602   1.822
 1984SOL     OW 6850   4.506   3.944   6.015
 1984SOL    HW1 6851   4.545   3.898   6.095
 1984SOL    HW2 6852   4.406   3.946   6.024
 1985SOL     OW 6853   6.239   4.577   4.227
 1985SOL    HW1 6854   6.163   4.564   4.291
 1985SOL    HW2 6855   6.240   4.672   4.196
 1986SOL     OW 6856   3.029   3.757   2.311
 1986SOL    HW1 6857   3.002   3.661   2.319
 1986SOL    HW2 6858   2.954   3.815   2.342
 1987SOL     OW 6859   2.452   0.541   2.050
 1987SOL    HW1 6860   2.389   0.549   2.127
 1987SOL    HW2 6861   2.480   0.633   2.020
 1988SOL     OW 6862   0.529   1.831   1.910
 1988SOL    HW1 6863   0.513   1.798   2.003
 1988SOL    HW2 6864   0.527   1.753   1.847
 1989SOL     OW 6865   2.887   5.654   5.180
 1989SOL    HW1 6866   2.875   5.560   5.213
 1989SOL    HW2 6867   2.834   5.717   5.236
 1990SOL     OW 6868   3.928   0.327   0.060
 1990SOL    HW1 6869   3.959   0.387   0.134
 1990SOL    HW2 6870   4.006   0.279   0.020
 1991SOL     OW 6871   2.319   5.328   1.571
 1991SOL    HW1 6872   2.320   5.244   1.518
 1991SOL    HW2 6873   2.314   5.407   1.510
 1992SOL     OW 6874   0.961   6.506   2.742
 1992SOL    HW1 6875   0.876   6.504   2.794
 1992SOL    HW2 6876   0.953   6.571   2.666
 1993SOL     OW 6877   2.103   1.754   3.086
 1993SOL    HW1 6878   2.007   1.773   3.105
 1993SOL    HW2 6879   2.128   1.793   2.997
 1994SOL     OW 6880   3.745   3.086   1.138
 1994SOL    HW1 6881   3.728   2.992   1.108
 1994SOL    HW2 6882   3.688   3.105   1.218
 1995SOL     OW 6883   5.668   1.754   4.157
 1995SOL    HW1 6884   5.754   1.770   4.204
 1995SOL    HW2 6885   5.674   1.786   4.062
 1996SOL     OW 6886   4.845   0.784   0.710
 1996SOL    HW1 6887   4.804   0.828   0.790
 1996SOL    HW2 6888   4.893   0.701   0.738
 1997SOL     OW 6889   3.453   0.841   3.636
 1997SOL    HW1 6890   3.512   0.853   3.556
 1997SOL    HW2 6891   3.369   0.894   3.624
 1998SOL     OW 6892   2.754   3.950   1.094
 1998SOL    HW1 6893   2.673   3.892   1.085
 1998SOL    HW2 6894   2.799   3.930   1.181
 1999SOL     OW 6895   0.270   6.871   6.700
 1999SOL    HW1 6896   0.241   6.783   6.662
 1999SOL    HW2 6897   0.361   6.862   6.740
 2000SOL     OW 6898   4.060   4.356   6.041
 2000SOL    HW1 6899   4.030   4.330   6.133
 2000SOL    HW2 6900   4.158   4.340   6.031
 2001SOL     OW 6901   1.465   2.521   1.062
 2001SOL    HW1 6902   1.446   2.585   1.137
 2001SOL    HW2 6903   1.505   2.437   1.100
 2002SOL     OW 6904   6.504   5.361   0.772
 2002SOL    HW1 6905   6.511   5.396   0.866
 2002SOL    HW2 6906   6.462   5.431   0.714
 2003SOL     OW 6907   5.695   5.406   1.977
 2003SOL    HW1 6908   5.619   5.356   2.018
 2003SOL    HW2 6909   5.718   5.365   1.889
 2004SOL     OW 6910   3.918   6.648   2.852
 2004SOL    HW1 6911   3.951   6.740   2.870
 2004SOL    HW2 6912   3.818   6.646   2.863
 2005SOL     OW 6913   1.496   6.672   0.364
 2005SOL    HW1 6914   1.408   6.634   0.393
 2005SOL    HW2 6915   1.566   6.601   0.373
 2006SOL     OW 6916   5.426   6.774   2.333
 2006SOL    HW1 6917   5.495   6.840   2.363
 2006SOL    HW2 6918   5.465   6.682   2.337
 2007SOL     OW 6919   5.932   5.374   5.854
 2007SOL    HW1 6920   5.832   5.383   5.847
 2007SOL    HW2 6921   5.955   5.287   5.898
 2008SOL     OW 6922   1.943   3.322   2.885
 2008SOL    HW1 6923   1.992   3.250   2.835
 2008SOL    HW2 6924   1.940   3.405   2.830
 2009SOL     OW 6925   6.300   6.968   2.731
 2009SOL    HW1 6926   6.281   0.021   2.790
 2009SOL    HW2 6927   6.254   6.887   2.768
 2010SOL     OW 6928   6.788   1.996   2.119
 2010SOL    HW1 6929   6.871   2.052   2.123
 2010SOL    HW2 6930   6.714   2.049   2.078
 2011SOL     OW 6931   1.053   0.159   4.756
 2011SOL    HW1 6932   0.956   0.182   4.747
 2011SOL    HW2 6933   1.093   0.214   4.828
 2012SOL     OW 6934   0.411   3.121   0.761
 2012SOL    HW1 6935   0.502   3.137   0.799
 2012SOL    HW2 6936   0.385   3.025   0.775
 2013SOL     OW 6937   0.583   2.535   2.091
 2013SOL    HW1 6938   0.513   2.469   2.064
 2013SOL    HW2 6939   0.631   2.501   2.172
 2014SOL     OW 6940   3.872   1.583   4.406
 2014SOL    HW1 6941   3.828   1.493   4.407
 2014SOL    HW2 6942   3.929   1.591   4.325
 2015SOL     OW 6943   4.105   6.548   2.290
 2015SOL    HW1 6944   4.058   6.628   2.253
 2015SOL    HW2 6945   4.045   6.468   2.281
 2016SOL     OW 6946   2.073   0.684   4.514
 2016SOL    HW1 6947   2.104   0.703   4.607
 2016SOL    HW2 6948   2.086   0.765   4.457
 2017SOL     OW 6949   3.404   6.268   3.625
 2017SOL    HW1 6950   3.472   6.325   3.578
 2017SOL    HW2 6951   3.332   6.326   3.662
 2018SOL     OW 6952   0.531   0.427   4.063
 2018SOL    HW1 6953   0.569   0.383   3.982
 2018SOL    HW2 6954   0.486   0.513   4.036
 2019SOL     OW 6955   5.905   5.265   6.647
 2019SOL    HW1 6956   5.940   5.313   6.727
 2019SOL    HW2 6957   5.805   5.261   6.651
 2020SOL     OW 6958   2.021   6.823   0.773
 2020SOL    HW1 6959   1.962   6.746   0.750
 2020SOL    HW2 6960   1.999   6.855   0.866
 2021SOL     OW 6961   0.193   5.770   4.711
 2021SOL    HW1 6962   0.215   5.768   4.808
 2021SOL    HW2 6963   0.263   5.720   4.660
 2022SOL     OW 6964   1.844   3.410   4.472
 2022SOL    HW1 6965   1.828   3.342   4.401
 2022SOL    HW2 6966   1.942   3.428   4.479
 2023SOL     OW 6967   6.716   5.867   6.452
 2023SOL    HW1 6968   6.775   5.932   6.404
 2023SOL    HW2 6969   6.751   5.851   6.544
 2024SOL     OW 6970   0.478   5.768   3.929
 2024SOL    HW1 6971   0.382   5.752   3.952
 2024SOL    HW2 6972   0.499   5.722   3.843
 2025SOL     OW 6973   2.041   6.195   4.340
 2025SOL    HW1 6974   1.998   6.283   4.356
 2025SOL    HW2 6975   2.141   6.206   4.342
 2026SOL     OW 6976   0.416   0.247   5.747
 2026SOL    HW1 6977   0.509   0.252   5.783
 2026SOL    HW2 6978   0.391   0.151   5.731
 2027SOL     OW 6979   6.910   6.187   2.238
 2027SOL    HW1 6980   6.837   6.256   2.237
 2027SOL    HW2 6981   6.984   6.218   2.299
 2028SOL     OW 6982   3.146   5.521   4.763
 2028SOL    HW1 6983   3.245   5.504   4.769
 2028SOL    HW2 6984   3.110   5.543   4.854
 2029SOL     OW 6985   6.654   2.969   6.603
 2029SOL    HW1 6986   6.590   3.002   6.673
 2029SOL    HW2 6987   6.668   2.870   6.614
 2030SOL     OW 6988   2.490   6.717   2.979
 2030SOL    HW1 6989   2.488   6.816   2.966
 2030SOL    HW2 6990   2.497   6.672   2.890
 2031SOL     OW 6991   0.683   6.214   5.063
 2031SOL    HW1 6992   0.704   6.297   5.012
 2031SOL    HW2 6993   0.718   6.135   5.014
 2032SOL     OW 6994   2.031   2.708   6.132
 2032SOL    HW1 6995   2.117   2.661   6.117
 2032SOL    HW2 6996   1.983   2.666   6.210
 2033SOL     OW 6997   1.853   1.204   0.544
 2033SOL    HW1 6998   1.913   1.259   0.486
 2033SOL    HW2 6999   1.896   1.189   0.633
 2034SOL     OW 7000   0.917   4.342   4.973
 2034SOL    HW1 7001   0.978   4.315   4.898
 2034SOL    HW2 7002   0.828   4.367   4.937
 2035SOL     OW 7003   5.383   5.983   3.104
 2035SOL    HW1 7004   5.432   5.949   3.184
 2035SOL    HW2 7005   5.318   5.913   3.073
 2036SOL     OW 7006   0.377   4.325   6.166
 2036SOL    HW1 7007   0.436   4.266   6.222
 2036SOL    HW2 7008   0.367   4.414   6.212
 2037SOL     OW 7009   1.181   2.431   6.850
 2037SOL    HW1 7010   1.253   2.426   6.780
 2037SOL    HW2 7011   1.218   2.476   6.932
 2038SOL     OW 7012   0.875   1.359   5.745
 2038SOL    HW1 7013   0.931   1.430   5.786
 2038SOL    HW2 7014   0.779   1.374   5.770
 2039SOL     OW 7015   5.065   6.013   3.381
 2039SOL    HW1 7016   5.035   5.938   3.440
 2039SOL    HW2 7017   5.043   5.990   3.285
 2040SOL     OW 7018   2.781   1.964   0.188
 2040SOL    HW1 7019   2.824   2.030   0.127
 2040SOL    HW2 7020   2.721   2.011   0.253
 2041SOL     OW 7021   2.966   6.710   6.613
 2041SOL    HW1 7022   2.999   6.701   6.519
 2041SOL    HW2 7023   2.945   6.619   6.650
 2042SOL     OW 7024   5.994   0.803   6.058
 2042SOL    HW1 7025   5.901   0.838   6.069
 2042SOL    HW2 7026   6.058   0.880   6.051
 2043SOL     OW 7027   0.611   4.091   0.446
 2043SOL    HW1 7028   0.633   3.995   0.424
 2043SOL    HW2 7029   0.692   4.136   0.483
 2044SOL     OW 7030   4.288   0.404   1.832
 2044SOL    HW1 7031   4.239   0.320   1.809
 2044SOL    HW2 7032   4.223   0.479   1.841
 2045SOL     OW 7033   2.169   5.780   4.147
 2045SOL    HW1 7034   2.268   5.785   4.132
 2045SOL    HW2 7035   2.142   5.853   4.211
 2046SOL     OW 7036   0.823   3.003   6.023
 2046SOL    HW1 7037   0.894   3.021   5.954
 2046SOL    HW2 7038   0.802   2.906   6.024
 2047SOL     OW 7039   6.863   0.127   1.431
 2047SOL    HW1 7040   6.808   0.195   1.479
 2047SOL    HW2 7041   6.950   0.116   1.479
 2048SOL     OW 7042   2.036   1.106   4.150
 2048SOL    HW1 7043   2.082   1.072   4.068
 2048SOL    HW2 7044   1.938   1.088   4.144
 2049SOL     OW 7045   4.773   2.856   5.149
 2049SOL    HW1 7046   4.678   2.836   5.174
 2049SOL    HW2 7047   4.825   2.877   5.232
 2050SOL     OW 7048   0.571   0.910   3.558
 2050SOL    HW1 7049   0.655   0.911   3.504
 2050SOL    HW2 7050   0.593   0.880   3.651
 2051SOL     OW 7051   3.435   6.427   0.458
 2051SOL    HW1 7052   3.380   6.361   0.407
 2051SOL    HW2 7053   3.517   6.449   0.405
 2052SOL     OW 7054   0.968   3.809   0.898
 2052SOL    HW1 7055   0.971   3.712   0.875
 2052SOL    HW2 7056   1.007   3.824   0.988
 2053SOL     OW 7057   6.247   4.801   2.801
 2053SOL    HW1 7058   6.327   4.803   2.742
 2053SOL    HW2 7059   6.243   4.885   2.855
 2054SOL     OW 7060   2.986   3.839   2.885
 2054SOL    HW1 7061   2.993   3.875   2.792
 2054SOL    HW2 7062   2.943   3.749   2.883
 2055SOL     OW 7063   4.484   2.771   5.713
 2055SOL    HW1 7064   4.403   2.729   5.755
 2055SOL    HW2 7065   4.455   2.834   5.642
 2056SOL     OW 7066   2.962   5.093   1.791
 2056SOL    HW1 7067   3.024   5.063   1.718
 2056SOL    HW2 7068   2.910   5.015   1.825
 2057SOL     OW 7069   6.053   3.068   4.020
 2057SOL    HW1 7070   6.040   3.070   4.119
 2057SOL    HW2 7071   6.037   3.159   3.982
 2058SOL     OW 7072   5.841   0.088   3.592
 2058SOL    HW1 7073   5.746   0.058   3.591
 2058SOL    HW2 7074   5.888   0.052   3.512
 2059SOL     OW 7075   2.259   2.061   5.364
 2059SOL    HW1 7076   2.326   2.030   5.297
 2059SOL    HW2 7077   2.227   1.983   5.418
 2060SOL     OW 7078   2.025   2.304   6.390
 2060SOL    HW1 7079   2.028   2.270   6.484
 2060SOL    HW2 7080   2.118   2.307   6.353
 2061SOL     OW 7081   2.034   1.982   3.413
 2061SOL    HW1 7082   2.111   1.994   3.475
 2061SOL    HW2 7083   2.067   1.988   3.318
 2062SOL     OW 7084   6.062   4.993   4.490
 2062SOL    HW1 7085   5.976   4.942   4.492
 2062SOL    HW2 7086   6.070   5.040   4.402
 2063SOL     OW 7087   1.471   2.265   4.215
 2063SOL    HW1 7088   1.529   2.186   4.194
 2063SOL    HW2 7089   1.440   2.259   4.310
 2064SOL     OW 7090   0.729   3.745   4.214
 2064SOL    HW1 7091   0.817   3.727   4.171
 2064SOL    HW2 7092   0.658   3.688   4.171
 2065SOL     OW 7093   4.042   3.578   5.938
 2065SOL    HW1 7094   4.016   3.493   5.892
 2065SOL    HW2 7095   3.967   3.608   5.998
 2066SOL     OW 7096   1.591   3.002   5.030
 2066SOL    HW1 7097   1.592   2.940   5.108
 2066SOL    HW2 7098   1.498   3.036   5.016
 2067SOL     OW 7099   6.281   4.592   1.990
 2067SOL    HW1 7100   6.340   4.527   2.038
 2067SOL    HW2 7101   6.225   4.642   2.056
 2068SOL     OW 7102   4.352   6.522   4.283
 2068SOL    HW1 7103   4.425   6.478   4.335
 2068SOL    HW2 7104   4.265   6.477   4.302
 2069SOL     OW 7105   6.419   1.094   3.673
 2069SOL    HW1 7106   6.434   1.112   3.575
 2069SOL    HW2 7107   6.447   1.173   3.726
 2070SOL     OW 7108   1.353   4.972   1.310
 2070SOL    HW1 7109   1.262   4.937   1.289
 2070SOL    HW2 7110   1.412   4.961   1.230
 2071SOL     OW 7111   0.008   2.495   4.872
 2071SOL    HW1 7112   0.042   2.401   4.872
 2071SOL    HW2 7113   6.934   2.495   4.858
 2072SOL     OW 7114   5.551   4.040   5.273
 2072SOL    HW1 7115   5.543   4.015   5.369
 2072SOL    HW2 7116   5.583   3.961   5.220
 2073SOL     OW 7117   3.460   5.379   6.506
 2073SOL    HW1 7118   3.406   5.315   6.451
 2073SOL    HW2 7119   3.507   5.443   6.446
 2074SOL     OW 7120   2.371   4.557   5.970
 2074SOL    HW1 7121   2.464   4.593   5.964
 2074SOL    HW2 7122   2.369   4.464   5.933
 2075SOL     OW 7123   5.423   2.677   1.643
 2075SOL    HW1 7124   5.454   2.604   1.581
 2075SOL    HW2 7125   5.323   2.676   1.647
 2076SOL     OW 7126   6.935   6.773   4.646
 2076SOL    HW1 7127   6.902   6.861   4.613
 2076SOL    HW2 7128   6.974   6.784   4.738
 2077SOL     OW 7129   6.338   4.561   0.307
 2077SOL    HW1 7130   6.240   4.555   0.290
 2077SOL    HW2 7131   6.370   4.654   0.285
 2078SOL     OW 7132   1.056   2.564   6.376
 2078SOL    HW1 7133   1.083   2.660   6.365
 2078SOL    HW2 7134   1.126   2.516   6.428
 2079SOL     OW 7135   5.274   1.317   2.984
 2079SOL    HW1 7136   5.176   1.323   2.963
 2079SOL    HW2 7137   5.287   1.324   3.082
 2080SOL     OW 7138   2.353   3.245   6.198
 2080SOL    HW1 7139   2.384   3.225   6.106
 2080SOL    HW2 7140   2.413   3.314   6.240
 2081SOL     OW 7141   0.006   6.347   2.453
 2081SOL    HW1 7142   0.018   6.348   2.552
 2081SOL    HW2 7143   6.988   6.432   2.423
 2082SOL     OW 7144   0.234   5.724   4.066
 2082SOL    HW1 7145   0.247   5.629   4.095
 2082SOL    HW2 7146   0.137   5.743   4.056
 2083SOL     OW 7147   0.721   5.894   4.196
 2083SOL    HW1 7148   0.783   5.972   4.189
 2083SOL    HW2 7149   0.742   5.827   4.125
 2084SOL     OW 7150   6.799   2.308   1.478
 2084SOL    HW1 7151   6.870   2.356   1.426
 2084SOL    HW2 7152   6.713   2.309   1.426
 2085SOL     OW 7153   6.354   5.914   0.287
 2085SOL    HW1 7154   6.395   5.897   0.197
 2085SOL    HW2 7155   6.399   5.992   0.330
 2086SOL     OW 7156   5.298   0.184   6.806
 2086SOL    HW1 7157   5.334   0.274   6.781
 2086SOL    HW2 7158   5.343   0.113   6.753
 2087SOL     OW 7159   4.332   1.858   6.691
 2087SOL    HW1 7160   4.300   1.921   6.762
 2087SOL    HW2 7161   4.324   1.764   6.724
 2088SOL     OW 7162   6.893   4.499   6.125
 2088SOL    HW1 7163   6.935   4.468   6.211
 2088SOL    HW2 7164   6.795   4.480   6.128
 2089SOL     OW 7165   2.561   4.280   5.877
 2089SOL    HW1 7166   2.645   4.303   5.926
 2089SOL    HW2 7167   2.583   4.238   5.789
 2090SOL     OW 7168   5.269   2.968   0.263
 2090SOL    HW1 7169   5.324   3.048   0.285
 2090SOL    HW2 7170   5.295   2.892   0.323
 2091SOL     OW 7171   4.960   6.289   0.817
 2091SOL    HW1 7172   4.920   6.378   0.839
 2091SOL    HW2 7173   4.888   6.219   0.819
 2092SOL     OW 7174   3.383   3.438   1.993
 2092SOL    HW1 7175   3.304   3.409   2.048
 2092SOL    HW2 7176   3.458   3.463   2.054
 2093SOL     OW 7177   4.376   0.442   1.158
 2093SOL    HW1 7178   4.448   0.511   1.160
 2093SOL    HW2 7179   4.417   0.351   1.152
 2094SOL     OW 7180   5.132   2.264   0.706
 2094SOL    HW1 7181   5.180   2.211   0.776
 2094SOL    HW2 7182   5.061   2.206   0.665
 2095SOL     OW 7183   5.024   5.343   4.453
 2095SOL    HW1 7184   5.040   5.435   4.415
 2095SOL    HW2 7185   5.058   5.274   4.390
 2096SOL     OW 7186   4.082   6.918   2.790
 2096SOL    HW1 7187   4.135   6.980   2.733
 2096SOL    HW2 7188   4.002   6.967   2.826
 2097SOL     OW 7189   0.803   5.833   5.763
 2097SOL    HW1 7190   0.793   5.751   5.706
 2097SOL    HW2 7191   0.824   5.806   5.857
 2098SOL     OW 7192   2.420   6.767   3.644
 2098SOL    HW1 7193   2.409   6.861   3.613
 2098SOL    HW2 7194   2.344   6.712   3.610
 2099SOL     OW 7195   4.067   1.836   0.172
 2099SOL    HW1 7196   3.996   1.845   0.242
 2099SOL    HW2 7197   4.063   1.745   0.131
 2100SOL     OW 7198   4.590   0.681   0.074
 2100SOL    HW1 7199   4.569   0.590   0.108
 2100SOL    HW2 7200   4.519   0.710   0.010
 2101SOL     OW 7201   1.861   7.011   2.672
 2101SOL    HW1 7202   1.855   6.940   2.742
 2101SOL    HW2 7203   1.893   6.972   2.586
 2102SOL     OW 7204   3.893   2.433   1.324
 2102SOL    HW1 7205   3.983   2.396   1.302
 2102SOL    HW2 7206   3.833   2.358   1.351
 2103SOL     OW 7207   1.375   0.063   0.896
 2103SOL    HW1 7208   1.351   6.998   0.931
 2103SOL    HW2 7209   1.363   0.064   0.796
 2104SOL     OW 7210   2.158   4.235   2.647
 2104SOL    HW1 7211   2.247   4.280   2.647
 2104SOL    HW2 7212   2.097   4.283   2.584
 2105SOL     OW 7213   5.427   0.313   5.192
 2105SOL    HW1 7214   5.380   0.234   5.153
 2105SOL    HW2 7215   5.367   0.393   5.189
 2106SOL     OW 7216   3.353   2.276   1.457
 2106SOL    HW1 7217   3.341   2.325   1.371
 2106SOL    HW2 7218   3.430   2.315   1.507
 2107SOL     OW 7219   5.045   4.551   4.991
 2107SOL    HW1 7220   4.994   4.474   4.953
 2107SOL    HW2 7221   5.143   4.536   4.979
 2108SOL     OW 7222   4.641   0.030   4.794
 2108SOL    HW1 7223   4.647   6.975   4.853
 2108SOL    HW2 7224   4.637   0.000   4.698
 2109SOL     OW 7225   2.607   5.878   1.818
 2109SOL    HW1 7226   2.623   5.852   1.913
 2109SOL    HW2 7227   2.553   5.806   1.773
 2110SOL     OW 7228   3.592   5.750   0.241
 2110SOL    HW1 7229   3.509   5.781   0.289
 2110SOL    HW2 7230   3.663   5.729   0.309
 2111SOL     OW 7231   1.152   2.199   6.569
 2111SOL    HW1 7232   1.207   2.271   6.527
 2111SOL    HW2 7233   1.142   2.123   6.505
 2112SOL     OW 7234   0.816   0.342   6.658
 2112SOL    HW1 7235   0.782   0.410   6.723
 2112SOL    HW2 7236   0.808   0.250   6.698
 2113SOL     OW 7237   6.521   1.385   4.993
 2113SOL    HW1 7238   6.524   1.472   5.043
 2113SOL    HW2 7239   6.430   1.372   4.954
 2114SOL     OW 7240   2.208   0.777   5.307
 2114SOL    HW1 7241   2.297   0.819   5.293
 2114SOL    HW2 7242   2.196   0.700   5.244
 2115SOL     OW 7243   7.026   6.494   3.247
 2115SOL    HW1 7244   0.050   6.476   3.332
 2115SOL    HW2 7245   6.988   6.587   3.251
 2116SOL     OW 7246   2.227   1.219   6.762
 2116SOL    HW1 7247   2.209   1.124   6.738
 2116SOL    HW2 7248   2.217   1.276   6.681
 2117SOL     OW 7249   6.512   2.252   2.914
 2117SOL    HW1 7250   6.507   2.158   2.947
 2117SOL    HW2 7251   6.430   2.302   2.944
 2118SOL     OW 7252   6.944   3.020   2.817
 2118SOL    HW1 7253   6.886   2.998   2.896
 2118SOL    HW2 7254   6.895   3.083   2.757
 2119SOL     OW 7255   0.697   3.133   0.408
 2119SOL    HW1 7256   0.727   3.074   0.483
 2119SOL    HW2 7257   0.768   3.200   0.388
 2120SOL     OW 7258   5.712   1.923   0.518
 2120SOL    HW1 7259   5.674   1.855   0.581
 2120SOL    HW2 7260   5.646   1.942   0.445
 2121SOL     OW 7261   2.194   6.585   1.483
 2121SOL    HW1 7262   2.172   6.509   1.420
 2121SOL    HW2 7263   2.223   6.548   1.571
 2122SOL     OW 7264   6.551   1.024   4.961
 2122SOL    HW1 7265   6.457   1.052   4.979
 2122SOL    HW2 7266   6.578   1.053   4.870
 2123SOL     OW 7267   0.844   4.866   3.585
 2123SOL    HW1 7268   0.768   4.925   3.562
 2123SOL    HW2 7269   0.854   4.795   3.516
 2124SOL     OW 7270   4.836   3.730   6.153
 2124SOL    HW1 7271   4.760   3.696   6.209
 2124SOL    HW2 7272   4.856   3.824   6.178
 2125SOL     OW 7273   1.352   5.810   4.517
 2125SOL    HW1 7274   1.449   5.829   4.500
 2125SOL    HW2 7275   1.318   5.873   4.587
 2126SOL     OW 7276   3.144   3.668   0.238
 2126SOL    HW1 7277   3.215   3.701   0.176
 2126SOL    HW2 7278   3.142   3.723   0.321
 2127SOL     OW 7279   1.270   3.504   4.056
 2127SOL    HW1 7280   1.304   3.566   3.985
 2127SOL    HW2 7281   1.214   3.433   4.014
 2128SOL     OW 7282   5.345   3.113   2.305
 2128SOL    HW1 7283   5.370   3.202   2.345
 2128SOL    HW2 7284   5.251   3.117   2.272
 2129SOL     OW 7285   5.294   4.417   3.716
 2129SOL    HW1 7286   5.298   4.512   3.745
 2129SOL    HW2 7287   5.305   4.357   3.795
 2130SOL     OW 7288   1.683   0.592   1.856
 2130SOL    HW1 7289   1.643   0.681   1.833
 2130SOL    HW2 7290   1.757   0.572   1.791
 2131SOL     OW 7291   5.929   0.533   6.822
 2131SOL    HW1 7292   5.865   0.462   6.795
 2131SOL    HW2 7293   5.883   0.599   6.882
 2132SOL     OW 7294   2.833   2.655   0.157
 2132SOL    HW1 7295   2.812   2.629   0.062
 2132SOL    HW2 7296   2.831   2.755   0.165
 2133SOL     OW 7297   3.835   1.980   1.306
 2133SOL    HW1 7298   3.929   1.972   1.273
 2133SOL    HW2 7299   3.785   1.895   1.286
 2134SOL     OW 7300   1.751   6.578   5.500
 2134SOL    HW1 7301   1.828   6.559   5.438
 2134SOL    HW2 7302   1.783   6.631   5.578
 2135SOL     OW 7303   0.918   6.088   3.977
 2135SOL    HW1 7304   0.996   6.029   3.956
 2135SOL    HW2 7305   0.908   6.096   4.076
 2136SOL     OW 7306   1.152   5.038   3.854
 2136SOL    HW1 7307   1.246   5.009   3.872
 2136SOL    HW2 7308   1.143   5.136   3.870
 2137SOL     OW 7309   0.038   0.150   4.177
 2137SOL    HW1 7310   6.977   0.118   4.215
 2137SOL    HW2 7311   0.114   0.102   4.220
 2138SOL     OW 7312   1.275   2.286   5.981
 2138SOL    HW1 7313   1.261   2.362   6.044
 2138SOL    HW2 7314   1.370   2.255   5.987
 2139SOL     OW 7315   2.932   6.984   4.251
 2139SOL    HW1 7316   2.979   6.923   4.315
 2139SOL    HW2 7317   2.998   0.022   4.211
 2140SOL     OW 7318   1.231   5.712   4.109
 2140SOL    HW1 7319   1.284   5.674   4.034
 2140SOL    HW2 7320   1.170   5.642   4.146
 2141SOL     OW 7321   0.019   1.973   6.748
 2141SOL    HW1 7322   6.955   2.010   6.725
 2141SOL    HW2 7323   0.060   1.933   6.666
 2142SOL     OW 7324   3.598   0.912   3.430
 2142SOL    HW1 7325   3.591   1.012   3.430
 2142SOL    HW2 7326   3.646   0.882   3.347
 2143SOL     OW 7327   3.706   6.039   0.141
 2143SOL    HW1 7328   3.664   6.128   0.161
 2143SOL    HW2 7329   3.667   5.970   0.201
 2144SOL     OW 7330   1.154   1.174   1.781
 2144SOL    HW1 7331   1.189   1.112   1.851
 2144SOL    HW2 7332   1.058   1.195   1.800
 2145SOL     OW 7333   3.053   5.672   2.817
 2145SOL    HW1 7334   3.041   5.649   2.913
 2145SOL    HW2 7335   3.055   5.771   2.806
 2146SOL     OW 7336   2.620   2.286   0.763
 2146SOL    HW1 7337   2.712   2.325   0.771
 2146SOL    HW2 7338   2.564   2.344   0.703
 2147SOL     OW 7339   0.101   1.231   4.691
 2147SOL    HW1 7340   0.150   1.313   4.662
 2147SOL    HW2 7341   0.162   1.152   4.688
 2148SOL     OW 7342   6.103   3.362   4.176
 2148SOL    HW1 7343   6.021   3.399   4.221
 2148SOL    HW2 7344   6.184   3.390   4.228
 2149SOL     OW 7345   2.865   0.491   3.172
 2149SOL    HW1 7346   2.941   0.525   3.117
 2149SOL    HW2 7347   2.789   0.557   3.167
 2150SOL     OW 7348   4.827   0.155   3.225
 2150SOL    HW1 7349   4.882   0.186   3.147
 2150SOL    HW2 7350   4.886   0.145   3.305
 2151SOL     OW 7351   4.211   4.559   5.755
 2151SOL    HW1 7352   4.165   4.479   5.716
 2151SOL    HW2 7353   4.287   4.587   5.697
 2152SOL     OW 7354   6.549   6.726   2.529
 2152SOL    HW1 7355   6.501   6.747   2.444
 2152SOL    HW2 7356   6.614   6.652   2.513
 2153SOL     OW 7357   4.295   1.663   3.690
 2153SOL    HW1 7358   4.333   1.756   3.691
 2153SOL    HW2 7359   4.350   1.604   3.748
 2154SOL     OW 7360   3.680   6.529   5.459
 2154SOL    HW1 7361   3.685   6.521   5.359
 2154SOL    HW2 7362   3.584   6.537   5.487
 2155SOL     OW 7363   6.092   3.427   6.775
 2155SOL    HW1 7364   6.127   3.517   6.804
 2155SOL    HW2 7365   5.999   3.438   6.739
 2156SOL     OW 7366   6.427   0.645   1.977
 2156SOL    HW1 7367   6.444   0.677   1.883
 2156SOL    HW2 7368   6.372   0.713   2.025
 2157SOL     OW 7369   6.188   1.130   4.464
 2157SOL    HW1 7370   6.107   1.172   4.505
 2157SOL    HW2 7371   6.184   1.031   4.478
 2158SOL     OW 7372   4.981   0.181   3.785
 2158SOL    HW1 7373   4.903   0.171   3.724
 2158SOL    HW2 7374   4.957   0.246   3.858
 2159SOL     OW 7375   2.288   0.347   5.324
 2159SOL    HW1 7376   2.271   0.263   5.375
 2159SOL    HW2 7377   2.377   0.342   5.278
 2160SOL     OW 7378   2.842   2.831   0.570
 2160SOL    HW1 7379   2.924   2.846   0.515
 2160SOL    HW2 7380   2.774   2.901   0.548
 2161SOL     OW 7381   4.867   2.547   4.163
 2161SOL    HW1 7382   4.777   2.577   4.193
 2161SOL    HW2 7383   4.913   2.621   4.115
 2162SOL     OW 7384   2.243   1.364   1.511
 2162SOL    HW1 7385   2.310   1.438   1.520
 2162SOL    HW2 7386   2.268   1.289   1.573
 2163SOL     OW 7387   2.255   1.623   0.822
 2163SOL    HW1 7388   2.334   1.680   0.843
 2163SOL    HW2 7389   2.186   1.632   0.895
 2164SOL     OW 7390   6.707   0.833   1.482
 2164SOL    HW1 7391   6.704   0.925   1.443
 2164SOL    HW2 7392   6.800   0.813   1.513
 2165SOL     OW 7393   3.129   0.009   2.200
 2165SOL    HW1 7394   3.111   0.044   2.108
 2165SOL    HW2 7395   3.103   6.938   2.205
 2166SOL     OW 7396   5.373   2.414   5.654
 2166SOL    HW1 7397   5.324   2.331   5.628
 2166SOL    HW2 7398   5.471   2.402   5.638
 2167SOL     OW 7399   3.289   1.003   0.961
 2167SOL    HW1 7400   3.251   0.940   1.029
 2167SOL    HW2 7401   3.361   1.058   1.003
 2168SOL     OW 7402   5.754   6.567   4.619
 2168SOL    HW1 7403   5.745   6.548   4.716
 2168SOL    HW2 7404   5.810   6.649   4.606
 2169SOL     OW 7405   5.674   1.183   6.074
 2169SOL    HW1 7406   5.639   1.185   6.168
 2169SOL    HW2 7407   5.645   1.266   6.026
 2170SOL     OW 7408   5.406   4.702   4.387
 2170SOL    HW1 7409   5.420   4.657   4.298
 2170SOL    HW2 7410   5.333   4.655   4.436
 2171SOL     OW 7411   6.821   3.697   0.611
 2171SOL    HW1 7412   6.756   3.702   0.535
 2171SOL    HW2 7413   6.804   3.613   0.663
 2172SOL     OW 7414   2.564   0.373   1.857
 2172SOL    HW1 7415   2.510   0.378   1.772
 2172SOL    HW2 7416   2.515   0.420   1.930
 2173SOL     OW 7417   4.694   2.456   4.797
 2173SOL    HW1 7418   4.771   2.394   4.813
 2173SOL    HW2 7419   4.634   2.455   4.877
 2174SOL     OW 7420   1.369   5.412   4.659
 2174SOL    HW1 7421   1.321   5.495   4.686
 2174SOL    HW2 7422   1.452   5.402   4.713
 2175SOL     OW 7423   1.401   5.941   5.740
 2175SOL    HW1 7424   1.305   5.937   5.713
 2175SOL    HW2 7425   1.418   6.026   5.789
 2176SOL     OW 7426   1.926   2.240   2.412
 2176SOL    HW1 7427   1.992   2.313   2.435
 2176SOL    HW2 7428   1.888   2.258   2.321
 2177SOL     OW 7429   1.138   2.021   0.651
 2177SOL    HW1 7430   1.157   1.965   0.731
 2177SOL    HW2 7431   1.087   1.967   0.584
 2178SOL     OW 7432   5.992   6.390   0.928
 2178SOL    HW1 7433   5.909   6.432   0.889
 2178SOL    HW2 7434   5.966   6.307   0.978
 2179SOL     OW 7435   1.239   4.223   4.072
 2179SOL    HW1 7436   1.241   4.296   4.141
 2179SOL    HW2 7437   1.163   4.240   4.010
 2180SOL     OW 7438   3.310   2.623   1.571
 2180SOL    HW1 7439   3.254   2.672   1.637
 2180SOL    HW2 7440   3.373   2.562   1.618
 2181SOL     OW 7441   3.363   6.658   1.558
 2181SOL    HW1 7442   3.332   6.742   1.514
 2181SOL    HW2 7443   3.333   6.656   1.653
 2182SOL     OW 7444   5.116   2.820   1.066
 2182SOL    HW1 7445   5.025   2.850   1.097
 2182SOL    HW2 7446   5.126   2.722   1.082
 2183SOL     OW 7447   3.771   2.383   1.005
 2183SOL    HW1 7448   3.745   2.377   0.909
 2183SOL    HW2 7449   3.862   2.344   1.018
 2184SOL     OW 7450   5.053   3.559   6.439
 2184SOL    HW1 7451   5.062   3.525   6.345
 2184SOL    HW2 7452   5.133   3.613   6.463
 2185SOL     OW 7453   6.625   6.765   1.934
 2185SOL    HW1 7454   6.648   6.773   1.837
 2185SOL    HW2 7455   6.697   6.805   1.990
 2186SOL     OW 7456   0.477   3.999   3.418
 2186SOL    HW1 7457   0.550   3.964   3.476
 2186SOL    HW2 7458   0.397   4.022   3.474
 2187SOL     OW 7459   6.054   1.150   0.698
 2187SOL    HW1 7460   6.034   1.124   0.604
 2187SOL    HW2 7461   6.096   1.241   0.699
 2188SOL     OW 7462   4.585   1.122   3.967
 2188SOL    HW1 7463   4.656   1.182   3.929
 2188SOL    HW2 7464   4.629   1.041   4.006
 2189SOL     OW 7465   3.282   0.154   6.819
 2189SOL    HW1 7466   3.211   0.200   6.766
 2189SOL    HW2 7467   3.260   0.162   6.916
 2190SOL     OW 7468   5.284   2.885   0.821
 2190SOL    HW1 7469   5.205   2.865   0.763
 2190SOL    HW2 7470   5.256   2.878   0.917
 2191SOL     OW 7471   2.816   1.393   0.175
 2191SOL    HW1 7472   2.837   1.484   0.138
 2191SOL    HW2 7473   2.726   1.394   0.218
 2192SOL     OW 7474   4.387   5.615   2.814
 2192SOL    HW1 7475   4.439   5.692   2.850
 2192SOL    HW2 7476   4.398   5.612   2.714
 2193SOL     OW 7477   6.835   6.165   4.553
 2193SOL    HW1 7478   6.799   6.240   4.497
 2193SOL    HW2 7479   6.865   6.091   4.493
 2194SOL     OW 7480   2.671   7.008   1.971
 2194SOL    HW1 7481   2.729   0.055   2.006
 2194SOL    HW2 7482   2.726   6.941   1.922
 2195SOL     OW 7483   0.816   4.711   2.138
 2195SOL    HW1 7484   0.819   4.698   2.038
 2195SOL    HW2 7485   0.812   4.622   2.183
 2196SOL     OW 7486   4.217   3.772   0.658
 2196SOL    HW1 7487   4.212   3.691   0.600
 2196SOL    HW2 7488   4.311   3.784   0.691
 2197SOL     OW 7489   4.389   4.107   6.991
 2197SOL    HW1 7490   4.399   4.189   0.023
 2197SOL    HW2 7491   4.304   4.061   7.014
 2198SOL     OW 7492   6.619   4.390   0.517
 2198SOL    HW1 7493   6.533   4.392   0.466
 2198SOL    HW2 7494   6.691   4.434   0.464
 2199SOL     OW 7495   4.529   1.105   3.326
 2199SOL    HW1 7496   4.573   1.027   3.282
 2199SOL    HW2 7497   4.446   1.129   3.276
 2200SOL     OW 7498   3.124   0.117   4.130
 2200SOL    HW1 7499   3.191   0.191   4.136
 2200SOL    HW2 7500   3.161   0.043   4.073
 2201SOL     OW 7501   4.812   4.087   4.016
 2201SOL    HW1 7502   4.797   4.148   3.938
 2201SOL    HW2 7503   4.763   4.122   4.096
 2202SOL     OW 7504   4.528   5.443   3.669
 2202SOL    HW1 7505   4.484   5.416   3.754
 2202SOL    HW2 7506   4.610   5.388   3.655
 2203SOL     OW 7507   3.279   2.093   2.174
 2203SOL    HW1 7508   3.182   2.112   2.157
 2203SOL    HW2 7509   3.334   2.171   2.144
 2204SOL     OW 7510   2.647   2.507   0.321
 2204SOL    HW1 7511   2.728   2.487   0.377
 2204SOL    HW2 7512   2.676   2.553   0.237
 2205SOL     OW 7513   2.813   1.150   2.076
 2205SOL    HW1 7514   2.803   1.203   1.991
 2205SOL    HW2 7515   2.774   1.059   2.063
 2206SOL     OW 7516   1.787   3.205   0.575
 2206SOL    HW1 7517   1.821   3.184   0.483
 2206SOL    HW2 7518   1.865   3.226   0.635
 2207SOL     OW 7519   6.890   4.461   4.676
 2207SOL    HW1 7520   6.934   4.422   4.756
 2207SOL    HW2 7521   6.792   4.470   4.694
 2208SOL     OW 7522   6.827   4.746   2.387
 2208SOL    HW1 7523   6.823   4.817   2.457
 2208SOL    HW2 7524   6.774   4.776   2.307
 2209SOL     OW 7525   0.253   6.684   1.653
 2209SOL    HW1 7526   0.161   6.693   1.691
 2209SOL    HW2 7527   0.307   6.764   1.676
 2210SOL     OW 7528   2.059   4.895   3.943
 2210SOL    HW1 7529   2.081   4.876   3.847
 2210SOL    HW2 7530   2.144   4.907   3.994
 2211SOL     OW 7531   6.699   2.027   4.962
 2211SOL    HW1 7532   6.775   1.972   4.997
 2211SOL    HW2 7533   6.624   1.967   4.935
 2212SOL     OW 7534   2.608   6.749   6.033
 2212SOL    HW1 7535   2.681   6.787   5.977
 2212SOL    HW2 7536   2.617   6.782   6.127
 2213SOL     OW 7537   4.680   0.646   3.117
 2213SOL    HW1 7538   4.716   0.578   3.181
 2213SOL    HW2 7539   4.595   0.613   3.078
 2214SOL     OW 7540   4.163   7.012   5.220
 2214SOL    HW1 7541   4.090   0.041   5.179
 2214SOL    HW2 7542   4.128   6.967   5.302
 2215SOL     OW 7543   5.506   2.151   5.222
 2215SOL    HW1 7544   5.529   2.115   5.132
 2215SOL    HW2 7545   5.583   2.140   5.284
 2216SOL     OW 7546   3.190   1.388   2.492
 2216SOL    HW1 7547   3.194   1.416   2.396
 2216SOL    HW2 7548   3.202   1.289   2.498
 2217SOL     OW 7549   4.114   0.606   1.795
 2217SOL    HW1 7550   4.015   0.593   1.790
 2217SOL    HW2 7551   4.138   0.692   1.750
 2218SOL     OW 7552   0.822   0.120   2.824
 2218SOL    HW1 7553   0.812   0.026   2.792
 2218SOL    HW2 7554   0.796   0.183   2.751
 2219SOL     OW 7555   1.930   1.968   2.458
 2219SOL    HW1 7556   1.927   2.068   2.446
 2219SOL    HW2 7557   1.918   1.946   2.554
 2220SOL     OW 7558   1.237   0.585   2.120
 2220SOL    HW1 7559   1.207   0.624   2.034
 2220SOL    HW2 7560   1.174   0.612   2.193
 2221SOL     OW 7561   0.344   0.650   5.960
 2221SOL    HW1 7562   0.348   0.622   6.056
 2221SOL    HW2 7563   0.255   0.623   5.922
 2222SOL     OW 7564   6.583   4.912   3.959
 2222SOL    HW1 7565   6.489   4.945   3.955
 2222SOL    HW2 7566   6.593   4.832   3.900
 2223SOL     OW 7567   6.819   6.577   1.544
 2223SOL    HW1 7568   6.884   6.526   1.487
 2223SOL    HW2 7569   6.746   6.515   1.574
 2224SOL     OW 7570   0.823   5.008   0.849
 2224SOL    HW1 7571   0.873   5.056   0.777
 2224SOL    HW2 7572   0.888   4.964   0.911
 2225SOL     OW 7573   0.827   3.698   0.176
 2225SOL    HW1 7574   0.903   3.660   0.229
 2225SOL    HW2 7575   0.822   3.652   0.088
 2226SOL     OW 7576   3.777   3.589   2.296
 2226SOL    HW1 7577   3.875   3.583   2.275
 2226SOL    HW2 7578   3.744   3.680   2.271
 2227SOL     OW 7579   1.019   2.390   3.917
 2227SOL    HW1 7580   1.082   2.347   3.852
 2227SOL    HW2 7581   0.951   2.324   3.947
 2228SOL     OW 7582   2.841   4.731   3.762
 2228SOL    HW1 7583   2.750   4.728   3.805
 2228SOL    HW2 7584   2.830   4.731   3.663
 2229SOL     OW 7585   5.800   6.482   3.100
 2229SOL    HW1 7586   5.751   6.545   3.039
 2229SOL    HW2 7587   5.886   6.455   3.057
 2230SOL     OW 7588   2.176   5.323   1.807
 2230SOL    HW1 7589   2.193   5.406   1.860
 2230SOL    HW2 7590   2.219   5.330   1.717
 2231SOL     OW 7591   2.208   5.828   1.332
 2231SOL    HW1 7592   2.221   5.765   1.408
 2231SOL    HW2 7593   2.156   5.908   1.362
 2232SOL     OW 7594   5.563   2.526   3.987
 2232SOL    HW1 7595   5.516   2.587   3.923
 2232SOL    HW2 7596   5.622   2.463   3.936
 2233SOL     OW 7597   3.470   1.046   6.729
 2233SOL    HW1 7598   3.538   1.112   6.761
 2233SOL    HW2 7599   3.438   1.072   6.637
 2234SOL     OW 7600   3.592   2.358   1.204
 2234SOL    HW1 7601   3.513   2.416   1.185
 2234SOL    HW2 7602   3.657   2.365   1.127
 2235SOL     OW 7603   2.012   1.619   2.038
 2235SOL    HW1 7604   2.052   1.613   1.947
 2235SOL    HW2 7605   1.941   1.690   2.038
 2236SOL     OW 7606   1.228   4.598   5.537
 2236SOL    HW1 7607   1.187   4.683   5.572
 2236SOL    HW2 7608   1.252   4.539   5.614
 2237SOL     OW 7609   6.639   3.263   4.530
 2237SOL    HW1 7610   6.716   3.258   4.466
 2237SOL    HW2 7611   6.561   3.214   4.492
 2238SOL     OW 7612   5.611   6.431   0.545
 2238SOL    HW1 7613   5.667   6.493   0.600
 2238SOL    HW2 7614   5.625   6.451   0.448
 2239SOL     OW 7615   6.099   6.218   1.879
 2239SOL    HW1 7616   6.022   6.282   1.880
 2239SOL    HW2 7617   6.081   6.144   1.814
 2240SOL     OW 7618   6.354   3.559   1.970
 2240SOL    HW1 7619   6.321   3.577   1.878
 2240SOL    HW2 7620   6.339   3.462   1.992
 2241SOL     OW 7621   1.051   0.539   3.748
 2241SOL    HW1 7622   0.963   0.527   3.703
 2241SOL    HW2 7623   1.107   0.457   3.735
 2242SOL     OW 7624   3.181   1.833   2.312
 2242SOL    HW1 7625   3.229   1.836   2.400
 2242SOL    HW2 7626   3.155   1.925   2.285
 2243SOL     OW 7627   2.737   0.293   5.183
 2243SOL    HW1 7628   2.773   0.222   5.123
 2243SOL    HW2 7629   2.680   0.356   5.130
 2244SOL     OW 7630   3.795   0.989   5.184
 2244SOL    HW1 7631   3.874   0.989   5.245
 2244SOL    HW2 7632   3.762   1.083   5.173
 2245SOL     OW 7633   0.424   1.987   1.709
 2245SOL    HW1 7634   0.506   2.022   1.665
 2245SOL    HW2 7635   0.450   1.918   1.777
 2246SOL     OW 7636   0.999   4.600   5.362
 2246SOL    HW1 7637   0.932   4.610   5.436
 2246SOL    HW2 7638   1.091   4.595   5.401
 2247SOL     OW 7639   1.537   1.178   4.575
 2247SOL    HW1 7640   1.450   1.182   4.526
 2247SOL    HW2 7641   1.612   1.197   4.512
 2248SOL     OW 7642   4.334   4.032   5.523
 2248SOL    HW1 7643   4.329   4.039   5.622
 2248SOL    HW2 7644   4.350   3.937   5.496
 2249SOL     OW 7645   4.180   5.795   5.763
 2249SOL    HW1 7646   4.120   5.722   5.797
 2249SOL    HW2 7647   4.193   5.863   5.834
 2250SOL     OW 7648   4.739   5.261   1.634
 2250SOL    HW1 7649   4.728   5.174   1.682
 2250SOL    HW2 7650   4.650   5.298   1.610
 2251SOL     OW 7651   0.531   0.876   6.383
 2251SOL    HW1 7652   0.482   0.880   6.470
 2251SOL    HW2 7653   0.536   0.781   6.352
 2252SOL     OW 7654   3.227   0.837   6.508
 2252SOL    HW1 7655   3.292   0.767   6.535
 2252SOL    HW2 7656   3.232   0.914   6.572
 2253SOL     OW 7657   0.948   4.131   6.506
 2253SOL    HW1 7658   0.914   4.040   6.481
 2253SOL    HW2 7659   0.937   4.192   6.428
 2254SOL     OW 7660   1.655   4.668   6.477
 2254SOL    HW1 7661   1.662   4.660   6.576
 2254SOL    HW2 7662   1.745   4.657   6.436
 2255SOL     OW 7663   6.263   3.717   6.535
 2255SOL    HW1 7664   6.359   3.698   6.555
 2255SOL    HW2 7665   6.220   3.636   6.497
 2256SOL     OW 7666   2.453   4.577   2.033
 2256SOL    HW1 7667   2.376   4.604   1.976
 2256SOL    HW2 7668   2.536   4.621   2.000
 2257SOL     OW 7669   1.680   3.670   5.032
 2257SOL    HW1 7670   1.710   3.709   5.119
 2257SOL    HW2 7671   1.651   3.744   4.971
 2258SOL     OW 7672   2.420   5.341   4.837
 2258SOL    HW1 7673   2.409   5.438   4.819
 2258SOL    HW2 7674   2.443   5.293   4.752
 2259SOL     OW 7675   6.398   2.942   6.317
 2259SOL    HW1 7676   6.492   2.966   6.293
 2259SOL    HW2 7677   6.339   3.021   6.304
 2260SOL     OW 7678   4.368   3.172   0.835
 2260SOL    HW1 7679   4.467   3.173   0.848
 2260SOL    HW2 7680   4.326   3.106   0.899
 2261SOL     OW 7681   2.596   6.312   4.969
 2261SOL    HW1 7682   2.621   6.222   5.004
 2261SOL    HW2 7683   2.623   6.319   4.873
 2262SOL     OW 7684   3.443   1.892   2.978
 2262SOL    HW1 7685   3.408   1.969   3.031
 2262SOL    HW2 7686   3.483   1.823   3.039
 2263SOL     OW 7687   1.201   4.272   6.016
 2263SOL    HW1 7688   1.142   4.346   5.986
 2263SOL    HW2 7689   1.263   4.305   6.088
 2264SOL     OW 7690   3.185   3.918   3.323
 2264SOL    HW1 7691   3.141   3.907   3.412
 2264SOL    HW2 7692   3.268   3.973   3.334
 2265SOL     OW 7693   0.374   6.770   3.778
 2265SOL    HW1 7694   0.433   6.774   3.697
 2265SOL    HW2 7695   0.418   6.815   3.855
 2266SOL     OW 7696   6.467   0.556   5.737
 2266SOL    HW1 7697   6.481   0.620   5.662
 2266SOL    HW2 7698   6.489   0.463   5.707
 2267SOL     OW 7699   5.073   1.588   5.112
 2267SOL    HW1 7700   5.151   1.645   5.138
 2267SOL    HW2 7701   4.989   1.627   5.150
 2268SOL     OW 7702   6.933   5.549   0.166
 2268SOL    HW1 7703   6.940   5.619   0.236
 2268SOL    HW2 7704   6.883   5.470   0.202
 2269SOL     OW 7705   0.355   6.711   2.982
 2269SOL    HW1 7706   0.366   6.763   3.067
 2269SOL    HW2 7707   0.287   6.640   2.995
 2270SOL     OW 7708   3.911   2.995   3.483
 2270SOL    HW1 7709   3.971   3.074   3.486
 2270SOL    HW2 7710   3.871   2.986   3.392
 2271SOL     OW 7711   1.267   4.820   3.363
 2271SOL    HW1 7712   1.201   4.879   3.410
 2271SOL    HW2 7713   1.287   4.740   3.420
 2272SOL     OW 7714   5.046   0.993   5.830
 2272SOL    HW1 7715   5.119   1.054   5.798
 2272SOL    HW2 7716   4.975   0.986   5.759
 2273SOL     OW 7717   0.616   1.032   2.405
 2273SOL    HW1 7718   0.637   1.052   2.309
 2273SOL    HW2 7719   0.588   0.936   2.413
 2274SOL     OW 7720   0.918   4.030   3.567
 2274SOL    HW1 7721   0.984   3.994   3.501
 2274SOL    HW2 7722   0.967   4.062   3.648
 2275SOL     OW 7723   5.139   6.283   4.025
 2275SOL    HW1 7724   5.230   6.294   4.066
 2275SOL    HW2 7725   5.116   6.365   3.973
 2276SOL     OW 7726   3.136   5.865   2.351
 2276SOL    HW1 7727   3.128   5.921   2.433
 2276SOL    HW2 7728   3.095   5.775   2.368
 2277SOL     OW 7729   3.208   3.258   1.888
 2277SOL    HW1 7730   3.250   3.345   1.916
 2277SOL    HW2 7731   3.275   3.205   1.835
 2278SOL     OW 7732   4.128   5.502   1.468
 2278SOL    HW1 7733   4.065   5.556   1.413
 2278SOL    HW2 7734   4.208   5.558   1.491
 2279SOL     OW 7735   5.416   4.198   5.721
 2279SOL    HW1 7736   5.464   4.286   5.722
 2279SOL    HW2 7737   5.391   4.174   5.627
 2280SOL     OW 7738   5.362   0.253   5.936
 2280SOL    HW1 7739   5.348   0.183   5.866
 2280SOL    HW2 7740   5.441   0.229   5.992
 2281SOL     OW 7741   2.142   1.029   6.989
 2281SOL    HW1 7742   2.147   0.966   0.041
 2281SOL    HW2 7743   2.148   0.978   6.903
 2282SOL     OW 7744   4.106   5.629   2.873
 2282SOL    HW1 7745   4.200   5.601   2.858
 2282SOL    HW2 7746   4.083   5.705   2.812
 2283SOL     OW 7747   0.709   3.345   1.996
 2283SOL    HW1 7748   0.716   3.245   1.992
 2283SOL    HW2 7749   0.732   3.375   2.089
 2284SOL     OW 7750   2.157   2.259   1.788
 2284SOL    HW1 7751   2.242   2.307   1.808
 2284SOL    HW2 7752   2.176   2.162   1.772
 2285SOL     OW 7753   1.704   3.463   6.498
 2285SOL    HW1 7754   1.689   3.466   6.399
 2285SOL    HW2 7755   1.682   3.372   6.532
 2286SOL     OW 7756   6.850   6.662   4.369
 2286SOL    HW1 7757   6.869   6.563   4.368
 2286SOL    HW2 7758   6.936   6.712   4.375
 2287SOL     OW 7759   2.328   2.006   0.632
 2287SOL    HW1 7760   2.252   1.994   0.696
 2287SOL    HW2 7761   2.293   2.040   0.545
 2288SOL     OW 7762   2.772   5.950   4.514
 2288SOL    HW1 7763   2.751   5.874   4.575
 2288SOL    HW2 7764   2.783   6.034   4.567
 2289SOL     OW 7765   3.894   0.841   6.883
 2289SOL    HW1 7766   3.899   0.743   6.863
 2289SOL    HW2 7767   3.802   0.874   6.866
 2290SOL     OW 7768   3.255   3.805   4.527
 2290SOL    HW1 7769   3.258   3.705   4.521
 2290SOL    HW2 7770   3.347   3.842   4.518
 2291SOL     OW 7771   2.427   2.721   0.151
 2291SOL    HW1 7772   2.460   2.765   0.234
 2291SOL    HW2 7773   2.462   2.769   0.071
 2292SOL     OW 7774   4.838   2.040   3.288
 2292SOL    HW1 7775   4.797   1.964   3.338
 2292SOL    HW2 7776   4.888   2.005   3.209
 2293SOL     OW 7777   0.547   1.251   6.176
 2293SOL    HW1 7778   0.593   1.337   6.197
 2293SOL    HW2 7779   0.463   1.270   6.124
 2294SOL     OW 7780   6.487   1.791   4.965
 2294SOL    HW1 7781   6.496   1.758   5.059
 2294SOL    HW2 7782   6.390   1.800   4.942
 2295SOL     OW 7783   5.283   5.822   0.787
 2295SOL    HW1 7784   5.366   5.788   0.832
 2295SOL    HW2 7785   5.269   5.773   0.701
 2296SOL     OW 7786   3.672   5.543   4.859
 2296SOL    HW1 7787   3.693   5.598   4.940
 2296SOL    HW2 7788   3.746   5.478   4.842
 2297SOL     OW 7789   6.142   3.321   6.131
 2297SOL    HW1 7790   6.228   3.373   6.123
 2297SOL    HW2 7791   6.066   3.384   6.140
 2298SOL     OW 7792   2.803   3.318   5.369
 2298SOL    HW1 7793   2.703   3.316   5.358
 2298SOL    HW2 7794   2.827   3.376   5.447
 2299SOL     OW 7795   6.070   3.636   4.589
 2299SOL    HW1 7796   6.074   3.637   4.489
 2299SOL    HW2 7797   5.991   3.582   4.619
 2300SOL     OW 7798   5.418   0.125   2.926
 2300SOL    HW1 7799   5.332   0.126   2.875
 2300SOL    HW2 7800   5.433   0.216   2.966
 2301SOL     OW 7801   3.762   3.462   5.069
 2301SOL    HW1 7802   3.751   3.385   5.131
 2301SOL    HW2 7803   3.715   3.443   4.983
 2302SOL     OW 7804   6.813   3.028   6.080
 2302SOL    HW1 7805   6.844   3.116   6.045
 2302SOL    HW2 7806   6.741   3.043   6.149
 2303SOL     OW 7807   2.741   1.737   6.509
 2303SOL    HW1 7808   2.646   1.767   6.500
 2303SOL    HW2 7809   2.752   1.647   6.467
 2304SOL     OW 7810   6.333   0.081   2.444
 2304SOL    HW1 7811   6.338   0.046   2.538
 2304SOL    HW2 7812   6.266   0.028   2.392
 2305SOL     OW 7813   3.057   6.972   5.148
 2305SOL    HW1 7814   3.061   6.873   5.158
 2305SOL    HW2 7815   2.967   6.998   5.115
 2306SOL     OW 7816   1.681   4.178   4.621
 2306SOL    HW1 7817   1.619   4.242   4.666
 2306SOL    HW2 7818   1.722   4.118   4.690
 2307SOL     OW 7819   6.757   3.633   4.513
 2307SOL    HW1 7820   6.727   3.692   4.587
 2307SOL    HW2 7821   6.821   3.564   4.548
 2308SOL     OW 7822   0.623   5.578   2.080
 2308SOL    HW1 7823   0.611   5.671   2.045
 2308SOL    HW2 7824   0.698   5.576   2.145
 2309SOL     OW 7825   1.949   0.361   4.816
 2309SOL    HW1 7826   1.963   0.457   4.841
 2309SOL    HW2 7827   1.919   0.355   4.721
 2310SOL     OW 7828   4.071   6.894   0.403
 2310SOL    HW1 7829   4.090   6.987   0.370
 2310SOL    HW2 7830   4.121   6.878   0.489
 2311SOL     OW 7831   2.238   5.892   0.840
 2311SOL    HW1 7832   2.238   5.991   0.853
 2311SOL    HW2 7833   2.257   5.847   0.927
 2312SOL     OW 7834   3.304   4.891   2.779
 2312SOL    HW1 7835   3.373   4.823   2.754
 2312SOL    HW2 7836   3.282   4.947   2.700
 2313SOL     OW 7837   4.589   4.892   1.381
 2313SOL    HW1 7838   4.508   4.945   1.409
 2313SOL    HW2 7839   4.593   4.808   1.435
 2314SOL     OW 7840   2.498   4.434   3.300
 2314SOL    HW1 7841   2.568   4.378   3.256
 2314SOL    HW2 7842   2.530   4.464   3.390
 2315SOL     OW 7843   4.930   1.861   6.713
 2315SOL    HW1 7844   4.900   1.956   6.721
 2315SOL    HW2 7845   4.892   1.808   6.790
 2316SOL     OW 7846   4.895   3.582   2.147
 2316SOL    HW1 7847   4.914   3.505   2.209
 2316SOL    HW2 7848   4.971   3.647   2.152
 2317SOL     OW 7849   0.252   6.144   3.792
 2317SOL    HW1 7850   0.214   6.129   3.701
 2317SOL    HW2 7851   0.226   6.235   3.825
 2318SOL     OW 7852   0.312   1.252   3.785
 2318SOL    HW1 7853   0.276   1.294   3.702
 2318SOL    HW2 7854   0.410   1.238   3.775
 2319SOL     OW 7855   1.252   4.758   1.569
 2319SOL    HW1 7856   1.327   4.740   1.506
 2319SOL    HW2 7857   1.165   4.760   1.519
 2320SOL     OW 7858   6.250   4.755   4.492
 2320SOL    HW1 7859   6.258   4.735   4.589
 2320SOL    HW2 7860   6.206   4.845   4.480
 2321SOL     OW 7861   3.778   5.023   4.174
 2321SOL    HW1 7862   3.854   5.087   4.182
 2321SOL    HW2 7863   3.765   5.000   4.077
 2322SOL     OW 7864   2.805   0.908   4.630
 2322SOL    HW1 7865   2.843   0.844   4.563
 2322SOL    HW2 7866   2.735   0.965   4.585
 2323SOL     OW 7867   4.908   3.621   1.865
 2323SOL    HW1 7868   4.879   3.582   1.952
 2323SOL    HW2 7869   4.994   3.670   1.878
 2324SOL     OW 7870   0.927   5.243   4.079
 2324SOL    HW1 7871   0.857   5.280   4.018
 2324SOL    HW2 7872   1.018   5.260   4.040
 2325SOL     OW 7873   0.453   2.243   0.521
 2325SOL    HW1 7874   0.526   2.244   0.452
 2325SOL    HW2 7875   0.373   2.196   0.484
 2326SOL     OW 7876   0.831   4.246   0.724
 2326SOL    HW1 7877   0.855   4.237   0.628
 2326SOL    HW2 7878   0.891   4.187   0.779
 2327SOL     OW 7879   5.103   1.139   3.613
 2327SOL    HW1 7880   5.179   1.128   3.548
 2327SOL    HW2 7881   5.024   1.087   3.580
 2328SOL     OW 7882   6.349   5.040   3.931
 2328SOL    HW1 7883   6.367   5.070   4.025
 2328SOL    HW2 7884   6.286   5.103   3.887
 2329SOL     OW 7885   1.323   5.913   3.616
 2329SOL    HW1 7886   1.398   5.852   3.643
 2329SOL    HW2 7887   1.360   5.993   3.569
 2330SOL     OW 7888   1.392   4.698   0.579
 2330SOL    HW1 7889   1.311   4.690   0.637
 2330SOL    HW2 7890   1.436   4.608   0.571
 2331SOL     OW 7891   0.929   4.781   5.143
 2331SOL    HW1 7892   0.934   4.737   5.233
 2331SOL    HW2 7893   1.008   4.754   5.088
 2332SOL     OW 7894   5.612   3.272   5.806
 2332SOL    HW1 7895   5.586   3.329   5.885
 2332SOL    HW2 7896   5.708   3.290   5.783
 2333SOL     OW 7897   2.625   4.564   3.524
 2333SOL    HW1 7898   2.682   4.645   3.539
 2333SOL    HW2 7899   2.578   4.539   3.609
 2334SOL     OW 7900   2.385   0.422   6.004
 2334SOL    HW1 7901   2.447   0.492   5.969
 2334SOL    HW2 7902   2.306   0.466   6.047
 2335SOL     OW 7903   4.542   4.411   4.434
 2335SOL    HW1 7904   4.533   4.343   4.507
 2335SOL    HW2 7905   4.629   4.459   4.444
 2336SOL     OW 7906   4.154   2.931   5.692
 2336SOL    HW1 7907   4.216   3.005   5.718
 2336SOL    HW2 7908   4.113   2.952   5.603
 2337SOL     OW 7909   5.945   0.354   4.629
 2337SOL    HW1 7910   6.044   0.355   4.616
 2337SOL    HW2 7911   5.901   0.324   4.544
 2338SOL     OW 7912   1.612   6.892   6.709
 2338SOL    HW1 7913   1.625   6.975   6.655
 2338SOL    HW2 7914   1.581   6.916   6.801
 2339SOL     OW 7915   4.036   5.141   0.011
 2339SOL    HW1 7916   4.106   5.144   6.965
 2339SOL    HW2 7917   3.984   5.226   0.010
 2340SOL     OW 7918   3.360   5.294   4.413
 2340SOL    HW1 7919   3.399   5.239   4.487
 2340SOL    HW2 7920   3.315   5.374   4.451
 2341SOL     OW 7921   5.950   5.073   6.480
 2341SOL    HW1 7922   5.868   5.081   6.423
 2341SOL    HW2 7923   5.934   5.115   6.569
 2342SOL     OW 7924   6.613   1.121   5.435
 2342SOL    HW1 7925   6.538   1.153   5.377
 2342SOL    HW2 7926   6.631   1.024   5.417
 2343SOL     OW 7927   0.979   6.968   0.349
 2343SOL    HW1 7928   1.046   6.943   0.280
 2343SOL    HW2 7929   0.975   6.896   0.419
 2344SOL     OW 7930   2.379   0.968   2.836
 2344SOL    HW1 7931   2.286   0.986   2.804
 2344SOL    HW2 7932   2.441   1.036   2.799
 2345SOL     OW 7933   1.037   2.095   1.980
 2345SOL    HW1 7934   0.941   2.119   1.964
 2345SOL    HW2 7935   1.050   1.997   1.964
 2346SOL     OW 7936   4.658   3.357   5.579
 2346SOL    HW1 7937   4.642   3.337   5.482
 2346SOL    HW2 7938   4.706   3.280   5.621
 2347SOL     OW 7939   1.898   3.591   0.620
 2347SOL    HW1 7940   1.970   3.567   0.686
 2347SOL    HW2 7941   1.808   3.578   0.663
 2348SOL     OW 7942   2.134   6.592   1.957
 2348SOL    HW1 7943   2.169   6.534   1.884
 2348SOL    HW2 7944   2.211   6.636   2.004
 2349SOL     OW 7945   5.193   3.884   6.835
 2349SOL    HW1 7946   5.134   3.954   6.875
 2349SOL    HW2 7947   5.281   3.925   6.809
 2350SOL     OW 7948   2.358   6.236   5.108
 2350SOL    HW1 7949   2.287   6.291   5.065
 2350SOL    HW2 7950   2.447   6.276   5.089
 2351SOL     OW 7951   1.721   5.192   2.873
 2351SOL    HW1 7952   1.621   5.194   2.873
 2351SOL    HW2 7953   1.756   5.286   2.872
 2352SOL     OW 7954   5.474   4.940   0.688
 2352SOL    HW1 7955   5.474   4.893   0.600
 2352SOL    HW2 7956   5.400   5.008   0.689
 2353SOL     OW 7957   2.439   3.241   5.927
 2353SOL    HW1 7958   2.519   3.182   5.941
 2353SOL    HW2 7959   2.468   3.328   5.887
 2354SOL     OW 7960   4.408   1.666   2.110
 2354SOL    HW1 7961   4.468   1.721   2.052
 2354SOL    HW2 7962   4.329   1.721   2.138
 2355SOL     OW 7963   0.307   1.604   1.736
 2355SOL    HW1 7964   0.304   1.640   1.642
 2355SOL    HW2 7965   0.228   1.637   1.787
 2356SOL     OW 7966   3.016   5.166   3.746
 2356SOL    HW1 7967   3.060   5.089   3.793
 2356SOL    HW2 7968   2.988   5.235   3.814
 2357SOL     OW 7969   1.106   4.940   0.611
 2357SOL    HW1 7970   1.150   4.917   0.698
 2357SOL    HW2 7971   1.092   4.856   0.558
 2358SOL     OW 7972   2.980   0.833   4.980
 2358SOL    HW1 7973   3.054   0.814   5.045
 2358SOL    HW2 7974   2.932   0.748   4.960
 2359SOL     OW 7975   1.912   2.084   5.787
 2359SOL    HW1 7976   1.950   2.008   5.734
 2359SOL    HW2 7977   1.891   2.053   5.880
 2360SOL     OW 7978   2.986   4.965   1.219
 2360SOL    HW1 7979   2.922   5.041   1.226
 2360SOL    HW2 7980   2.936   4.881   1.196
 2361SOL     OW 7981   3.485   5.879   1.076
 2361SOL    HW1 7982   3.462   5.802   1.017
 2361SOL    HW2 7983   3.439   5.868   1.164
 2362SOL     OW 7984   3.221   4.926   4.097
 2362SOL    HW1 7985   3.320   4.941   4.100
 2362SOL    HW2 7986   3.180   4.956   4.183
 2363SOL     OW 7987   2.296   3.888   0.907
 2363SOL    HW1 7988   2.230   3.963   0.915
 2363SOL    HW2 7989   2.345   3.896   0.821
 2364SOL     OW 7990   4.063   1.567   2.377
 2364SOL    HW1 7991   3.987   1.629   2.397
 2364SOL    HW2 7992   4.121   1.607   2.307
 2365SOL     OW 7993   5.820   4.308   3.132
 2365SOL    HW1 7994   5.837   4.300   3.034
 2365SOL    HW2 7995   5.724   4.331   3.148
 2366SOL     OW 7996   2.891   5.344   5.138
 2366SOL    HW1 7997   2.987   5.350   5.166
 2366SOL    HW2 7998   2.886   5.303   5.047
 2367SOL     OW 7999   6.177   5.007   5.565
 2367SOL    HW1 8000   6.078   5.015   5.565
 2367SOL    HW2 8001   6.218   5.098   5.561
 2368SOL     OW 8002   5.048   0.907   4.959
 2368SOL    HW1 8003   5.134   0.899   4.908
 2368SOL    HW2 8004   4.973   0.875   4.902
 2369SOL     OW 8005   3.829   2.111   4.369
 2369SOL    HW1 8006   3.760   2.167   4.323
 2369SOL    HW2 8007   3.810   2.108   4.467
 2370SOL     OW 8008   5.461   1.915   1.931
 2370SOL    HW1 8009   5.394   1.840   1.933
 2370SOL    HW2 8010   5.489   1.931   1.836
 2371SOL     OW 8011   1.319   6.841   1.754
 2371SOL    HW1 8012   1.373   6.897   1.692
 2371SOL    HW2 8013   1.344   6.863   1.848
 2372SOL     OW 8014   6.626   0.294   5.861
 2372SOL    HW1 8015   6.675   0.368   5.814
 2372SOL    HW2 8016   6.639   0.303   5.959
 2373SOL     OW 8017   5.824   4.198   5.821
 2373SOL    HW1 8018   5.756   4.143   5.871
 2373SOL    HW2 8019   5.845   4.280   5.874
 2374SOL     OW 8020   6.710   6.386   2.188
 2374SOL    HW1 8021   6.650   6.310   2.214
 2374SOL    HW2 8022   6.706   6.398   2.089
 2375SOL     OW 8023   1.543   0.113   4.115
 2375SOL    HW1 8024   1.533   0.036   4.179
 2375SOL    HW2 8025   1.613   0.175   4.150
 2376SOL     OW 8026   4.891   2.531   3.385
 2376SOL    HW1 8027   4.807   2.558   3.433
 2376SOL    HW2 8028   4.939   2.462   3.439
 2377SOL     OW 8029   4.214   4.003   5.974
 2377SOL    HW1 8030   4.267   4.087   5.960
 2377SOL    HW2 8031   4.137   4.000   5.910
 2378SOL     OW 8032   0.474   0.720   0.523
 2378SOL    HW1 8033   0.527   0.770   0.455
 2378SOL    HW2 8034   0.495   0.756   0.614
 2379SOL     OW 8035   0.643   4.776   2.683
 2379SOL    HW1 8036   0.730   4.826   2.687
 2379SOL    HW2 8037   0.656   4.685   2.724
 2380SOL     OW 8038   4.350   5.812   6.689
 2380SOL    HW1 8039   4.317   5.720   6.712
 2380SOL    HW2 8040   4.328   5.875   6.764
 2381SOL     OW 8041   2.132   3.370   3.960
 2381SOL    HW1 8042   2.095   3.277   3.951
 2381SOL    HW2 8043   2.126   3.399   4.056
 2382SOL     OW 8044   0.191   4.997   3.288
 2382SOL    HW1 8045   0.241   5.063   3.344
 2382SOL    HW2 8046   0.226   4.998   3.195
 2383SOL     OW 8047   4.725   4.064   5.871
 2383SOL    HW1 8048   4.707   4.098   5.779
 2383SOL    HW2 8049   4.650   4.005   5.901
 2384SOL     OW 8050   0.469   2.327   2.471
 2384SOL    HW1 8051   0.491   2.262   2.544
 2384SOL    HW2 8052   0.554   2.356   2.426
 2385SOL     OW 8053   0.238   0.985   6.817
 2385SOL    HW1 8054   0.269   0.890   6.823
 2385SOL    HW2 8055   0.315   1.044   6.793
 2386SOL     OW 8056   5.976   5.659   5.141
 2386SOL    HW1 8057   5.984   5.666   5.240
 2386SOL    HW2 8058   6.032   5.581   5.109
 2387SOL     OW 8059   0.738   0.462   3.603
 2387SOL    HW1 8060   0.776   0.523   3.534
 2387SOL    HW2 8061   0.641   0.483   3.617
 2388SOL     OW 8062   0.903   3.470   5.643
 2388SOL    HW1 8063   0.856   3.542   5.592
 2388SOL    HW2 8064   0.931   3.506   5.732
 2389SOL     OW 8065   4.233   5.319   3.598
 2389SOL    HW1 8066   4.316   5.373   3.611
 2389SOL    HW2 8067   4.228   5.286   3.504
 2390SOL     OW 8068   5.095   2.469   6.242
 2390SOL    HW1 8069   5.011   2.512   6.277
 2390SOL    HW2 8070   5.102   2.484   6.144
 2391SOL     OW 8071   3.271   3.877   6.623
 2391SOL    HW1 8072   3.241   3.805   6.561
 2391SOL    HW2 8073   3.207   3.954   6.617
 2392SOL     OW 8074   3.783   5.106   5.990
 2392SOL    HW1 8075   3.792   5.050   6.073
 2392SOL    HW2 8076   3.778   5.202   6.015
 2393SOL     OW 8077   3.746   4.568   0.373
 2393SOL    HW1 8078   3.725   4.543   0.279
 2393SOL    HW2 8079   3.724   4.491   0.433
 2394SOL     OW 8080   6.459   1.384   3.719
 2394SOL    HW1 8081   6.380   1.445   3.710
 2394SOL    HW2 8082   6.516   1.391   3.637
 2395SOL     OW 8083   1.709   2.627   3.889
 2395SOL    HW1 8084   1.648   2.705   3.873
 2395SOL    HW2 8085   1.657   2.552   3.930
 2396SOL     OW 8086   6.723   0.350   6.554
 2396SOL    HW1 8087   6.636   0.335   6.602
 2396SOL    HW2 8088   6.799   0.337   6.617
 2397SOL     OW 8089   2.401   4.580   4.998
 2397SOL    HW1 8090   2.378   4.500   5.054
 2397SOL    HW2 8091   2.388   4.663   5.051
 2398SOL     OW 8092   3.960   5.967   4.445
 2398SOL    HW1 8093   3.927   5.948   4.353
 2398SOL    HW2 8094   4.056   5.942   4.452
 2399SOL     OW 8095   2.984   1.510   2.669
 2399SOL    HW1 8096   2.959   1.532   2.575
 2399SOL    HW2 8097   3.046   1.432   2.670
 2400SOL     OW 8098   1.332   3.381   0.405
 2400SOL    HW1 8099   1.309   3.405   0.311
 2400SOL    HW2 8100   1.430   3.392   0.420
 2401SOL     OW 8101   2.082   6.241   6.900
 2401SOL    HW1 8102   1.990   6.204   6.917
 2401SOL    HW2 8103   2.073   6.329   6.854
 2402SOL     OW 8104   1.192   4.116   2.348
 2402SOL    HW1 8105   1.238   4.202   2.371
 2402SOL    HW2 8106   1.215   4.091   2.254
 2403SOL     OW 8107   3.054   4.040   5.408
 2403SOL    HW1 8108   2.985   4.105   5.378
 2403SOL    HW2 8109   3.095   3.996   5.329
 2404SOL     OW 8110   5.915   1.639   1.305
 2404SOL    HW1 8111   6.001   1.684   1.329
 2404SOL    HW2 8112   5.843   1.668   1.367
 2405SOL     OW 8113   2.112   2.921   0.609
 2405SOL    HW1 8114   2.153   3.007   0.639
 2405SOL    HW2 8115   2.061   2.880   0.685
 2406SOL     OW 8116   3.813   5.298   4.804
 2406SOL    HW1 8117   3.896   5.309   4.750
 2406SOL    HW2 8118   3.743   5.253   4.748
 2407SOL     OW 8119   2.209   1.780   3.474
 2407SOL    HW1 8120   2.204   1.836   3.392
 2407SOL    HW2 8121   2.207   1.683   3.448
 2408SOL     OW 8122   3.675   0.386   6.024
 2408SOL    HW1 8123   3.594   0.360   5.971
 2408SOL    HW2 8124   3.746   0.422   5.962
 2409SOL     OW 8125   0.751   3.110   6.729
 2409SOL    HW1 8126   0.706   3.046   6.668
 2409SOL    HW2 8127   0.846   3.081   6.744
 2410SOL     OW 8128   6.936   3.389   4.501
 2410SOL    HW1 8129   6.898   3.326   4.434
 2410SOL    HW2 8130   6.933   3.347   4.592
 2411SOL     OW 8131   3.100   1.671   6.915
 2411SOL    HW1 8132   3.015   1.643   6.960
 2411SOL    HW2 8133   3.128   1.600   6.851
 2412SOL     OW 8134   3.680   2.613   6.171
 2412SOL    HW1 8135   3.726   2.677   6.110
 2412SOL    HW2 8136   3.700   2.636   6.266
 2413SOL     OW 8137   0.316   3.693   6.858
 2413SOL    HW1 8138   0.349   3.729   6.770
 2413SOL    HW2 8139   0.217   3.707   6.864
 2414SOL     OW 8140   6.984   1.363   5.669
 2414SOL    HW1 8141   6.990   1.441   5.732
 2414SOL    HW2 8142   0.028   1.295   5.693
 2415SOL     OW 8143   3.200   4.750   6.596
 2415SOL    HW1 8144   3.108   4.779   6.622
 2415SOL    HW2 8145   3.224   4.790   6.508
 2416SOL     OW 8146   0.464   2.370   3.230
 2416SOL    HW1 8147   0.400   2.445   3.246
 2416SOL    HW2 8148   0.557   2.401   3.247
 2417SOL     OW 8149   3.357   2.461   1.126
 2417SOL    HW1 8150   3.305   2.509   1.197
 2417SOL    HW2 8151   3.316   2.372   1.109
 2418SOL     OW 8152   5.243   4.518   6.839
 2418SOL    HW1 8153   5.158   4.545   6.883
 2418SOL    HW2 8154   5.320   4.540   6.898
 2419SOL     OW 8155   3.311   1.010   3.302
 2419SOL    HW1 8156   3.314   1.101   3.261
 2419SOL    HW2 8157   3.367   0.947   3.248
 2420SOL     OW 8158   1.569   3.679   2.676
 2420SOL    HW1 8159   1.520   3.691   2.590
 2420SOL    HW2 8160   1.667   3.669   2.659
 2421SOL     OW 8161   2.901   6.946   3.645
 2421SOL    HW1 8162   2.990   6.939   3.690
 2421SOL    HW2 8163   2.834   6.891   3.694
 2422SOL     OW 8164   4.132   5.854   0.381
 2422SOL    HW1 8165   4.085   5.941   0.365
 2422SOL    HW2 8166   4.079   5.798   0.445
 2423SOL     OW 8167   2.713   5.371   4.105
 2423SOL    HW1 8168   2.670   5.303   4.164
 2423SOL    HW2 8169   2.644   5.415   4.048
 2424SOL     OW 8170   5.009   6.675   6.259
 2424SOL    HW1 8171   5.076   6.635   6.322
 2424SOL    HW2 8172   5.050   6.684   6.168
 2425SOL     OW 8173   4.033   5.568   5.131
 2425SOL    HW1 8174   4.090   5.584   5.211
 2425SOL    HW2 8175   4.072   5.614   5.052
 2426SOL     OW 8176   2.944   2.128   5.128
 2426SOL    HW1 8177   3.025   2.164   5.081
 2426SOL    HW2 8178   2.881   2.203   5.148
 2427SOL     OW 8179   4.844   1.796   0.506
 2427SOL    HW1 8180   4.753   1.789   0.464
 2427SOL    HW2 8181   4.875   1.705   0.533
 2428SOL     OW 8182   1.592   1.632   3.044
 2428SOL    HW1 8183   1.492   1.637   3.035
 2428SOL    HW2 8184   1.632   1.718   3.012
 2429SOL     OW 8185   5.954   6.147   1.084
 2429SOL    HW1 8186   6.017   6.173   1.157
 2429SOL    HW2 8187   5.904   6.065   1.111
 2430SOL     OW 8188   6.388   0.720   6.448
 2430SOL    HW1 8189   6.290   0.709   6.432
 2430SOL    HW2 8190   6.438   0.689   6.368
 2431SOL     OW 8191   1.180   3.207   1.992
 2431SOL    HW1 8192   1.152   3.176   1.901
 2431SOL    HW2 8193   1.143   3.145   2.061
 2432SOL     OW 8194   2.145   5.383   2.146
 2432SOL    HW1 8195   2.071   5.391   2.079
 2432SOL    HW2 8196   2.185   5.473   2.163
 2433SOL     OW 8197   0.610   4.265   5.020
 2433SOL    HW1 8198   0.650   4.339   4.965
 2433SOL    HW2 8199   0.627   4.177   4.975
 2434SOL     OW 8200   4.625   1.254   3.524
 2434SOL    HW1 8201   4.554   1.274   3.591
 2434SOL    HW2 8202   4.590   1.187   3.458
 2435SOL     OW 8203   6.035   6.733   6.522
 2435SOL    HW1 8204   5.997   6.778   6.441
 2435SOL    HW2 8205   6.096   6.797   6.570
 2436SOL     OW 8206   0.281   3.396   0.368
 2436SOL    HW1 8207   0.242   3.480   0.330
 2436SOL    HW2 8208   0.210   3.343   0.414
 2437SOL     OW 8209   0.289   4.020   1.095
 2437SOL    HW1 8210   0.321   4.052   1.006
 2437SOL    HW2 8211   0.194   3.990   1.087
 2438SOL     OW 8212   3.682   1.452   4.850
 2438SOL    HW1 8213   3.609   1.507   4.892
 2438SOL    HW2 8214   3.725   1.504   4.776
 2439SOL     OW 8215   0.549   5.538   1.183
 2439SOL    HW1 8216   0.562   5.451   1.136
 2439SOL    HW2 8217   0.570   5.527   1.280
 2440SOL     OW 8218   6.410   1.248   5.262
 2440SOL    HW1 8219   6.395   1.307   5.342
 2440SOL    HW2 8220   6.464   1.298   5.194
 2441SOL     OW 8221   6.519   0.828   0.805
 2441SOL    HW1 8222   6.460   0.762   0.850
 2441SOL    HW2 8223   6.476   0.919   0.808
 2442SOL     OW 8224   5.272   3.423   2.336
 2442SOL    HW1 8225   5.281   3.412   2.237
 2442SOL    HW2 8226   5.179   3.397   2.364
 2443SOL     OW 8227   0.543   3.458   1.370
 2443SOL    HW1 8228   0.529   3.407   1.285
 2443SOL    HW2 8229   0.456   3.493   1.403
 2444SOL     OW 8230   3.348   5.653   2.605
 2444SOL    HW1 8231   3.270   5.590   2.600
 2444SOL    HW2 8232   3.338   5.711   2.686
 2445SOL     OW 8233   0.451   2.223   0.795
 2445SOL    HW1 8234   0.462   2.226   0.696
 2445SOL    HW2 8235   0.540   2.229   0.839
 2446SOL     OW 8236   0.125   5.899   1.807
 2446SOL    HW1 8237   0.077   5.960   1.870
 2446SOL    HW2 8238   0.192   5.845   1.858
 2447SOL     OW 8239   1.745   6.926   0.599
 2447SOL    HW1 8240   1.766   6.852   0.662
 2447SOL    HW2 8241   1.773   6.901   0.506
 2448SOL     OW 8242   5.905   0.917   4.370
 2448SOL    HW1 8243   5.846   0.879   4.441
 2448SOL    HW2 8244   5.899   1.016   4.371
 2449SOL     OW 8245   1.759   4.410   0.730
 2449SOL    HW1 8246   1.675   4.460   0.707
 2449SOL    HW2 8247   1.762   4.324   0.679
 2450SOL     OW 8248   0.717   6.482   4.877
 2450SOL    HW1 8249   0.765   6.570   4.884
 2450SOL    HW2 8250   0.772   6.419   4.822
 2451SOL     OW 8251   2.000   6.573   5.977
 2451SOL    HW1 8252   1.999   6.488   6.031
 2451SOL    HW2 8253   2.085   6.579   5.925
 2452SOL     OW 8254   2.294   1.604   4.344
 2452SOL    HW1 8255   2.326   1.691   4.383
 2452SOL    HW2 8256   2.337   1.528   4.393
 2453SOL     OW 8257   1.365   2.055   5.588
 2453SOL    HW1 8258   1.428   2.132   5.576
 2453SOL    HW2 8259   1.275   2.080   5.553
 2454SOL     OW 8260   3.136   6.109   1.012
 2454SOL    HW1 8261   3.094   6.171   1.078
 2454SOL    HW2 8262   3.067   6.082   0.944
 2455SOL     OW 8263   4.232   2.121   0.858
 2455SOL    HW1 8264   4.323   2.101   0.896
 2455SOL    HW2 8265   4.177   2.037   0.858
 2456SOL     OW 8266   0.543   3.639   5.847
 2456SOL    HW1 8267   0.520   3.681   5.935
 2456SOL    HW2 8268   0.641   3.618   5.845
 2457SOL     OW 8269   3.983   1.905   5.667
 2457SOL    HW1 8270   3.952   1.842   5.738
 2457SOL    HW2 8271   4.034   1.855   5.597
 2458SOL     OW 8272   0.370   6.768   2.371
 2458SOL    HW1 8273   0.421   6.801   2.450
 2458SOL    HW2 8274   0.365   6.840   2.302
 2459SOL     OW 8275   1.907   0.045   1.189
 2459SOL    HW1 8276   1.962   0.120   1.225
 2459SOL    HW2 8277   1.963   7.015   1.128
 2460SOL     OW 8278   0.562   0.748   4.159
 2460SOL    HW1 8279   0.484   0.736   4.221
 2460SOL    HW2 8280   0.646   0.722   4.206
 2461SOL     OW 8281   3.677   1.419   3.887
 2461SOL    HW1 8282   3.731   1.503   3.894
 2461SOL    HW2 8283   3.694   1.375   3.799
 2462SOL     OW 8284   0.687   5.255   0.628
 2462SOL    HW1 8285   0.634   5.322   0.575
 2462SOL    HW2 8286   0.766   5.225   0.574
 2463SOL     OW 8287   6.716   0.047   0.486
 2463SOL    HW1 8288   6.659   0.119   0.446
 2463SOL    HW2 8289   6.680   0.023   0.576
 2464SOL     OW 8290   0.817   2.532   4.296
 2464SOL    HW1 8291   0.771   2.552   4.209
 2464SOL    HW2 8292   0.868   2.612   4.327
 2465SOL     OW 8293   6.626   6.918   6.669
 2465SOL    HW1 8294   6.650   6.876   6.756
 2465SOL    HW2 8295   6.586   7.008   6.685
 2466SOL     OW 8296   0.671   2.058   1.872
 2466SOL    HW1 8297   0.630   1.970   1.894
 2466SOL    HW2 8298   0.717   2.052   1.783
 2467SOL     OW 8299   5.221   3.139   4.941
 2467SOL    HW1 8300   5.143   3.196   4.915
 2467SOL    HW2 8301   5.190   3.061   4.995
 2468SOL     OW 8302   3.542   0.246   5.474
 2468SOL    HW1 8303   3.559   0.147   5.467
 2468SOL    HW2 8304   3.456   0.268   5.428
 2469SOL     OW 8305   3.473   2.039   6.127
 2469SOL    HW1 8306   3.522   1.998   6.050
 2469SOL    HW2 8307   3.469   2.138   6.115
 2470SOL     OW 8308   2.603   5.397   6.744
 2470SOL    HW1 8309   2.558   5.486   6.751
 2470SOL    HW2 8310   2.575   5.340   6.821
 2471SOL     OW 8311   2.957   5.103   2.125
 2471SOL    HW1 8312   3.041   5.154   2.143
 2471SOL    HW2 8313   2.877   5.160   2.145
 2472SOL     OW 8314   4.626   1.562   3.487
 2472SOL    HW1 8315   4.532   1.584   3.465
 2472SOL    HW2 8316   4.644   1.465   3.467
 2473SOL     OW 8317   0.268   3.962   3.599
 2473SOL    HW1 8318   0.291   3.866   3.580
 2473SOL    HW2 8319   0.208   3.966   3.679
 2474SOL     OW 8320   1.077   6.061   1.678
 2474SOL    HW1 8321   1.148   6.018   1.622
 2474SOL    HW2 8322   1.047   6.146   1.633
 2475SOL     OW 8323   4.757   1.111   0.570
 2475SOL    HW1 8324   4.854   1.086   0.569
 2475SOL    HW2 8325   4.745   1.197   0.521
 2476SOL     OW 8326   4.197   0.516   0.963
 2476SOL    HW1 8327   4.254   0.494   1.042
 2476SOL    HW2 8328   4.102   0.491   0.982
 2477SOL     OW 8329   3.707   0.333   3.531
 2477SOL    HW1 8330   3.787   0.382   3.567
 2477SOL    HW2 8331   3.692   0.361   3.436
 2478SOL     OW 8332   4.527   0.288   4.861
 2478SOL    HW1 8333   4.472   0.267   4.942
 2478SOL    HW2 8334   4.583   0.209   4.837
 2479SOL     OW 8335   5.690   3.346   1.198
 2479SOL    HW1 8336   5.732   3.436   1.194
 2479SOL    HW2 8337   5.717   3.292   1.118
 2480SOL     OW 8338   3.721   2.219   1.387
 2480SOL    HW1 8339   3.671   2.265   1.313
 2480SOL    HW2 8340   3.757   2.132   1.355
 2481SOL     OW 8341   3.124   6.713   2.246
 2481SOL    HW1 8342   3.055   6.722   2.319
 2481SOL    HW2 8343   3.190   6.643   2.271
 2482SOL     OW 8344   6.576   3.279   7.016
 2482SOL    HW1 8345   6.536   3.243   0.074
 2482SOL    HW2 8346   6.672   3.251   7.011
 2483SOL     OW 8347   1.819   2.476   0.863
 2483SOL    HW1 8348   1.795   2.560   0.815
 2483SOL    HW2 8349   1.805   2.488   0.961
 2484SOL     OW 8350   4.433   0.456   0.165
 2484SOL    HW1 8351   4.401   0.361   0.171
 2484SOL    HW2 8352   4.490   0.476   0.245
 2485SOL     OW 8353   0.755   2.326   5.955
 2485SOL    HW1 8354   0.771   2.228   5.944
 2485SOL    HW2 8355   0.830   2.366   6.008
 2486SOL     OW 8356   0.228   5.514   3.666
 2486SOL    HW1 8357   0.305   5.468   3.622
 2486SOL    HW2 8358   0.203   5.465   3.750
 2487SOL     OW 8359   4.370   6.258   7.017
 2487SOL    HW1 8360   4.336   6.338   6.968
 2487SOL    HW2 8361   4.456   6.280   0.037
 2488SOL     OW 8362   6.772   4.098   0.690
 2488SOL    HW1 8363   6.689   4.136   0.729
 2488SOL    HW2 8364   6.852   4.142   0.731
 2489SOL     OW 8365   6.033   5.235   4.315
 2489SOL    HW1 8366   6.024   5.280   4.404
 2489SOL    HW2 8367   6.020   5.301   4.242
 2490SOL     OW 8368   2.775   5.839   3.232
 2490SOL    HW1 8369   2.718   5.812   3.310
 2490SOL    HW2 8370   2.868   5.855   3.264
 2491SOL     OW 8371   3.750   4.675   1.488
 2491SOL    HW1 8372   3.772   4.588   1.530
 2491SOL    HW2 8373   3.802   4.686   1.403
 2492SOL     OW 8374   6.470   4.989   1.673
 2492SOL    HW1 8375   6.442   4.908   1.724
 2492SOL    HW2 8376   6.549   5.031   1.718
 2493SOL     OW 8377   5.145   6.701   1.066
 2493SOL    HW1 8378   5.174   6.620   1.014
 2493SOL    HW2 8379   5.206   6.714   1.144
 2494SOL     OW 8380   6.642   3.507   1.157
 2494SOL    HW1 8381   6.711   3.540   1.093
 2494SOL    HW2 8382   6.680   3.432   1.211
 2495SOL     OW 8383   0.689   4.371   2.047
 2495SOL    HW1 8384   0.786   4.359   2.026
 2495SOL    HW2 8385   0.679   4.403   2.141
 2496SOL     OW 8386   5.697   4.782   6.628
 2496SOL    HW1 8387   5.641   4.862   6.605
 2496SOL    HW2 8388   5.696   4.767   6.727
 2497SOL     OW 8389   0.205   6.950   2.155
 2497SOL    HW1 8390   0.226   0.004   2.099
 2497SOL    HW2 8391   0.183   6.980   2.248
 2498SOL     OW 8392   1.803   3.512   5.378
 2498SOL    HW1 8393   1.769   3.441   5.440
 2498SOL    HW2 8394   1.736   3.585   5.371
 2499SOL     OW 8395   0.179   3.688   1.620
 2499SOL    HW1 8396   0.193   3.786   1.636
 2499SOL    HW2 8397   0.115   3.651   1.687
 2500SOL     OW 8398   3.587   3.104   1.364
 2500SOL    HW1 8399   3.500   3.105   1.315
 2500SOL    HW2 8400   3.589   3.179   1.431
 2501SOL     OW 8401   6.167   5.497   6.442
 2501SOL    HW1 8402   6.181   5.595   6.460
 2501SOL    HW2 8403   6.201   5.475   6.351
 2502SOL     OW 8404   2.251   6.352   4.570
 2502SOL    HW1 8405   2.287   6.286   4.503
 2502SOL    HW2 8406   2.315   6.361   4.646
 2503SOL     OW 8407   2.968   6.648   5.911
 2503SOL    HW1 8408   2.941   6.742   5.893
 2503SOL    HW2 8409   2.996   6.605   5.825
 2504SOL     OW 8410   3.902   6.904   3.492
 2504SOL    HW1 8411   3.962   6.855   3.429
 2504SOL    HW2 8412   3.818   6.852   3.506
 2505SOL     OW 8413   0.126   4.384   4.006
 2505SOL    HW1 8414   0.052   4.328   4.045
 2505SOL    HW2 8415   0.142   4.356   3.911
 2506SOL     OW 8416   5.659   5.403   5.859
 2506SOL    HW1 8417   5.643   5.426   5.955
 2506SOL    HW2 8418   5.571   5.394   5.812
 2507SOL     OW 8419   6.681   2.896   1.971
 2507SOL    HW1 8420   6.713   2.815   2.019
 2507SOL    HW2 8421   6.581   2.896   1.967
 2508SOL     OW 8422   5.268   1.451   4.505
 2508SOL    HW1 8423   5.362   1.470   4.479
 2508SOL    HW2 8424   5.248   1.354   4.492
 2509SOL     OW 8425   0.618   3.194   5.689
 2509SOL    HW1 8426   0.572   3.280   5.665
 2509SOL    HW2 8427   0.716   3.202   5.670
 2510SOL     OW 8428   3.014   3.967   2.656
 2510SOL    HW1 8429   2.928   3.978   2.605
 2510SOL    HW2 8430   3.056   3.879   2.630
 2511SOL     OW 8431   2.046   0.339   4.269
 2511SOL    HW1 8432   2.122   0.390   4.309
 2511SOL    HW2 8433   2.049   0.244   4.301
 2512SOL     OW 8434   4.078   4.827   4.324
 2512SOL    HW1 8435   4.116   4.919   4.329
 2512SOL    HW2 8436   4.044   4.800   4.414
 2513SOL     OW 8437   2.516   5.563   6.039
 2513SOL    HW1 8438   2.423   5.571   6.075
 2513SOL    HW2 8439   2.565   5.492   6.089
 2514SOL     OW 8440   1.331   1.783   2.648
 2514SOL    HW1 8441   1.342   1.879   2.625
 2514SOL    HW2 8442   1.242   1.750   2.616
 2515SOL     OW 8443   0.838   1.470   1.457
 2515SOL    HW1 8444   0.834   1.439   1.362
 2515SOL    HW2 8445   0.917   1.530   1.470
 2516SOL     OW 8446   5.805   2.224   4.860
 2516SOL    HW1 8447   5.834   2.209   4.955
 2516SOL    HW2 8448   5.840   2.150   4.802
 2517SOL     OW 8449   1.431   1.276   3.844
 2517SOL    HW1 8450   1.392   1.184   3.846
 2517SOL    HW2 8451   1.493   1.284   3.765
 2518SOL     OW 8452   2.249   4.767   1.557
 2518SOL    HW1 8453   2.198   4.849   1.581
 2518SOL    HW2 8454   2.338   4.768   1.602
 2519SOL     OW 8455   0.928   1.204   0.777
 2519SOL    HW1 8456   0.965   1.125   0.825
 2519SOL    HW2 8457   0.991   1.230   0.703
 2520SOL     OW 8458   2.601   2.252   0.162
 2520SOL    HW1 8459   2.594   2.169   0.217
 2520SOL    HW2 8460   2.619   2.330   0.221
 2521SOL     OW 8461   4.970   1.105   5.189
 2521SOL    HW1 8462   4.934   1.084   5.280
 2521SOL    HW2 8463   4.993   1.020   5.141
 2522SOL     OW 8464   1.234   2.134   6.858
 2522SOL    HW1 8465   1.295   2.204   6.893
 2522SOL    HW2 8466   1.202   2.160   6.766
 2523SOL     OW 8467   1.605   5.270   6.700
 2523SOL    HW1 8468   1.669   5.341   6.727
 2523SOL    HW2 8469   1.573   5.220   6.781
 2524SOL     OW 8470   1.280   0.465   4.207
 2524SOL    HW1 8471   1.357   0.439   4.265
 2524SOL    HW2 8472   1.201   0.488   4.264
 2525SOL     OW 8473   6.428   2.590   5.400
 2525SOL    HW1 8474   6.409   2.492   5.403
 2525SOL    HW2 8475   6.491   2.610   5.325
 2526SOL     OW 8476   1.593   0.010   1.255
 2526SOL    HW1 8477   1.674   7.024   1.197
 2526SOL    HW2 8478   1.550   6.947   1.271
 2527SOL     OW 8479   4.763   5.172   5.987
 2527SOL    HW1 8480   4.786   5.244   6.052
 2527SOL    HW2 8481   4.692   5.205   5.924
 2528SOL     OW 8482   4.692   6.039   6.635
 2528SOL    HW1 8483   4.648   6.094   6.706
 2528SOL    HW2 8484   4.761   5.980   6.677
 2529SOL     OW 8485   0.487   6.923   6.418
 2529SOL    HW1 8486   0.433   7.007   6.423
 2529SOL    HW2 8487   0.461   6.871   6.336
 2530SOL     OW 8488   2.309   5.620   6.400
 2530SOL    HW1 8489   2.324   5.617   6.301
 2530SOL    HW2 8490   2.260   5.537   6.428
 2531SOL     OW 8491   0.050   5.591   6.514
 2531SOL    HW1 8492   6.992   5.568   6.465
 2531SOL    HW2 8493   0.129   5.557   6.463
 2532SOL     OW 8494   5.413   6.316   1.067
 2532SOL    HW1 8495   5.461   6.229   1.057
 2532SOL    HW2 8496   5.315   6.300   1.071
 2533SOL     OW 8497   4.844   0.651   4.115
 2533SOL    HW1 8498   4.879   0.702   4.193
 2533SOL    HW2 8499   4.745   0.638   4.125
 2534SOL     OW 8500   4.051   1.314   2.728
 2534SOL    HW1 8501   4.090   1.315   2.821
 2534SOL    HW2 8502   4.115   1.269   2.666
 2535SOL     OW 8503   3.858   2.967   6.580
 2535SOL    HW1 8504   3.945   3.017   6.573
 2535SOL    HW2 8505   3.847   2.907   6.500
 2536SOL     OW 8506   1.297   0.916   0.617
 2536SOL    HW1 8507   1.210   0.951   0.582
 2536SOL    HW2 8508   1.292   0.816   0.626
 2537SOL     OW 8509   3.967   6.827   6.235
 2537SOL    HW1 8510   3.925   6.917   6.243
 2537SOL    HW2 8511   4.001   6.798   6.325
 2538SOL     OW 8512   6.383   2.945   3.535
 2538SOL    HW1 8513   6.397   2.912   3.628
 2538SOL    HW2 8514   6.445   2.898   3.473
 2539SOL     OW 8515   5.229   2.646   5.530
 2539SOL    HW1 8516   5.278   2.574   5.580
 2539SOL    HW2 8517   5.158   2.604   5.474
 2540SOL     OW 8518   2.770   1.578   1.564
 2540SOL    HW1 8519   2.777   1.594   1.466
 2540SOL    HW2 8520   2.828   1.501   1.590
 2541SOL     OW 8521   3.907   6.644   4.710
 2541SOL    HW1 8522   3.949   6.588   4.781
 2541SOL    HW2 8523   3.918   6.741   4.733
 2542SOL     OW 8524   1.928   5.200   6.617
 2542SOL    HW1 8525   2.023   5.188   6.647
 2542SOL    HW2 8526   1.903   5.296   6.625
 2543SOL     OW 8527   1.255   1.297   3.264
 2543SOL    HW1 8528   1.341   1.342   3.288
 2543SOL    HW2 8529   1.274   1.205   3.229
 2544SOL     OW 8530   1.152   5.554   0.009
 2544SOL    HW1 8531   1.130   5.650   7.018
 2544SOL    HW2 8532   1.105   5.524   0.092
 2545SOL     OW 8533   3.067   5.893   3.201
 2545SOL    HW1 8534   3.099   5.846   3.283
 2545SOL    HW2 8535   3.074   5.992   3.214
 2546SOL     OW 8536   6.678   1.429   1.221
 2546SOL    HW1 8537   6.586   1.420   1.182
 2546SOL    HW2 8538   6.677   1.396   1.316
 2547SOL     OW 8539   0.704   3.471   4.855
 2547SOL    HW1 8540   0.739   3.467   4.949
 2547SOL    HW2 8541   0.780   3.489   4.792
 2548SOL     OW 8542   0.871   0.219   4.295
 2548SOL    HW1 8543   0.796   0.210   4.230
 2548SOL    HW2 8544   0.844   0.184   4.384
 2549SOL     OW 8545   6.495   2.511   1.373
 2549SOL    HW1 8546   6.433   2.551   1.305
 2549SOL    HW2 8547   6.507   2.414   1.353
 2550SOL     OW 8548   6.149   6.165   0.164
 2550SOL    HW1 8549   6.242   6.155   0.200
 2550SOL    HW2 8550   6.083   6.141   0.236
 2551SOL     OW 8551   1.307   4.465   6.668
 2551SOL    HW1 8552   1.294   4.544   6.607
 2551SOL    HW2 8553   1.310   4.497   6.763
 2552SOL     OW 8554   1.819   5.469   3.289
 2552SOL    HW1 8555   1.840   5.559   3.325
 2552SOL    HW2 8556   1.757   5.477   3.211
 2553SOL     OW 8557   4.331   3.713   6.908
 2553SOL    HW1 8558   4.362   3.769   6.831
 2553SOL    HW2 8559   4.280   3.769   6.972
 2554SOL     OW 8560   2.096   1.504   0.163
 2554SOL    HW1 8561   2.032   1.470   0.232
 2554SOL    HW2 8562   2.079   1.458   0.076
 2555SOL     OW 8563   6.304   1.089   6.668
 2555SOL    HW1 8564   6.322   1.183   6.697
 2555SOL    HW2 8565   6.376   1.029   6.702
 2556SOL     OW 8566   2.904   5.764   0.829
 2556SOL    HW1 8567   2.973   5.832   0.804
 2556SOL    HW2 8568   2.922   5.731   0.922
 2557SOL     OW 8569   1.766   4.223   6.991
 2557SOL    HW1 8570   1.852   4.257   6.954
 2557SOL    HW2 8571   1.697   4.222   6.918
 2558SOL     OW 8572   3.801   0.215   5.793
 2558SOL    HW1 8573   3.812   0.130   5.845
 2558SOL    HW2 8574   3.891   0.247   5.763
 2559SOL     OW 8575   0.227   5.750   4.992
 2559SOL    HW1 8576   0.258   5.686   5.063
 2559SOL    HW2 8577   0.247   5.843   5.021
 2560SOL     OW 8578   6.237   1.270   6.953
 2560SOL    HW1 8579   6.151   1.228   6.924
 2560SOL    HW2 8580   6.219   1.332   0.005
 2561SOL     OW 8581   3.407   5.396   4.754
 2561SOL    HW1 8582   3.454   5.363   4.672
 2561SOL    HW2 8583   3.468   5.454   4.807
 2562SOL     OW 8584   2.082   3.988   6.595
 2562SOL    HW1 8585   2.052   4.027   6.508
 2562SOL    HW2 8586   2.019   3.914   6.620
 2563SOL     OW 8587   1.872   1.044   0.095
 2563SOL    HW1 8588   1.864   0.957   0.142
 2563SOL    HW2 8589   1.965   1.056   0.062
 2564SOL     OW 8590   1.519   6.326   1.644
 2564SOL    HW1 8591   1.440   6.279   1.681
 2564SOL    HW2 8592   1.597   6.264   1.642
 2565SOL     OW 8593   1.261   0.734   1.563
 2565SOL    HW1 8594   1.241   0.831   1.571
 2565SOL    HW2 8595   1.258   0.707   1.466
 2566SOL     OW 8596   1.834   6.645   6.206
 2566SOL    HW1 8597   1.921   6.668   6.162
 2566SOL    HW2 8598   1.807   6.552   6.181
 2567SOL     OW 8599   0.413   6.755   0.649
 2567SOL    HW1 8600   0.439   6.851   0.645
 2567SOL    HW2 8601   0.394   6.721   0.557
 2568SOL     OW 8602   5.271   3.620   0.204
 2568SOL    HW1 8603   5.325   3.648   0.125
 2568SOL    HW2 8604   5.200   3.555   0.176
 2569SOL     OW 8605   2.721   0.749   2.936
 2569SOL    HW1 8606   2.689   0.687   3.008
 2569SOL    HW2 8607   2.745   0.837   2.977
 2570SOL     OW 8608   5.338   2.437   6.381
 2570SOL    HW1 8609   5.250   2.475   6.352
 2570SOL    HW2 8610   5.323   2.366   6.449
 2571SOL     OW 8611   1.033   3.816   4.716
 2571SOL    HW1 8612   1.083   3.768   4.644
 2571SOL    HW2 8613   0.935   3.807   4.700
 2572SOL     OW 8614   1.384   4.971   3.985
 2572SOL    HW1 8615   1.466   4.993   3.932
 2572SOL    HW2 8616   1.377   4.872   3.995
 2573SOL     OW 8617   1.248   0.140   0.666
 2573SOL    HW1 8618   1.226   0.237   0.655
 2573SOL    HW2 8619   1.163   0.089   0.679
 2574SOL     OW 8620   5.936   3.393   0.600
 2574SOL    HW1 8621   5.889   3.335   0.667
 2574SOL    HW2 8622   5.879   3.472   0.578
 2575SOL     OW 8623   0.842   5.813   6.035
 2575SOL    HW1 8624   0.895   5.777   6.112
 2575SOL    HW2 8625   0.834   5.912   6.044
 2576SOL     OW 8626   4.210   5.585   4.197
 2576SOL    HW1 8627   4.165   5.511   4.146
 2576SOL    HW2 8628   4.188   5.673   4.154
 2577SOL     OW 8629   2.326   4.318   2.248
 2577SOL    HW1 8630   2.400   4.358   2.303
 2577SOL    HW2 8631   2.354   4.315   2.152
 2578SOL     OW 8632   4.150   2.130   3.094
 2578SOL    HW1 8633   4.173   2.225   3.074
 2578SOL    HW2 8634   4.053   2.123   3.117
 2579SOL     OW 8635   1.267   6.612   3.027
 2579SOL    HW1 8636   1.319   6.689   2.990
 2579SOL    HW2 8637   1.329   6.545   3.067
 2580SOL     OW 8638   2.008   1.909   6.005
 2580SOL    HW1 8639   2.038   1.956   6.088
 2580SOL    HW2 8640   1.914   1.875   6.019
 2581SOL     OW 8641   3.582   0.567   5.519
 2581SOL    HW1 8642   3.506   0.518   5.563
 2581SOL    HW2 8643   3.582   0.548   5.421
 2582SOL     OW 8644   6.760   3.160   1.924
 2582SOL    HW1 8645   6.719   3.070   1.912
 2582SOL    HW2 8646   6.795   3.169   2.017
 2583SOL     OW 8647   5.972   0.319   0.729
 2583SOL    HW1 8648   5.873   0.335   0.734
 2583SOL    HW2 8649   6.007   0.299   0.820
 2584SOL     OW 8650   3.948   4.612   6.167
 2584SOL    HW1 8651   4.030   4.592   6.112
 2584SOL    HW2 8652   3.972   4.608   6.264
 2585SOL     OW 8653   3.036   4.588   6.399
 2585SOL    HW1 8654   3.004   4.677   6.433
 2585SOL    HW2 8655   3.064   4.597   6.304
 2586SOL     OW 8656   2.818   0.689   3.641
 2586SOL    HW1 8657   2.832   0.631   3.561
 2586SOL    HW2 8658   2.721   0.702   3.657
 2587SOL     OW 8659   6.734   0.886   4.074
 2587SOL    HW1 8660   6.722   0.792   4.106
 2587SOL    HW2 8661   6.752   0.886   3.975
 2588SOL     OW 8662   4.659   0.794   6.541
 2588SOL    HW1 8663   4.669   0.808   6.443
 2588SOL    HW2 8664   4.693   0.874   6.590
 2589SOL     OW 8665   2.142   6.518   0.381
 2589SOL    HW1 8666   2.149   6.572   0.297
 2589SOL    HW2 8667   2.225   6.528   0.435
 2590SOL     OW 8668   2.531   5.386   0.128
 2590SOL    HW1 8669   2.581   5.349   0.050
 2590SOL    HW2 8670   2.508   5.482   0.111
 2591SOL     OW 8671   6.229   5.655   3.507
 2591SOL    HW1 8672   6.131   5.666   3.523
 2591SOL    HW2 8673   6.279   5.673   3.592
 2592SOL     OW 8674   2.902   3.887   0.880
 2592SOL    HW1 8675   2.843   3.817   0.841
 2592SOL    HW2 8676   2.866   3.915   0.969
 2593SOL     OW 8677   3.623   4.135   0.871
 2593SOL    HW1 8678   3.636   4.187   0.955
 2593SOL    HW2 8679   3.531   4.095   0.870
 2594SOL     OW 8680   1.876   3.145   4.706
 2594SOL    HW1 8681   1.813   3.092   4.763
 2594SOL    HW2 8682   1.897   3.093   4.623
 2595SOL     OW 8683   2.063   1.248   2.701
 2595SOL    HW1 8684   2.008   1.296   2.769
 2595SOL    HW2 8685   2.127   1.311   2.658
 2596SOL     OW 8686   1.328   1.519   0.530
 2596SOL    HW1 8687   1.365   1.612   0.536
 2596SOL    HW2 8688   1.337   1.486   0.436
 2597SOL     OW 8689   6.931   6.293   0.381
 2597SOL    HW1 8690   6.903   6.379   0.425
 2597SOL    HW2 8691   0.006   6.287   0.381
 2598SOL     OW 8692   5.966   2.249   2.725
 2598SOL    HW1 8693   5.911   2.331   2.740
 2598SOL    HW2 8694   5.939   2.207   2.638
 2599SOL     OW 8695   2.929   5.928   2.197
 2599SOL    HW1 8696   3.009   5.891   2.244
 2599SOL    HW2 8697   2.938   6.028   2.189
 2600SOL     OW 8698   5.746   3.643   4.444
 2600SOL    HW1 8699   5.787   3.734   4.452
 2600SOL    HW2 8700   5.751   3.597   4.532
 2601SOL     OW 8701   6.567   1.386   3.453
 2601SOL    HW1 8702   6.553   1.303   3.400
 2601SOL    HW2 8703   6.664   1.396   3.474
 2602SOL     OW 8704   1.111   4.495   3.024
 2602SOL    HW1 8705   1.203   4.461   3.002
 2602SOL    HW2 8706   1.043   4.439   2.976
 2603SOL     OW 8707   2.545   6.180   2.736
 2603SOL    HW1 8708   2.538   6.089   2.777
 2603SOL    HW2 8709   2.502   6.247   2.797
 2604SOL     OW 8710   4.760   2.793   3.284
 2604SOL    HW1 8711   4.782   2.751   3.372
 2604SOL    HW2 8712   4.777   2.892   3.289
 2605SOL     OW 8713   1.781   3.648   1.850
 2605SOL    HW1 8714   1.836   3.583   1.903
 2605SOL    HW2 8715   1.797   3.740   1.884
 2606SOL     OW 8716   4.803   3.874   1.193
 2606SOL    HW1 8717   4.832   3.924   1.274
 2606SOL    HW2 8718   4.883   3.852   1.137
 2607SOL     OW 8719   2.537   2.075   1.267
 2607SOL    HW1 8720   2.609   2.092   1.199
 2607SOL    HW2 8721   2.566   2.112   1.355
 2608SOL     OW 8722   2.456   5.162   5.928
 2608SOL    HW1 8723   2.386   5.220   5.886
 2608SOL    HW2 8724   2.439   5.066   5.903
 2609SOL     OW 8725   0.286   2.494   0.661
 2609SOL    HW1 8726   0.339   2.414   0.634
 2609SOL    HW2 8727   0.240   2.532   0.580
 2610SOL     OW 8728   1.776   4.027   4.832
 2610SOL    HW1 8729   1.751   3.949   4.774
 2610SOL    HW2 8730   1.777   3.998   4.928
 2611SOL     OW 8731   5.050   0.255   6.587
 2611SOL    HW1 8732   5.142   0.294   6.588
 2611SOL    HW2 8733   5.047   0.178   6.524
 2612SOL     OW 8734   6.579   0.098   6.169
 2612SOL    HW1 8735   6.651   0.040   6.131
 2612SOL    HW2 8736   6.565   0.075   6.265
 2613SOL     OW 8737   0.780   6.745   6.891
 2613SOL    HW1 8738   0.836   6.714   6.814
 2613SOL    HW2 8739   0.833   6.739   6.976
 2614SOL     OW 8740   6.031   1.855   6.829
 2614SOL    HW1 8741   6.086   1.938   6.831
 2614SOL    HW2 8742   6.056   1.800   6.750
 2615SOL     OW 8743   0.457   3.298   6.769
 2615SOL    HW1 8744   0.523   3.230   6.736
 2615SOL    HW2 8745   0.367   3.278   6.731
 2616SOL     OW 8746   1.319   1.124   5.165
 2616SOL    HW1 8747   1.406   1.087   5.132
 2616SOL    HW2 8748   1.337   1.194   5.234
 2617SOL     OW 8749   4.819   0.517   1.578
 2617SOL    HW1 8750   4.785   0.611   1.572
 2617SOL    HW2 8751   4.839   0.483   1.487
 2618SOL     OW 8752   1.371   6.506   6.269
 2618SOL    HW1 8753   1.282   6.464   6.288
 2618SOL    HW2 8754   1.421   6.519   6.354
 2619SOL     OW 8755   4.818   1.053   2.762
 2619SOL    HW1 8756   4.838   1.149   2.742
 2619SOL    HW2 8757   4.903   1.005   2.781
 2620SOL     OW 8758   6.109   1.815   1.381
 2620SOL    HW1 8759   6.179   1.863   1.327
 2620SOL    HW2 8760   6.046   1.882   1.420
 2621SOL     OW 8761   1.713   6.119   1.656
 2621SOL    HW1 8762   1.630   6.065   1.650
 2621SOL    HW2 8763   1.793   6.059   1.654
 2622SOL     OW 8764   2.800   3.904   6.852
 2622SOL    HW1 8765   2.837   3.997   6.864
 2622SOL    HW2 8766   2.758   3.896   6.762
 2623SOL     OW 8767   6.949   6.193   3.672
 2623SOL    HW1 8768   6.916   6.156   3.758
 2623SOL    HW2 8769   7.016   6.131   3.632
 2624SOL     OW 8770   0.911   1.250   4.876
 2624SOL    HW1 8771   0.991   1.194   4.898
 2624SOL    HW2 8772   0.892   1.313   4.951
 2625SOL     OW 8773   2.687   4.911   6.567
 2625SOL    HW1 8774   2.658   5.005   6.588
 2625SOL    HW2 8775   2.679   4.855   6.650
 2626SOL     OW 8776   6.863   6.482   6.719
 2626SOL    HW1 8777   6.842   6.487   6.622
 2626SOL    HW2 8778   6.778   6.485   6.772
 2627SOL     OW 8779   2.004   0.214   6.038
 2627SOL    HW1 8780   2.082   0.166   5.999
 2627SOL    HW2 8781   2.036   0.288   6.098
 2628SOL     OW 8782   0.292   4.617   1.240
 2628SOL    HW1 8783   0.352   4.545   1.275
 2628SOL    HW2 8784   0.328   4.706   1.267
 2629SOL     OW 8785   3.422   4.143   2.531
 2629SOL    HW1 8786   3.390   4.237   2.536
 2629SOL    HW2 8787   3.449   4.122   2.437
 2630SOL     OW 8788   4.036   0.774   4.273
 2630SOL    HW1 8789   3.957   0.833   4.291
 2630SOL    HW2 8790   4.008   0.678   4.281
 2631SOL     OW 8791   5.486   6.948   0.120
 2631SOL    HW1 8792   5.577   6.986   0.135
 2631SOL    HW2 8793   5.419   7.000   0.173
 2632SOL     OW 8794   6.017   5.107   2.307
 2632SOL    HW1 8795   6.009   5.144   2.214
 2632SOL    HW2 8796   5.953   5.154   2.367
 2633SOL     OW 8797   0.358   3.442   5.955
 2633SOL    HW1 8798   0.297   3.520   5.966
 2633SOL    HW2 8799   0.446   3.473   5.920
 2634SOL     OW 8800   0.628   1.241   5.497
 2634SOL    HW1 8801   0.728   1.239   5.497
 2634SOL    HW2 8802   0.593   1.149   5.512
 2635SOL     OW 8803   4.358   5.039   3.728
 2635SOL    HW1 8804   4.350   4.959   3.787
 2635SOL    HW2 8805   4.333   5.121   3.779
 2636SOL     OW 8806   3.580   6.650   6.201
 2636SOL    HW1 8807   3.547   6.597   6.279
 2636SOL    HW2 8808   3.502   6.686   6.149
 2637SOL     OW 8809   0.604   0.988   3.066
 2637SOL    HW1 8810   0.703   0.992   3.071
 2637SOL    HW2 8811   0.575   0.996   2.970
 2638SOL     OW 8812   0.845   6.418   4.220
 2638SOL    HW1 8813   0.841   6.394   4.123
 2638SOL    HW2 8814   0.862   6.516   4.230
 2639SOL     OW 8815   4.370   4.787   4.594
 2639SOL    HW1 8816   4.432   4.846   4.542
 2639SOL    HW2 8817   4.370   4.813   4.690
 2640SOL     OW 8818   2.521   0.798   3.650
 2640SOL    HW1 8819   2.561   0.880   3.690
 2640SOL    HW2 8820   2.436   0.776   3.698
 2641SOL     OW 8821   5.480   2.042   0.007
 2641SOL    HW1 8822   5.501   2.098   6.953
 2641SOL    HW2 8823   5.553   1.976   0.022
 2642SOL     OW 8824   6.371   0.325   3.069
 2642SOL    HW1 8825   6.446   0.260   3.080
 2642SOL    HW2 8826   6.383   0.401   3.133
 2643SOL     OW 8827   1.752   4.677   4.296
 2643SOL    HW1 8828   1.850   4.692   4.285
 2643SOL    HW2 8829   1.707   4.686   4.207
 2644SOL     OW 8830   5.489   5.549   4.756
 2644SOL    HW1 8831   5.573   5.585   4.796
 2644SOL    HW2 8832   5.481   5.452   4.778
 2645SOL     OW 8833   4.849   5.880   3.545
 2645SOL    HW1 8834   4.793   5.847   3.620
 2645SOL    HW2 8835   4.794   5.886   3.462
 2646SOL     OW 8836   0.871   2.441   6.226
 2646SOL    HW1 8837   0.796   2.399   6.278
 2646SOL    HW2 8838   0.933   2.489   6.289
 2647SOL     OW 8839   4.626   0.001   2.548
 2647SOL    HW1 8840   4.592   6.938   2.514
 2647SOL    HW2 8841   4.672   0.050   2.474
 2648SOL     OW 8842   0.731   6.976   6.283
 2648SOL    HW1 8843   0.638   6.968   6.319
 2648SOL    HW2 8844   0.728   7.015   6.191
 2649SOL     OW 8845   5.152   1.615   3.574
 2649SOL    HW1 8846   5.134   1.533   3.629
 2649SOL    HW2 8847   5.077   1.681   3.587
 2650SOL     OW 8848   2.700   6.799   3.768
 2650SOL    HW1 8849   2.605   6.801   3.740
 2650SOL    HW2 8850   2.707   6.815   3.866
 2651SOL     OW 8851   4.039   2.195   4.208
 2651SOL    HW1 8852   4.005   2.288   4.190
 2651SOL    HW2 8853   3.981   2.150   4.275
 2652SOL     OW 8854   5.192   3.993   5.563
 2652SOL    HW1 8855   5.158   4.075   5.609
 2652SOL    HW2 8856   5.213   4.013   5.468
 2653SOL     OW 8857   2.367   6.254   6.875
 2653SOL    HW1 8858   2.278   6.248   6.921
 2653SOL    HW2 8859   2.353   6.261   6.776
 2654SOL     OW 8860   0.238   0.997   0.800
 2654SOL    HW1 8861   0.250   1.096   0.789
 2654SOL    HW2 8862   0.193   0.979   0.887
 2655SOL     OW 8863   5.125   6.362   2.845
 2655SOL    HW1 8864   5.075   6.287   2.802
 2655SOL    HW2 8865   5.168   6.329   2.929
 2656SOL     OW 8866   4.316   5.926   3.986
 2656SOL    HW1 8867   4.400   5.973   4.013
 2656SOL    HW2 8868   4.279   5.969   3.904
 2657SOL     OW 8869   1.266   4.000   6.513
 2657SOL    HW1 8870   1.309   3.998   6.423
 2657SOL    HW2 8871   1.288   4.086   6.558
 2658SOL     OW 8872   4.190   5.333   0.476
 2658SOL    HW1 8873   4.139   5.261   0.429
 2658SOL    HW2 8874   4.154   5.345   0.568
 2659SOL     OW 8875   0.025   2.422   5.165
 2659SOL    HW1 8876   0.037   2.333   5.121
 2659SOL    HW2 8877   0.109   2.476   5.155
 2660SOL     OW 8878   0.445   1.387   0.989
 2660SOL    HW1 8879   0.525   1.371   1.047
 2660SOL    HW2 8880   0.399   1.470   1.019
 2661SOL     OW 8881   1.627   1.413   1.024
 2661SOL    HW1 8882   1.538   1.373   1.000
 2661SOL    HW2 8883   1.700   1.348   0.999
 2662SOL     OW 8884   2.749   1.933   1.855
 2662SOL    HW1 8885   2.718   1.860   1.793
 2662SOL    HW2 8886   2.769   1.894   1.945
 2663SOL     OW 8887   3.839   0.005   0.770
 2663SOL    HW1 8888   3.893   6.947   0.779
 2663SOL    HW2 8889   3.742   7.007   0.766
 2664SOL     OW 8890   4.938   3.644   5.470
 2664SOL    HW1 8891   5.004   3.684   5.533
 2664SOL    HW2 8892   4.859   3.610   5.521
 2665SOL     OW 8893   1.732   3.381   3.596
 2665SOL    HW1 8894   1.781   3.411   3.678
 2665SOL    HW2 8895   1.763   3.434   3.518
 2666SOL     OW 8896   2.048   4.086   1.682
 2666SOL    HW1 8897   1.954   4.072   1.713
 2666SOL    HW2 8898   2.077   4.007   1.629
 2667SOL     OW 8899   6.288   2.917   5.663
 2667SOL    HW1 8900   6.367   2.977   5.652
 2667SOL    HW2 8901   6.261   2.914   5.759
 2668SOL     OW 8902   6.503   0.548   2.927
 2668SOL    HW1 8903   6.479   0.489   3.004
 2668SOL    HW2 8904   6.511   0.643   2.958
 2669SOL     OW 8905   2.361   0.996   0.567
 2669SOL    HW1 8906   2.415   0.981   0.650
 2669SOL    HW2 8907   2.264   1.004   0.592
 2670SOL     OW 8908   7.023   0.230   6.487
 2670SOL    HW1 8909   0.045   0.155   6.533
 2670SOL    HW2 8910   6.950   0.194   6.430
 2671SOL     OW 8911   5.360   4.934   6.125
 2671SOL    HW1 8912   5.454   4.935   6.092
 2671SOL    HW2 8913   5.359   4.903   6.221
 2672SOL     OW 8914   2.827   1.247   1.822
 2672SOL    HW1 8915   2.921   1.258   1.790
 2672SOL    HW2 8916   2.777   1.187   1.760
 2673SOL     OW 8917   3.717   0.159   2.671
 2673SOL    HW1 8918   3.717   0.233   2.739
 2673SOL    HW2 8919   3.663   0.083   2.706
 2674SOL     OW 8920   7.004   5.914   3.080
 2674SOL    HW1 8921   0.057   5.861   3.047
 2674SOL    HW2 8922   6.922   5.856   3.075
 2675SOL     OW 8923   4.606   1.143   5.230
 2675SOL    HW1 8924   4.549   1.103   5.159
 2675SOL    HW2 8925   4.654   1.223   5.193
 2676SOL     OW 8926   3.701   4.114   3.930
 2676SOL    HW1 8927   3.766   4.039   3.940
 2676SOL    HW2 8928   3.696   4.166   4.016
 2677SOL     OW 8929   1.625   5.879   1.168
 2677SOL    HW1 8930   1.661   5.802   1.221
 2677SOL    HW2 8931   1.526   5.869   1.158
 2678SOL     OW 8932   3.708   1.836   2.836
 2678SOL    HW1 8933   3.645   1.913   2.843
 2678SOL    HW2 8934   3.802   1.870   2.824
 2679SOL     OW 8935   2.113   3.310   2.461
 2679SOL    HW1 8936   2.134   3.404   2.489
 2679SOL    HW2 8937   2.103   3.306   2.362
 2680SOL     OW 8938   5.796   2.709   0.163
 2680SOL    HW1 8939   5.716   2.649   0.168
 2680SOL    HW2 8940   5.809   2.740   0.069
 2681SOL     OW 8941   2.287   2.414   3.346
 2681SOL    HW1 8942   2.248   2.323   3.365
 2681SOL    HW2 8943   2.225   2.464   3.286
 2682SOL     OW 8944   3.661   3.771   1.688
 2682SOL    HW1 8945   3.656   3.690   1.630
 2682SOL    HW2 8946   3.617   3.752   1.776
 2683SOL     OW 8947   2.228   3.956   1.290
 2683SOL    HW1 8948   2.213   3.922   1.382
 2683SOL    HW2 8949   2.322   3.991   1.282
 2684SOL     OW 8950   6.302   0.231   3.769
 2684SOL    HW1 8951   6.261   0.171   3.838
 2684SOL    HW2 8952   6.401   0.221   3.770
 2685SOL     OW 8953   0.581   6.372   5.760
 2685SOL    HW1 8954   0.481   6.380   5.761
 2685SOL    HW2 8955   0.620   6.440   5.698
 2686SOL     OW 8956   1.467   0.695   5.741
 2686SOL    HW1 8957   1.496   0.730   5.829
 2686SOL    HW2 8958   1.426   0.769   5.688
 2687SOL     OW 8959   4.241   1.650   1.648
 2687SOL    HW1 8960   4.291   1.735   1.629
 2687SOL    HW2 8961   4.164   1.642   1.585
 2688SOL     OW 8962   4.136   2.640   0.297
 2688SOL    HW1 8963   4.192   2.629   0.379
 2688SOL    HW2 8964   4.097   2.732   0.295
 2689SOL     OW 8965   1.113   3.444   3.208
 2689SOL    HW1 8966   1.185   3.482   3.150
 2689SOL    HW2 8967   1.040   3.512   3.219
 2690SOL     OW 8968   5.046   1.344   5.514
 2690SOL    HW1 8969   4.952   1.373   5.535
 2690SOL    HW2 8970   5.065   1.364   5.418
 2691SOL     OW 8971   0.256   4.012   5.039
 2691SOL    HW1 8972   0.345   3.979   5.007
 2691SOL    HW2 8973   0.251   4.111   5.026
 2692SOL     OW 8974   2.368   5.593   2.163
 2692SOL    HW1 8975   2.455   5.617   2.119
 2692SOL    HW2 8976   2.350   5.656   2.238
 2693SOL     OW 8977   0.941   6.064   3.193
 2693SOL    HW1 8978   0.973   5.985   3.245
 2693SOL    HW2 8979   0.960   6.050   3.096
 2694SOL     OW 8980   2.387   0.434   2.466
 2694SOL    HW1 8981   2.414   0.396   2.554
 2694SOL    HW2 8982   2.290   0.458   2.467
 2695SOL     OW 8983   0.037   5.058   3.909
 2695SOL    HW1 8984   7.023   4.995   3.976
 2695SOL    HW2 8985   7.006   5.060   3.827
 2696SOL     OW 8986   4.126   5.027   6.427
 2696SOL    HW1 8987   4.089   5.008   6.518
 2696SOL    HW2 8988   4.056   5.006   6.358
 2697SOL     OW 8989   3.836   1.866   0.335
 2697SOL    HW1 8990   3.802   1.949   0.378
 2697SOL    HW2 8991   3.771   1.792   0.350
 2698SOL     OW 8992   1.491   5.509   6.066
 2698SOL    HW1 8993   1.584   5.539   6.083
 2698SOL    HW2 8994   1.483   5.411   6.086
 2699SOL     OW 8995   2.459   6.537   2.464
 2699SOL    HW1 8996   2.411   6.577   2.385
 2699SOL    HW2 8997   2.416   6.450   2.488
 2700SOL     OW 8998   4.352   2.132   1.460
 2700SOL    HW1 8999   4.389   2.107   1.371
 2700SOL    HW2 9000   4.259   2.097   1.469
 2701SOL     OW 9001   4.852   3.859   4.864
 2701SOL    HW1 9002   4.934   3.914   4.881
 2701SOL    HW2 9003   4.832   3.804   4.945
 2702SOL     OW 9004   2.350   1.168   4.832
 2702SOL    HW1 9005   2.323   1.258   4.867
 2702SOL    HW2 9006   2.450   1.163   4.828
 2703SOL     OW 9007   2.579   6.394   2.922
 2703SOL    HW1 9008   2.582   6.451   3.004
 2703SOL    HW2 9009   2.648   6.426   2.857
 2704SOL     OW 9010   4.717   0.515   3.708
 2704SOL    HW1 9011   4.807   0.484   3.679
 2704SOL    HW2 9012   4.703   0.492   3.804
 2705SOL     OW 9013   0.860   0.753   5.219
 2705SOL    HW1 9014   0.879   0.833   5.277
 2705SOL    HW2 9015   0.769   0.763   5.178
 2706SOL     OW 9016   6.834   4.304   3.908
 2706SOL    HW1 9017   6.811   4.390   3.953
 2706SOL    HW2 9018   6.755   4.243   3.908
 2707SOL     OW 9019   4.196   1.275   3.666
 2707SOL    HW1 9020   4.250   1.323   3.597
 2707SOL    HW2 9021   4.254   1.211   3.716
 2708SOL     OW 9022   5.264   3.378   5.966
 2708SOL    HW1 9023   5.244   3.283   5.990
 2708SOL    HW2 9024   5.224   3.399   5.877
 2709SOL     OW 9025   4.640   1.571   5.859
 2709SOL    HW1 9026   4.621   1.652   5.913
 2709SOL    HW2 9027   4.723   1.586   5.805
 2710SOL     OW 9028   1.171   2.903   4.282
 2710SOL    HW1 9029   1.238   2.976   4.297
 2710SOL    HW2 9030   1.208   2.837   4.217
 2711SOL     OW 9031   3.710   0.822   1.721
 2711SOL    HW1 9032   3.611   0.815   1.726
 2711SOL    HW2 9033   3.736   0.919   1.725
 2712SOL     OW 9034   5.100   6.141   2.288
 2712SOL    HW1 9035   5.007   6.109   2.304
 2712SOL    HW2 9036   5.141   6.089   2.213
 2713SOL     OW 9037   3.607   4.988   5.495
 2713SOL    HW1 9038   3.664   5.021   5.420
 2713SOL    HW2 9039   3.635   5.033   5.580
 2714SOL     OW 9040   3.074   4.241   6.027
 2714SOL    HW1 9041   3.125   4.199   6.102
 2714SOL    HW2 9042   3.064   4.175   5.952
 2715SOL     OW 9043   4.562   6.806   6.588
 2715SOL    HW1 9044   4.577   6.795   6.490
 2715SOL    HW2 9045   4.625   6.746   6.638
 2716SOL     OW 9046   4.060   0.511   2.828
 2716SOL    HW1 9047   4.064   0.570   2.909
 2716SOL    HW2 9048   4.137   0.447   2.829
 2717SOL     OW 9049   1.021   2.296   1.754
 2717SOL    HW1 9050   1.057   2.342   1.673
 2717SOL    HW2 9051   1.065   2.206   1.763
 2718SOL     OW 9052   6.380   1.784   5.721
 2718SOL    HW1 9053   6.368   1.685   5.727
 2718SOL    HW2 9054   6.448   1.805   5.651
 2719SOL     OW 9055   1.627   5.007   3.788
 2719SOL    HW1 9056   1.706   5.010   3.849
 2719SOL    HW2 9057   1.631   5.085   3.726
 2720SOL     OW 9058   1.798   5.842   6.182
 2720SOL    HW1 9059   1.722   5.903   6.205
 2720SOL    HW2 9060   1.764   5.762   6.134
 2721SOL     OW 9061   2.384   6.699   1.698
 2721SOL    HW1 9062   2.440   6.698   1.615
 2721SOL    HW2 9063   2.386   6.790   1.739
 2722SOL     OW 9064   3.832   4.893   6.753
 2722SOL    HW1 9065   3.742   4.935   6.747
 2722SOL    HW2 9066   3.833   4.808   6.700
 2723SOL     OW 9067   3.779   6.298   6.517
 2723SOL    HW1 9068   3.857   6.236   6.524
 2723SOL    HW2 9069   3.802   6.374   6.456
 2724SOL     OW 9070   6.767   5.303   0.825
 2724SOL    HW1 9071   6.679   5.335   0.790
 2724SOL    HW2 9072   6.754   5.256   0.912
 2725SOL     OW 9073   5.699   4.477   3.561
 2725SOL    HW1 9074   5.695   4.422   3.478
 2725SOL    HW2 9075   5.658   4.426   3.637
 2726SOL     OW 9076   6.025   1.466   2.686
 2726SOL    HW1 9077   5.954   1.401   2.659
 2726SOL    HW2 9078   6.017   1.486   2.783
 2727SOL     OW 9079   1.576   5.696   3.415
 2727SOL    HW1 9080   1.588   5.754   3.496
 2727SOL    HW2 9081   1.630   5.733   3.339
 2728SOL     OW 9082   4.255   5.781   6.394
 2728SOL    HW1 9083   4.330   5.797   6.459
 2728SOL    HW2 9084   4.286   5.804   6.302
 2729SOL     OW 9085   6.205   0.408   6.814
 2729SOL    HW1 9086   6.122   0.461   6.833
 2729SOL    HW2 9087   6.263   0.407   6.895
 2730SOL     OW 9088   1.619   5.762   2.572
 2730SOL    HW1 9089   1.569   5.678   2.548
 2730SOL    HW2 9090   1.613   5.827   2.497
 2731SOL     OW 9091   3.141   4.051   4.714
 2731SOL    HW1 9092   3.117   4.062   4.810
 2731SOL    HW2 9093   3.131   3.954   4.688
 2732SOL     OW 9094   5.459   0.420   1.761
 2732SOL    HW1 9095   5.402   0.388   1.686
 2732SOL    HW2 9096   5.418   0.502   1.802
 2733SOL     OW 9097   0.719   6.392   0.204
 2733SOL    HW1 9098   0.786   6.323   0.230
 2733SOL    HW2 9099   0.636   6.348   0.169
 2734SOL     OW 9100   3.742   6.087   2.425
 2734SOL    HW1 9101   3.727   6.062   2.521
 2734SOL    HW2 9102   3.828   6.138   2.416
 2735SOL     OW 9103   0.843   1.625   1.811
 2735SOL    HW1 9104   0.883   1.560   1.875
 2735SOL    HW2 9105   0.753   1.593   1.782
 2736SOL     OW 9106   6.047   4.135   3.178
 2736SOL    HW1 9107   6.002   4.224   3.181
 2736SOL    HW2 9108   6.006   4.079   3.106
 2737SOL     OW 9109   2.812   0.585   5.152
 2737SOL    HW1 9110   2.863   0.618   5.232
 2737SOL    HW2 9111   2.714   0.592   5.171
 2738SOL     OW 9112   5.058   5.637   1.337
 2738SOL    HW1 9113   5.056   5.649   1.436
 2738SOL    HW2 9114   4.970   5.601   1.306
 2739SOL     OW 9115   6.511   5.456   1.079
 2739SOL    HW1 9116   6.475   5.530   1.136
 2739SOL    HW2 9117   6.606   5.437   1.106
 2740SOL     OW 9118   0.642   5.349   3.055
 2740SOL    HW1 9119   0.726   5.299   3.078
 2740SOL    HW2 9120   0.563   5.300   3.092
 2741SOL     OW 9121   0.621   0.028   5.583
 2741SOL    HW1 9122   0.671   6.976   5.619
 2741SOL    HW2 9123   0.523   0.009   5.586
 2742SOL     OW 9124   3.511   5.825   2.439
 2742SOL    HW1 9125   3.459   5.905   2.409
 2742SOL    HW2 9126   3.451   5.760   2.485
 2743SOL     OW 9127   4.784   1.557   2.530
 2743SOL    HW1 9128   4.785   1.639   2.587
 2743SOL    HW2 9129   4.748   1.579   2.440
 2744SOL     OW 9130   3.669   4.106   2.664
 2744SOL    HW1 9131   3.581   4.095   2.618
 2744SOL    HW2 9132   3.655   4.146   2.754
 2745SOL     OW 9133   0.655   5.798   0.519
 2745SOL    HW1 9134   0.583   5.853   0.561
 2745SOL    HW2 9135   0.732   5.857   0.496
 2746SOL     OW 9136   1.992   1.146   3.610
 2746SOL    HW1 9137   2.075   1.149   3.665
 2746SOL    HW2 9138   2.014   1.166   3.514
 2747SOL     OW 9139   3.894   4.044   1.048
 2747SOL    HW1 9140   3.889   4.125   0.988
 2747SOL    HW2 9141   3.909   3.962   0.993
 2748SOL     OW 9142   3.608   0.418   0.645
 2748SOL    HW1 9143   3.697   0.440   0.685
 2748SOL    HW2 9144   3.611   0.435   0.546
 2749SOL     OW 9145   3.110   1.744   0.978
 2749SOL    HW1 9146   3.085   1.648   0.971
 2749SOL    HW2 9147   3.034   1.795   1.019
 2750SOL     OW 9148   3.346   5.887   2.802
 2750SOL    HW1 9149   3.253   5.921   2.814
 2750SOL    HW2 9150   3.404   5.961   2.766
 2751SOL     OW 9151   6.304   4.954   0.921
 2751SOL    HW1 9152   6.377   5.019   0.902
 2751SOL    HW2 9153   6.283   4.955   1.019
 2752SOL     OW 9154   3.892   5.741   6.880
 2752SOL    HW1 9155   3.866   5.703   6.968
 2752SOL    HW2 9156   3.947   5.824   6.894
 2753SOL     OW 9157   5.268   5.944   5.309
 2753SOL    HW1 9158   5.307   5.852   5.306
 2753SOL    HW2 9159   5.293   5.992   5.225
 2754SOL     OW 9160   1.200   0.078   5.687
 2754SOL    HW1 9161   1.196   7.020   5.741
 2754SOL    HW2 9162   1.207   0.157   5.749
 2755SOL     OW 9163   3.953   0.224   2.493
 2755SOL    HW1 9164   3.971   0.322   2.488
 2755SOL    HW2 9165   3.878   0.207   2.557
 2756SOL     OW 9166   4.492   6.268   0.511
 2756SOL    HW1 9167   4.506   6.318   0.426
 2756SOL    HW2 9168   4.530   6.176   0.503
 2757SOL     OW 9169   0.651   4.797   0.961
 2757SOL    HW1 9170   0.609   4.723   0.908
 2757SOL    HW2 9171   0.667   4.875   0.902
 2758SOL     OW 9172   4.509   1.016   5.446
 2758SOL    HW1 9173   4.532   1.066   5.362
 2758SOL    HW2 9174   4.517   0.918   5.429
 2759SOL     OW 9175   4.911   4.849   4.244
 2759SOL    HW1 9176   4.872   4.892   4.162
 2759SOL    HW2 9177   4.947   4.759   4.220
 2760SOL     OW 9178   1.434   6.343   3.841
 2760SOL    HW1 9179   1.478   6.283   3.774
 2760SOL    HW2 9180   1.338   6.318   3.850
 2761SOL     OW 9181   2.459   5.060   3.793
 2761SOL    HW1 9182   2.378   5.083   3.739
 2761SOL    HW2 9183   2.541   5.082   3.741
 2762SOL     OW 9184   1.499   0.674   5.018
 2762SOL    HW1 9185   1.572   0.736   4.990
 2762SOL    HW2 9186   1.534   0.580   5.021
 2763SOL     OW 9187   5.005   1.386   2.582
 2763SOL    HW1 9188   4.909   1.406   2.562
 2763SOL    HW2 9189   5.063   1.423   2.509
 2764SOL     OW 9190   6.219   1.038   1.793
 2764SOL    HW1 9191   6.144   1.054   1.729
 2764SOL    HW2 9192   6.219   0.943   1.822
 2765SOL     OW 9193   5.421   1.920   2.804
 2765SOL    HW1 9194   5.347   1.875   2.754
 2765SOL    HW2 9195   5.387   1.953   2.892
 2766SOL     OW 9196   5.958   0.292   2.804
 2766SOL    HW1 9197   5.977   0.243   2.889
 2766SOL    HW2 9198   6.027   0.268   2.735
 2767SOL     OW 9199   6.103   4.140   5.769
 2767SOL    HW1 9200   6.137   4.230   5.740
 2767SOL    HW2 9201   6.029   4.153   5.836
 2768SOL     OW 9202   6.073   1.331   6.480
 2768SOL    HW1 9203   6.168   1.344   6.510
 2768SOL    HW2 9204   6.052   1.399   6.409
 2769SOL     OW 9205   1.377   4.445   1.348
 2769SOL    HW1 9206   1.465   4.413   1.313
 2769SOL    HW2 9207   1.307   4.437   1.277
 2770SOL     OW 9208   6.523   5.888   1.557
 2770SOL    HW1 9209   6.475   5.971   1.584
 2770SOL    HW2 9210   6.619   5.909   1.539
 2771SOL     OW 9211   5.299   1.335   1.299
 2771SOL    HW1 9212   5.329   1.239   1.297
 2771SOL    HW2 9213   5.362   1.388   1.355
 2772SOL     OW 9214   3.848   2.291   6.715
 2772SOL    HW1 9215   3.896   2.275   6.628
 2772SOL    HW2 9216   3.911   2.275   6.791
 2773SOL     OW 9217   3.451   4.541   0.982
 2773SOL    HW1 9218   3.379   4.494   1.032
 2773SOL    HW2 9219   3.483   4.620   1.034
 2774SOL     OW 9220   5.590   3.384   2.449
 2774SOL    HW1 9221   5.596   3.371   2.350
 2774SOL    HW2 9222   5.652   3.456   2.478
 2775SOL     OW 9223   6.432   6.849   2.177
 2775SOL    HW1 9224   6.484   6.796   2.110
 2775SOL    HW2 9225   6.436   6.946   2.153
 2776SOL     OW 9226   3.375   6.314   6.166
 2776SOL    HW1 9227   3.288   6.304   6.118
 2776SOL    HW2 9228   3.358   6.333   6.263
 2777SOL     OW 9229   2.461   1.549   3.319
 2777SOL    HW1 9230   2.505   1.557   3.408
 2777SOL    HW2 9231   2.362   1.551   3.329
 2778SOL     OW 9232   2.534   2.083   4.432
 2778SOL    HW1 9233   2.616   2.085   4.490
 2778SOL    HW2 9234   2.455   2.117   4.484
 2779SOL     OW 9235   6.237   1.541   0.965
 2779SOL    HW1 9236   6.298   1.507   1.037
 2779SOL    HW2 9237   6.157   1.481   0.959
 2780SOL     OW 9238   3.984   6.042   0.242
 2780SOL    HW1 9239   3.963   6.137   0.265
 2780SOL    HW2 9240   3.927   6.013   0.165
 2781SOL     OW 9241   4.659   4.616   0.025
 2781SOL    HW1 9242   4.614   4.629   0.113
 2781SOL    HW2 9243   4.652   4.701   6.997
 2782SOL     OW 9244   2.947   1.279   5.880
 2782SOL    HW1 9245   3.006   1.307   5.956
 2782SOL    HW2 9246   2.898   1.196   5.905
 2783SOL     OW 9247   0.131   4.301   5.788
 2783SOL    HW1 9248   0.091   4.216   5.821
 2783SOL    HW2 9249   0.093   4.378   5.838
 2784SOL     OW 9250   2.423   2.369   1.760
 2784SOL    HW1 9251   2.362   2.447   1.753
 2784SOL    HW2 9252   2.504   2.395   1.812
 2785SOL     OW 9253   5.991   1.084   1.663
 2785SOL    HW1 9254   5.924   1.043   1.601
 2785SOL    HW2 9255   5.943   1.129   1.738
 2786SOL     OW 9256   2.728   0.049   0.065
 2786SOL    HW1 9257   2.797   7.012   0.103
 2786SOL    HW2 9258   2.773   0.131   0.030
 2787SOL     OW 9259   2.005   2.882   5.244
 2787SOL    HW1 9260   1.936   2.954   5.253
 2787SOL    HW2 9261   1.995   2.838   5.155
 2788SOL     OW 9262   0.470   3.997   6.861
 2788SOL    HW1 9263   0.436   3.958   6.775
 2788SOL    HW2 9264   0.517   3.926   6.913
 2789SOL     OW 9265   0.006   2.361   4.087
 2789SOL    HW1 9266   0.091   2.387   4.041
 2789SOL    HW2 9267   6.965   2.330   4.018
 2790SOL     OW 9268   3.321   6.322   3.941
 2790SOL    HW1 9269   3.415   6.336   3.972
 2790SOL    HW2 9270   3.315   6.233   3.894
 2791SOL     OW 9271   2.219   2.809   2.718
 2791SOL    HW1 9272   2.304   2.759   2.735
 2791SOL    HW2 9273   2.173   2.771   2.638
 2792SOL     OW 9274   1.648   2.293   4.763
 2792SOL    HW1 9275   1.720   2.283   4.833
 2792SOL    HW2 9276   1.678   2.248   4.679
 2793SOL     OW 9277   5.222   0.734   4.204
 2793SOL    HW1 9278   5.145   0.786   4.166
 2793SOL    HW2 9279   5.221   0.742   4.304
 2794SOL     OW 9280   0.696   1.299   1.710
 2794SOL    HW1 9281   0.735   1.307   1.618
 2794SOL    HW2 9282   0.599   1.321   1.708
 2795SOL     OW 9283   1.969   4.293   1.495
 2795SOL    HW1 9284   2.011   4.215   1.540
 2795SOL    HW2 9285   1.886   4.319   1.544
 2796SOL     OW 9286   5.815   4.489   2.388
 2796SOL    HW1 9287   5.834   4.419   2.320
 2796SOL    HW2 9288   5.841   4.456   2.478
 2797SOL     OW 9289   4.571   4.503   4.879
 2797SOL    HW1 9290   4.631   4.557   4.819
 2797SOL    HW2 9291   4.476   4.536   4.869
 2798SOL     OW 9292   1.862   3.432   3.832
 2798SOL    HW1 9293   1.884   3.391   3.920
 2798SOL    HW2 9294   1.912   3.518   3.822
 2799SOL     OW 9295   6.378   5.413   5.963
 2799SOL    HW1 9296   6.308   5.341   5.959
 2799SOL    HW2 9297   6.460   5.383   5.915
 2800SOL     OW 9298   2.765   1.760   6.813
 2800SOL    HW1 9299   2.848   1.815   6.805
 2800SOL    HW2 9300   2.744   1.719   6.725
 2801SOL     OW 9301   4.428   5.388   2.475
 2801SOL    HW1 9302   4.396   5.300   2.512
 2801SOL    HW2 9303   4.361   5.459   2.495
 2802SOL     OW 9304   5.840   0.825   6.319
 2802SOL    HW1 9305   5.861   0.923   6.316
 2802SOL    HW2 9306   5.925   0.773   6.325
 2803SOL     OW 9307   2.264   5.611   5.538
 2803SOL    HW1 9308   2.280   5.708   5.521
 2803SOL    HW2 9309   2.326   5.556   5.482
 2804SOL     OW 9310   0.261   4.821   2.468
 2804SOL    HW1 9311   0.352   4.859   2.451
 2804SOL    HW2 9312   0.208   4.822   2.383
 2805SOL     OW 9313   5.324   4.048   6.163
 2805SOL    HW1 9314   5.276   4.029   6.077
 2805SOL    HW2 9315   5.316   3.969   6.223
 2806SOL     OW 9316   6.913   5.258   2.887
 2806SOL    HW1 9317   6.916   5.262   2.787
 2806SOL    HW2 9318   6.842   5.193   2.916
 2807SOL     OW 9319   4.258   4.702   4.139
 2807SOL    HW1 9320   4.331   4.681   4.204
 2807SOL    HW2 9321   4.176   4.729   4.190
 2808SOL     OW 9322   4.488   5.730   3.908
 2808SOL    HW1 9323   4.447   5.646   3.872
 2808SOL    HW2 9324   4.417   5.800   3.919
 2809SOL     OW 9325   5.368   3.126   0.643
 2809SOL    HW1 9326   5.441   3.155   0.580
 2809SOL    HW2 9327   5.341   3.032   0.621
 2810SOL     OW 9328   1.549   0.446   5.687
 2810SOL    HW1 9329   1.510   0.536   5.704
 2810SOL    HW2 9330   1.493   0.396   5.621
 2811SOL     OW 9331   0.098   1.121   4.208
 2811SOL    HW1 9332   0.046   1.136   4.291
 2811SOL    HW2 9333   0.037   1.124   4.129
 2812SOL     OW 9334   5.097   3.547   2.706
 2812SOL    HW1 9335   5.033   3.529   2.631
 2812SOL    HW2 9336   5.161   3.471   2.714
 2813SOL     OW 9337   6.084   1.966   6.375
 2813SOL    HW1 9338   6.037   1.991   6.290
 2813SOL    HW2 9339   6.178   1.940   6.354
 2814SOL     OW 9340   5.060   4.530   5.264
 2814SOL    HW1 9341   5.051   4.530   5.164
 2814SOL    HW2 9342   5.151   4.564   5.289
 2815SOL     OW 9343   0.153   1.534   4.919
 2815SOL    HW1 9344   0.108   1.475   4.987
 2815SOL    HW2 9345   0.083   1.583   4.867
 2816SOL     OW 9346   5.747   6.508   3.369
 2816SOL    HW1 9347   5.759   6.493   3.271
 2816SOL    HW2 9348   5.689   6.436   3.407
 2817SOL     OW 9349   1.326   1.645   1.335
 2817SOL    HW1 9350   1.248   1.639   1.398
 2817SOL    HW2 9351   1.347   1.741   1.317
 2818SOL     OW 9352   0.512   3.747   6.083
 2818SOL    HW1 9353   0.596   3.738   6.135
 2818SOL    HW2 9354   0.489   3.844   6.072
 2819SOL     OW 9355   5.928   3.157   0.865
 2819SOL    HW1 9356   6.003   3.165   0.931
 2819SOL    HW2 9357   5.965   3.131   0.776
 2820SOL     OW 9358   5.665   2.637   4.234
 2820SOL    HW1 9359   5.765   2.640   4.233
 2820SOL    HW2 9360   5.631   2.596   4.149
 2821SOL     OW 9361   1.292   3.240   3.793
 2821SOL    HW1 9362   1.365   3.286   3.743
 2821SOL    HW2 9363   1.332   3.179   3.861
 2822SOL     OW 9364   3.013   1.676   0.221
 2822SOL    HW1 9365   2.947   1.674   0.145
 2822SOL    HW2 9366   2.965   1.702   0.305
 2823SOL     OW 9367   2.002   6.406   3.456
 2823SOL    HW1 9368   1.933   6.425   3.526
 2823SOL    HW2 9369   2.000   6.309   3.433
 2824SOL     OW 9370   3.035   1.564   4.872
 2824SOL    HW1 9371   3.084   1.524   4.949
 2824SOL    HW2 9372   2.949   1.605   4.905
 2825SOL     OW 9373   6.285   6.210   1.506
 2825SOL    HW1 9374   6.213   6.202   1.437
 2825SOL    HW2 9375   6.372   6.231   1.461
 2826SOL     OW 9376   4.591   2.625   3.960
 2826SOL    HW1 9377   4.579   2.631   4.059
 2826SOL    HW2 9378   4.531   2.554   3.923
 2827SOL     OW 9379   5.656   1.005   6.506
 2827SOL    HW1 9380   5.735   1.030   6.450
 2827SOL    HW2 9381   5.595   0.946   6.453
 2828SOL     OW 9382   3.426   1.897   6.757
 2828SOL    HW1 9383   3.491   1.973   6.753
 2828SOL    HW2 9384   3.423   1.861   6.850
 2829SOL     OW 9385   2.064   0.266   6.495
 2829SOL    HW1 9386   2.010   0.312   6.565
 2829SOL    HW2 9387   2.005   0.211   6.436
 2830SOL     OW 9388   3.138   3.614   6.564
 2830SOL    HW1 9389   3.098   3.526   6.588
 2830SOL    HW2 9390   3.165   3.662   6.647
 2831SOL     OW 9391   6.315   5.598   4.445
 2831SOL    HW1 9392   6.389   5.534   4.427
 2831SOL    HW2 9393   6.289   5.593   4.542
 2832SOL     OW 9394   0.195   0.700   1.771
 2832SOL    HW1 9395   0.152   0.633   1.710
 2832SOL    HW2 9396   0.283   0.727   1.733
 2833SOL     OW 9397   6.359   2.911   2.308
 2833SOL    HW1 9398   6.344   2.826   2.259
 2833SOL    HW2 9399   6.429   2.897   2.379
 2834SOL     OW 9400   4.049   0.990   6.084
 2834SOL    HW1 9401   4.106   1.049   6.026
 2834SOL    HW2 9402   4.019   0.911   6.031
 2835SOL     OW 9403   0.575   6.520   3.033
 2835SOL    HW1 9404   0.597   6.426   3.059
 2835SOL    HW2 9405   0.476   6.529   3.023
 2836SOL     OW 9406   6.561   0.946   1.144
 2836SOL    HW1 9407   6.614   1.007   1.203
 2836SOL    HW2 9408   6.535   0.994   1.060
 2837SOL     OW 9409   6.417   2.913   3.819
 2837SOL    HW1 9410   6.479   2.985   3.787
 2837SOL    HW2 9411   6.332   2.955   3.854
 2838SOL     OW 9412   1.798   4.864   4.074
 2838SOL    HW1 9413   1.885   4.851   4.026
 2838SOL    HW2 9414   1.807   4.938   4.140
 2839SOL     OW 9415   5.340   2.242   1.745
 2839SOL    HW1 9416   5.315   2.170   1.809
 2839SOL    HW2 9417   5.272   2.316   1.750
 2840SOL     OW 9418   6.732   2.374   5.450
 2840SOL    HW1 9419   6.653   2.390   5.510
 2840SOL    HW2 9420   6.816   2.397   5.499
 2841SOL     OW 9421   0.545   6.505   1.603
 2841SOL    HW1 9422   0.489   6.555   1.537
 2841SOL    HW2 9423   0.626   6.560   1.626
 2842SOL     OW 9424   6.115   2.934   2.940
 2842SOL    HW1 9425   6.045   2.868   2.912
 2842SOL    HW2 9426   6.072   3.023   2.956
 2843SOL     OW 9427   3.916   2.139   4.799
 2843SOL    HW1 9428   3.975   2.212   4.766
 2843SOL    HW2 9429   3.928   2.127   4.897
 2844SOL     OW 9430   0.189   3.915   5.280
 2844SOL    HW1 9431   0.226   3.968   5.204
 2844SOL    HW2 9432   0.199   3.818   5.261
 2845SOL     OW 9433   6.597   4.094   5.885
 2845SOL    HW1 9434   6.508   4.095   5.931
 2845SOL    HW2 9435   6.668   4.115   5.952
 2846SOL     OW 9436   4.755   1.027   6.672
 2846SOL    HW1 9437   4.699   1.039   6.754
 2846SOL    HW2 9438   4.847   1.063   6.689
 2847SOL     OW 9439   4.722   4.511   3.741
 2847SOL    HW1 9440   4.791   4.570   3.697
 2847SOL    HW2 9441   4.631   4.549   3.725
 2848SOL     OW 9442   1.387   6.375   5.379
 2848SOL    HW1 9443   1.381   6.460   5.432
 2848SOL    HW2 9444   1.373   6.395   5.282
 2849SOL     OW 9445   2.182   3.038   1.507
 2849SOL    HW1 9446   2.251   3.086   1.562
 2849SOL    HW2 9447   2.102   3.097   1.495
 2850SOL     OW 9448   3.293   1.086   0.454
 2850SOL    HW1 9449   3.358   1.119   0.522
 2850SOL    HW2 9450   3.260   0.996   0.480
 2851SOL     OW 9451   2.126   4.719   6.212
 2851SOL    HW1 9452   2.085   4.735   6.122
 2851SOL    HW2 9453   2.226   4.712   6.202
 2852SOL     OW 9454   0.415   3.256   6.460
 2852SOL    HW1 9455   0.316   3.247   6.472
 2852SOL    HW2 9456   0.433   3.307   6.376
 2853SOL     OW 9457   3.426   2.811   1.419
 2853SOL    HW1 9458   3.513   2.833   1.464
 2853SOL    HW2 9459   3.388   2.727   1.458
 2854SOL     OW 9460   1.093   1.077   3.572
 2854SOL    HW1 9461   1.191   1.078   3.591
 2854SOL    HW2 9462   1.042   1.082   3.658
 2855SOL     OW 9463   3.196   0.841   5.183
 2855SOL    HW1 9464   3.220   0.937   5.169
 2855SOL    HW2 9465   3.241   0.807   5.265
 2856SOL     OW 9466   2.437   1.334   5.210
 2856SOL    HW1 9467   2.354   1.376   5.176
 2856SOL    HW2 9468   2.429   1.319   5.309
 2857SOL     OW 9469   3.439   3.494   3.245
 2857SOL    HW1 9470   3.494   3.564   3.290
 2857SOL    HW2 9471   3.387   3.534   3.170
 2858SOL     OW 9472   5.811   2.435   2.895
 2858SOL    HW1 9473   5.877   2.395   2.959
 2858SOL    HW2 9474   5.759   2.361   2.852
 2859SOL     OW 9475   5.592   6.080   0.517
 2859SOL    HW1 9476   5.614   6.137   0.438
 2859SOL    HW2 9477   5.651   5.999   0.517
 2860SOL     OW 9478   4.484   2.361   1.351
 2860SOL    HW1 9479   4.560   2.352   1.286
 2860SOL    HW2 9480   4.418   2.289   1.335
 2861SOL     OW 9481   3.110   4.989   5.737
 2861SOL    HW1 9482   3.027   5.034   5.706
 2861SOL    HW2 9483   3.189   5.029   5.692
 2862SOL     OW 9484   6.196   0.273   4.541
 2862SOL    HW1 9485   6.210   0.194   4.482
 2862SOL    HW2 9486   6.283   0.306   4.576
 2863SOL     OW 9487   6.586   1.946   0.341
 2863SOL    HW1 9488   6.598   1.907   0.432
 2863SOL    HW2 9489   6.543   1.879   0.281
 2864SOL     OW 9490   3.282   1.456   0.126
 2864SOL    HW1 9491   3.292   1.544   0.078
 2864SOL    HW2 9492   3.331   1.460   0.213
 2865SOL     OW 9493   4.571   5.073   5.010
 2865SOL    HW1 9494   4.497   5.034   5.065
 2865SOL    HW2 9495   4.546   5.068   4.913
 2866SOL     OW 9496   6.896   0.058   6.305
 2866SOL    HW1 9497   6.924   0.111   6.224
 2866SOL    HW2 9498   6.802   0.027   6.294
 2867SOL     OW 9499   6.656   4.158   3.329
 2867SOL    HW1 9500   6.653   4.059   3.317
 2867SOL    HW2 9501   6.650   4.203   3.240
 2868SOL     OW 9502   1.924   4.730   5.329
 2868SOL    HW1 9503   1.836   4.768   5.360
 2868SOL    HW2 9504   1.949   4.772   5.242
 2869SOL     OW 9505   6.154   1.104   2.702
 2869SOL    HW1 9506   6.205   1.025   2.667
 2869SOL    HW2 9507   6.090   1.136   2.632
 2870SOL     OW 9508   5.338   1.980   2.505
 2870SOL    HW1 9509   5.291   1.941   2.426
 2870SOL    HW2 9510   5.386   2.063   2.477
 2871SOL     OW 9511   2.359   1.507   5.912
 2871SOL    HW1 9512   2.402   1.595   5.934
 2871SOL    HW2 9513   2.407   1.433   5.960
 2872SOL     OW 9514   2.181   6.546   3.983
 2872SOL    HW1 9515   2.114   6.481   4.017
 2872SOL    HW2 9516   2.139   6.608   3.917
 2873SOL     OW 9517   6.960   5.354   1.625
 2873SOL    HW1 9518   7.024   5.279   1.606
 2873SOL    HW2 9519   6.928   5.346   1.720
 2874SOL     OW 9520   5.441   1.600   3.041
 2874SOL    HW1 9521   5.490   1.685   3.060
 2874SOL    HW2 9522   5.342   1.617   3.042
 2875SOL     OW 9523   2.833   5.047   0.875
 2875SOL    HW1 9524   2.744   5.039   0.920
 2875SOL    HW2 9525   2.835   5.131   0.821
 2876SOL     OW 9526   0.128   1.558   2.516
 2876SOL    HW1 9527   0.065   1.493   2.557
 2876SOL    HW2 9528   0.180   1.604   2.587
 2877SOL     OW 9529   2.239   2.876   5.778
 2877SOL    HW1 9530   2.294   2.889   5.696
 2877SOL    HW2 9531   2.207   2.965   5.812
 2878SOL     OW 9532   3.364   4.785   0.098
 2878SOL    HW1 9533   3.277   4.774   0.147
 2878SOL    HW2 9534   3.360   4.867   0.040
 2879SOL     OW 9535   4.775   5.340   6.914
 2879SOL    HW1 9536   4.732   5.308   6.830
 2879SOL    HW2 9537   4.784   5.264   6.978
 2880SOL     OW 9538   1.020   6.509   1.789
 2880SOL    HW1 9539   1.066   6.547   1.869
 2880SOL    HW2 9540   1.064   6.543   1.706
 2881SOL     OW 9541   0.193   0.094   6.676
 2881SOL    HW1 9542   0.210   7.021   6.677
 2881SOL    HW2 9543   0.259   0.139   6.617
 2882SOL     OW 9544   6.840   3.193   3.633
 2882SOL    HW1 9545   6.857   3.100   3.600
 2882SOL    HW2 9546   6.857   3.258   3.560
 2883SOL     OW 9547   4.627   6.350   2.985
 2883SOL    HW1 9548   4.583   6.356   3.075
 2883SOL    HW2 9549   4.693   6.424   2.976
 2884SOL     OW 9550   1.765   6.134   3.338
 2884SOL    HW1 9551   1.842   6.136   3.402
 2884SOL    HW2 9552   1.759   6.043   3.297
 2885SOL     OW 9553   0.433   2.186   3.694
 2885SOL    HW1 9554   0.461   2.111   3.754
 2885SOL    HW2 9555   0.513   2.222   3.646
 2886SOL     OW 9556   2.280   2.634   6.165
 2886SOL    HW1 9557   2.285   2.628   6.265
 2886SOL    HW2 9558   2.365   2.672   6.130
 2887SOL     OW 9559   2.293   0.920   4.920
 2887SOL    HW1 9560   2.230   0.917   4.998
 2887SOL    HW2 9561   2.317   1.015   4.900
 2888SOL     OW 9562   6.647   5.087   6.949
 2888SOL    HW1 9563   6.741   5.054   6.949
 2888SOL    HW2 9564   6.643   5.176   6.995
 2889SOL     OW 9565   0.151   0.225   1.491
 2889SOL    HW1 9566   0.118   0.199   1.581
 2889SOL    HW2 9567   0.236   0.176   1.471
 2890SOL     OW 9568   3.048   6.803   0.710
 2890SOL    HW1 9569   2.979   6.872   0.687
 2890SOL    HW2 9570   3.139   6.838   0.686
 2891SOL     OW 9571   2.763   5.038   4.418
 2891SOL    HW1 9572   2.840   4.984   4.451
 2891SOL    HW2 9573   2.677   4.998   4.449
 2892SOL     OW 9574   4.492   4.529   5.575
 2892SOL    HW1 9575   4.550   4.482   5.641
 2892SOL    HW2 9576   4.487   4.626   5.598
 2893SOL     OW 9577   2.540   0.640   5.867
 2893SOL    HW1 9578   2.603   0.580   5.816
 2893SOL    HW2 9579   2.498   0.705   5.804
 2894SOL     OW 9580   3.423   2.612   0.913
 2894SOL    HW1 9581   3.388   2.553   0.985
 2894SOL    HW2 9582   3.369   2.696   0.909
 2895SOL     OW 9583   3.390   3.460   6.710
 2895SOL    HW1 9584   3.327   3.509   6.771
 2895SOL    HW2 9585   3.362   3.364   6.704
 2896SOL     OW 9586   2.021   5.596   0.930
 2896SOL    HW1 9587   2.072   5.527   0.879
 2896SOL    HW2 9588   1.973   5.656   0.866
 2897SOL     OW 9589   1.738   6.639   3.458
 2897SOL    HW1 9590   1.723   6.557   3.402
 2897SOL    HW2 9591   1.652   6.688   3.469
 2898SOL     OW 9592   2.596   4.978   2.747
 2898SOL    HW1 9593   2.596   4.999   2.650
 2898SOL    HW2 9594   2.544   4.894   2.764
 2899SOL     OW 9595   6.759   0.701   0.198
 2899SOL    HW1 9596   6.793   0.607   0.200
 2899SOL    HW2 9597   6.797   0.752   0.275
 2900SOL     OW 9598   2.876   5.736   5.871
 2900SOL    HW1 9599   2.824   5.812   5.908
 2900SOL    HW2 9600   2.969   5.737   5.908
 2901SOL     OW 9601   2.960   0.405   1.441
 2901SOL    HW1 9602   2.959   0.466   1.362
 2901SOL    HW2 9603   3.030   0.436   1.506
 2902SOL     OW 9604   5.434   5.680   1.761
 2902SOL    HW1 9605   5.354   5.733   1.729
 2902SOL    HW2 9606   5.421   5.655   1.857
 2903SOL     OW 9607   2.685   2.457   1.826
 2903SOL    HW1 9608   2.721   2.506   1.747
 2903SOL    HW2 9609   2.761   2.422   1.881
 2904SOL     OW 9610   1.768   3.502   4.825
 2904SOL    HW1 9611   1.726   3.412   4.825
 2904SOL    HW2 9612   1.747   3.549   4.911
 2905SOL     OW 9613   0.882   2.373   1.450
 2905SOL    HW1 9614   0.950   2.427   1.499
 2905SOL    HW2 9615   0.848   2.425   1.372
 2906SOL     OW 9616   5.256   5.818   2.489
 2906SOL    HW1 9617   5.295   5.766   2.413
 2906SOL    HW2 9618   5.172   5.864   2.459
 2907SOL     OW 9619   6.410   0.632   4.077
 2907SOL    HW1 9620   6.366   0.708   4.124
 2907SOL    HW2 9621   6.508   0.631   4.098
 2908SOL     OW 9622   4.057   6.176   4.961
 2908SOL    HW1 9623   3.962   6.197   4.983
 2908SOL    HW2 9624   4.108   6.262   4.949
 2909SOL     OW 9625   1.147   6.174   5.547
 2909SOL    HW1 9626   1.202   6.202   5.468
 2909SOL    HW2 9627   1.154   6.076   5.560
 2910SOL     OW 9628   5.215   6.159   6.158
 2910SOL    HW1 9629   5.117   6.171   6.142
 2910SOL    HW2 9630   5.263   6.245   6.139
 2911SOL     OW 9631   2.233   4.019   3.319
 2911SOL    HW1 9632   2.302   3.986   3.255
 2911SOL    HW2 9633   2.268   4.101   3.366
 2912SOL     OW 9634   2.605   5.170   0.610
 2912SOL    HW1 9635   2.657   5.138   0.531
 2912SOL    HW2 9636   2.656   5.243   0.656
 2913SOL     OW 9637   1.104   2.902   2.940
 2913SOL    HW1 9638   1.037   2.963   2.898
 2913SOL    HW2 9639   1.191   2.909   2.890
 2914SOL     OW 9640   5.126   5.483   5.467
 2914SOL    HW1 9641   5.053   5.503   5.402
 2914SOL    HW2 9642   5.145   5.384   5.466
 2915SOL     OW 9643   4.098   1.212   3.992
 2915SOL    HW1 9644   4.070   1.259   3.908
 2915SOL    HW2 9645   4.076   1.268   4.071
 2916SOL     OW 9646   4.457   5.478   4.184
 2916SOL    HW1 9647   4.399   5.559   4.193
 2916SOL    HW2 9648   4.513   5.467   4.266
 2917SOL     OW 9649   4.427   1.352   2.688
 2917SOL    HW1 9650   4.355   1.421   2.698
 2917SOL    HW2 9651   4.422   1.312   2.596
 2918SOL     OW 9652   0.159   3.556   3.820
 2918SOL    HW1 9653   0.160   3.589   3.914
 2918SOL    HW2 9654   0.226   3.608   3.766
 2919SOL     OW 9655   6.754   6.115   0.006
 2919SOL    HW1 9656   6.830   6.055   0.031
 2919SOL    HW2 9657   6.685   6.115   0.078
 2920SOL     OW 9658   4.295   2.359   3.028
 2920SOL    HW1 9659   4.345   2.365   3.115
 2920SOL    HW2 9660   4.328   2.430   2.966
 2921SOL     OW 9661   0.266   0.067   1.720
 2921SOL    HW1 9662   0.193   0.015   1.765
 2921SOL    HW2 9663   0.266   0.161   1.754
 2922SOL     OW 9664   4.204   6.261   5.680
 2922SOL    HW1 9665   4.178   6.322   5.755
 2922SOL    HW2 9666   4.134   6.190   5.669
 2923SOL     OW 9667   6.977   4.211   0.553
 2923SOL    HW1 9668   6.884   4.177   0.559
 2923SOL    HW2 9669   0.015   4.134   0.548
 2924SOL     OW 9670   5.819   0.348   5.936
 2924SOL    HW1 9671   5.780   0.355   5.844
 2924SOL    HW2 9672   5.869   0.431   5.958
 2925SOL     OW 9673   5.454   3.780   1.211
 2925SOL    HW1 9674   5.495   3.870   1.195
 2925SOL    HW2 9675   5.437   3.769   1.309
 2926SOL     OW 9676   6.921   1.483   3.979
 2926SOL    HW1 9677   6.991   1.498   3.908
 2926SOL    HW2 9678   6.836   1.455   3.936
 2927SOL     OW 9679   0.645   2.639   2.692
 2927SOL    HW1 9680   0.702   2.560   2.716
 2927SOL    HW2 9681   0.567   2.645   2.755
 2928SOL     OW 9682   5.269   6.529   0.895
 2928SOL    HW1 9683   5.299   6.510   0.988
 2928SOL    HW2 9684   5.301   6.456   0.834
 2929SOL     OW 9685   1.018   0.476   5.931
 2929SOL    HW1 9686   0.952   0.483   5.856
 2929SOL    HW2 9687   0.971   0.443   6.013
 2930SOL     OW 9688   3.702   6.528   4.909
 2930SOL    HW1 9689   3.800   6.509   4.910
 2930SOL    HW2 9690   3.652   6.442   4.895
 2931SOL     OW 9691   3.424   5.486   6.770
 2931SOL    HW1 9692   3.467   5.492   6.679
 2931SOL    HW2 9693   3.490   5.514   6.839
 2932SOL     OW 9694   1.370   4.369   2.039
 2932SOL    HW1 9695   1.446   4.433   2.047
 2932SOL    HW2 9696   1.384   4.310   1.959
 2933SOL     OW 9697   4.791   1.771   3.400
 2933SOL    HW1 9698   4.821   1.731   3.313
 2933SOL    HW2 9699   4.729   1.708   3.446
 2934SOL     OW 9700   2.736   0.671   0.110
 2934SOL    HW1 9701   2.767   0.758   0.148
 2934SOL    HW2 9702   2.696   0.687   0.019
 2935SOL     OW 9703   6.680   1.812   1.070
 2935SOL    HW1 9704   6.583   1.788   1.062
 2935SOL    HW2 9705   6.698   1.894   1.016
 2936SOL     OW 9706   3.400   6.127   1.068
 2936SOL    HW1 9707   3.302   6.145   1.068
 2936SOL    HW2 9708   3.416   6.028   1.064
 2937SOL     OW 9709   2.559   4.056   0.254
 2937SOL    HW1 9710   2.568   3.974   0.197
 2937SOL    HW2 9711   2.547   4.136   0.196
 2938SOL     OW 9712   5.088   5.158   5.564
 2938SOL    HW1 9713   4.993   5.135   5.539
 2938SOL    HW2 9714   5.093   5.178   5.662
 2939SOL     OW 9715   0.141   6.655   5.573
 2939SOL    HW1 9716   0.226   6.639   5.522
 2939SOL    HW2 9717   0.162   6.660   5.671
 2940SOL     OW 9718   4.316   0.523   5.684
 2940SOL    HW1 9719   4.267   0.551   5.601
 2940SOL    HW2 9720   4.397   0.469   5.658
 2941SOL     OW 9721   2.848   1.625   5.642
 2941SOL    HW1 9722   2.768   1.569   5.621
 2941SOL    HW2 9723   2.891   1.592   5.726
 2942SOL     OW 9724   3.953   6.212   4.568
 2942SOL    HW1 9725   3.954   6.125   4.519
 2942SOL    HW2 9726   3.859   6.241   4.583
 2943SOL     OW 9727   5.889   3.659   2.752
 2943SOL    HW1 9728   5.925   3.599   2.680
 2943SOL    HW2 9729   5.827   3.606   2.811
 2944SOL     OW 9730   4.057   6.252   6.673
 2944SOL    HW1 9731   4.143   6.206   6.696
 2944SOL    HW2 9732   3.990   6.236   6.746
 2945SOL     OW 9733   2.997   3.802   3.171
 2945SOL    HW1 9734   2.997   3.849   3.082
 2945SOL    HW2 9735   3.051   3.855   3.236
 2946SOL     OW 9736   0.148   5.928   5.821
 2946SOL    HW1 9737   0.215   5.994   5.784
 2946SOL    HW2 9738   0.113   5.961   5.908
 2947SOL     OW 9739   0.260   5.337   0.655
 2947SOL    HW1 9740   0.163   5.331   0.677
 2947SOL    HW2 9741   0.310   5.371   0.735
 2948SOL     OW 9742   5.924   4.288   5.217
 2948SOL    HW1 9743   5.858   4.341   5.271
 2948SOL    HW2 9744   5.905   4.191   5.228
 2949SOL     OW 9745   1.172   6.295   0.801
 2949SOL    HW1 9746   1.249   6.347   0.766
 2949SOL    HW2 9747   1.150   6.220   0.738
 2950SOL     OW 9748   5.366   3.771   4.466
 2950SOL    HW1 9749   5.424   3.824   4.404
 2950SOL    HW2 9750   5.285   3.740   4.417
 2951SOL     OW 9751   6.094   1.206   1.363
 2951SOL    HW1 9752   6.031   1.176   1.291
 2951SOL    HW2 9753   6.043   1.254   1.434
 2952SOL     OW 9754   1.717   3.630   2.270
 2952SOL    HW1 9755   1.680   3.594   2.185
 2952SOL    HW2 9756   1.810   3.663   2.255
 2953SOL     OW 9757   5.542   0.852   2.905
 2953SOL    HW1 9758   5.620   0.901   2.867
 2953SOL    HW2 9759   5.575   0.790   2.977
 2954SOL     OW 9760   5.777   6.367   1.571
 2954SOL    HW1 9761   5.680   6.390   1.563
 2954SOL    HW2 9762   5.794   6.277   1.529
 2955SOL     OW 9763   6.270   2.896   0.741
 2955SOL    HW1 9764   6.260   2.928   0.647
 2955SOL    HW2 9765   6.299   2.801   0.742
 2956SOL     OW 9766   6.640   5.442   2.608
 2956SOL    HW1 9767   6.602   5.432   2.516
 2956SOL    HW2 9768   6.632   5.356   2.657
 2957SOL     OW 9769   1.256   4.006   1.823
 2957SOL    HW1 9770   1.216   4.070   1.758
 2957SOL    HW2 9771   1.291   3.927   1.774
 2958SOL     OW 9772   3.566   4.801   6.509
 2958SOL    HW1 9773   3.585   4.899   6.511
 2958SOL    HW2 9774   3.498   4.782   6.438
 2959SOL     OW 9775   4.304   6.015   6.920
 2959SOL    HW1 9776   4.356   5.956   6.980
 2959SOL    HW2 9777   4.331   6.110   6.935
 2960SOL     OW 9778   2.594   1.517   6.664
 2960SOL    HW1 9779   2.546   1.441   6.708
 2960SOL    HW2 9780   2.538   1.600   6.670
 2961SOL     OW 9781   5.671   2.488   4.697
 2961SOL    HW1 9782   5.624   2.443   4.621
 2961SOL    HW2 9783   5.769   2.496   4.675
 2962SOL     OW 9784   3.627   1.180   3.325
 2962SOL    HW1 9785   3.540   1.224   3.305
 2962SOL    HW2 9786   3.700   1.225   3.273
 2963SOL     OW 9787   1.966   2.875   4.942
 2963SOL    HW1 9788   2.061   2.891   4.915
 2963SOL    HW2 9789   1.928   2.803   4.885
 2964SOL     OW 9790   2.801   5.872   0.490
 2964SOL    HW1 9791   2.775   5.921   0.407
 2964SOL    HW2 9792   2.774   5.776   0.483
 2965SOL     OW 9793   0.703   2.325   5.683
 2965SOL    HW1 9794   0.707   2.414   5.637
 2965SOL    HW2 9795   0.740   2.334   5.775
 2966SOL     OW 9796   4.546   4.431   3.479
 2966SOL    HW1 9797   4.521   4.494   3.552
 2966SOL    HW2 9798   4.534   4.476   3.390
 2967SOL     OW 9799   5.902   2.118   4.024
 2967SOL    HW1 9800   5.983   2.122   4.083
 2967SOL    HW2 9801   5.832   2.180   4.058
 2968SOL     OW 9802   6.406   4.267   3.509
 2968SOL    HW1 9803   6.466   4.226   3.440
 2968SOL    HW2 9804   6.448   4.351   3.544
 2969SOL     OW 9805   4.702   0.926   4.506
 2969SOL    HW1 9806   4.783   0.890   4.461
 2969SOL    HW2 9807   4.710   1.026   4.514
 2970SOL     OW 9808   1.194   4.707   6.530
 2970SOL    HW1 9809   1.155   4.781   6.475
 2970SOL    HW2 9810   1.122   4.643   6.554
 2971SOL     OW 9811   4.948   3.331   3.392
 2971SOL    HW1 9812   4.973   3.387   3.471
 2971SOL    HW2 9813   4.884   3.382   3.334
 2972SOL     OW 9814   0.715   4.032   6.124
 2972SOL    HW1 9815   0.683   4.060   6.214
 2972SOL    HW2 9816   0.815   4.034   6.121
 2973SOL     OW 9817   5.257   6.519   4.190
 2973SOL    HW1 9818   5.184   6.517   4.122
 2973SOL    HW2 9819   5.306   6.605   4.184
 2974SOL     OW 9820   0.512   3.840   2.568
 2974SOL    HW1 9821   0.487   3.894   2.487
 2974SOL    HW2 9822   0.449   3.763   2.578
 2975SOL     OW 9823   0.261   1.704   4.527
 2975SOL    HW1 9824   0.173   1.692   4.479
 2975SOL    HW2 9825   0.319   1.766   4.474
 2976SOL     OW 9826   3.121   6.322   1.831
 2976SOL    HW1 9827   3.132   6.305   1.733
 2976SOL    HW2 9828   3.203   6.367   1.866
 2977SOL     OW 9829   3.892   6.128   4.045
 2977SOL    HW1 9830   3.957   6.195   4.081
 2977SOL    HW2 9831   3.898   6.043   4.098
 2978SOL     OW 9832   3.893   6.234   6.920
 2978SOL    HW1 9833   3.811   6.177   6.913
 2978SOL    HW2 9834   3.868   6.325   6.953
 2979SOL     OW 9835   3.231   1.058   3.566
 2979SOL    HW1 9836   3.134   1.051   3.589
 2979SOL    HW2 9837   3.246   1.021   3.474
 2980SOL     OW 9838   6.870   6.167   3.940
 2980SOL    HW1 9839   6.781   6.122   3.932
 2980SOL    HW2 9840   6.861   6.264   3.918
 2981SOL     OW 9841   1.712   1.289   5.397
 2981SOL    HW1 9842   1.768   1.215   5.361
 2981SOL    HW2 9843   1.744   1.313   5.489
 2982SOL     OW 9844   4.953   6.840   3.255
 2982SOL    HW1 9845   4.904   6.800   3.331
 2982SOL    HW2 9846   4.990   6.930   3.282
 2983SOL     OW 9847   6.750   0.040   2.595
 2983SOL    HW1 9848   6.700   0.086   2.522
 2983SOL    HW2 9849   6.694   6.993   2.634
 2984SOL     OW 9850   5.869   5.107   1.983
 2984SOL    HW1 9851   5.866   5.017   2.025
 2984SOL    HW2 9852   5.841   5.101   1.887
 2985SOL     OW 9853   6.163   1.862   3.097
 2985SOL    HW1 9854   6.080   1.917   3.083
 2985SOL    HW2 9855   6.174   1.844   3.195
 2986SOL     OW 9856   2.234   3.815   5.272
 2986SOL    HW1 9857   2.286   3.890   5.231
 2986SOL    HW2 9858   2.198   3.756   5.200
 2987SOL     OW 9859   4.123   2.017   4.453
 2987SOL    HW1 9860   4.085   1.933   4.491
 2987SOL    HW2 9861   4.219   2.004   4.431
 2988SOL     OW 9862   0.325   0.336   1.787
 2988SOL    HW1 9863   0.413   0.369   1.753
 2988SOL    HW2 9864   0.293   0.396   1.860
 2989SOL     OW 9865   6.931   5.051   0.915
 2989SOL    HW1 9866   6.948   5.084   1.008
 2989SOL    HW2 9867   7.004   4.989   0.887
 2990SOL     OW 9868   3.322   0.194   0.936
 2990SOL    HW1 9869   3.383   0.226   1.008
 2990SOL    HW2 9870   3.368   0.199   0.848
 2991SOL     OW 9871   6.693   4.683   0.208
 2991SOL    HW1 9872   6.707   4.633   0.293
 2991SOL    HW2 9873   6.766   4.658   0.143
 2992SOL     OW 9874   4.129   4.716   6.893
 2992SOL    HW1 9875   4.073   4.787   6.936
 2992SOL    HW2 9876   4.096   4.626   6.922
 2993SOL     OW 9877   1.975   5.578   0.405
 2993SOL    HW1 9878   1.879   5.607   0.399
 2993SOL    HW2 9879   1.985   5.486   0.367
 2994SOL     OW 9880   4.130   6.633   0.106
 2994SOL    HW1 9881   4.123   6.629   0.206
 2994SOL    HW2 9882   4.226   6.623   0.079
 2995SOL     OW 9883   2.418   0.785   5.660
 2995SOL    HW1 9884   2.319   0.799   5.660
 2995SOL    HW2 9885   2.445   0.737   5.577
 2996SOL     OW 9886   4.029   5.602   5.913
 2996SOL    HW1 9887   3.963   5.581   5.841
 2996SOL    HW2 9888   4.065   5.516   5.950
 2997SOL     OW 9889   5.003   6.707   0.257
 2997SOL    HW1 9890   4.939   6.764   0.308
 2997SOL    HW2 9891   5.023   6.624   0.309
 2998SOL     OW 9892   6.186   5.252   5.162
 2998SOL    HW1 9893   6.170   5.155   5.183
 2998SOL    HW2 9894   6.124   5.308   5.217
 2999SOL     OW 9895   3.113   6.369   2.334
 2999SOL    HW1 9896   3.184   6.341   2.269
 2999SOL    HW2 9897   3.052   6.435   2.290
 3000SOL     OW 9898   1.779   2.472   4.325
 3000SOL    HW1 9899   1.712   2.547   4.322
 3000SOL    HW2 9900   1.846   2.486   4.252
 3001SOL     OW 9901   4.697   0.074   6.288
 3001SOL    HW1 9902   4.721   0.012   6.213
 3001SOL    HW2 9903   4.728   0.035   6.374
 3002SOL     OW 9904   3.420   6.955   5.726
 3002SOL    HW1 9905   3.505   6.974   5.775
 3002SOL    HW2 9906   3.349   7.017   5.759
 3003SOL     OW 9907   2.463   0.002   6.308
 3003SOL    HW1 9908   2.421   0.091   6.320
 3003SOL    HW2 9909   2.514   7.003   6.391
 3004SOL     OW 9910   6.255   4.045   5.040
 3004SOL    HW1 9911   6.275   4.045   5.138
 3004SOL    HW2 9912   6.246   3.951   5.008
 3005SOL     OW 9913   4.482   2.576   1.836
 3005SOL    HW1 9914   4.514   2.662   1.795
 3005SOL    HW2 9915   4.492   2.582   1.936
 3006SOL     OW 9916   5.049   0.794   1.278
 3006SOL    HW1 9917   5.098   0.730   1.337
 3006SOL    HW2 9918   5.112   0.833   1.212
 3007SOL     OW 9919   6.685   5.775   1.965
 3007SOL    HW1 9920   6.698   5.796   1.868
 3007SOL    HW2 9921   6.768   5.732   2.001
 3008SOL     OW 9922   4.036   5.868   6.001
 3008SOL    HW1 9923   3.943   5.893   5.974
 3008SOL    HW2 9924   4.055   5.774   5.972
 3009SOL     OW 9925   0.817   1.043   2.596
 3009SOL    HW1 9926   0.853   1.136   2.602
 3009SOL    HW2 9927   0.743   1.040   2.529
 3010SOL     OW 9928   3.298   6.684   2.622
 3010SOL    HW1 9929   3.268   6.591   2.600
 3010SOL    HW2 9930   3.373   6.710   2.560
 3011SOL     OW 9931   5.787   0.636   0.025
 3011SOL    HW1 9932   5.827   0.547   0.045
 3011SOL    HW2 9933   5.687   0.627   0.018
 3012SOL     OW 9934   0.093   4.821   2.259
 3012SOL    HW1 9935   7.025   4.786   2.252
 3012SOL    HW2 9936   0.134   4.823   2.167
 3013SOL     OW 9937   5.937   4.304   2.185
 3013SOL    HW1 9938   5.989   4.363   2.122
 3013SOL    HW2 9939   5.994   4.280   2.263
 3014SOL     OW 9940   5.144   0.626   5.033
 3014SOL    HW1 9941   5.105   0.717   5.022
 3014SOL    HW2 9942   5.194   0.621   5.120
 3015SOL     OW 9943   3.097   2.339   6.740
 3015SOL    HW1 9944   3.059   2.423   6.701
 3015SOL    HW2 9945   3.115   2.273   6.668
 3016SOL     OW 9946   3.544   6.003   3.635
 3016SOL    HW1 9947   3.583   6.082   3.589
 3016SOL    HW2 9948   3.450   5.989   3.602
 3017SOL     OW 9949   6.653   6.100   0.917
 3017SOL    HW1 9950   6.677   6.054   0.831
 3017SOL    HW2 9951   6.684   6.045   0.994
 3018SOL     OW 9952   3.846   0.019   6.284
 3018SOL    HW1 9953   3.857   0.117   6.302
 3018SOL    HW2 9954   3.749   7.021   6.288
 3019SOL     OW 9955   4.967   6.552   2.125
 3019SOL    HW1 9956   4.915   6.601   2.056
 3019SOL    HW2 9957   5.052   6.601   2.145
 3020SOL     OW 9958   1.808   1.632   1.078
 3020SOL    HW1 9959   1.844   1.612   1.169
 3020SOL    HW2 9960   1.750   1.557   1.048
 3021SOL     OW 9961   3.800   1.130   6.213
 3021SOL    HW1 9962   3.884   1.079   6.196
 3021SOL    HW2 9963   3.792   1.205   6.147
 3022SOL     OW 9964   5.752   6.860   2.255
 3022SOL    HW1 9965   5.832   6.911   2.224
 3022SOL    HW2 9966   5.709   6.908   2.332
 3023SOL     OW 9967   5.754   0.241   1.464
 3023SOL    HW1 9968   5.804   0.313   1.415
 3023SOL    HW2 9969   5.657   0.263   1.465
 3024SOL     OW 9970   3.098   6.725   6.871
 3024SOL    HW1 9971   3.097   6.630   6.901
 3024SOL    HW2 9972   3.021   6.742   6.810
 3025SOL     OW 9973   1.914   2.291   1.665
 3025SOL    HW1 9974   1.858   2.208   1.671
 3025SOL    HW2 9975   2.004   2.274   1.705
 3026SOL     OW 9976   1.938   5.085   0.811
 3026SOL    HW1 9977   1.940   4.989   0.836
 3026SOL    HW2 9978   1.960   5.142   0.891
 3027SOL     OW 9979   2.031   1.285   4.350
 3027SOL    HW1 9980   2.018   1.231   4.267
 3027SOL    HW2 9981   2.120   1.331   4.347
 3028SOL     OW 9982   1.566   0.659   4.448
 3028SOL    HW1 9983   1.526   0.589   4.389
 3028SOL    HW2 9984   1.662   0.639   4.463
 3029SOL     OW 9985   5.119   6.118   5.712
 3029SOL    HW1 9986   5.132   6.116   5.613
 3029SOL    HW2 9987   5.025   6.091   5.734
 3030SOL     OW 9988   1.319   1.453   5.746
 3030SOL    HW1 9989   1.275   1.374   5.703
 3030SOL    HW2 9990   1.309   1.533   5.686
 3031SOL     OW 9991   1.364   5.399   6.622
 3031SOL    HW1 9992   1.451   5.359   6.650
 3031SOL    HW2 9993   1.302   5.327   6.590
 3032SOL     OW 9994   4.194   0.416   5.896
 3032SOL    HW1 9995   4.246   0.463   5.968
 3032SOL    HW2 9996   4.207   0.464   5.809
 3033SOL     OW 9997   5.298   5.136   5.961
 3033SOL    HW1 9998   5.290   5.061   6.027
 3033SOL    HW2 9999   5.373   5.197   5.989
 3034SOL     OW10000   2.273   0.212   4.097
 3034SOL    HW110001   2.173   0.212   4.093
 3034SOL    HW210002   2.307   0.305   4.087
 3035SOL     OW10003   6.634   6.524   6.914
 3035SOL    HW110004   6.553   6.582   6.923
 3035SOL    HW210005   6.659   6.489   7.004
 3036SOL     OW10006   1.171   4.701   6.065
 3036SOL    HW110007   1.168   4.763   6.143
 3036SOL    HW210008   1.218   4.746   5.989
 3037SOL     OW10009   6.736   6.779   5.408
 3037SOL    HW110010   6.688   6.764   5.494
 3037SOL    HW210011   6.670   6.784   5.333
 3038SOL     OW10012   5.824   6.996   5.743
 3038SOL    HW110013   5.857   6.934   5.815
 3038SOL    HW210014   5.837   0.065   5.771
 3039SOL     OW10015   0.253   5.067   0.657
 3039SOL    HW110016   0.336   5.013   0.666
 3039SOL    HW210017   0.277   5.164   0.653
 3040SOL     OW10018   2.028   2.231   6.666
 3040SOL    HW110019   1.959   2.160   6.660
 3040SOL    HW210020   2.013   2.286   6.748
 3041SOL     OW10021   1.736   1.849   6.109
 3041SOL    HW110022   1.716   1.794   6.028
 3041SOL    HW210023   1.660   1.842   6.174
 3042SOL     OW10024   5.173   0.004   1.990
 3042SOL    HW110025   5.154   6.935   1.964
 3042SOL    HW210026   5.187   0.009   2.089
 3043SOL     OW10027   0.072   4.979   0.480
 3043SOL    HW110028   0.154   5.004   0.533
 3043SOL    HW210029   0.052   4.882   0.494
 3044SOL     OW10030   3.342   3.811   5.561
 3044SOL    HW110031   3.438   3.829   5.582
 3044SOL    HW210032   3.287   3.888   5.591
 3045SOL     OW10033   5.379   1.854   3.919
 3045SOL    HW110034   5.418   1.772   3.960
 3045SOL    HW210035   5.445   1.929   3.926
 3046SOL     OW10036   2.584   1.915   5.907
 3046SOL    HW110037   2.590   1.997   5.963
 3046SOL    HW210038   2.669   1.905   5.854
 3047SOL     OW10039   0.171   4.447   1.974
 3047SOL    HW110040   0.096   4.460   2.039
 3047SOL    HW210041   0.239   4.385   2.013
 3048SOL     OW10042   2.867   2.669   1.674
 3048SOL    HW110043   2.943   2.721   1.634
 3048SOL    HW210044   2.898   2.623   1.757
 3049SOL     OW10045   0.938   0.307   1.895
 3049SOL    HW110046   0.936   0.378   1.824
 3049SOL    HW210047   0.949   0.217   1.852
 3050SOL     OW10048   2.891   5.784   3.802
 3050SOL    HW110049   2.874   5.697   3.755
 3050SOL    HW210050   2.970   5.829   3.761
 3051SOL     OW10051   2.491   4.726   5.652
 3051SOL    HW110052   2.400   4.707   5.615
 3051SOL    HW210053   2.550   4.646   5.640
 3052SOL     OW10054   4.793   6.516   2.705
 3052SOL    HW110055   4.826   6.610   2.693
 3052SOL    HW210056   4.694   6.514   2.699
 3053SOL     OW10057   4.806   7.002   1.214
 3053SOL    HW110058   4.809   0.021   1.303
 3053SOL    HW210059   4.712   7.007   1.178
 3054SOL     OW10060   2.057   3.527   6.085
 3054SOL    HW110061   2.017   3.472   6.012
 3054SOL    HW210062   2.055   3.624   6.059
 3055SOL     OW10063   5.598   6.074   2.976
 3055SOL    HW110064   5.669   6.004   2.977
 3055SOL    HW210065   5.515   6.039   3.019
 3056SOL     OW10066   6.414   0.848   1.486
 3056SOL    HW110067   6.374   0.914   1.422
 3056SOL    HW210068   6.493   0.804   1.444
 3057SOL     OW10069   6.650   5.883   2.432
 3057SOL    HW110070   6.747   5.891   2.410
 3057SOL    HW210071   6.638   5.816   2.505
 3058SOL     OW10072   6.236   5.124   1.561
 3058SOL    HW110073   6.220   5.221   1.548
 3058SOL    HW210074   6.321   5.111   1.612
 3059SOL     OW10075   1.942   2.685   4.492
 3059SOL    HW110076   2.037   2.666   4.468
 3059SOL    HW210077   1.884   2.609   4.462
 3060SOL     OW10078   6.739   6.737   0.988
 3060SOL    HW110079   6.676   6.660   0.994
 3060SOL    HW210080   6.829   6.709   1.021
 3061SOL     OW10081   0.069   0.560   5.926
 3061SOL    HW110082   0.007   0.533   5.852
 3061SOL    HW210083   0.016   0.589   6.006
 3062SOL     OW10084   3.142   5.574   6.309
 3062SOL    HW110085   3.113   5.653   6.255
 3062SOL    HW210086   3.201   5.605   6.384
 3063SOL     OW10087   1.710   5.484   0.780
 3063SOL    HW110088   1.752   5.445   0.698
 3063SOL    HW210089   1.716   5.419   0.855
 3064SOL     OW10090   6.861   4.787   3.536
 3064SOL    HW110091   6.949   4.799   3.489
 3064SOL    HW210092   6.804   4.723   3.484
 3065SOL     OW10093   2.304   1.089   0.982
 3065SOL    HW110094   2.214   1.049   0.969
 3065SOL    HW210095   2.365   1.022   1.022
 3066SOL     OW10096   5.288   5.768   1.072
 3066SOL    HW110097   5.229   5.791   1.150
 3066SOL    HW210098   5.277   5.837   1.001
 3067SOL     OW10099   5.185   6.254   3.376
 3067SOL    HW110100   5.150   6.161   3.366
 3067SOL    HW210101   5.110   6.315   3.402
 3068SOL     OW10102   6.069   4.545   0.233
 3068SOL    HW110103   6.024   4.628   0.267
 3068SOL    HW210104   6.090   4.556   0.136
 3069SOL     OW10105   1.092   5.711   3.624
 3069SOL    HW110106   1.087   5.666   3.535
 3069SOL    HW210107   1.179   5.759   3.633
 3070SOL     OW10108   4.207   1.496   4.516
 3070SOL    HW110109   4.249   1.462   4.432
 3070SOL    HW210110   4.256   1.460   4.595
 3071SOL     OW10111   5.944   0.322   3.718
 3071SOL    HW110112   5.929   0.234   3.672
 3071SOL    HW210113   6.028   0.364   3.685
 3072SOL     OW10114   0.698   0.209   2.006
 3072SOL    HW110115   0.773   0.255   1.958
 3072SOL    HW210116   0.735   0.148   2.075
 3073SOL     OW10117   1.786   2.794   4.172
 3073SOL    HW110118   1.764   2.805   4.075
 3073SOL    HW210119   1.838   2.709   4.184
 3074SOL     OW10120   4.758   3.408   5.863
 3074SOL    HW110121   4.694   3.368   5.929
 3074SOL    HW210122   4.755   3.508   5.871
 3075SOL     OW10123   0.902   5.561   1.514
 3075SOL    HW110124   0.995   5.596   1.522
 3075SOL    HW210125   0.842   5.611   1.577
 3076SOL     OW10126   0.446   0.274   5.083
 3076SOL    HW110127   0.476   0.360   5.126
 3076SOL    HW210128   0.498   0.198   5.122
 3077SOL     OW10129   5.020   4.812   3.864
 3077SOL    HW110130   4.923   4.786   3.872
 3077SOL    HW210131   5.062   4.759   3.791
 3078SOL     OW10132   2.242   3.161   0.597
 3078SOL    HW110133   2.164   3.223   0.602
 3078SOL    HW210134   2.282   3.165   0.505
 3079SOL     OW10135   5.838   2.931   6.419
 3079SOL    HW110136   5.845   2.862   6.346
 3079SOL    HW210137   5.779   3.006   6.388
 3080SOL     OW10138   6.012   5.961   0.816
 3080SOL    HW110139   5.933   5.902   0.832
 3080SOL    HW210140   6.044   5.998   0.903
 3081SOL     OW10141   6.641   5.334   5.881
 3081SOL    HW110142   6.626   5.266   5.810
 3081SOL    HW210143   6.648   5.425   5.839
 3082SOL     OW10144   2.066   0.155   2.522
 3082SOL    HW110145   2.038   0.140   2.617
 3082SOL    HW210146   2.105   0.070   2.486
 3083SOL     OW10147   3.353   0.727   2.092
 3083SOL    HW110148   3.351   0.628   2.083
 3083SOL    HW210149   3.413   0.754   2.167
 3084SOL     OW10150   4.627   6.602   4.511
 3084SOL    HW110151   4.599   6.510   4.481
 3084SOL    HW210152   4.648   6.601   4.609
 3085SOL     OW10153   0.683   5.852   1.405
 3085SOL    HW110154   0.736   5.841   1.489
 3085SOL    HW210155   0.620   5.929   1.415
 3086SOL     OW10156   5.931   1.717   4.274
 3086SOL    HW110157   6.009   1.772   4.306
 3086SOL    HW210158   5.961   1.623   4.258
 3087SOL     OW10159   5.729   3.235   2.606
 3087SOL    HW110160   5.705   3.274   2.695
 3087SOL    HW210161   5.667   3.272   2.537
 3088SOL     OW10162   3.052   4.012   5.860
 3088SOL    HW110163   3.102   4.022   5.775
 3088SOL    HW210164   3.066   3.920   5.897
 3089SOL     OW10165   1.996   2.384   0.675
 3089SOL    HW110166   2.070   2.450   0.666
 3089SOL    HW210167   1.930   2.418   0.742
 3090SOL     OW10168   0.733   1.272   1.205
 3090SOL    HW110169   0.756   1.185   1.160
 3090SOL    HW210170   0.805   1.338   1.188
 3091SOL     OW10171   2.581   0.449   0.614
 3091SOL    HW110172   2.626   0.408   0.534
 3091SOL    HW210173   2.549   0.540   0.591
 3092SOL     OW10174   4.113   6.319   1.053
 3092SOL    HW110175   4.031   6.268   1.028
 3092SOL    HW210176   4.097   6.368   1.139
 3093SOL     OW10177   5.021   5.708   3.621
 3093SOL    HW110178   5.059   5.757   3.700
 3093SOL    HW210179   4.952   5.765   3.577
 3094SOL     OW10180   3.342   5.087   5.552
 3094SOL    HW110181   3.421   5.036   5.518
 3094SOL    HW210182   3.372   5.151   5.623
 3095SOL     OW10183   2.822   4.729   4.333
 3095SOL    HW110184   2.884   4.803   4.360
 3095SOL    HW210185   2.762   4.707   4.410
 3096SOL     OW10186   0.079   0.682   5.178
 3096SOL    HW110187   0.046   0.611   5.240
 3096SOL    HW210188   0.044   0.771   5.206
 3097SOL     OW10189   1.628   2.954   0.182
 3097SOL    HW110190   1.634   2.858   0.209
 3097SOL    HW210191   1.571   2.962   0.101
 3098SOL     OW10192   4.090   1.959   0.541
 3098SOL    HW110193   4.171   2.012   0.565
 3098SOL    HW210194   4.054   1.991   0.454
 3099SOL     OW10195   1.289   5.946   5.022
 3099SOL    HW110196   1.249   5.901   4.943
 3099SOL    HW210197   1.366   5.892   5.057
 3100SOL     OW10198   6.435   6.191   0.076
 3100SOL    HW110199   6.472   6.206   0.168
 3100SOL    HW210200   6.361   6.256   0.059
 3101SOL     OW10201   4.295   6.995   0.876
 3101SOL    HW110202   4.377   0.025   0.883
 3101SOL    HW210203   4.214   0.026   0.892
 3102SOL     OW10204   1.034   5.429   0.692
 3102SOL    HW110205   1.007   5.464   0.782
 3102SOL    HW210206   1.121   5.470   0.665
 3103SOL     OW10207   4.077   3.797   2.046
 3103SOL    HW110208   4.039   3.804   1.954
 3103SOL    HW210209   4.161   3.849   2.051
 3104SOL     OW10210   6.665   5.215   4.002
 3104SOL    HW110211   6.738   5.239   4.066
 3104SOL    HW210212   6.641   5.119   4.013
 3105SOL     OW10213   6.549   6.173   3.927
 3105SOL    HW110214   6.457   6.167   3.967
 3105SOL    HW210215   6.566   6.092   3.871
 3106SOL     OW10216   6.789   2.956   4.512
 3106SOL    HW110217   6.798   2.885   4.442
 3106SOL    HW210218   6.717   3.020   4.485
 3107SOL     OW10219   2.741   0.167   3.758
 3107SOL    HW110220   2.750   0.090   3.694
 3107SOL    HW210221   2.815   0.163   3.825
 3108SOL     OW10222   3.202   0.254   3.167
 3108SOL    HW110223   3.202   0.186   3.094
 3108SOL    HW210224   3.236   0.341   3.131
 3109SOL     OW10225   4.731   5.887   3.281
 3109SOL    HW110226   4.751   5.799   3.239
 3109SOL    HW210227   4.796   5.956   3.248
 3110SOL     OW10228   1.069   3.049   2.223
 3110SOL    HW110229   1.048   3.134   2.271
 3110SOL    HW210230   1.157   3.014   2.253
 3111SOL     OW10231   6.543   4.718   3.750
 3111SOL    HW110232   6.474   4.749   3.685
 3111SOL    HW210233   6.573   4.625   3.726
 3112SOL     OW10234   2.842   3.656   6.509
 3112SOL    HW110235   2.920   3.700   6.466
 3112SOL    HW210236   2.874   3.588   6.575
 3113SOL     OW10237   4.138   0.277   3.882
 3113SOL    HW110238   4.197   0.218   3.828
 3113SOL    HW210239   4.174   0.371   3.880
 3114SOL     OW10240   5.590   5.254   1.119
 3114SOL    HW110241   5.605   5.339   1.170
 3114SOL    HW210242   5.645   5.181   1.159
 3115SOL     OW10243   2.618   3.336   1.696
 3115SOL    HW110244   2.715   3.360   1.698
 3115SOL    HW210245   2.579   3.349   1.787
 3116SOL     OW10246   6.866   1.679   6.849
 3116SOL    HW110247   6.838   1.751   6.785
 3116SOL    HW210248   6.923   1.719   6.920
 3117SOL     OW10249   4.018   3.956   5.171
 3117SOL    HW110250   4.092   3.935   5.107
 3117SOL    HW210251   4.051   4.019   5.241
 3118SOL     OW10252   5.911   5.127   0.449
 3118SOL    HW110253   5.985   5.088   0.503
 3118SOL    HW210254   5.949   5.177   0.371
 3119SOL     OW10255   1.754   4.904   5.840
 3119SOL    HW110256   1.795   4.976   5.784
 3119SOL    HW210257   1.823   4.866   5.902
 3120SOL     OW10258   2.811   5.958   5.607
 3120SOL    HW110259   2.765   5.871   5.627
 3120SOL    HW210260   2.757   6.009   5.539
 3121SOL     OW10261   0.689   6.088   2.893
 3121SOL    HW110262   0.695   6.154   2.818
 3121SOL    HW210263   0.670   5.997   2.855
 3122SOL     OW10264   2.599   4.966   1.032
 3122SOL    HW110265   2.641   4.905   1.099
 3122SOL    HW210266   2.554   5.041   1.080
 3123SOL     OW10267   3.965   6.512   4.952
 3123SOL    HW110268   4.051   6.477   4.915
 3123SOL    HW210269   3.982   6.561   5.037
 3124SOL     OW10270   3.546   0.086   6.143
 3124SOL    HW110271   3.448   0.107   6.140
 3124SOL    HW210272   3.598   0.171   6.151
 3125SOL     OW10273   6.794   2.197   5.886
 3125SOL    HW110274   6.840   2.137   5.820
 3125SOL    HW210275   6.844   2.197   5.972
 3126SOL     OW10276   3.736   6.519   0.384
 3126SOL    HW110277   3.809   6.537   0.450
 3126SOL    HW210278   3.717   6.603   0.333
 3127SOL     OW10279   1.621   1.279   3.642
 3127SOL    HW110280   1.644   1.184   3.621
 3127SOL    HW210281   1.704   1.329   3.667
 3128SOL     OW10282   1.254   0.916   0.211
 3128SOL    HW110283   1.172   0.973   0.210
 3128SOL    HW210284   1.238   0.834   0.156
 3129SOL     OW10285   1.977   2.542   4.155
 3129SOL    HW110286   1.948   2.504   4.067
 3129SOL    HW210287   2.047   2.612   4.139
 3130SOL     OW10288   2.159   5.509   2.818
 3130SOL    HW110289   2.233   5.441   2.823
 3130SOL    HW210290   2.196   5.596   2.787
 3131SOL     OW10291   0.124   3.140   3.605
 3131SOL    HW110292   0.059   3.176   3.538
 3131SOL    HW210293   0.107   3.043   3.620
 3132SOL     OW10294   5.095   6.197   5.141
 3132SOL    HW110295   5.085   6.217   5.044
 3132SOL    HW210296   5.025   6.131   5.169
 3133SOL     OW10297   2.382   1.600   3.016
 3133SOL    HW110298   2.401   1.557   3.105
 3133SOL    HW210299   2.284   1.598   2.999
 3134SOL     OW10300   5.248   3.349   2.087
 3134SOL    HW110301   5.286   3.404   2.013
 3134SOL    HW210302   5.222   3.259   2.053
 3135SOL     OW10303   2.851   1.814   3.044
 3135SOL    HW110304   2.866   1.800   3.142
 3135SOL    HW210305   2.777   1.755   3.013
 3136SOL     OW10306   6.340   6.261   5.343
 3136SOL    HW110307   6.375   6.293   5.255
 3136SOL    HW210308   6.327   6.339   5.404
 3137SOL     OW10309   6.622   1.970   4.637
 3137SOL    HW110310   6.568   2.034   4.692
 3137SOL    HW210311   6.704   2.017   4.604
 3138SOL     OW10312   4.764   1.489   4.612
 3138SOL    HW110313   4.734   1.583   4.597
 3138SOL    HW210314   4.864   1.486   4.615
 3139SOL     OW10315   4.945   6.397   5.575
 3139SOL    HW110316   4.852   6.394   5.612
 3139SOL    HW210317   5.006   6.439   5.642
 3140SOL     OW10318   6.516   6.105   6.353
 3140SOL    HW110319   6.590   6.042   6.330
 3140SOL    HW210320   6.488   6.091   6.448
 3141SOL     OW10321   0.970   5.175   0.687
 3141SOL    HW110322   0.991   5.271   0.668
 3141SOL    HW210323   1.039   5.117   0.645
 3142SOL     OW10324   3.540   0.029   6.500
 3142SOL    HW110325   3.559   7.015   6.589
 3142SOL    HW210326   3.561   6.988   6.428
 3143SOL     OW10327   0.100   1.461   0.353
 3143SOL    HW110328   0.133   1.555   0.361
 3143SOL    HW210329   0.074   1.427   0.444
 3144SOL     OW10330   1.796   3.250   6.154
 3144SOL    HW110331   1.735   3.327   6.176
 3144SOL    HW210332   1.769   3.210   6.067
 3145SOL     OW10333   3.945   6.146   3.771
 3145SOL    HW110334   3.929   6.167   3.867
 3145SOL    HW210335   3.857   6.145   3.722
 3146SOL     OW10336   2.224   0.790   3.727
 3146SOL    HW110337   2.242   0.852   3.651
 3146SOL    HW210338   2.165   0.715   3.696
 3147SOL     OW10339   3.746   4.057   0.636
 3147SOL    HW110340   3.717   4.114   0.713
 3147SOL    HW210341   3.803   3.982   0.670
 3148SOL     OW10342   3.460   5.526   5.182
 3148SOL    HW110343   3.474   5.595   5.112
 3148SOL    HW210344   3.408   5.449   5.144
 3149SOL     OW10345   3.123   6.510   6.114
 3149SOL    HW110346   3.041   6.543   6.067
 3149SOL    HW210347   3.102   6.425   6.161
 3150SOL     OW10348   6.599   6.843   4.138
 3150SOL    HW110349   6.693   6.861   4.165
 3150SOL    HW210350   6.597   6.799   4.049
 3151SOL     OW10351   3.597   0.113   0.274
 3151SOL    HW110352   3.510   0.145   0.311
 3151SOL    HW210353   3.622   0.171   0.196
 3152SOL     OW10354   1.460   5.141   6.892
 3152SOL    HW110355   1.476   5.063   6.953
 3152SOL    HW210356   1.378   5.190   6.921
 3153SOL     OW10357   6.971   4.063   2.367
 3153SOL    HW110358   6.940   4.139   2.425
 3153SOL    HW210359   0.039   4.039   2.391
 3154SOL     OW10360   5.668   2.354   6.593
 3154SOL    HW110361   5.686   2.407   6.676
 3154SOL    HW210362   5.637   2.262   6.618
 3155SOL     OW10363   4.561   6.389   0.205
 3155SOL    HW110364   4.647   6.433   0.177
 3155SOL    HW210365   4.509   6.452   0.263
 3156SOL     OW10366   3.714   3.369   3.198
 3156SOL    HW110367   3.718   3.325   3.287
 3156SOL    HW210368   3.626   3.417   3.188
 3157SOL     OW10369   2.141   2.198   4.399
 3157SOL    HW110370   2.208   2.197   4.473
 3157SOL    HW210371   2.164   2.269   4.333
 3158SOL     OW10372   3.941   5.983   1.203
 3158SOL    HW110373   3.862   5.976   1.265
 3158SOL    HW210374   3.929   6.061   1.142
 3159SOL     OW10375   5.799   4.390   0.609
 3159SOL    HW110376   5.702   4.408   0.626
 3159SOL    HW210377   5.809   4.336   0.525
 3160SOL     OW10378   5.503   4.669   0.515
 3160SOL    HW110379   5.556   4.628   0.441
 3160SOL    HW210380   5.413   4.696   0.480
 3161SOL     OW10381   0.765   2.018   2.355
 3161SOL    HW110382   0.667   2.002   2.347
 3161SOL    HW210383   0.787   2.047   2.448
 3162SOL     OW10384   6.093   6.769   5.692
 3162SOL    HW110385   6.169   6.757   5.628
 3162SOL    HW210386   6.103   6.705   5.768
 3163SOL     OW10387   2.641   4.776   5.189
 3163SOL    HW110388   2.715   4.757   5.124
 3163SOL    HW210389   2.625   4.694   5.245
 3164SOL     OW10390   5.904   5.840   6.186
 3164SOL    HW110391   5.946   5.750   6.194
 3164SOL    HW210392   5.862   5.865   6.273
 3165SOL     OW10393   0.109   2.874   1.241
 3165SOL    HW110394   0.012   2.887   1.222
 3165SOL    HW210395   0.130   2.912   1.332
 3166SOL     OW10396   5.296   2.891   6.352
 3166SOL    HW110397   5.378   2.838   6.333
 3166SOL    HW210398   5.227   2.832   6.395
 3167SOL     OW10399   0.691   4.173   2.322
 3167SOL    HW110400   0.691   4.273   2.315
 3167SOL    HW210401   0.774   4.142   2.368
 3168SOL     OW10402   5.118   3.236   0.648
 3168SOL    HW110403   5.210   3.204   0.670
 3168SOL    HW210404   5.119   3.336   0.639
 3169SOL     OW10405   1.873   1.873   4.980
 3169SOL    HW110406   1.884   1.804   4.909
 3169SOL    HW210407   1.853   1.828   5.067
 3170SOL     OW10408   4.486   1.004   5.814
 3170SOL    HW110409   4.438   1.053   5.741
 3170SOL    HW210410   4.420   0.972   5.881
 3171SOL     OW10411   6.068   0.120   3.391
 3171SOL    HW110412   6.094   0.216   3.380
 3171SOL    HW210413   6.150   0.063   3.393
 3172SOL     OW10414   5.715   0.328   6.199
 3172SOL    HW110415   5.758   0.344   6.110
 3172SOL    HW210416   5.628   0.282   6.186
 3173SOL     OW10417   1.961   1.456   1.555
 3173SOL    HW110418   1.948   1.514   1.635
 3173SOL    HW210419   2.058   1.436   1.544
 3174SOL     OW10420   2.060   3.447   6.375
 3174SOL    HW110421   2.047   3.453   6.276
 3174SOL    HW210422   2.028   3.358   6.408
 3175SOL     OW10423   6.854   6.323   0.975
 3175SOL    HW110424   6.791   6.256   0.936
 3175SOL    HW210425   6.948   6.299   0.951
 3176SOL     OW10426   1.559   6.013   6.315
 3176SOL    HW110427   1.557   6.104   6.276
 3176SOL    HW210428   1.516   5.948   6.252
 3177SOL     OW10429   0.802   6.917   4.031
 3177SOL    HW110430   0.873   6.953   4.091
 3177SOL    HW210431   0.816   6.819   4.018
 3178SOL     OW10432   2.336   3.400   0.783
 3178SOL    HW110433   2.341   3.404   0.883
 3178SOL    HW210434   2.333   3.305   0.754
 3179SOL     OW10435   1.321   2.384   3.315
 3179SOL    HW110436   1.244   2.416   3.371
 3179SOL    HW210437   1.350   2.458   3.254
 3180SOL     OW10438   5.520   1.551   6.352
 3180SOL    HW110439   5.499   1.634   6.403
 3180SOL    HW210440   5.437   1.517   6.309
 3181SOL     OW10441   0.625   1.899   3.570
 3181SOL    HW110442   0.616   1.945   3.482
 3181SOL    HW210443   0.542   1.848   3.590
 3182SOL     OW10444   1.662   4.989   5.368
 3182SOL    HW110445   1.601   5.051   5.417
 3182SOL    HW210446   1.707   5.040   5.293
 3183SOL     OW10447   4.824   2.859   1.110
 3183SOL    HW110448   4.779   2.917   1.178
 3183SOL    HW210449   4.762   2.846   1.032
 3184SOL     OW10450   1.505   1.423   3.245
 3184SOL    HW110451   1.475   1.486   3.316
 3184SOL    HW210452   1.580   1.465   3.193
 3185SOL     OW10453   0.331   6.416   6.298
 3185SOL    HW110454   0.265   6.484   6.332
 3185SOL    HW210455   0.422   6.458   6.293
 3186SOL     OW10456   3.172   0.466   1.616
 3186SOL    HW110457   3.152   0.452   1.713
 3186SOL    HW210458   3.229   0.392   1.582
 3187SOL     OW10459   3.184   4.468   0.156
 3187SOL    HW110460   3.199   4.411   0.238
 3187SOL    HW210461   3.092   4.505   0.158
 3188SOL     OW10462   4.639   7.006   3.392
 3188SOL    HW110463   4.665   0.022   3.479
 3188SOL    HW210464   4.675   0.036   3.317
 3189SOL     OW10465   6.883   6.828   1.748
 3189SOL    HW110466   6.800   6.824   1.693
 3189SOL    HW210467   6.919   6.736   1.761
 3190SOL     OW10468   0.797   6.603   1.065
 3190SOL    HW110469   0.732   6.615   1.139
 3190SOL    HW210470   0.753   6.555   0.989
 3191SOL     OW10471   2.930   0.351   0.647
 3191SOL    HW110472   2.843   0.400   0.654
 3191SOL    HW210473   2.938   0.310   0.556
 3192SOL     OW10474   5.941   2.151   3.738
 3192SOL    HW110475   5.927   2.144   3.837
 3192SOL    HW210476   5.907   2.067   3.694
 3193SOL     OW10477   4.854   4.412   0.629
 3193SOL    HW110478   4.891   4.501   0.603
 3193SOL    HW210479   4.914   4.340   0.595
 3194SOL     OW10480   2.090   4.880   5.499
 3194SOL    HW110481   2.040   4.814   5.443
 3194SOL    HW210482   2.130   4.951   5.441
 3195SOL     OW10483   0.961   3.666   3.175
 3195SOL    HW110484   0.931   3.639   3.083
 3195SOL    HW210485   1.025   3.743   3.168
 3196SOL     OW10486   0.385   6.605   5.454
 3196SOL    HW110487   0.304   6.557   5.423
 3196SOL    HW210488   0.466   6.566   5.410
 3197SOL     OW10489   0.664   4.029   4.176
 3197SOL    HW110490   0.707   3.944   4.205
 3197SOL    HW210491   0.569   4.011   4.150
 3198SOL     OW10492   5.561   6.681   0.137
 3198SOL    HW110493   5.482   6.639   0.182
 3198SOL    HW210494   5.552   6.780   0.140
 3199SOL     OW10495   3.327   1.582   2.956
 3199SOL    HW110496   3.405   1.616   2.902
 3199SOL    HW210497   3.242   1.612   2.913
 3200SOL     OW10498   6.962   2.098   0.673
 3200SOL    HW110499   6.885   2.059   0.725
 3200SOL    HW210500   6.940   2.098   0.576
 3201SOL     OW10501   4.757   4.228   3.132
 3201SOL    HW110502   4.720   4.302   3.077
 3201SOL    HW210503   4.751   4.252   3.229
 3202SOL     OW10504   1.156   5.922   2.109
 3202SOL    HW110505   1.134   5.924   2.012
 3202SOL    HW210506   1.154   5.827   2.142
 3203SOL     OW10507   4.877   0.436   1.071
 3203SOL    HW110508   4.916   0.350   1.040
 3203SOL    HW210509   4.912   0.511   1.014
 3204SOL     OW10510   6.313   6.060   1.975
 3204SOL    HW110511   6.250   6.133   1.949
 3204SOL    HW210512   6.398   6.099   2.010
 3205SOL     OW10513   1.131   3.902   3.422
 3205SOL    HW110514   1.177   3.816   3.401
 3205SOL    HW210515   1.105   3.948   3.337
 3206SOL     OW10516   1.707   6.498   0.362
 3206SOL    HW110517   1.761   6.477   0.280
 3206SOL    HW210518   1.764   6.549   0.427
 3207SOL     OW10519   0.673   1.301   2.464
 3207SOL    HW110520   0.614   1.225   2.437
 3207SOL    HW210521   0.617   1.381   2.486
 3208SOL     OW10522   6.270   0.714   4.760
 3208SOL    HW110523   6.172   0.695   4.757
 3208SOL    HW210524   6.321   0.633   4.730
 3209SOL     OW10525   2.257   0.164   2.837
 3209SOL    HW110526   2.314   0.185   2.917
 3209SOL    HW210527   2.169   0.210   2.847
 3210SOL     OW10528   0.683   4.976   2.233
 3210SOL    HW110529   0.700   5.053   2.170
 3210SOL    HW210530   0.737   4.897   2.205
 3211SOL     OW10531   1.125   3.823   2.829
 3211SOL    HW110532   1.090   3.732   2.850
 3211SOL    HW210533   1.224   3.821   2.822
 3212SOL     OW10534   4.913   2.902   5.404
 3212SOL    HW110535   4.864   2.964   5.465
 3212SOL    HW210536   5.008   2.933   5.395
 3213SOL     OW10537   4.825   0.159   1.443
 3213SOL    HW110538   4.832   0.246   1.394
 3213SOL    HW210539   4.909   0.144   1.496
 3214SOL     OW10540   3.995   4.269   6.299
 3214SOL    HW110541   3.927   4.211   6.345
 3214SOL    HW210542   4.087   4.239   6.326
 3215SOL     OW10543   6.095   1.386   0.119
 3215SOL    HW110544   6.035   1.382   0.199
 3215SOL    HW210545   6.039   1.393   0.036
 3216SOL     OW10546   6.412   6.379   5.119
 3216SOL    HW110547   6.509   6.398   5.104
 3216SOL    HW210548   6.374   6.329   5.041
 3217SOL     OW10549   0.077   4.031   0.270
 3217SOL    HW110550   0.031   4.023   0.182
 3217SOL    HW210551   0.029   3.975   0.338
 3218SOL     OW10552   3.484   1.124   2.071
 3218SOL    HW110553   3.507   1.219   2.048
 3218SOL    HW210554   3.387   1.109   2.054
 3219SOL     OW10555   7.013   6.700   3.919
 3219SOL    HW110556   6.940   6.756   3.959
 3219SOL    HW210557   0.072   6.716   3.968
 3220SOL     OW10558   5.515   2.868   6.585
 3220SOL    HW110559   5.532   2.773   6.558
 3220SOL    HW210560   5.528   2.878   6.683
 3221SOL     OW10561   3.602   0.212   2.418
 3221SOL    HW110562   3.511   0.206   2.461
 3221SOL    HW210563   3.668   0.162   2.474
 3222SOL     OW10564   6.284   3.790   2.108
 3222SOL    HW110565   6.359   3.817   2.169
 3222SOL    HW210566   6.312   3.710   2.055
 3223SOL     OW10567   2.486   4.515   3.770
 3223SOL    HW110568   2.451   4.463   3.848
 3223SOL    HW210569   2.520   4.603   3.801
 3224SOL     OW10570   3.313   6.000   1.626
 3224SOL    HW110571   3.305   6.052   1.541
 3224SOL    HW210572   3.403   6.016   1.666
 3225SOL     OW10573   1.788   3.098   1.084
 3225SOL    HW110574   1.799   3.071   1.180
 3225SOL    HW210575   1.694   3.128   1.069
 3226SOL     OW10576   0.375   0.646   3.913
 3226SOL    HW110577   0.281   0.612   3.908
 3226SOL    HW210578   0.374   0.744   3.930
 3227SOL     OW10579   1.917   1.742   5.224
 3227SOL    HW110580   2.008   1.706   5.243
 3227SOL    HW210581   1.849   1.670   5.238
 3228SOL     OW10582   4.905   3.329   4.540
 3228SOL    HW110583   4.926   3.297   4.633
 3228SOL    HW210584   4.963   3.408   4.519
 3229SOL     OW10585   4.492   1.635   5.226
 3229SOL    HW110586   4.444   1.549   5.244
 3229SOL    HW210587   4.591   1.618   5.219
 3230SOL     OW10588   1.314   0.515   3.946
 3230SOL    HW110589   1.294   0.506   4.044
 3230SOL    HW210590   1.228   0.512   3.894
 3231SOL     OW10591   4.853   5.130   0.063
 3231SOL    HW110592   4.919   5.056   0.078
 3231SOL    HW210593   4.810   5.153   0.150
 3232SOL     OW10594   1.939   4.473   3.341
 3232SOL    HW110595   1.962   4.537   3.268
 3232SOL    HW210596   1.979   4.505   3.427
 3233SOL     OW10597   1.521   3.916   0.229
 3233SOL    HW110598   1.620   3.906   0.234
 3233SOL    HW210599   1.477   3.847   0.286
 3234SOL     OW10600   6.475   2.469   5.099
 3234SOL    HW110601   6.441   2.538   5.035
 3234SOL    HW210602   6.563   2.435   5.067
 3235SOL     OW10603   5.373   0.751   2.505
 3235SOL    HW110604   5.430   0.734   2.424
 3235SOL    HW210605   5.415   0.821   2.562
 3236SOL     OW10606   0.149   2.979   1.478
 3236SOL    HW110607   0.188   3.062   1.518
 3236SOL    HW210608   0.129   2.913   1.551
 3237SOL     OW10609   3.259   6.550   4.564
 3237SOL    HW110610   3.346   6.538   4.517
 3237SOL    HW210611   3.190   6.491   4.521
 3238SOL     OW10612   6.304   6.259   6.272
 3238SOL    HW110613   6.242   6.212   6.210
 3238SOL    HW210614   6.371   6.195   6.308
 3239SOL     OW10615   0.788   6.224   5.401
 3239SOL    HW110616   0.819   6.235   5.496
 3239SOL    HW210617   0.865   6.200   5.343
 3240SOL     OW10618   0.035   2.217   4.985
 3240SOL    HW110619   7.012   2.169   4.912
 3240SOL    HW210620   0.115   2.163   5.012
 3241SOL     OW10621   4.721   6.687   5.223
 3241SOL    HW110622   4.765   6.698   5.312
 3241SOL    HW210623   4.639   6.631   5.234
 3242SOL     OW10624   3.261   6.702   0.921
 3242SOL    HW110625   3.241   6.702   0.823
 3242SOL    HW210626   3.176   6.698   0.973
 3243SOL     OW10627   3.206   5.698   1.280
 3243SOL    HW110628   3.183   5.618   1.335
 3243SOL    HW210629   3.298   5.688   1.243
 3244SOL     OW10630   1.274   6.358   5.722
 3244SOL    HW110631   1.243   6.285   5.660
 3244SOL    HW210632   1.351   6.405   5.681
 3245SOL     OW10633   3.351   1.978   5.746
 3245SOL    HW110634   3.316   1.902   5.692
 3245SOL    HW210635   3.415   1.943   5.814
 3246SOL     OW10636   5.748   6.517   3.738
 3246SOL    HW110637   5.813   6.461   3.686
 3246SOL    HW210638   5.796   6.592   3.782
 3247SOL     OW10639   6.177   2.679   5.483
 3247SOL    HW110640   6.271   2.685   5.449
 3247SOL    HW210641   6.135   2.595   5.449
 3248SOL     OW10642   5.169   3.800   2.771
 3248SOL    HW110643   5.123   3.796   2.859
 3248SOL    HW210644   5.172   3.708   2.731
 3249SOL     OW10645   3.020   4.724   5.644
 3249SOL    HW110646   2.953   4.687   5.709
 3249SOL    HW210647   3.059   4.809   5.682
 3250SOL     OW10648   4.797   5.618   1.568
 3250SOL    HW110649   4.825   5.581   1.656
 3250SOL    HW210650   4.726   5.560   1.528
 3251SOL     OW10651   3.738   0.684   3.535
 3251SOL    HW110652   3.694   0.624   3.602
 3251SOL    HW210653   3.683   0.766   3.522
 3252SOL     OW10654   3.412   2.085   3.437
 3252SOL    HW110655   3.349   2.124   3.504
 3252SOL    HW210656   3.372   2.003   3.397
 3253SOL     OW10657   4.783   4.594   1.119
 3253SOL    HW110658   4.867   4.597   1.174
 3253SOL    HW210659   4.723   4.523   1.153
 3254SOL     OW10660   6.021   4.229   2.442
 3254SOL    HW110661   5.976   4.268   2.523
 3254SOL    HW210662   6.119   4.219   2.460
 3255SOL     OW10663   4.271   5.240   0.900
 3255SOL    HW110664   4.301   5.238   0.995
 3255SOL    HW210665   4.318   5.169   0.848
 3256SOL     OW10666   5.997   6.287   5.919
 3256SOL    HW110667   6.034   6.296   5.826
 3256SOL    HW210668   5.948   6.371   5.943
 3257SOL     OW10669   2.065   1.692   1.020
 3257SOL    HW110670   1.967   1.677   1.032
 3257SOL    HW210671   2.093   1.776   1.065
 3258SOL     OW10672   4.978   6.656   1.487
 3258SOL    HW110673   4.925   6.646   1.403
 3258SOL    HW210674   4.977   6.571   1.538
 3259SOL     OW10675   6.052   6.395   3.057
 3259SOL    HW110676   6.084   6.395   2.963
 3259SOL    HW210677   6.081   6.310   3.102
 3260SOL     OW10678   1.365   1.677   0.889
 3260SOL    HW110679   1.394   1.767   0.922
 3260SOL    HW210680   1.437   1.638   0.831
 3261SOL     OW10681   4.608   6.730   3.682
 3261SOL    HW110682   4.683   6.779   3.727
 3261SOL    HW210683   4.645   6.660   3.621
 3262SOL     OW10684   3.812   1.229   4.115
 3262SOL    HW110685   3.760   1.238   4.030
 3262SOL    HW210686   3.844   1.135   4.125
 3263SOL     OW10687   3.871   4.818   2.677
 3263SOL    HW110688   3.826   4.888   2.733
 3263SOL    HW210689   3.954   4.788   2.723
 3264SOL     OW10690   4.898   4.991   6.142
 3264SOL    HW110691   4.844   5.045   6.078
 3264SOL    HW210692   4.974   4.947   6.093
 3265SOL     OW10693   5.241   6.885   6.283
 3265SOL    HW110694   5.322   6.929   6.244
 3265SOL    HW210695   5.212   6.810   6.224
 3266SOL     OW10696   1.225   2.834   6.491
 3266SOL    HW110697   1.144   2.893   6.486
 3266SOL    HW210698   1.273   2.850   6.577
 3267SOL     OW10699   5.111   3.248   1.796
 3267SOL    HW110700   5.081   3.312   1.726
 3267SOL    HW210701   5.090   3.155   1.767
 3268SOL     OW10702   1.672   4.649   6.750
 3268SOL    HW110703   1.713   4.740   6.752
 3268SOL    HW210704   1.632   4.628   6.839
 3269SOL     OW10705   4.671   3.658   0.518
 3269SOL    HW110706   4.759   3.682   0.479
 3269SOL    HW210707   4.680   3.644   0.616
 3270SOL     OW10708   0.607   5.221   3.999
 3270SOL    HW110709   0.663   5.139   3.987
 3270SOL    HW210710   0.605   5.246   4.096
 3271SOL     OW10711   4.826   0.152   2.136
 3271SOL    HW110712   4.915   0.195   2.151
 3271SOL    HW210713   4.826   0.106   2.047
 3272SOL     OW10714   5.067   6.446   6.773
 3272SOL    HW110715   5.148   6.500   6.797
 3272SOL    HW210716   5.077   6.353   6.807
 3273SOL     OW10717   1.212   1.125   2.908
 3273SOL    HW110718   1.138   1.190   2.893
 3273SOL    HW210719   1.298   1.174   2.918
 3274SOL     OW10720   2.873   1.450   6.631
 3274SOL    HW110721   2.776   1.473   6.625
 3274SOL    HW210722   2.926   1.534   6.644
 3275SOL     OW10723   4.245   0.907   7.022
 3275SOL    HW110724   4.219   0.927   0.091
 3275SOL    HW210725   4.243   0.808   7.007
 3276SOL     OW10726   2.170   6.255   0.434
 3276SOL    HW110727   2.158   6.189   0.361
 3276SOL    HW210728   2.118   6.338   0.413
 3277SOL     OW10729   7.005   6.452   6.174
 3277SOL    HW110730   0.039   6.432   6.252
 3277SOL    HW210731   6.911   6.430   6.198
 3278SOL     OW10732   0.996   0.986   0.140
 3278SOL    HW110733   0.976   1.077   0.104
 3278SOL    HW210734   0.956   0.917   0.080
 3279SOL     OW10735   1.852   6.445   0.961
 3279SOL    HW110736   1.845   6.375   0.890
 3279SOL    HW210737   1.788   6.423   1.035
 3280SOL     OW10738   2.779   6.437   4.394
 3280SOL    HW110739   2.700   6.477   4.347
 3280SOL    HW210740   2.806   6.353   4.346
 3281SOL     OW10741   2.467   6.106   0.645
 3281SOL    HW110742   2.449   6.129   0.741
 3281SOL    HW210743   2.482   6.190   0.593
 3282SOL     OW10744   1.910   5.567   2.459
 3282SOL    HW110745   1.892   5.599   2.553
 3282SOL    HW210746   1.876   5.635   2.394
 3283SOL     OW10747   2.178   6.879   4.103
 3283SOL    HW110748   2.126   6.850   4.023
 3283SOL    HW210749   2.202   6.798   4.157
 3284SOL     OW10750   1.228   4.826   5.815
 3284SOL    HW110751   1.326   4.807   5.807
 3284SOL    HW210752   1.190   4.841   5.724
 3285SOL     OW10753   0.216   2.613   4.048
 3285SOL    HW110754   0.167   2.683   4.099
 3285SOL    HW210755   0.188   2.616   3.952
 3286SOL     OW10756   4.493   4.705   6.476
 3286SOL    HW110757   4.525   4.654   6.396
 3286SOL    HW210758   4.568   4.715   6.541
 3287SOL     OW10759   0.486   3.656   1.644
 3287SOL    HW110760   0.416   3.608   1.592
 3287SOL    HW210761   0.568   3.599   1.652
 3288SOL     OW10762   0.927   6.806   6.407
 3288SOL    HW110763   1.021   6.840   6.397
 3288SOL    HW210764   0.863   6.879   6.384
 3289SOL     OW10765   1.341   5.932   4.213
 3289SOL    HW110766   1.318   5.835   4.201
 3289SOL    HW210767   1.375   5.969   4.126
 3290SOL     OW10768   0.059   4.774   3.367
 3290SOL    HW110769   0.098   4.864   3.349
 3290SOL    HW210770   0.054   4.723   3.281
 3291SOL     OW10771   1.716   0.506   2.123
 3291SOL    HW110772   1.718   0.563   2.041
 3291SOL    HW210773   1.736   0.411   2.097
 3292SOL     OW10774   0.784   5.585   4.860
 3292SOL    HW110775   0.699   5.610   4.906
 3292SOL    HW210776   0.851   5.556   4.929
 3293SOL     OW10777   5.782   1.221   3.325
 3293SOL    HW110778   5.860   1.157   3.326
 3293SOL    HW210779   5.746   1.231   3.418
 3294SOL     OW10780   0.460   6.671   1.058
 3294SOL    HW110781   0.375   6.620   1.073
 3294SOL    HW210782   0.515   6.669   1.142
 3295SOL     OW10783   2.108   2.074   6.218
 3295SOL    HW110784   2.042   2.138   6.178
 3295SOL    HW210785   2.187   2.124   6.253
 3296SOL     OW10786   0.712   6.667   2.243
 3296SOL    HW110787   0.795   6.679   2.298
 3296SOL    HW210788   0.674   6.756   2.219
 3297SOL     OW10789   3.262   1.558   5.849
 3297SOL    HW110790   3.258   1.598   5.758
 3297SOL    HW210791   3.358   1.543   5.875
 3298SOL     OW10792   6.973   4.360   2.437
 3298SOL    HW110793   6.888   4.372   2.488
 3298SOL    HW210794   0.021   4.409   2.484
 3299SOL     OW10795   1.219   1.781   4.530
 3299SOL    HW110796   1.298   1.827   4.489
 3299SOL    HW210797   1.197   1.824   4.618
 3300SOL     OW10798   6.880   0.303   5.224
 3300SOL    HW110799   6.976   0.279   5.239
 3300SOL    HW210800   6.823   0.254   5.290
 3301SOL     OW10801   0.013   3.681   2.055
 3301SOL    HW110802   6.948   3.651   2.083
 3301SOL    HW210803   0.069   3.700   2.136
 3302SOL     OW10804   1.004   6.245   5.236
 3302SOL    HW110805   1.056   6.160   5.228
 3302SOL    HW210806   0.995   6.287   5.146
 3303SOL     OW10807   2.957   3.321   4.106
 3303SOL    HW110808   2.866   3.338   4.142
 3303SOL    HW210809   3.026   3.359   4.168
 3304SOL     OW10810   1.312   0.618   3.275
 3304SOL    HW110811   1.236   0.564   3.311
 3304SOL    HW210812   1.293   0.645   3.181
 3305SOL     OW10813   0.679   2.867   0.249
 3305SOL    HW110814   0.598   2.824   0.210
 3305SOL    HW210815   0.657   2.960   0.279
 3306SOL     OW10816   1.205   2.562   2.209
 3306SOL    HW110817   1.218   2.625   2.133
 3306SOL    HW210818   1.108   2.548   2.225
 3307SOL     OW10819   0.992   6.797   0.570
 3307SOL    HW110820   0.895   6.816   0.576
 3307SOL    HW210821   1.042   6.856   0.633
 3308SOL     OW10822   5.158   6.231   1.017
 3308SOL    HW110823   5.224   6.184   0.957
 3308SOL    HW210824   5.077   6.256   0.964
 3309SOL     OW10825   1.802   5.091   2.544
 3309SOL    HW110826   1.833   5.027   2.474
 3309SOL    HW210827   1.853   5.075   2.629
 3310SOL     OW10828   1.649   6.848   2.204
 3310SOL    HW110829   1.651   6.874   2.107
 3310SOL    HW210830   1.608   6.758   2.213
 3311SOL     OW10831   3.750   5.878   1.021
 3311SOL    HW110832   3.656   5.884   1.053
 3311SOL    HW210833   3.803   5.954   1.059
 3312SOL     OW10834   2.225   2.742   6.448
 3312SOL    HW110835   2.173   2.792   6.378
 3312SOL    HW210836   2.225   2.795   6.533
 3313SOL     OW10837   6.380   6.203   4.920
 3313SOL    HW110838   6.383   6.224   4.822
 3313SOL    HW210839   6.424   6.115   4.937
 3314SOL     OW10840   0.917   4.598   6.828
 3314SOL    HW110841   0.867   4.511   6.826
 3314SOL    HW210842   0.927   4.632   6.734
 3315SOL     OW10843   6.606   2.900   3.348
 3315SOL    HW110844   6.584   2.940   3.259
 3315SOL    HW210845   6.583   2.803   3.347
 3316SOL     OW10846   4.147   1.313   0.073
 3316SOL    HW110847   4.219   1.266   0.022
 3316SOL    HW210848   4.156   1.293   0.170
 3317SOL     OW10849   4.159   2.359   1.408
 3317SOL    HW110850   4.216   2.277   1.414
 3317SOL    HW210851   4.099   2.363   1.488
 3318SOL     OW10852   2.658   5.322   5.613
 3318SOL    HW110853   2.694   5.366   5.531
 3318SOL    HW210854   2.608   5.389   5.668
 3319SOL     OW10855   6.643   6.262   6.825
 3319SOL    HW110856   6.616   6.353   6.857
 3319SOL    HW210857   6.675   6.208   6.902
 3320SOL     OW10858   0.580   0.274   0.532
 3320SOL    HW110859   0.534   0.356   0.499
 3320SOL    HW210860   0.521   0.194   0.517
 3321SOL     OW10861   3.852   3.898   3.924
 3321SOL    HW110862   3.857   3.812   3.872
 3321SOL    HW210863   3.877   3.880   4.019
 3322SOL     OW10864   4.353   1.855   1.860
 3322SOL    HW110865   4.342   1.798   1.779
 3322SOL    HW210866   4.426   1.922   1.844
 3323SOL     OW10867   2.053   4.685   0.218
 3323SOL    HW110868   2.032   4.591   0.190
 3323SOL    HW210869   1.980   4.746   0.187
 3324SOL     OW10870   6.368   3.279   1.353
 3324SOL    HW110871   6.277   3.258   1.388
 3324SOL    HW210872   6.418   3.334   1.420
 3325SOL     OW10873   0.960   4.886   5.935
 3325SOL    HW110874   1.051   4.847   5.919
 3325SOL    HW210875   0.917   4.840   6.013
 3326SOL     OW10876   5.548   0.652   2.311
 3326SOL    HW110877   5.608   0.675   2.387
 3326SOL    HW210878   5.582   0.570   2.265
 3327SOL     OW10879   4.608   6.220   2.034
 3327SOL    HW110880   4.703   6.190   2.028
 3327SOL    HW210881   4.562   6.171   2.108
 3328SOL     OW10882   6.196   6.605   4.190
 3328SOL    HW110883   6.229   6.699   4.180
 3328SOL    HW210884   6.115   6.592   4.133
 3329SOL     OW10885   5.644   0.616   6.244
 3329SOL    HW110886   5.714   0.685   6.262
 3329SOL    HW210887   5.679   0.526   6.272
 3330SOL     OW10888   6.713   6.843   2.964
 3330SOL    HW110889   6.738   6.746   2.975
 3330SOL    HW210890   6.649   6.853   2.889
 3331SOL     OW10891   1.748   4.081   2.820
 3331SOL    HW110892   1.812   4.068   2.895
 3331SOL    HW210893   1.710   4.173   2.823
 3332SOL     OW10894   3.318   5.239   0.507
 3332SOL    HW110895   3.365   5.169   0.452
 3332SOL    HW210896   3.269   5.301   0.446
 3333SOL     OW10897   1.864   3.424   1.021
 3333SOL    HW110898   1.825   3.428   0.929
 3333SOL    HW210899   1.935   3.353   1.023
 3334SOL     OW10900   1.227   2.455   1.924
 3334SOL    HW110901   1.196   2.406   2.006
 3334SOL    HW210902   1.148   2.495   1.877
 3335SOL     OW10903   3.537   4.306   5.586
 3335SOL    HW110904   3.617   4.366   5.589
 3335SOL    HW210905   3.471   4.335   5.655
 3336SOL     OW10906   3.850   5.987   5.678
 3336SOL    HW110907   3.832   5.950   5.768
 3336SOL    HW210908   3.825   6.084   5.676
 3337SOL     OW10909   3.831   2.938   3.768
 3337SOL    HW110910   3.863   2.959   3.676
 3337SOL    HW210911   3.732   2.929   3.769
 3338SOL     OW10912   2.658   3.086   1.489
 3338SOL    HW110913   2.580   3.050   1.438
 3338SOL    HW210914   2.632   3.173   1.531
 3339SOL     OW10915   0.531   6.863   6.844
 3339SOL    HW110916   0.598   6.936   6.834
 3339SOL    HW210917   0.577   6.776   6.862
 3340SOL     OW10918   4.203   1.628   6.303
 3340SOL    HW110919   4.257   1.705   6.336
 3340SOL    HW210920   4.117   1.622   6.354
 3341SOL     OW10921   1.317   3.991   1.199
 3341SOL    HW110922   1.395   4.005   1.138
 3341SOL    HW210923   1.344   4.007   1.293
 3342SOL     OW10924   6.107   0.453   2.259
 3342SOL    HW110925   6.088   0.504   2.175
 3342SOL    HW210926   6.196   0.408   2.251
 3343SOL     OW10927   3.435   5.607   1.139
 3343SOL    HW110928   3.419   5.603   1.041
 3343SOL    HW210929   3.534   5.603   1.157
 3344SOL     OW10930   1.432   3.170   1.882
 3344SOL    HW110931   1.349   3.212   1.917
 3344SOL    HW210932   1.478   3.233   1.819
 3345SOL     OW10933   5.548   5.713   1.217
 3345SOL    HW110934   5.504   5.793   1.174
 3345SOL    HW210935   5.479   5.660   1.266
 3346SOL     OW10936   1.352   0.692   0.378
 3346SOL    HW110937   1.351   0.789   0.352
 3346SOL    HW210938   1.416   0.643   0.320
 3347SOL     OW10939   1.239   3.975   5.425
 3347SOL    HW110940   1.271   4.025   5.345
 3347SOL    HW210941   1.293   4.003   5.505
 3348SOL     OW10942   3.657   4.248   6.158
 3348SOL    HW110943   3.737   4.240   6.218
 3348SOL    HW210944   3.648   4.165   6.103
 3349SOL     OW10945   1.617   5.276   1.721
 3349SOL    HW110946   1.703   5.299   1.766
 3349SOL    HW210947   1.630   5.280   1.621
 3350SOL     OW10948   1.947   4.791   4.898
 3350SOL    HW110949   2.001   4.788   4.982
 3350SOL    HW210950   1.939   4.698   4.862
 3351SOL     OW10951   5.319   0.118   1.792
 3351SOL    HW110952   5.256   0.194   1.778
 3351SOL    HW210953   5.285   0.060   1.866
 3352SOL     OW10954   5.238   1.461   0.078
 3352SOL    HW110955   5.302   1.392   0.045
 3352SOL    HW210956   5.281   1.552   0.072
 3353SOL     OW10957   4.027   1.231   6.725
 3353SOL    HW110958   4.028   1.131   6.729
 3353SOL    HW210959   3.959   1.266   6.790
 3354SOL     OW10960   2.325   3.226   0.347
 3354SOL    HW110961   2.284   3.149   0.298
 3354SOL    HW210962   2.386   3.276   0.286
 3355SOL     OW10963   1.358   0.710   4.614
 3355SOL    HW110964   1.275   0.726   4.562
 3355SOL    HW210965   1.434   0.694   4.552
 3356SOL     OW10966   2.832   0.748   6.034
 3356SOL    HW110967   2.923   0.718   6.008
 3356SOL    HW210968   2.787   0.676   6.088
 3357SOL     OW10969   2.904   3.552   3.155
 3357SOL    HW110970   2.807   3.549   3.181
 3357SOL    HW210971   2.935   3.647   3.154
 3358SOL     OW10972   0.226   1.629   1.128
 3358SOL    HW110973   0.174   1.574   1.193
 3358SOL    HW210974   0.243   1.720   1.167
 3359SOL     OW10975   1.167   6.904   3.989
 3359SOL    HW110976   1.224   6.827   4.017
 3359SOL    HW210977   1.104   6.928   4.063
 3360SOL     OW10978   1.893   5.092   4.540
 3360SOL    HW110979   1.923   5.056   4.452
 3360SOL    HW210980   1.946   5.174   4.561
 3361SOL     OW10981   6.833   6.476   4.633
 3361SOL    HW110982   6.918   6.435   4.600
 3361SOL    HW210983   6.833   6.574   4.613
 3362SOL     OW10984   4.012   0.503   4.382
 3362SOL    HW110985   4.055   0.545   4.462
 3362SOL    HW210986   4.081   0.453   4.330
 3363SOL     OW10987   5.321   4.188   0.108
 3363SOL    HW110988   5.317   4.114   0.174
 3363SOL    HW210989   5.252   4.174   0.037
 3364SOL     OW10990   1.927   3.544   1.637
 3364SOL    HW110991   1.958   3.452   1.662
 3364SOL    HW210992   1.896   3.592   1.719
 3365SOL     OW10993   1.280   2.709   2.769
 3365SOL    HW110994   1.284   2.803   2.734
 3365SOL    HW210995   1.372   2.679   2.792
 3366SOL     OW10996   6.138   2.791   4.298
 3366SOL    HW110997   6.217   2.792   4.237
 3366SOL    HW210998   6.097   2.882   4.301
 3367SOL     OW10999   3.550   3.119   3.639
 3367SOL    HW111000   3.491   3.183   3.688
 3367SOL    HW211001   3.576   3.044   3.700
 3368SOL     OW11002   2.309   1.251   3.401
 3368SOL    HW111003   2.404   1.275   3.383
 3368SOL    HW211004   2.304   1.193   3.482
 3369SOL     OW11005   5.225   2.653   1.278
 3369SOL    HW111006   5.129   2.677   1.289
 3369SOL    HW211007   5.254   2.593   1.352
 3370SOL     OW11008   1.291   5.923   3.270
 3370SOL    HW111009   1.314   5.832   3.236
 3370SOL    HW211010   1.203   5.919   3.317
 3371SOL     OW11011   2.408   3.093   1.343
 3371SOL    HW111012   2.309   3.096   1.357
 3371SOL    HW211013   2.429   3.125   1.251
 3372SOL     OW11014   5.869   2.828   3.473
 3372SOL    HW111015   5.867   2.729   3.463
 3372SOL    HW211016   5.960   2.863   3.449
 3373SOL     OW11017   0.029   4.499   0.784
 3373SOL    HW111018   6.968   4.547   0.780
 3373SOL    HW211019   0.069   4.495   0.692
 3374SOL     OW11020   0.884   6.099   4.264
 3374SOL    HW111021   0.864   6.131   4.356
 3374SOL    HW211022   0.953   6.026   4.268
 3375SOL     OW11023   0.611   6.338   6.022
 3375SOL    HW111024   0.598   6.335   5.923
 3375SOL    HW211025   0.525   6.318   6.068
 3376SOL     OW11026   3.089   3.315   4.801
 3376SOL    HW111027   3.033   3.309   4.884
 3376SOL    HW211028   3.138   3.229   4.788
 3377SOL     OW11029   6.569   5.099   4.358
 3377SOL    HW111030   6.637   5.166   4.327
 3377SOL    HW211031   6.554   5.110   4.457
 3378SOL     OW11032   0.937   5.800   0.499
 3378SOL    HW111033   0.906   5.714   0.458
 3378SOL    HW211034   1.017   5.833   0.449
 3379SOL     OW11035   6.033   4.065   4.216
 3379SOL    HW111036   5.954   4.093   4.162
 3379SOL    HW211037   6.012   4.077   4.313
 3380SOL     OW11038   1.873   5.317   1.345
 3380SOL    HW111039   1.916   5.269   1.421
 3380SOL    HW211040   1.829   5.251   1.285
 3381SOL     OW11041   3.073   3.748   5.953
 3381SOL    HW111042   3.139   3.732   5.880
 3381SOL    HW211043   3.067   3.666   6.010
 3382SOL     OW11044   6.857   3.736   6.686
 3382SOL    HW111045   6.855   3.836   6.684
 3382SOL    HW211046   6.780   3.703   6.740
 3383SOL     OW11047   3.222   5.897   0.841
 3383SOL    HW111048   3.241   5.971   0.905
 3383SOL    HW211049   3.138   5.917   0.790
 3384SOL     OW11050   2.749   2.875   6.407
 3384SOL    HW111051   2.806   2.885   6.325
 3384SOL    HW211052   2.804   2.898   6.488
 3385SOL     OW11053   6.179   2.770   4.698
 3385SOL    HW111054   6.125   2.849   4.668
 3385SOL    HW211055   6.190   2.772   4.797
 3386SOL     OW11056   0.803   6.254   4.755
 3386SOL    HW111057   0.806   6.313   4.674
 3386SOL    HW211058   0.717   6.204   4.757
 3387SOL     OW11059   6.244   0.464   2.755
 3387SOL    HW111060   6.313   0.434   2.820
 3387SOL    HW211061   6.213   0.386   2.701
 3388SOL     OW11062   0.291   3.718   0.631
 3388SOL    HW111063   0.384   3.693   0.603
 3388SOL    HW211064   0.230   3.641   0.613
 3389SOL     OW11065   6.568   5.554   6.572
 3389SOL    HW111066   6.530   5.462   6.579
 3389SOL    HW211067   6.610   5.566   6.481
 3390SOL     OW11068   3.112   5.026   0.448
 3390SOL    HW111069   3.053   5.045   0.526
 3390SOL    HW211070   3.170   5.105   0.429
 3391SOL     OW11071   4.962   3.895   5.310
 3391SOL    HW111072   5.058   3.922   5.322
 3391SOL    HW211073   4.909   3.926   5.389
 3392SOL     OW11074   5.368   6.616   5.563
 3392SOL    HW111075   5.401   6.539   5.508
 3392SOL    HW211076   5.371   6.700   5.509
 3393SOL     OW11077   3.360   6.808   0.295
 3393SOL    HW111078   3.358   6.832   0.198
 3393SOL    HW211079   3.450   6.828   0.333
 3394SOL     OW11080   3.041   5.403   1.032
 3394SOL    HW111081   3.035   5.497   1.066
 3394SOL    HW211082   2.961   5.384   0.974
 3395SOL     OW11083   1.896   6.508   3.051
 3395SOL    HW111084   1.974   6.569   3.068
 3395SOL    HW211085   1.906   6.426   3.107
 3396SOL     OW11086   4.841   0.600   4.655
 3396SOL    HW111087   4.745   0.575   4.667
 3396SOL    HW211088   4.873   0.569   4.565
 3397SOL     OW11089   2.319   6.171   0.910
 3397SOL    HW111090   2.393   6.237   0.904
 3397SOL    HW211091   2.246   6.197   0.847
 3398SOL     OW11092   6.773   1.025   6.480
 3398SOL    HW111093   6.797   1.122   6.482
 3398SOL    HW211094   6.686   1.013   6.432
 3399SOL     OW11095   7.025   6.461   2.035
 3399SOL    HW111096   7.002   6.370   2.001
 3399SOL    HW211097   0.077   6.453   2.098
 3400SOL     OW11098   3.507   2.788   5.354
 3400SOL    HW111099   3.505   2.864   5.419
 3400SOL    HW211100   3.516   2.702   5.405
 3401SOL     OW11101   0.166   2.864   4.167
 3401SOL    HW111102   0.243   2.896   4.223
 3401SOL    HW211103   0.159   2.921   4.086
 3402SOL     OW11104   5.347   3.426   0.433
 3402SOL    HW111105   5.310   3.472   0.352
 3402SOL    HW211106   5.346   3.489   0.511
 3403SOL     OW11107   5.568   6.377   5.078
 3403SOL    HW111108   5.490   6.424   5.118
 3403SOL    HW211109   5.642   6.443   5.063
 3404SOL     OW11110   5.290   5.142   3.313
 3404SOL    HW111111   5.369   5.084   3.334
 3404SOL    HW211112   5.221   5.088   3.266
 3405SOL     OW11113   4.377   6.213   0.949
 3405SOL    HW111114   4.397   6.281   0.879
 3405SOL    HW211115   4.300   6.243   1.005
 3406SOL     OW11116   3.372   5.110   1.433
 3406SOL    HW111117   3.428   5.184   1.395
 3406SOL    HW211118   3.419   5.023   1.422
 3407SOL     OW11119   1.431   2.789   0.636
 3407SOL    HW111120   1.512   2.848   0.634
 3407SOL    HW211121   1.439   2.720   0.565
 3408SOL     OW11122   4.102   6.788   4.018
 3408SOL    HW111123   4.115   6.755   3.925
 3408SOL    HW211124   4.176   6.756   4.076
 3409SOL     OW11125   4.401   1.798   0.039
 3409SOL    HW111126   4.386   1.776   0.135
 3409SOL    HW211127   4.314   1.790   7.015
 3410SOL     OW11128   6.765   0.754   2.268
 3410SOL    HW111129   6.852   0.770   2.221
 3410SOL    HW211130   6.777   0.768   2.366
 3411SOL     OW11131   5.770   3.007   5.987
 3411SOL    HW111132   5.834   3.053   5.925
 3411SOL    HW211133   5.721   2.936   5.936
 3412SOL     OW11134   5.767   2.795   3.737
 3412SOL    HW111135   5.856   2.796   3.783
 3412SOL    HW211136   5.778   2.821   3.642
 3413SOL     OW11137   7.003   2.678   0.943
 3413SOL    HW111138   6.933   2.748   0.929
 3413SOL    HW211139   0.007   2.679   1.038
 3414SOL     OW11140   4.004   3.118   2.076
 3414SOL    HW111141   3.976   3.025   2.095
 3414SOL    HW211142   4.076   3.118   2.006
 3415SOL     OW11143   2.193   1.158   6.088
 3415SOL    HW111144   2.271   1.218   6.101
 3415SOL    HW211145   2.148   1.141   6.176
 3416SOL     OW11146   5.639   6.722   6.048
 3416SOL    HW111147   5.717   6.768   6.004
 3416SOL    HW211148   5.555   6.748   6.002
 3417SOL     OW11149   6.168   0.667   2.428
 3417SOL    HW111150   6.244   0.635   2.485
 3417SOL    HW211151   6.141   0.595   2.364
 3418SOL     OW11152   4.225   5.979   0.927
 3418SOL    HW111153   4.191   5.998   0.835
 3418SOL    HW211154   4.298   6.042   0.950
 3419SOL     OW11155   3.028   4.822   5.066
 3419SOL    HW111156   2.956   4.880   5.028
 3419SOL    HW211157   2.993   4.729   5.077
 3420SOL     OW11158   4.030   0.935   1.851
 3420SOL    HW111159   3.959   0.876   1.887
 3420SOL    HW211160   4.068   0.894   1.767
 3421SOL     OW11161   0.471   1.793   4.766
 3421SOL    HW111162   0.392   1.822   4.712
 3421SOL    HW211163   0.554   1.803   4.711
 3422SOL     OW11164   3.623   5.766   2.023
 3422SOL    HW111165   3.720   5.747   2.012
 3422SOL    HW211166   3.576   5.683   2.055
 3423SOL     OW11167   1.931   4.480   5.880
 3423SOL    HW111168   1.886   4.464   5.792
 3423SOL    HW211169   1.996   4.407   5.898
 3424SOL     OW11170   5.411   0.248   2.346
 3424SOL    HW111171   5.492   0.189   2.339
 3424SOL    HW211172   5.406   0.288   2.438
 3425SOL     OW11173   6.161   2.803   6.202
 3425SOL    HW111174   6.075   2.783   6.250
 3425SOL    HW211175   6.192   2.894   6.228
 3426SOL     OW11176   6.596   5.375   0.006
 3426SOL    HW111177   6.571   5.466   0.040
 3426SOL    HW211178   6.517   5.333   6.988
 3427SOL     OW11179   1.826   1.372   6.273
 3427SOL    HW111180   1.873   1.394   6.188
 3427SOL    HW211181   1.790   1.278   6.267
 3428SOL     OW11182   4.902   0.205   4.499
 3428SOL    HW111183   4.897   0.252   4.587
 3428SOL    HW211184   4.888   0.107   4.512
 3429SOL     OW11185   4.104   6.484   0.725
 3429SOL    HW111186   4.130   6.555   0.791
 3429SOL    HW211187   4.186   6.445   0.684
 3430SOL     OW11188   3.198   4.529   6.760
 3430SOL    HW111189   3.281   4.474   6.758
 3430SOL    HW211190   3.211   4.611   6.705
 3431SOL     OW11191   0.938   4.526   3.242
 3431SOL    HW111192   0.960   4.494   3.334
 3431SOL    HW211193   1.016   4.511   3.182
 3432SOL     OW11194   0.267   5.101   6.771
 3432SOL    HW111195   0.258   5.127   6.868
 3432SOL    HW211196   0.201   5.153   6.717
 3433SOL     OW11197   0.991   0.791   0.358
 3433SOL    HW111198   0.981   0.862   0.289
 3433SOL    HW211199   1.039   0.712   0.318
 3434SOL     OW11200   3.979   2.218   1.896
 3434SOL    HW111201   3.997   2.120   1.902
 3434SOL    HW211202   3.883   2.236   1.916
 3435SOL     OW11203   2.226   2.762   1.227
 3435SOL    HW111204   2.255   2.775   1.322
 3435SOL    HW211205   2.128   2.744   1.224
 3436SOL     OW11206   3.986   6.482   5.955
 3436SOL    HW111207   3.909   6.519   6.007
 3436SOL    HW211208   3.964   6.485   5.857
 3437SOL     OW11209   1.488   6.708   0.030
 3437SOL    HW111210   1.453   6.685   0.121
 3437SOL    HW211211   1.563   6.645   0.006
 3438SOL     OW11212   2.055   4.343   0.625
 3438SOL    HW111213   1.980   4.313   0.565
 3438SOL    HW211214   2.141   4.307   0.591
 3439SOL     OW11215   2.893   5.545   0.657
 3439SOL    HW111216   2.914   5.577   0.564
 3439SOL    HW211217   2.931   5.609   0.723
 3440SOL     OW11218   3.759   3.804   5.820
 3440SOL    HW111219   3.675   3.839   5.862
 3440SOL    HW211220   3.776   3.710   5.850
 3441SOL     OW11221   6.567   5.059   5.019
 3441SOL    HW111222   6.513   4.976   5.004
 3441SOL    HW211223   6.507   5.134   5.047
 3442SOL     OW11224   1.736   2.401   0.504
 3442SOL    HW111225   1.768   2.339   0.575
 3442SOL    HW211226   1.740   2.495   0.538
 3443SOL     OW11227   0.582   5.920   2.536
 3443SOL    HW111228   0.540   6.010   2.544
 3443SOL    HW211229   0.548   5.875   2.453
 3444SOL     OW11230   0.607   4.156   6.376
 3444SOL    HW111231   0.533   4.089   6.382
 3444SOL    HW211232   0.605   4.214   6.457
 3445SOL     OW11233   5.446   5.288   4.876
 3445SOL    HW111234   5.351   5.321   4.872
 3445SOL    HW211235   5.461   5.220   4.805
 3446SOL     OW11236   4.867   1.950   0.209
 3446SOL    HW111237   4.783   1.950   0.154
 3446SOL    HW211238   4.918   1.866   0.191
 3447SOL     OW11239   4.774   1.448   6.244
 3447SOL    HW111240   4.753   1.508   6.321
 3447SOL    HW211241   4.854   1.482   6.195
 3448SOL     OW11242   1.100   4.838   5.561
 3448SOL    HW111243   1.105   4.912   5.493
 3448SOL    HW211244   1.007   4.833   5.597
 3449SOL     OW11245   1.309   3.760   5.206
 3449SOL    HW111246   1.265   3.836   5.253
 3449SOL    HW211247   1.306   3.775   5.107
 3450SOL     OW11248   2.542   6.663   2.681
 3450SOL    HW111249   2.507   6.614   2.602
 3450SOL    HW211250   2.535   6.762   2.665
 3451SOL     OW11251   2.122   2.452   0.240
 3451SOL    HW111252   2.098   2.382   0.308
 3451SOL    HW211253   2.176   2.410   0.167
 3452SOL     OW11254   4.444   1.320   6.549
 3452SOL    HW111255   4.403   1.347   6.462
 3452SOL    HW211256   4.537   1.288   6.532
 3453SOL     OW11257   4.756   6.287   6.211
 3453SOL    HW111258   4.847   6.286   6.170
 3453SOL    HW211259   4.758   6.237   6.298
 3454SOL     OW11260   1.293   2.984   2.733
 3454SOL    HW111261   1.226   3.029   2.673
 3454SOL    HW211262   1.371   3.046   2.748
 3455SOL     OW11263   1.000   4.279   6.272
 3455SOL    HW111264   0.989   4.194   6.220
 3455SOL    HW211265   1.081   4.328   6.238
 3456SOL     OW11266   4.234   5.283   3.324
 3456SOL    HW111267   4.164   5.219   3.358
 3456SOL    HW211268   4.240   5.275   3.224
 3457SOL     OW11269   4.023   4.455   6.950
 3457SOL    HW111270   4.027   4.474   0.022
 3457SOL    HW211271   4.002   4.358   6.936
 3458SOL     OW11272   4.687   1.811   1.396
 3458SOL    HW111273   4.782   1.816   1.426
 3458SOL    HW211274   4.683   1.774   1.303
 3459SOL     OW11275   6.353   6.461   2.473
 3459SOL    HW111276   6.391   6.369   2.462
 3459SOL    HW211277   6.353   6.485   2.570
 3460SOL     OW11278   3.571   1.399   5.349
 3460SOL    HW111279   3.594   1.495   5.331
 3460SOL    HW211280   3.477   1.381   5.321
 3461SOL     OW11281   4.695   4.218   3.802
 3461SOL    HW111282   4.729   4.303   3.762
 3461SOL    HW211283   4.596   4.214   3.794
 3462SOL     OW11284   1.133   4.991   6.162
 3462SOL    HW111285   1.184   5.076   6.160
 3462SOL    HW211286   1.044   5.004   6.119
 3463SOL     OW11287   5.754   3.916   0.362
 3463SOL    HW111288   5.813   3.975   0.417
 3463SOL    HW211289   5.730   3.963   0.276
 3464SOL     OW11290   0.421   4.610   3.823
 3464SOL    HW111291   0.395   4.568   3.909
 3464SOL    HW211292   0.344   4.664   3.787
 3465SOL     OW11293   0.474   3.049   2.035
 3465SOL    HW111294   0.570   3.023   2.044
 3465SOL    HW211295   0.468   3.145   2.008
 3466SOL     OW11296   6.330   3.515   3.615
 3466SOL    HW111297   6.340   3.416   3.605
 3466SOL    HW211298   6.235   3.541   3.597
 3467SOL     OW11299   1.651   2.574   6.244
 3467SOL    HW111300   1.738   2.591   6.290
 3467SOL    HW211301   1.620   2.657   6.198
 3468SOL     OW11302   4.458   6.056   1.835
 3468SOL    HW111303   4.413   5.979   1.881
 3468SOL    HW211304   4.525   6.097   1.897
 3469SOL     OW11305   5.218   4.404   0.519
 3469SOL    HW111306   5.233   4.464   0.598
 3469SOL    HW211307   5.212   4.459   0.436
 3470SOL     OW11308   6.003   5.090   1.370
 3470SOL    HW111309   5.924   5.037   1.400
 3470SOL    HW211310   6.063   5.109   1.447
 3471SOL     OW11311   4.286   6.576   4.621
 3471SOL    HW111312   4.337   6.553   4.538
 3471SOL    HW211313   4.323   6.659   4.662
 3472SOL     OW11314   4.321   0.731   4.344
 3472SOL    HW111315   4.234   0.760   4.305
 3472SOL    HW211316   4.352   0.797   4.412
 3473SOL     OW11317   4.437   6.514   3.782
 3473SOL    HW111318   4.473   6.607   3.780
 3473SOL    HW211319   4.409   6.491   3.875
 3474SOL     OW11320   4.365   4.799   0.528
 3474SOL    HW111321   4.421   4.836   0.603
 3474SOL    HW211322   4.355   4.869   0.457
 3475SOL     OW11323   1.656   5.372   4.997
 3475SOL    HW111324   1.718   5.448   4.975
 3475SOL    HW211325   1.610   5.342   4.913
 3476SOL     OW11326   4.167   1.931   3.939
 3476SOL    HW111327   4.235   1.957   3.870
 3476SOL    HW211328   4.091   1.996   3.938
 3477SOL     OW11329   5.084   5.282   2.246
 3477SOL    HW111330   5.007   5.258   2.187
 3477SOL    HW211331   5.139   5.200   2.264
 3478SOL     OW11332   3.571   4.228   0.263
 3478SOL    HW111333   3.615   4.302   0.212
 3478SOL    HW211334   3.518   4.266   0.338
 3479SOL     OW11335   1.782   0.469   0.836
 3479SOL    HW111336   1.748   0.381   0.804
 3479SOL    HW211337   1.709   0.537   0.831
 3480SOL     OW11338   1.428   6.903   4.251
 3480SOL    HW111339   1.515   6.885   4.297
 3480SOL    HW211340   1.413   6.834   4.180
 3481SOL     OW11341   2.032   5.911   0.169
 3481SOL    HW111342   2.002   5.830   0.119
 3481SOL    HW211343   2.088   5.884   0.247
 3482SOL     OW11344   0.400   2.502   1.324
 3482SOL    HW111345   0.446   2.480   1.410
 3482SOL    HW211346   0.304   2.475   1.330
 3483SOL     OW11347   3.790   1.149   0.848
 3483SOL    HW111348   3.728   1.101   0.910
 3483SOL    HW211349   3.809   1.092   0.768
 3484SOL     OW11350   3.575   3.967   3.311
 3484SOL    HW111351   3.626   3.990   3.229
 3484SOL    HW211352   3.484   4.008   3.307
 3485SOL     OW11353   6.030   1.952   5.115
 3485SOL    HW111354   5.970   2.020   5.074
 3485SOL    HW211355   5.977   1.892   5.174
 3486SOL     OW11356   5.725   0.866   3.437
 3486SOL    HW111357   5.729   0.780   3.487
 3486SOL    HW211358   5.681   0.935   3.493
 3487SOL     OW11359   1.034   0.003   0.768
 3487SOL    HW111360   0.937   0.019   0.749
 3487SOL    HW211361   1.048   7.016   0.866
 3488SOL     OW11362   6.396   3.882   4.367
 3488SOL    HW111363   6.348   3.914   4.449
 3488SOL    HW211364   6.331   3.875   4.291
 3489SOL     OW11365   2.733   5.638   7.014
 3489SOL    HW111366   2.636   5.658   6.999
 3489SOL    HW211367   2.788   5.712   6.976
 3490SOL     OW11368   4.669   3.929   0.395
 3490SOL    HW111369   4.606   4.006   0.401
 3490SOL    HW211370   4.626   3.855   0.344
 3491SOL     OW11371   5.795   2.630   5.143
 3491SOL    HW111372   5.804   2.671   5.234
 3491SOL    HW211373   5.833   2.693   5.075
 3492SOL     OW11374   6.357   4.753   6.798
 3492SOL    HW111375   6.386   4.681   6.736
 3492SOL    HW211376   6.275   4.798   6.762
 3493SOL     OW11377   6.394   4.825   1.436
 3493SOL    HW111378   6.418   4.902   1.496
 3493SOL    HW211379   6.474   4.797   1.383
 3494SOL     OW11380   2.741   6.353   1.255
 3494SOL    HW111381   2.821   6.410   1.273
 3494SOL    HW211382   2.659   6.410   1.252
 3495SOL     OW11383   5.816   4.486   6.277
 3495SOL    HW111384   5.757   4.492   6.357
 3495SOL    HW211385   5.851   4.392   6.269
 3496SOL     OW11386   1.000   5.257   1.142
 3496SOL    HW111387   0.934   5.230   1.072
 3496SOL    HW211388   0.982   5.351   1.171
 3497SOL     OW11389   3.929   6.942   4.712
 3497SOL    HW111390   4.015   6.948   4.763
 3497SOL    HW211391   3.945   6.960   4.616
 3498SOL     OW11392   1.095   1.735   0.456
 3498SOL    HW111393   1.161   1.667   0.486
 3498SOL    HW211394   1.132   1.787   0.379
 3499SOL     OW11395   6.997   4.168   4.177
 3499SOL    HW111396   6.950   4.184   4.264
 3499SOL    HW211397   6.952   4.093   4.128
 3500SOL     OW11398   5.751   2.962   0.995
 3500SOL    HW111399   5.828   3.019   0.968
 3500SOL    HW211400   5.728   2.899   0.920
 3501SOL     OW11401   0.712   4.771   3.037
 3501SOL    HW111402   0.737   4.675   3.033
 3501SOL    HW211403   0.614   4.780   3.057
 3502SOL     OW11404   0.446   5.035   1.637
 3502SOL    HW111405   0.531   4.983   1.643
 3502SOL    HW211406   0.412   5.054   1.729
 3503SOL     OW11407   3.635   6.837   3.552
 3503SOL    HW111408   3.630   6.936   3.546
 3503SOL    HW211409   3.631   6.809   3.648
 3504SOL     OW11410   2.181   3.050   2.459
 3504SOL    HW111411   2.216   3.024   2.549
 3504SOL    HW211412   2.147   3.144   2.461
 3505SOL     OW11413   4.735   6.689   4.763
 3505SOL    HW111414   4.779   6.610   4.807
 3505SOL    HW211415   4.689   6.744   4.833
 3506SOL     OW11416   6.493   4.658   2.399
 3506SOL    HW111417   6.417   4.618   2.347
 3506SOL    HW211418   6.580   4.629   2.360
 3507SOL     OW11419   0.162   0.260   5.918
 3507SOL    HW111420   0.140   0.184   5.856
 3507SOL    HW211421   0.092   0.331   5.911
 3508SOL     OW11422   6.456   4.511   6.645
 3508SOL    HW111423   6.498   4.425   6.675
 3508SOL    HW211424   6.376   4.491   6.589
 3509SOL     OW11425   5.672   6.630   6.921
 3509SOL    HW111426   5.640   6.655   7.012
 3509SOL    HW211427   5.697   6.533   6.920
 3510SOL     OW11428   1.627   1.282   1.859
 3510SOL    HW111429   1.608   1.294   1.956
 3510SOL    HW211430   1.715   1.237   1.847
 3511SOL     OW11431   1.055   0.777   4.574
 3511SOL    HW111432   0.990   0.755   4.646
 3511SOL    HW211433   1.081   0.873   4.580
 3512SOL     OW11434   3.809   3.367   1.222
 3512SOL    HW111435   3.881   3.324   1.277
 3512SOL    HW211436   3.779   3.303   1.151
 3513SOL     OW11437   5.878   4.242   1.366
 3513SOL    HW111438   5.821   4.223   1.286
 3513SOL    HW211439   5.836   4.316   1.419
 3514SOL     OW11440   2.379   5.980   2.139
 3514SOL    HW111441   2.310   6.008   2.206
 3514SOL    HW211442   2.468   5.975   2.183
 3515SOL     OW11443   3.772   5.841   3.332
 3515SOL    HW111444   3.870   5.854   3.321
 3515SOL    HW211445   3.754   5.769   3.399
 3516SOL     OW11446   2.047   0.710   0.040
 3516SOL    HW111447   1.957   0.731   0.002
 3516SOL    HW211448   2.038   0.689   0.137
 3517SOL     OW11449   0.592   0.752   6.839
 3517SOL    HW111450   0.607   0.731   6.936
 3517SOL    HW211451   0.551   0.673   6.793
 3518SOL     OW11452   4.352   3.585   6.434
 3518SOL    HW111453   4.331   3.587   6.336
 3518SOL    HW211454   4.370   3.490   6.462
 3519SOL     OW11455   3.278   6.930   0.634
 3519SOL    HW111456   3.378   6.928   0.635
 3519SOL    HW211457   3.246   7.024   0.632
 3520SOL     OW11458   3.592   4.946   1.649
 3520SOL    HW111459   3.534   5.005   1.705
 3520SOL    HW211460   3.667   5.001   1.611
 3521SOL     OW11461   6.573   2.046   6.205
 3521SOL    HW111462   6.668   2.020   6.221
 3521SOL    HW211463   6.563   2.075   6.110
 3522SOL     OW11464   2.863   0.654   0.669
 3522SOL    HW111465   2.789   0.719   0.650
 3522SOL    HW211466   2.852   0.618   0.762
 3523SOL     OW11467   2.120   4.859   5.152
 3523SOL    HW111468   2.146   4.949   5.186
 3523SOL    HW211469   2.195   4.820   5.099
 3524SOL     OW11470   2.529   1.019   3.113
 3524SOL    HW111471   2.477   0.934   3.112
 3524SOL    HW211472   2.484   1.087   3.055
 3525SOL     OW11473   1.434   3.234   3.449
 3525SOL    HW111474   1.492   3.193   3.520
 3525SOL    HW211475   1.369   3.166   3.417
 3526SOL     OW11476   3.593   6.464   3.544
 3526SOL    HW111477   3.564   6.486   3.451
 3526SOL    HW211478   3.660   6.532   3.575
 3527SOL     OW11479   5.750   3.494   0.000
 3527SOL    HW111480   5.666   3.504   0.054
 3527SOL    HW211481   5.817   3.562   0.031
 3528SOL     OW11482   1.769   0.055   4.687
 3528SOL    HW111483   1.757   6.995   4.737
 3528SOL    HW211484   1.798   0.127   4.750
 3529SOL     OW11485   3.920   5.505   0.408
 3529SOL    HW111486   4.009   5.499   0.363
 3529SOL    HW211487   3.918   5.442   0.486
 3530SOL     OW11488   1.984   5.883   2.929
 3530SOL    HW111489   2.021   5.899   2.838
 3530SOL    HW211490   1.884   5.886   2.926
 3531SOL     OW11491   5.214   4.840   7.003
 3531SOL    HW111492   5.230   4.939   6.997
 3531SOL    HW211493   5.299   4.795   0.004
 3532SOL     OW11494   2.238   6.713   1.143
 3532SOL    HW111495   2.190   6.639   1.190
 3532SOL    HW211496   2.260   6.785   1.208
 3533SOL     OW11497   1.416   0.881   3.327
 3533SOL    HW111498   1.414   0.781   3.324
 3533SOL    HW211499   1.345   0.918   3.267
 3534SOL     OW11500   5.186   6.867   4.748
 3534SOL    HW111501   5.194   6.967   4.748
 3534SOL    HW211502   5.107   6.840   4.694
 3535SOL     OW11503   4.801   6.479   0.077
 3535SOL    HW111504   4.898   6.492   0.054
 3535SOL    HW211505   4.752   6.565   0.062
 3536SOL     OW11506   1.406   3.292   2.575
 3536SOL    HW111507   1.461   3.209   2.565
 3536SOL    HW211508   1.358   3.312   2.489
 3537SOL     OW11509   2.797   5.179   1.571
 3537SOL    HW111510   2.702   5.175   1.603
 3537SOL    HW211511   2.856   5.210   1.646
 3538SOL     OW11512   3.922   0.865   3.654
 3538SOL    HW111513   3.854   0.809   3.606
 3538SOL    HW211514   4.005   0.811   3.670
 3539SOL     OW11515   4.966   5.620   5.281
 3539SOL    HW111516   5.023   5.678   5.223
 3539SOL    HW211517   4.870   5.645   5.270
 3540SOL     OW11518   3.763   5.070   6.504
 3540SOL    HW111519   3.684   5.089   6.446
 3540SOL    HW211520   3.751   5.117   6.592
 3541SOL     OW11521   0.717   2.798   2.460
 3541SOL    HW111522   0.678   2.804   2.368
 3541SOL    HW211523   0.660   2.739   2.517
 3542SOL     OW11524   5.806   1.989   6.944
 3542SOL    HW111525   5.760   1.915   6.993
 3542SOL    HW211526   5.890   1.955   6.903
 3543SOL     OW11527   0.416   2.448   3.543
 3543SOL    HW111528   0.344   2.385   3.512
 3543SOL    HW211529   0.437   2.429   3.639
 3544SOL     OW11530   2.654   4.301   6.702
 3544SOL    HW111531   2.731   4.354   6.737
 3544SOL    HW211532   2.675   4.270   6.609
 3545SOL     OW11533   3.477   6.544   0.883
 3545SOL    HW111534   3.553   6.602   0.912
 3545SOL    HW211535   3.394   6.599   0.876
 3546SOL     OW11536   6.269   4.573   1.468
 3546SOL    HW111537   6.277   4.513   1.547
 3546SOL    HW211538   6.335   4.647   1.475
 3547SOL     OW11539   0.598   3.738   3.944
 3547SOL    HW111540   0.540   3.794   3.885
 3547SOL    HW211541   0.559   3.647   3.952
 3548SOL     OW11542   6.715   0.606   5.495
 3548SOL    HW111543   6.645   0.675   5.514
 3548SOL    HW211544   6.738   0.608   5.398
 3549SOL     OW11545   2.056   6.440   6.736
 3549SOL    HW111546   2.061   6.405   6.643
 3549SOL    HW211547   2.045   6.540   6.734
 3550SOL     OW11548   5.864   2.142   6.246
 3550SOL    HW111549   5.934   2.206   6.212
 3550SOL    HW211550   5.833   2.171   6.336
 3551SOL     OW11551   5.406   1.487   5.229
 3551SOL    HW111552   5.482   1.545   5.258
 3551SOL    HW211553   5.338   1.481   5.303
 3552SOL     OW11554   0.041   0.159   3.380
 3552SOL    HW111555   7.014   0.108   3.312
 3552SOL    HW211556   0.115   0.102   3.416
 3553SOL     OW11557   6.486   6.053   5.952
 3553SOL    HW111558   6.553   5.980   5.944
 3553SOL    HW211559   6.405   6.031   5.898
 3554SOL     OW11560   4.826   4.445   6.888
 3554SOL    HW111561   4.903   4.496   6.847
 3554SOL    HW211562   4.769   4.508   6.941
 3555SOL     OW11563   2.579   1.114   5.168
 3555SOL    HW111564   2.538   1.204   5.182
 3555SOL    HW211565   2.618   1.109   5.076
 3556SOL     OW11566   6.474   0.611   0.274
 3556SOL    HW111567   6.574   0.606   0.272
 3556SOL    HW211568   6.445   0.695   0.319
 3557SOL     OW11569   4.843   6.643   1.890
 3557SOL    HW111570   4.775   6.570   1.905
 3557SOL    HW211571   4.810   6.705   1.819
 3558SOL     OW11572   4.073   5.737   2.423
 3558SOL    HW111573   4.099   5.661   2.363
 3558SOL    HW211574   3.977   5.761   2.407
 3559SOL     OW11575   3.838   6.697   6.658
 3559SOL    HW111576   3.856   6.787   6.696
 3559SOL    HW211577   3.789   6.641   6.725
 3560SOL     OW11578   2.316   6.150   4.398
 3560SOL    HW111579   2.333   6.081   4.468
 3560SOL    HW211580   2.366   6.125   4.315
 3561SOL     OW11581   3.883   3.031   5.584
 3561SOL    HW111582   3.877   3.124   5.619
 3561SOL    HW211583   3.831   2.969   5.643
 3562SOL     OW11584   2.441   1.181   0.352
 3562SOL    HW111585   2.497   1.264   0.363
 3562SOL    HW211586   2.416   1.146   0.442
 3563SOL     OW11587   0.543   2.675   7.008
 3563SOL    HW111588   0.512   2.627   6.926
 3563SOL    HW211589   0.595   2.611   0.040
 3564SOL     OW11590   6.671   3.796   2.862
 3564SOL    HW111591   6.767   3.779   2.884
 3564SOL    HW211592   6.614   3.772   2.941
 3565SOL     OW11593   4.651   6.285   5.466
 3565SOL    HW111594   4.734   6.275   5.412
 3565SOL    HW211595   4.673   6.278   5.563
 3566SOL     OW11596   0.915   0.889   5.687
 3566SOL    HW111597   0.946   0.880   5.782
 3566SOL    HW211598   0.994   0.904   5.627
 3567SOL     OW11599   6.780   4.457   6.865
 3567SOL    HW111600   6.813   4.552   6.864
 3567SOL    HW211601   6.758   4.432   6.959
 3568SOL     OW11602   3.880   3.845   5.537
 3568SOL    HW111603   3.870   3.814   5.631
 3568SOL    HW211604   3.939   3.926   5.534
 3569SOL     OW11605   1.713   0.180   3.628
 3569SOL    HW111606   1.673   0.186   3.536
 3569SOL    HW211607   1.737   0.272   3.659
 3570SOL     OW11608   5.910   2.026   4.708
 3570SOL    HW111609   5.903   2.080   4.624
 3570SOL    HW211610   5.863   1.939   4.695
 3571SOL     OW11611   5.895   5.992   4.315
 3571SOL    HW111612   5.917   5.966   4.409
 3571SOL    HW211613   5.888   5.910   4.258
 3572SOL     OW11614   6.200   6.911   5.434
 3572SOL    HW111615   6.110   6.938   5.468
 3572SOL    HW211616   6.252   6.992   5.408
 3573SOL     OW11617   0.320   2.190   1.212
 3573SOL    HW111618   0.331   2.209   1.114
 3573SOL    HW211619   0.264   2.261   1.254
 3574SOL     OW11620   5.987   3.760   6.713
 3574SOL    HW111621   6.045   3.724   6.785
 3574SOL    HW211622   6.039   3.766   6.627
 3575SOL     OW11623   6.398   6.876   1.761
 3575SOL    HW111624   6.308   6.838   1.741
 3575SOL    HW211625   6.436   6.831   1.842
 3576SOL     OW11626   6.822   0.240   6.933
 3576SOL    HW111627   6.866   0.227   7.022
 3576SOL    HW211628   6.886   0.285   6.871
 3577SOL     OW11629   2.200   4.143   6.971
 3577SOL    HW111630   2.193   4.151   0.045
 3577SOL    HW211631   2.290   4.175   6.941
 3578SOL     OW11632   3.759   4.493   1.669
 3578SOL    HW111633   3.665   4.487   1.703
 3578SOL    HW211634   3.796   4.401   1.657
 3579SOL     OW11635   1.855   3.851   5.382
 3579SOL    HW111636   1.929   3.913   5.411
 3579SOL    HW211637   1.779   3.906   5.347
 3580SOL     OW11638   6.430   2.537   0.694
 3580SOL    HW111639   6.405   2.532   0.791
 3580SOL    HW211640   6.521   2.577   0.685
 3581SOL     OW11641   6.930   0.745   3.359
 3581SOL    HW111642   6.900   0.679   3.428
 3581SOL    HW211643   6.983   0.818   3.403
 3582SOL     OW11644   0.357   0.005   5.638
 3582SOL    HW111645   0.383   6.935   5.653
 3582SOL    HW211646   0.282   0.010   5.573
 3583SOL     OW11647   0.875   5.378   1.758
 3583SOL    HW111648   0.921   5.438   1.693
 3583SOL    HW211649   0.782   5.412   1.775
 3584SOL     OW11650   5.889   0.604   5.448
 3584SOL    HW111651   5.956   0.657   5.395
 3584SOL    HW211652   5.889   0.509   5.417
 3585SOL     OW11653   2.182   4.798   3.291
 3585SOL    HW111654   2.256   4.790   3.225
 3585SOL    HW211655   2.218   4.785   3.384
 3586SOL     OW11656   0.795   0.999   6.037
 3586SOL    HW111657   0.768   1.048   5.954
 3586SOL    HW211658   0.716   0.948   6.072
 3587SOL     OW11659   3.541   6.516   6.436
 3587SOL    HW111660   3.539   6.425   6.478
 3587SOL    HW211661   3.541   6.586   6.507
 3588SOL     OW11662   2.484   2.345   5.580
 3588SOL    HW111663   2.458   2.440   5.564
 3588SOL    HW211664   2.403   2.293   5.610
 3589SOL     OW11665   3.368   6.953   4.413
 3589SOL    HW111666   3.391   6.966   4.317
 3589SOL    HW211667   3.444   6.905   4.459
 3590SOL     OW11668   1.156   5.609   6.678
 3590SOL    HW111669   1.221   5.683   6.692
 3590SOL    HW211670   1.203   5.531   6.635
 3591SOL     OW11671   5.096   2.072   4.989
 3591SOL    HW111672   5.089   2.088   5.088
 3591SOL    HW211673   5.185   2.104   4.956
 3592SOL     OW11674   5.749   1.977   1.768
 3592SOL    HW111675   5.822   1.971   1.836
 3592SOL    HW211676   5.722   2.072   1.756
 3593SOL     OW11677   1.134   5.642   4.484
 3593SOL    HW111678   1.064   5.655   4.555
 3593SOL    HW211679   1.204   5.714   4.492
 3594SOL     OW11680   4.155   1.759   4.606
 3594SOL    HW111681   4.151   1.670   4.559
 3594SOL    HW211682   4.085   1.761   4.678
 3595SOL     OW11683   2.227   6.288   5.500
 3595SOL    HW111684   2.136   6.268   5.537
 3595SOL    HW211685   2.222   6.369   5.441
 3596SOL     OW11686   0.475   3.482   3.543
 3596SOL    HW111687   0.474   3.471   3.444
 3596SOL    HW211688   0.440   3.399   3.586
 3597SOL     OW11689   3.764   0.085   3.885
 3597SOL    HW111690   3.844   0.049   3.838
 3597SOL    HW211691   3.767   0.058   3.981
 3598SOL     OW11692   1.511   0.306   6.925
 3598SOL    HW111693   1.521   0.398   6.887
 3598SOL    HW211694   1.601   0.261   6.929
 3599SOL     OW11695   6.791   2.001   4.170
 3599SOL    HW111696   6.749   1.932   4.230
 3599SOL    HW211697   6.863   2.048   4.220
 3600SOL     OW11698   6.383   0.147   1.118
 3600SOL    HW111699   6.318   0.104   1.182
 3600SOL    HW211700   6.375   0.246   1.125
 3601SOL     OW11701   5.884   3.896   5.919
 3601SOL    HW111702   5.870   3.828   5.846
 3601SOL    HW211703   5.815   3.968   5.911
 3602SOL     OW11704   2.919   1.883   1.153
 3602SOL    HW111705   2.838   1.895   1.097
 3602SOL    HW211706   2.970   1.969   1.157
 3603SOL     OW11707   4.392   5.194   4.549
 3603SOL    HW111708   4.425   5.259   4.480
 3603SOL    HW211709   4.369   5.244   4.633
 3604SOL     OW11710   6.270   4.362   3.193
 3604SOL    HW111711   6.312   4.271   3.196
 3604SOL    HW211712   6.183   4.360   3.243
 3605SOL     OW11713   6.434   2.481   6.422
 3605SOL    HW111714   6.371   2.503   6.497
 3605SOL    HW211715   6.456   2.383   6.424
 3606SOL     OW11716   1.934   4.063   3.462
 3606SOL    HW111717   1.989   3.983   3.487
 3606SOL    HW211718   1.981   4.146   3.492
 3607SOL     OW11719   4.312   0.017   6.917
 3607SOL    HW111720   4.264   7.019   7.001
 3607SOL    HW211721   4.321   6.962   6.859
 3608SOL     OW11722   0.764   3.014   3.316
 3608SOL    HW111723   0.806   2.988   3.403
 3608SOL    HW211724   0.819   3.086   3.274
 3609SOL     OW11725   6.844   0.079   4.324
 3609SOL    HW111726   6.830   0.039   4.415
 3609SOL    HW211727   6.794   0.165   4.317
 3610SOL     OW11728   1.741   5.572   6.066
 3610SOL    HW111729   1.786   5.495   6.113
 3610SOL    HW211730   1.797   5.601   5.988
 3611SOL     OW11731   4.447   5.557   5.459
 3611SOL    HW111732   4.519   5.613   5.502
 3611SOL    HW211733   4.471   5.540   5.364
 3612SOL     OW11734   2.090   6.491   1.213
 3612SOL    HW111735   2.156   6.417   1.201
 3612SOL    HW211736   2.004   6.467   1.167
 3613SOL     OW11737   4.929   4.960   5.737
 3613SOL    HW111738   4.942   5.051   5.775
 3613SOL    HW211739   4.832   4.937   5.739
 3614SOL     OW11740   3.542   2.896   4.666
 3614SOL    HW111741   3.570   2.800   4.661
 3614SOL    HW211742   3.597   2.943   4.735
 3615SOL     OW11743   5.574   6.467   6.178
 3615SOL    HW111744   5.644   6.402   6.149
 3615SOL    HW211745   5.606   6.560   6.163
 3616SOL     OW11746   6.151   0.842   4.471
 3616SOL    HW111747   6.149   0.798   4.560
 3616SOL    HW211748   6.057   0.859   4.440
 3617SOL     OW11749   0.008   0.617   0.030
 3617SOL    HW111750   0.091   0.564   0.046
 3617SOL    HW211751   6.997   0.596   6.965
 3618SOL     OW11752   2.739   6.125   6.238
 3618SOL    HW111753   2.766   6.031   6.218
 3618SOL    HW211754   2.666   6.152   6.174
 3619SOL     OW11755   5.157   3.792   3.443
 3619SOL    HW111756   5.101   3.843   3.377
 3619SOL    HW211757   5.097   3.744   3.507
 3620SOL     OW11758   5.722   1.218   5.074
 3620SOL    HW111759   5.627   1.203   5.102
 3620SOL    HW211760   5.774   1.133   5.086
 3621SOL     OW11761   1.548   3.077   5.660
 3621SOL    HW111762   1.607   3.132   5.601
 3621SOL    HW211763   1.496   3.012   5.605
 3622SOL     OW11764   0.515   3.707   1.182
 3622SOL    HW111765   0.572   3.737   1.106
 3622SOL    HW211766   0.553   3.623   1.221
 3623SOL     OW11767   6.977   4.913   4.124
 3623SOL    HW111768   6.992   4.818   4.099
 3623SOL    HW211769   6.941   4.918   4.217
 3624SOL     OW11770   2.321   0.916   1.793
 3624SOL    HW111771   2.240   0.862   1.817
 3624SOL    HW211772   2.358   0.960   1.875
 3625SOL     OW11773   0.908   3.394   4.337
 3625SOL    HW111774   0.878   3.301   4.315
 3625SOL    HW211775   0.833   3.458   4.320
 3626SOL     OW11776   2.450   4.312   5.498
 3626SOL    HW111777   2.407   4.342   5.583
 3626SOL    HW211778   2.534   4.364   5.483
 3627SOL     OW11779   3.209   3.171   4.015
 3627SOL    HW111780   3.123   3.221   4.024
 3627SOL    HW211781   3.196   3.093   3.953
 3628SOL     OW11782   3.194   5.860   3.874
 3628SOL    HW111783   3.251   5.942   3.869
 3628SOL    HW211784   3.238   5.785   3.825
 3629SOL     OW11785   5.483   3.124   5.413
 3629SOL    HW111786   5.426   3.157   5.338
 3629SOL    HW211787   5.452   3.162   5.500
 3630SOL     OW11788   5.412   1.159   4.984
 3630SOL    HW111789   5.420   1.174   5.082
 3630SOL    HW211790   5.456   1.235   4.935
 3631SOL     OW11791   2.184   1.192   3.779
 3631SOL    HW111792   2.199   1.291   3.783
 3631SOL    HW211793   2.253   1.150   3.720
 3632SOL     OW11794   4.153   6.824   6.005
 3632SOL    HW111795   4.095   6.832   6.087
 3632SOL    HW211796   4.244   6.793   6.032
 3633SOL     OW11797   1.148   3.194   5.568
 3633SOL    HW111798   1.189   3.278   5.604
 3633SOL    HW211799   1.139   3.202   5.468
 3634SOL     OW11800   2.992   4.983   5.991
 3634SOL    HW111801   2.979   5.050   6.064
 3634SOL    HW211802   2.999   5.031   5.903
 3635SOL     OW11803   1.774   0.859   5.204
 3635SOL    HW111804   1.847   0.912   5.247
 3635SOL    HW211805   1.796   0.761   5.210
 3636SOL     OW11806   1.253   6.088   6.962
 3636SOL    HW111807   1.215   6.179   6.949
 3636SOL    HW211808   1.332   6.076   6.901
 3637SOL     OW11809   4.870   1.108   1.482
 3637SOL    HW111810   4.884   1.178   1.552
 3637SOL    HW211811   4.775   1.078   1.483
 3638SOL     OW11812   6.358   4.853   3.582
 3638SOL    HW111813   6.316   4.932   3.627
 3638SOL    HW211814   6.290   4.807   3.525
 3639SOL     OW11815   2.750   5.971   0.256
 3639SOL    HW111816   2.766   5.940   0.163
 3639SOL    HW211817   2.655   6.001   0.265
 3640SOL     OW11818   2.203   6.870   1.519
 3640SOL    HW111819   2.231   6.774   1.524
 3640SOL    HW211820   2.241   6.911   1.436
 3641SOL     OW11821   2.483   0.651   4.635
 3641SOL    HW111822   2.490   0.631   4.537
 3641SOL    HW211823   2.412   0.720   4.650
 3642SOL     OW11824   5.805   6.407   2.227
 3642SOL    HW111825   5.882   6.346   2.205
 3642SOL    HW211826   5.823   6.453   2.314
 3643SOL     OW11827   3.974   5.351   5.498
 3643SOL    HW111828   3.916   5.428   5.525
 3643SOL    HW211829   4.059   5.386   5.459
 3644SOL     OW11830   6.992   0.469   1.023
 3644SOL    HW111831   0.045   0.408   1.011
 3644SOL    HW211832   7.013   0.534   1.096
 3645SOL     OW11833   3.848   6.171   2.760
 3645SOL    HW111834   3.792   6.252   2.776
 3645SOL    HW211835   3.927   6.195   2.704
 3646SOL     OW11836   6.812   5.412   4.541
 3646SOL    HW111837   6.821   5.494   4.599
 3646SOL    HW211838   6.834   5.331   4.595
 3647SOL     OW11839   2.800   2.590   1.250
 3647SOL    HW111840   2.855   2.536   1.313
 3647SOL    HW211841   2.841   2.587   1.158
 3648SOL     OW11842   3.075   6.583   3.384
 3648SOL    HW111843   3.004   6.555   3.448
 3648SOL    HW211844   3.098   6.679   3.399
 3649SOL     OW11845   3.203   3.387   2.219
 3649SOL    HW111846   3.109   3.415   2.237
 3649SOL    HW211847   3.258   3.403   2.301
 3650SOL     OW11848   5.526   7.006   1.452
 3650SOL    HW111849   5.556   0.075   1.462
 3650SOL    HW211850   5.427   7.002   1.443
 3651SOL     OW11851   1.314   6.229   2.437
 3651SOL    HW111852   1.241   6.172   2.398
 3651SOL    HW211853   1.381   6.171   2.482
 3652SOL     OW11854   4.826   5.258   3.046
 3652SOL    HW111855   4.731   5.287   3.056
 3652SOL    HW211856   4.836   5.164   3.077
 3653SOL     OW11857   6.429   3.347   4.855
 3653SOL    HW111858   6.434   3.263   4.802
 3653SOL    HW211859   6.520   3.386   4.865
 3654SOL     OW11860   1.182   6.644   1.590
 3654SOL    HW111861   1.221   6.552   1.581
 3654SOL    HW211862   1.231   6.694   1.661
 3655SOL     OW11863   6.734   1.052   3.535
 3655SOL    HW111864   6.790   0.969   3.534
 3655SOL    HW211865   6.791   1.130   3.560
 3656SOL     OW11866   2.675   1.649   2.928
 3656SOL    HW111867   2.624   1.593   2.994
 3656SOL    HW211868   2.611   1.701   2.872
 3657SOL     OW11869   4.790   5.094   2.302
 3657SOL    HW111870   4.690   5.097   2.295
 3657SOL    HW211871   4.824   5.184   2.330
 3658SOL     OW11872   1.872   5.456   5.820
 3658SOL    HW111873   1.929   5.428   5.897
 3658SOL    HW211874   1.927   5.506   5.753
 3659SOL     OW11875   1.300   3.704   0.363
 3659SOL    HW111876   1.288   3.749   0.451
 3659SOL    HW211877   1.328   3.609   0.378
 3660SOL     OW11878   3.984   4.998   1.033
 3660SOL    HW111879   3.923   5.075   1.048
 3660SOL    HW211880   4.029   5.007   0.944
 3661SOL     OW11881   5.071   1.519   1.387
 3661SOL    HW111882   5.124   1.437   1.366
 3661SOL    HW211883   5.072   1.581   1.308
 3662SOL     OW11884   2.510   6.061   4.797
 3662SOL    HW111885   2.599   6.106   4.803
 3662SOL    HW211886   2.505   6.010   4.711
 3663SOL     OW11887   1.514   3.407   5.457
 3663SOL    HW111888   1.585   3.344   5.489
 3663SOL    HW211889   1.433   3.399   5.515
 3664SOL     OW11890   3.724   0.137   2.021
 3664SOL    HW111891   3.765   0.221   2.058
 3664SOL    HW211892   3.664   0.096   2.090
 3665SOL     OW11893   1.852   0.569   5.441
 3665SOL    HW111894   1.949   0.566   5.417
 3665SOL    HW211895   1.815   0.476   5.442
 3666SOL     OW11896   0.886   4.787   4.292
 3666SOL    HW111897   0.948   4.785   4.214
 3666SOL    HW211898   0.868   4.881   4.318
 3667SOL     OW11899   0.738   1.372   6.628
 3667SOL    HW111900   0.757   1.458   6.580
 3667SOL    HW211901   0.755   1.295   6.567
 3668SOL     OW11902   1.531   5.549   1.828
 3668SOL    HW111903   1.517   5.497   1.912
 3668SOL    HW211904   1.566   5.488   1.757
 3669SOL     OW11905   5.484   1.619   4.029
 3669SOL    HW111906   5.528   1.544   3.980
 3669SOL    HW211907   5.553   1.671   4.080
 3670SOL     OW11908   2.245   5.368   6.450
 3670SOL    HW111909   2.342   5.344   6.450
 3670SOL    HW211910   2.198   5.318   6.523
 3671SOL     OW11911   1.824   0.611   3.349
 3671SOL    HW111912   1.857   0.680   3.413
 3671SOL    HW211913   1.879   0.528   3.358
 3672SOL     OW11914   6.588   6.995   0.720
 3672SOL    HW111915   6.491   6.971   0.719
 3672SOL    HW211916   6.601   0.052   0.775
 3673SOL     OW11917   4.325   0.417   6.815
 3673SOL    HW111918   4.392   0.349   6.845
 3673SOL    HW211919   4.324   0.421   6.715
 3674SOL     OW11920   1.379   6.380   0.655
 3674SOL    HW111921   1.359   6.457   0.596
 3674SOL    HW211922   1.462   6.333   0.624
 3675SOL     OW11923   1.783   1.985   4.394
 3675SOL    HW111924   1.735   2.052   4.452
 3675SOL    HW211925   1.878   2.013   4.383
 3676SOL     OW11926   1.883   4.975   2.873
 3676SOL    HW111927   1.850   4.897   2.819
 3676SOL    HW211928   1.828   5.055   2.851
 3677SOL     OW11929   6.409   6.676   3.945
 3677SOL    HW111930   6.422   6.587   3.989
 3677SOL    HW211931   6.335   6.670   3.879
 3678SOL     OW11932   1.508   1.935   3.554
 3678SOL    HW111933   1.577   1.996   3.513
 3678SOL    HW211934   1.465   1.880   3.483
 3679SOL     OW11935   6.970   0.786   1.555
 3679SOL    HW111936   0.007   0.856   1.519
 3679SOL    HW211937   7.010   0.696   1.543
 3680SOL     OW11938   5.984   4.659   4.755
 3680SOL    HW111939   6.076   4.638   4.788
 3680SOL    HW211940   5.951   4.742   4.801
 3681SOL     OW11941   5.454   6.314   4.666
 3681SOL    HW111942   5.442   6.218   4.694
 3681SOL    HW211943   5.506   6.318   4.581
 3682SOL     OW11944   0.701   2.282   6.401
 3682SOL    HW111945   0.683   2.190   6.367
 3682SOL    HW211946   0.717   2.279   6.499
 3683SOL     OW11947   5.393   5.888   3.766
 3683SOL    HW111948   5.418   5.793   3.781
 3683SOL    HW211949   5.405   5.910   3.669
 3684SOL     OW11950   2.007   3.174   0.954
 3684SOL    HW111951   1.930   3.143   1.010
 3684SOL    HW211952   2.076   3.101   0.948
 3685SOL     OW11953   6.378   6.782   6.663
 3685SOL    HW111954   6.464   6.830   6.646
 3685SOL    HW211955   6.380   6.742   6.754
 3686SOL     OW11956   6.728   4.415   1.512
 3686SOL    HW111957   6.806   4.404   1.451
 3686SOL    HW211958   6.721   4.511   1.540
 3687SOL     OW11959   3.581   1.301   0.092
 3687SOL    HW111960   3.678   1.293   0.112
 3687SOL    HW211961   3.528   1.288   0.175
 3688SOL     OW11962   6.882   3.410   0.224
 3688SOL    HW111963   6.804   3.471   0.211
 3688SOL    HW211964   6.903   3.402   0.321
 3689SOL     OW11965   3.258   0.031   3.558
 3689SOL    HW111966   3.201   0.035   3.639
 3689SOL    HW211967   3.310   6.971   3.557
 3690SOL     OW11968   4.206   5.810   5.269
 3690SOL    HW111969   4.182   5.807   5.366
 3690SOL    HW211970   4.136   5.860   5.218
 3691SOL     OW11971   3.302   2.912   6.283
 3691SOL    HW111972   3.264   2.986   6.227
 3691SOL    HW211973   3.267   2.919   6.376
 3692SOL     OW11974   0.694   0.221   6.409
 3692SOL    HW111975   0.783   0.179   6.389
 3692SOL    HW211976   0.677   0.219   6.507
 3693SOL     OW11977   1.917   1.514   3.469
 3693SOL    HW111978   1.884   1.471   3.553
 3693SOL    HW211979   1.918   1.447   3.396
 3694SOL     OW11980   2.160   5.541   2.502
 3694SOL    HW111981   2.067   5.574   2.483
 3694SOL    HW211982   2.156   5.449   2.540
 3695SOL     OW11983   1.411   2.699   1.243
 3695SOL    HW111984   1.478   2.664   1.309
 3695SOL    HW211985   1.440   2.789   1.211
 3696SOL     OW11986   3.166   5.827   5.879
 3696SOL    HW111987   3.220   5.907   5.908
 3696SOL    HW211988   3.224   5.764   5.828
 3697SOL     OW11989   5.484   0.362   4.350
 3697SOL    HW111990   5.400   0.313   4.325
 3697SOL    HW211991   5.498   0.356   4.448
 3698SOL     OW11992   3.101   0.347   6.026
 3698SOL    HW111993   3.181   0.356   5.968
 3698SOL    HW211994   3.048   0.432   6.023
 3699SOL     OW11995   1.238   4.582   2.358
 3699SOL    HW111996   1.263   4.679   2.363
 3699SOL    HW211997   1.160   4.571   2.296
 3700SOL     OW11998   0.329   0.330   3.224
 3700SOL    HW111999   0.309   0.427   3.237
 3700SOL    HW212000   0.304   0.280   3.307
 3701SOL     OW12001   5.367   0.406   3.415
 3701SOL    HW112002   5.371   0.470   3.492
 3701SOL    HW212003   5.375   0.457   3.329
 3702SOL     OW12004   4.715   0.873   6.287
 3702SOL    HW112005   4.743   0.966   6.265
 3702SOL    HW212006   4.714   0.818   6.204
 3703SOL     OW12007   4.094   4.553   0.250
 3703SOL    HW112008   4.096   4.510   0.340
 3703SOL    HW212009   4.048   4.642   0.256
 3704SOL     OW12010   2.547   0.025   2.225
 3704SOL    HW112011   2.567   0.113   2.268
 3704SOL    HW212012   2.577   0.026   2.130
 3705SOL     OW12013   5.856   1.183   4.370
 3705SOL    HW112014   5.898   1.273   4.384
 3705SOL    HW212015   5.765   1.195   4.332
 3706SOL     OW12016   2.486   2.623   3.414
 3706SOL    HW112017   2.503   2.721   3.427
 3706SOL    HW212018   2.399   2.598   3.457
 3707SOL     OW12019   4.144   2.357   5.511
 3707SOL    HW112020   4.179   2.267   5.538
 3707SOL    HW212021   4.048   2.365   5.537
 3708SOL     OW12022   6.294   0.396   6.005
 3708SOL    HW112023   6.220   0.384   5.939
 3708SOL    HW212024   6.270   0.469   6.070
 3709SOL     OW12025   5.016   0.874   0.408
 3709SOL    HW112026   5.073   0.877   0.326
 3709SOL    HW212027   5.017   0.963   0.453
 3710SOL     OW12028   6.990   4.726   0.059
 3710SOL    HW112029   7.006   4.716   0.157
 3710SOL    HW212030   6.993   4.636   0.015
 3711SOL     OW12031   6.893   5.188   2.357
 3711SOL    HW112032   6.823   5.233   2.302
 3711SOL    HW212033   6.976   5.178   2.302
 3712SOL     OW12034   1.650   0.327   0.579
 3712SOL    HW112035   1.730   0.285   0.621
 3712SOL    HW212036   1.599   0.258   0.527
 3713SOL     OW12037   3.802   5.363   6.083
 3713SOL    HW112038   3.738   5.414   6.026
 3713SOL    HW212039   3.784   5.383   6.179
 3714SOL     OW12040   4.542   1.601   5.528
 3714SOL    HW112041   4.499   1.632   5.612
 3714SOL    HW212042   4.558   1.679   5.468
 3715SOL     OW12043   5.745   3.881   4.134
 3715SOL    HW112044   5.784   3.824   4.061
 3715SOL    HW212045   5.815   3.900   4.202
 3716SOL     OW12046   0.561   1.569   4.138
 3716SOL    HW112047   0.573   1.478   4.177
 3716SOL    HW212048   0.576   1.566   4.039
 3717SOL     OW12049   6.417   0.499   0.015
 3717SOL    HW112050   6.380   0.574   6.986
 3717SOL    HW212051   6.413   0.525   0.112
 3718SOL     OW12052   0.868   5.522   0.462
 3718SOL    HW112053   0.920   5.495   0.543
 3718SOL    HW212054   0.770   5.510   0.480
 3719SOL     OW12055   3.934   4.891   7.021
 3719SOL    HW112056   3.982   4.979   7.018
 3719SOL    HW212057   3.890   4.875   6.932
 3720SOL     OW12058   0.085   1.859   5.749
 3720SOL    HW112059   0.009   1.887   5.691
 3720SOL    HW212060   0.056   1.856   5.844
 3721SOL     OW12061   4.517   3.717   0.279
 3721SOL    HW112062   4.562   3.699   0.367
 3721SOL    HW212063   4.457   3.640   0.257
 3722SOL     OW12064   5.620   6.058   0.938
 3722SOL    HW112065   5.607   6.032   1.034
 3722SOL    HW212066   5.531   6.082   0.898
 3723SOL     OW12067   4.509   1.007   0.532
 3723SOL    HW112068   4.605   1.018   0.559
 3723SOL    HW212069   4.496   0.918   0.489
 3724SOL     OW12070   0.102   4.778   5.456
 3724SOL    HW112071   0.183   4.835   5.441
 3724SOL    HW212072   0.126   4.698   5.511
 3725SOL     OW12073   6.376   6.637   0.853
 3725SOL    HW112074   6.353   6.592   0.767
 3725SOL    HW212075   6.458   6.593   0.892
 3726SOL     OW12076   5.842   3.624   1.545
 3726SOL    HW112077   5.919   3.561   1.559
 3726SOL    HW212078   5.877   3.714   1.519
 3727SOL     OW12079   2.320   2.690   5.116
 3727SOL    HW112080   2.361   2.780   5.105
 3727SOL    HW212081   2.263   2.688   5.198
 3728SOL     OW12082   0.668   3.485   6.667
 3728SOL    HW112083   0.642   3.582   6.671
 3728SOL    HW212084   0.587   3.428   6.675
 3729SOL     OW12085   0.736   2.696   3.314
 3729SOL    HW112086   0.709   2.756   3.238
 3729SOL    HW212087   0.739   2.602   3.283
 3730SOL     OW12088   2.275   0.458   0.803
 3730SOL    HW112089   2.187   0.450   0.851
 3730SOL    HW212090   2.300   0.369   0.765
 3731SOL     OW12091   3.105   6.053   6.234
 3731SOL    HW112092   3.047   6.130   6.207
 3731SOL    HW212093   3.196   6.086   6.257
 3732SOL     OW12094   1.972   3.855   4.580
 3732SOL    HW112095   1.900   3.807   4.631
 3732SOL    HW212096   2.037   3.896   4.643
 3733SOL     OW12097   3.288   2.859   0.899
 3733SOL    HW112098   3.322   2.903   0.982
 3733SOL    HW212099   3.189   2.852   0.902
 3734SOL     OW12100   5.115   6.769   3.877
 3734SOL    HW112101   5.066   6.806   3.957
 3734SOL    HW212102   5.051   6.759   3.801
 3735SOL     OW12103   3.370   1.771   1.719
 3735SOL    HW112104   3.393   1.709   1.794
 3735SOL    HW212105   3.306   1.840   1.751
 3736SOL     OW12106   4.832   1.311   5.791
 3736SOL    HW112107   4.897   1.384   5.814
 3736SOL    HW212108   4.766   1.346   5.725
 3737SOL     OW12109   3.839   6.578   3.625
 3737SOL    HW112110   3.889   6.495   3.647
 3737SOL    HW212111   3.819   6.628   3.710
 3738SOL     OW12112   0.247   0.019   4.306
 3738SOL    HW112113   0.323   0.063   4.352
 3738SOL    HW212114   0.220   6.963   4.356
 3739SOL     OW12115   1.038   3.448   2.069
 3739SOL    HW112116   1.060   3.365   2.017
 3739SOL    HW212117   0.963   3.428   2.132
 3740SOL     OW12118   5.523   0.546   0.049
 3740SOL    HW112119   5.525   0.460   7.024
 3740SOL    HW212120   5.431   0.585   0.046
 3741SOL     OW12121   3.512   2.220   7.023
 3741SOL    HW112122   3.580   2.155   6.989
 3741SOL    HW212123   3.487   2.284   6.951
 3742SOL     OW12124   3.392   3.449   5.440
 3742SOL    HW112125   3.306   3.497   5.456
 3742SOL    HW212126   3.450   3.503   5.379
 3743SOL     OW12127   1.174   5.739   5.932
 3743SOL    HW112128   1.123   5.727   6.017
 3743SOL    HW212129   1.228   5.656   5.914
 3744SOL     OW12130   0.118   5.140   2.992
 3744SOL    HW112131   0.170   5.225   2.990
 3744SOL    HW212132   0.021   5.160   2.974
 3745SOL     OW12133   5.130   6.074   1.553
 3745SOL    HW112134   5.217   6.122   1.546
 3745SOL    HW212135   5.090   6.065   1.461
 3746SOL     OW12136   4.353   1.428   2.021
 3746SOL    HW112137   4.370   1.509   2.076
 3746SOL    HW212138   4.255   1.415   2.010
 3747SOL     OW12139   2.475   0.216   0.704
 3747SOL    HW112140   2.441   0.213   0.610
 3747SOL    HW212141   2.528   0.300   0.718
 3748SOL     OW12142   5.372   0.587   1.986
 3748SOL    HW112143   5.274   0.575   2.000
 3748SOL    HW212144   5.421   0.566   2.071
 3749SOL     OW12145   1.606   0.292   3.905
 3749SOL    HW112146   1.546   0.277   3.984
 3749SOL    HW212147   1.634   0.388   3.902
 3750SOL     OW12148   0.049   4.283   6.437
 3750SOL    HW112149   0.135   4.242   6.466
 3750SOL    HW212150   0.047   4.379   6.464
 3751SOL     OW12151   1.664   4.031   1.418
 3751SOL    HW112152   1.682   4.017   1.321
 3751SOL    HW212153   1.671   3.944   1.467
 3752SOL     OW12154   5.372   6.101   0.246
 3752SOL    HW112155   5.378   6.001   0.251
 3752SOL    HW212156   5.424   6.142   0.321
 3753SOL     OW12157   0.438   6.861   3.240
 3753SOL    HW112158   0.478   6.894   3.155
 3753SOL    HW212159   0.388   6.935   3.285
 3754SOL     OW12160   2.242   1.664   1.437
 3754SOL    HW112161   2.262   1.640   1.532
 3754SOL    HW212162   2.308   1.731   1.405
 3755SOL     OW12163   3.106   5.409   4.504
 3755SOL    HW112164   3.120   5.452   4.593
 3755SOL    HW212165   3.024   5.447   4.461
 3756SOL     OW12166   1.378   6.842   0.993
 3756SOL    HW112167   1.471   6.872   1.013
 3756SOL    HW212168   1.377   6.744   0.976
 3757SOL     OW12169   0.588   4.276   1.126
 3757SOL    HW112170   0.526   4.200   1.104
 3757SOL    HW212171   0.623   4.316   1.042
 3758SOL     OW12172   2.035   6.751   3.876
 3758SOL    HW112173   1.961   6.772   3.939
 3758SOL    HW212174   2.004   6.768   3.782
 3759SOL     OW12175   5.335   0.085   4.250
 3759SOL    HW112176   5.293   0.085   4.160
 3759SOL    HW212177   5.433   0.104   4.242
 3760SOL     OW12178   0.840   0.885   2.824
 3760SOL    HW112179   0.909   0.926   2.883
 3760SOL    HW212180   0.819   0.948   2.748
 3761SOL     OW12181   4.228   2.105   5.630
 3761SOL    HW112182   4.152   2.069   5.576
 3761SOL    HW212183   4.311   2.054   5.608
 3762SOL     OW12184   0.541   3.043   3.957
 3762SOL    HW112185   0.568   3.103   3.882
 3762SOL    HW212186   0.480   2.971   3.922
 3763SOL     OW12187   0.560   5.082   6.658
 3763SOL    HW112188   0.521   5.082   6.566
 3763SOL    HW212189   0.487   5.076   6.726
 3764SOL     OW12190   2.642   1.077   2.513
 3764SOL    HW112191   2.701   1.130   2.574
 3764SOL    HW212192   2.657   1.105   2.419
 3765SOL     OW12193   5.395   2.605   2.734
 3765SOL    HW112194   5.437   2.691   2.706
 3765SOL    HW212195   5.427   2.531   2.674
 3766SOL     OW12196   1.433   2.915   1.994
 3766SOL    HW112197   1.343   2.883   2.024
 3766SOL    HW212198   1.429   3.014   1.979
 3767SOL     OW12199   1.603   5.794   5.855
 3767SOL    HW112200   1.630   5.710   5.808
 3767SOL    HW212201   1.523   5.833   5.810
 3768SOL     OW12202   1.740   6.705   2.582
 3768SOL    HW112203   1.672   6.776   2.602
 3768SOL    HW212204   1.698   6.634   2.526
 3769SOL     OW12205   5.093   5.579   4.309
 3769SOL    HW112206   5.148   5.574   4.226
 3769SOL    HW212207   5.143   5.627   4.380
 3770SOL     OW12208   2.748   0.759   1.828
 3770SOL    HW112209   2.804   0.686   1.791
 3770SOL    HW212210   2.658   0.758   1.784
 3771SOL     OW12211   6.898   6.031   5.547
 3771SOL    HW112212   6.922   6.024   5.644
 3771SOL    HW212213   6.807   5.994   5.532
 3772SOL     OW12214   1.346   6.230   1.803
 3772SOL    HW112215   1.278   6.184   1.745
 3772SOL    HW212216   1.300   6.272   1.881
 3773SOL     OW12217   5.112   5.234   0.019
 3773SOL    HW112218   5.178   5.159   0.013
 3773SOL    HW212219   5.020   5.196   0.022
 3774SOL     OW12220   6.860   4.575   1.857
 3774SOL    HW112221   6.777   4.614   1.817
 3774SOL    HW212222   6.873   4.482   1.822
 3775SOL     OW12223   5.087   5.182   4.936
 3775SOL    HW112224   5.085   5.280   4.957
 3775SOL    HW212225   5.162   5.139   4.987
 3776SOL     OW12226   4.224   3.043   6.584
 3776SOL    HW112227   4.311   3.046   6.533
 3776SOL    HW212228   4.203   3.133   6.620
 3777SOL     OW12229   3.025   4.901   3.888
 3777SOL    HW112230   2.988   4.809   3.876
 3777SOL    HW212231   3.102   4.898   3.953
 3778SOL     OW12232   3.270   5.152   6.577
 3778SOL    HW112233   3.198   5.180   6.641
 3778SOL    HW212234   3.227   5.118   6.493
 3779SOL     OW12235   6.749   4.723   6.871
 3779SOL    HW112236   6.661   4.752   6.908
 3779SOL    HW212237   6.809   4.802   6.861
 3780SOL     OW12238   6.092   3.805   1.825
 3780SOL    HW112239   6.030   3.880   1.804
 3780SOL    HW212240   6.053   3.748   1.897
 3781SOL     OW12241   1.485   6.543   5.627
 3781SOL    HW112242   1.567   6.563   5.573
 3781SOL    HW212243   1.508   6.545   5.724
 3782SOL     OW12244   4.110   5.357   0.718
 3782SOL    HW112245   4.028   5.392   0.762
 3782SOL    HW212246   4.166   5.307   0.784
 3783SOL     OW12247   4.712   5.360   5.172
 3783SOL    HW112248   4.743   5.355   5.077
 3783SOL    HW212249   4.707   5.268   5.210
 3784SOL     OW12250   5.200   2.958   5.385
 3784SOL    HW112251   5.264   2.884   5.363
 3784SOL    HW212252   5.224   2.997   5.474
 3785SOL     OW12253   1.061   2.527   2.864
 3785SOL    HW112254   1.045   2.578   2.948
 3785SOL    HW212255   1.120   2.580   2.803
 3786SOL     OW12256   2.117   3.408   4.562
 3786SOL    HW112257   2.129   3.318   4.603
 3786SOL    HW212258   2.095   3.475   4.633
 3787SOL     OW12259   5.439   6.189   3.982
 3787SOL    HW112260   5.491   6.272   3.964
 3787SOL    HW212261   5.407   6.150   3.895
 3788SOL     OW12262   4.986   3.255   5.779
 3788SOL    HW112263   4.903   3.295   5.816
 3788SOL    HW212264   5.050   3.235   5.854
 3789SOL     OW12265   2.217   2.960   1.020
 3789SOL    HW112266   2.210   2.906   1.104
 3789SOL    HW212267   2.240   2.899   0.944
 3790SOL     OW12268   0.926   6.893   1.505
 3790SOL    HW112269   0.997   6.950   1.464
 3790SOL    HW212270   0.903   6.819   1.442
 3791SOL     OW12271   5.109   0.663   4.720
 3791SOL    HW112272   5.016   0.630   4.710
 3791SOL    HW212273   5.166   0.591   4.760
 3792SOL     OW12274   6.737   0.333   4.261
 3792SOL    HW112275   6.659   0.394   4.276
 3792SOL    HW212276   6.820   0.387   4.250
 3793SOL     OW12277   3.764   4.680   0.734
 3793SOL    HW112278   3.687   4.724   0.689
 3793SOL    HW212279   3.824   4.639   0.665
 3794SOL     OW12280   1.513   5.251   6.158
 3794SOL    HW112281   1.477   5.232   6.249
 3794SOL    HW212282   1.545   5.166   6.115
 3795SOL     OW12283   2.828   6.369   0.981
 3795SOL    HW112284   2.917   6.412   1.000
 3795SOL    HW212285   2.784   6.345   1.068
 3796SOL     OW12286   4.995   1.189   0.264
 3796SOL    HW112287   4.957   1.170   0.173
 3796SOL    HW212288   5.074   1.249   0.255
 3797SOL     OW12289   0.239   3.223   1.551
 3797SOL    HW112290   0.187   3.306   1.571
 3797SOL    HW212291   0.297   3.201   1.629
 3798SOL     OW12292   1.169   5.328   3.989
 3798SOL    HW112293   1.162   5.390   3.911
 3798SOL    HW212294   1.248   5.354   4.045
 3799SOL     OW12295   0.317   0.878   3.568
 3799SOL    HW112296   0.278   0.934   3.642
 3799SOL    HW212297   0.414   0.900   3.557
 3800SOL     OW12298   5.493   2.419   3.287
 3800SOL    HW112299   5.522   2.339   3.340
 3800SOL    HW212300   5.561   2.492   3.297
 3801SOL     OW12301   5.980   0.738   0.880
 3801SOL    HW112302   5.998   0.681   0.799
 3801SOL    HW212303   6.056   0.801   0.894
 3802SOL     OW12304   6.689   3.359   1.777
 3802SOL    HW112305   6.717   3.440   1.827
 3802SOL    HW212306   6.708   3.277   1.831
 3803SOL     OW12307   4.345   3.806   5.350
 3803SOL    HW112308   4.417   3.738   5.362
 3803SOL    HW212309   4.260   3.760   5.322
 3804SOL     OW12310   3.880   6.519   3.357
 3804SOL    HW112311   3.872   6.551   3.452
 3804SOL    HW212312   3.817   6.572   3.300
 3805SOL     OW12313   2.509   2.234   6.428
 3805SOL    HW112314   2.548   2.217   6.518
 3805SOL    HW212315   2.435   2.301   6.436
 3806SOL     OW12316   2.320   5.070   1.463
 3806SOL    HW112317   2.359   4.995   1.410
 3806SOL    HW212318   2.243   5.036   1.517
 3807SOL     OW12319   1.459   4.228   3.506
 3807SOL    HW112320   1.362   4.217   3.529
 3807SOL    HW212321   1.508   4.143   3.526
 3808SOL     OW12322   2.729   6.505   5.925
 3808SOL    HW112323   2.664   6.564   5.973
 3808SOL    HW212324   2.820   6.548   5.926
 3809SOL     OW12325   5.692   1.709   1.751
 3809SOL    HW112326   5.744   1.650   1.812
 3809SOL    HW212327   5.723   1.804   1.761
 3810SOL     OW12328   4.885   2.187   2.795
 3810SOL    HW112329   4.840   2.114   2.847
 3810SOL    HW212330   4.974   2.154   2.762
 3811SOL     OW12331   0.024   5.920   5.208
 3811SOL    HW112332   0.012   5.839   5.265
 3811SOL    HW212333   0.117   5.921   5.170
 3812SOL     OW12334   4.338   5.965   0.238
 3812SOL    HW112335   4.268   5.920   0.293
 3812SOL    HW212336   4.305   6.056   0.212
 3813SOL     OW12337   5.978   4.201   6.846
 3813SOL    HW112338   6.009   4.296   6.836
 3813SOL    HW212339   5.942   4.188   6.939
 3814SOL     OW12340   0.234   0.301   4.929
 3814SOL    HW112341   0.221   0.397   4.901
 3814SOL    HW212342   0.316   0.294   4.985
 3815SOL     OW12343   5.964   3.617   5.992
 3815SOL    HW112344   5.898   3.544   6.011
 3815SOL    HW212345   5.925   3.705   6.019
 3816SOL     OW12346   6.274   6.407   1.187
 3816SOL    HW112347   6.354   6.389   1.242
 3816SOL    HW212348   6.200   6.344   1.213
 3817SOL     OW12349   4.348   3.761   1.677
 3817SOL    HW112350   4.446   3.782   1.683
 3817SOL    HW212351   4.326   3.734   1.583
 3818SOL     OW12352   5.514   6.245   2.451
 3818SOL    HW112353   5.522   6.149   2.422
 3818SOL    HW212354   5.537   6.252   2.548
 3819SOL     OW12355   6.217   3.332   3.347
 3819SOL    HW112356   6.243   3.420   3.307
 3819SOL    HW212357   6.257   3.324   3.438
 3820SOL     OW12358   3.232   6.402   5.314
 3820SOL    HW112359   3.260   6.427   5.221
 3820SOL    HW212360   3.205   6.484   5.364
 3821SOL     OW12361   1.835   0.148   0.727
 3821SOL    HW112362   1.822   0.069   0.667
 3821SOL    HW212363   1.802   0.126   0.819
 3822SOL     OW12364   4.979   6.890   2.262
 3822SOL    HW112365   5.029   6.963   2.216
 3822SOL    HW212366   5.037   6.847   2.330
 3823SOL     OW12367   5.434   6.412   5.393
 3823SOL    HW112368   5.369   6.428   5.319
 3823SOL    HW212369   5.470   6.319   5.386
 3824SOL     OW12370   2.392   2.851   0.580
 3824SOL    HW112371   2.417   2.771   0.526
 3824SOL    HW212372   2.294   2.870   0.569
 3825SOL     OW12373   0.319   4.992   5.831
 3825SOL    HW112374   0.221   4.985   5.851
 3825SOL    HW212375   0.333   5.063   5.762
 3826SOL     OW12376   5.486   3.491   3.189
 3826SOL    HW112377   5.396   3.495   3.146
 3826SOL    HW212378   5.480   3.528   3.282
 3827SOL     OW12379   7.006   1.766   0.038
 3827SOL    HW112380   6.979   1.765   0.134
 3827SOL    HW212381   0.003   1.860   0.011
 3828SOL     OW12382   4.116   3.371   3.706
 3828SOL    HW112383   4.085   3.400   3.796
 3828SOL    HW212384   4.175   3.291   3.715
 3829SOL     OW12385   0.512   3.593   1.983
 3829SOL    HW112386   0.569   3.624   2.059
 3829SOL    HW212387   0.571   3.574   1.904
 3830SOL     OW12388   6.084   0.610   3.427
 3830SOL    HW112389   6.036   0.684   3.473
 3830SOL    HW212390   6.146   0.565   3.491
 3831SOL     OW12391   4.702   2.261   3.218
 3831SOL    HW112392   4.772   2.327   3.192
 3831SOL    HW212393   4.744   2.171   3.231
 3832SOL     OW12394   6.584   0.638   3.740
 3832SOL    HW112395   6.595   0.732   3.771
 3832SOL    HW212396   6.666   0.585   3.761
 3833SOL     OW12397   1.479   2.858   5.470
 3833SOL    HW112398   1.446   2.833   5.379
 3833SOL    HW212399   1.511   2.776   5.518
 3834SOL     OW12400   5.122   4.523   1.039
 3834SOL    HW112401   5.114   4.584   1.118
 3834SOL    HW212402   5.041   4.464   1.035
 3835SOL     OW12403   4.174   5.468   5.361
 3835SOL    HW112404   4.248   5.403   5.345
 3835SOL    HW212405   4.197   5.525   5.440
 3836SOL     OW12406   6.908   6.158   5.178
 3836SOL    HW112407   6.964   6.075   5.174
 3836SOL    HW212408   6.937   6.213   5.257
 3837SOL     OW12409   4.290   4.698   5.988
 3837SOL    HW112410   4.279   4.642   6.070
 3837SOL    HW212411   4.268   4.644   5.907
 3838SOL     OW12412   6.999   0.415   4.174
 3838SOL    HW112413   7.014   0.316   4.184
 3838SOL    HW212414   0.050   0.464   4.215
 3839SOL     OW12415   5.160   0.619   3.756
 3839SOL    HW112416   5.203   0.703   3.791
 3839SOL    HW212417   5.210   0.540   3.791
 3840SOL     OW12418   3.243   1.126   6.507
 3840SOL    HW112419   3.145   1.145   6.513
 3840SOL    HW212420   3.281   1.174   6.429
 3841SOL     OW12421   6.057   4.245   3.987
 3841SOL    HW112422   6.070   4.238   4.086
 3841SOL    HW212423   6.074   4.340   3.958
 3842SOL     OW12424   1.959   4.092   5.696
 3842SOL    HW112425   1.995   4.088   5.790
 3842SOL    HW212426   1.865   4.127   5.698
 3843SOL     OW12427   5.021   2.104   6.351
 3843SOL    HW112428   4.947   2.171   6.344
 3843SOL    HW212429   4.986   2.020   6.393
 3844SOL     OW12430   0.114   0.639   0.778
 3844SOL    HW112431   0.016   0.656   0.768
 3844SOL    HW212432   0.165   0.689   0.708
 3845SOL     OW12433   1.724   5.635   0.470
 3845SOL    HW112434   1.730   5.549   0.520
 3845SOL    HW212435   1.676   5.620   0.384
 3846SOL     OW12436   0.744   2.873   2.834
 3846SOL    HW112437   0.734   2.790   2.779
 3846SOL    HW212438   0.728   2.851   2.930
 3847SOL     OW12439   0.332   1.849   6.810
 3847SOL    HW112440   0.370   1.899   6.732
 3847SOL    HW212441   0.234   1.833   6.796
 3848SOL     OW12442   6.179   4.233   1.830
 3848SOL    HW112443   6.167   4.163   1.901
 3848SOL    HW212444   6.119   4.213   1.753
 3849SOL     OW12445   6.837   4.890   5.961
 3849SOL    HW112446   6.776   4.813   5.943
 3849SOL    HW212447   6.866   4.888   6.057
 3850SOL     OW12448   2.990   2.401   1.363
 3850SOL    HW112449   2.968   2.408   1.460
 3850SOL    HW212450   2.939   2.324   1.324
 3851SOL     OW12451   0.198   6.327   2.820
 3851SOL    HW112452   0.261   6.375   2.760
 3851SOL    HW212453   0.109   6.318   2.776
 3852SOL     OW12454   1.421   0.125   4.748
 3852SOL    HW112455   1.462   0.134   4.657
 3852SOL    HW212456   1.490   0.095   4.813
 3853SOL     OW12457   2.900   0.499   3.440
 3853SOL    HW112458   2.873   0.500   3.344
 3853SOL    HW212459   2.983   0.443   3.451
 3854SOL     OW12460   0.319   2.256   1.815
 3854SOL    HW112461   0.249   2.316   1.776
 3854SOL    HW212462   0.323   2.172   1.762
 3855SOL     OW12463   3.340   6.806   0.027
 3855SOL    HW112464   3.279   6.773   6.980
 3855SOL    HW212465   3.400   6.877   7.016
 3856SOL     OW12466   0.592   2.549   6.377
 3856SOL    HW112467   0.627   2.456   6.390
 3856SOL    HW212468   0.572   2.564   6.280
 3857SOL     OW12469   2.127   0.406   6.201
 3857SOL    HW112470   2.216   0.403   6.246
 3857SOL    HW212471   2.056   0.430   6.267
 3858SOL     OW12472   4.912   0.851   4.285
 3858SOL    HW112473   4.970   0.836   4.366
 3858SOL    HW212474   4.945   0.930   4.234
 3859SOL     OW12475   5.884   6.838   1.322
 3859SOL    HW112476   5.818   6.826   1.396
 3859SOL    HW212477   5.849   6.796   1.239
 3860SOL     OW12478   1.836   6.761   4.045
 3860SOL    HW112479   1.777   6.719   4.114
 3860SOL    HW212480   1.790   6.841   4.006
 3861SOL     OW12481   2.546   5.202   1.717
 3861SOL    HW112482   2.608   5.259   1.771
 3861SOL    HW212483   2.486   5.261   1.663
 3862SOL     OW12484   1.819   0.580   4.496
 3862SOL    HW112485   1.826   0.504   4.431
 3862SOL    HW212486   1.910   0.620   4.511
 3863SOL     OW12487   3.204   0.210   0.475
 3863SOL    HW112488   3.259   0.222   0.392
 3863SOL    HW212489   3.143   0.288   0.486
 3864SOL     OW12490   2.141   0.267   4.990
 3864SOL    HW112491   2.077   0.273   5.066
 3864SOL    HW212492   2.090   0.266   4.904
 3865SOL     OW12493   4.465   1.239   0.696
 3865SOL    HW112494   4.383   1.204   0.741
 3865SOL    HW212495   4.486   1.182   0.616
 3866SOL     OW12496   2.751   1.777   6.201
 3866SOL    HW112497   2.820   1.765   6.272
 3866SOL    HW212498   2.769   1.713   6.126
 3867SOL     OW12499   0.270   2.858   2.031
 3867SOL    HW112500   0.341   2.922   2.058
 3867SOL    HW212501   0.264   2.785   2.099
 3868SOL     OW12502   4.509   0.812   0.341
 3868SOL    HW112503   4.512   0.878   0.266
 3868SOL    HW212504   4.601   0.778   0.360
 3869SOL     OW12505   4.751   1.712   4.176
 3869SOL    HW112506   4.667   1.751   4.213
 3869SOL    HW212507   4.811   1.785   4.142
 3870SOL     OW12508   0.122   0.789   4.937
 3870SOL    HW112509   0.092   0.885   4.942
 3870SOL    HW212510   0.095   0.742   5.021
 3871SOL     OW12511   2.756   5.809   4.283
 3871SOL    HW112512   2.771   5.871   4.361
 3871SOL    HW212513   2.674   5.755   4.299
 3872SOL     OW12514   3.133   3.655   5.397
 3872SOL    HW112515   3.036   3.681   5.401
 3872SOL    HW212516   3.189   3.737   5.391
 3873SOL     OW12517   4.328   1.755   0.738
 3873SOL    HW112518   4.352   1.658   0.739
 3873SOL    HW212519   4.367   1.798   0.656
 3874SOL     OW12520   2.361   1.171   0.078
 3874SOL    HW112521   2.342   1.157   0.175
 3874SOL    HW212522   2.285   1.136   0.024
 3875SOL     OW12523   1.226   2.029   6.137
 3875SOL    HW112524   1.238   2.117   6.092
 3875SOL    HW212525   1.314   1.980   6.138
 3876SOL     OW12526   3.780   5.115   2.148
 3876SOL    HW112527   3.722   5.115   2.229
 3876SOL    HW212528   3.854   5.181   2.160
 3877SOL     OW12529   0.106   1.871   6.492
 3877SOL    HW112530   0.088   1.777   6.464
 3877SOL    HW212531   0.202   1.893   6.475
 3878SOL     OW12532   5.448   0.634   4.537
 3878SOL    HW112533   5.363   0.582   4.531
 3878SOL    HW212534   5.446   0.691   4.620
 3879SOL     OW12535   5.975   5.669   0.511
 3879SOL    HW112536   5.956   5.573   0.531
 3879SOL    HW212537   6.069   5.691   0.537
 3880SOL     OW12538   4.471   4.537   3.979
 3880SOL    HW112539   4.390   4.521   4.034
 3880SOL    HW212540   4.553   4.529   4.036
 3881SOL     OW12541   0.830   3.391   0.088
 3881SOL    HW112542   0.838   3.374   0.186
 3881SOL    HW212543   0.790   3.311   0.043
 3882SOL     OW12544   0.668   2.009   6.269
 3882SOL    HW112545   0.599   1.940   6.251
 3882SOL    HW212546   0.710   2.038   6.182
 3883SOL     OW12547   4.596   5.673   3.530
 3883SOL    HW112548   4.572   5.587   3.575
 3883SOL    HW212549   4.630   5.653   3.438
 3884SOL     OW12550   0.404   4.331   2.122
 3884SOL    HW112551   0.355   4.248   2.148
 3884SOL    HW212552   0.478   4.308   2.059
 3885SOL     OW12553   5.369   5.811   2.837
 3885SOL    HW112554   5.271   5.807   2.820
 3885SOL    HW212555   5.409   5.886   2.785
 3886SOL     OW12556   2.826   6.268   5.795
 3886SOL    HW112557   2.856   6.196   5.858
 3886SOL    HW212558   2.774   6.337   5.845
 3887SOL     OW12559   0.961   6.468   2.315
 3887SOL    HW112560   1.058   6.447   2.314
 3887SOL    HW212561   0.943   6.541   2.380
 3888SOL     OW12562   5.692   5.015   4.180
 3888SOL    HW112563   5.721   4.973   4.266
 3888SOL    HW212564   5.626   4.956   4.134
 3889SOL     OW12565   5.157   3.974   0.848
 3889SOL    HW112566   5.194   3.882   0.833
 3889SOL    HW212567   5.218   4.025   0.908
 3890SOL     OW12568   5.337   3.166   4.423
 3890SOL    HW112569   5.418   3.114   4.397
 3890SOL    HW212570   5.363   3.260   4.446
 3891SOL     OW12571   5.511   5.555   3.588
 3891SOL    HW112572   5.504   5.461   3.553
 3891SOL    HW212573   5.465   5.561   3.676
 3892SOL     OW12574   6.952   2.468   1.253
 3892SOL    HW112575   6.865   2.514   1.267
 3892SOL    HW212576   7.019   2.533   1.216
 3893SOL     OW12577   3.898   3.811   2.867
 3893SOL    HW112578   3.805   3.778   2.881
 3893SOL    HW212579   3.937   3.840   2.955
 3894SOL     OW12580   4.757   0.541   5.558
 3894SOL    HW112581   4.761   0.597   5.641
 3894SOL    HW212582   4.793   0.450   5.578
 3895SOL     OW12583   1.014   0.361   4.097
 3895SOL    HW112584   0.994   0.324   4.187
 3895SOL    HW212585   1.038   0.457   4.105
 3896SOL     OW12586   1.242   1.220   6.748
 3896SOL    HW112587   1.148   1.251   6.764
 3896SOL    HW212588   1.248   1.179   6.657
 3897SOL     OW12589   4.014   6.629   1.344
 3897SOL    HW112590   3.919   6.599   1.333
 3897SOL    HW212591   4.049   6.598   1.433
 3898SOL     OW12592   3.808   3.004   0.858
 3898SOL    HW112593   3.821   2.937   0.931
 3898SOL    HW212594   3.749   2.966   0.787
 3899SOL     OW12595   3.209   0.357   5.400
 3899SOL    HW112596   3.239   0.415   5.477
 3899SOL    HW212597   3.113   0.375   5.381
 3900SOL     OW12598   5.120   3.626   3.206
 3900SOL    HW112599   5.096   3.694   3.137
 3900SOL    HW212600   5.164   3.671   3.284
 3901SOL     OW12601   2.683   0.315   6.842
 3901SOL    HW112602   2.597   0.310   6.892
 3901SOL    HW212603   2.688   0.402   6.793
 3902SOL     OW12604   6.333   3.054   2.542
 3902SOL    HW112605   6.312   3.005   2.458
 3902SOL    HW212606   6.323   3.152   2.527
 3903SOL     OW12607   3.286   4.496   6.446
 3903SOL    HW112608   3.325   4.464   6.533
 3903SOL    HW212609   3.203   4.548   6.465
 3904SOL     OW12610   1.476   0.496   0.690
 3904SOL    HW112611   1.458   0.442   0.772
 3904SOL    HW212612   1.556   0.459   0.642
 3905SOL     OW12613   6.540   5.633   5.412
 3905SOL    HW112614   6.629   5.597   5.386
 3905SOL    HW212615   6.503   5.689   5.338
 3906SOL     OW12616   6.834   6.565   4.921
 3906SOL    HW112617   6.822   6.527   4.829
 3906SOL    HW212618   6.924   6.610   4.926
 3907SOL     OW12619   6.659   1.908   3.820
 3907SOL    HW112620   6.668   1.846   3.742
 3907SOL    HW212621   6.729   1.885   3.888
 3908SOL     OW12622   2.057   3.161   6.158
 3908SOL    HW112623   1.961   3.176   6.181
 3908SOL    HW212624   2.109   3.245   6.175
 3909SOL     OW12625   5.919   5.146   3.832
 3909SOL    HW112626   5.924   5.127   3.734
 3909SOL    HW212627   5.834   5.194   3.853
 3910SOL     OW12628   4.045   3.653   2.681
 3910SOL    HW112629   4.065   3.723   2.613
 3910SOL    HW212630   3.998   3.694   2.758
 3911SOL     OW12631   6.522   2.160   5.556
 3911SOL    HW112632   6.595   2.098   5.530
 3911SOL    HW212633   6.559   2.235   5.611
 3912SOL     OW12634   5.422   2.714   7.021
 3912SOL    HW112635   5.392   2.692   6.928
 3912SOL    HW212636   5.464   2.804   7.022
 3913SOL     OW12637   1.078   6.655   1.057
 3913SOL    HW112638   1.104   6.684   1.149
 3913SOL    HW212639   0.979   6.652   1.049
 3914SOL     OW12640   3.027   5.396   5.691
 3914SOL    HW112641   3.082   5.471   5.654
 3914SOL    HW212642   3.043   5.314   5.637
 3915SOL     OW12643   6.781   5.971   1.199
 3915SOL    HW112644   6.872   5.940   1.172
 3915SOL    HW212645   6.788   6.038   1.273
 3916SOL     OW12646   0.907   0.249   3.063
 3916SOL    HW112647   0.868   0.225   3.152
 3916SOL    HW212648   0.878   0.182   2.995
 3917SOL     OW12649   1.869   0.348   0.096
 3917SOL    HW112650   1.929   0.302   0.162
 3917SOL    HW212651   1.802   0.283   0.060
 3918SOL     OW12652   5.541   3.372   0.796
 3918SOL    HW112653   5.523   3.312   0.718
 3918SOL    HW212654   5.471   3.358   0.866
 3919SOL     OW12655   3.272   6.637   0.625
 3919SOL    HW112656   3.324   6.709   0.579
 3919SOL    HW212657   3.294   6.549   0.584
 3920SOL     OW12658   2.076   1.662   6.751
 3920SOL    HW112659   2.057   1.628   6.659
 3920SOL    HW212660   2.129   1.746   6.746
 3921SOL     OW12661   1.587   3.590   2.033
 3921SOL    HW112662   1.494   3.563   2.008
 3921SOL    HW212663   1.638   3.616   1.951
 3922SOL     OW12664   1.201   4.763   1.209
 3922SOL    HW112665   1.245   4.725   1.127
 3922SOL    HW212666   1.119   4.710   1.229
 3923SOL     OW12667   6.531   0.252   0.420
 3923SOL    HW112668   6.482   0.275   0.504
 3923SOL    HW212669   6.480   0.286   0.342
 3924SOL     OW12670   6.827   4.915   4.633
 3924SOL    HW112671   6.749   4.858   4.611
 3924SOL    HW212672   6.880   4.872   4.706
 3925SOL     OW12673   1.339   5.126   2.284
 3925SOL    HW112674   1.405   5.084   2.346
 3925SOL    HW212675   1.248   5.120   2.325
 3926SOL     OW12676   3.734   4.832   2.437
 3926SOL    HW112677   3.761   4.805   2.530
 3926SOL    HW212678   3.636   4.853   2.436
 3927SOL     OW12679   0.772   3.264   6.019
 3927SOL    HW112680   0.785   3.169   6.046
 3927SOL    HW212681   0.858   3.302   5.986
 3928SOL     OW12682   5.369   5.820   6.161
 3928SOL    HW112683   5.295   5.786   6.103
 3928SOL    HW212684   5.346   5.804   6.257
 3929SOL     OW12685   1.206   2.003   4.765
 3929SOL    HW112686   1.283   2.067   4.767
 3929SOL    HW212687   1.126   2.049   4.726
 3930SOL     OW12688   2.248   1.441   3.825
 3930SOL    HW112689   2.342   1.471   3.842
 3930SOL    HW212690   2.203   1.507   3.764
 3931SOL     OW12691   5.083   0.533   1.934
 3931SOL    HW112692   5.022   0.598   1.980
 3931SOL    HW212693   5.062   0.533   1.836
 3932SOL     OW12694   1.802   1.726   3.652
 3932SOL    HW112695   1.744   1.701   3.729
 3932SOL    HW212696   1.773   1.676   3.571
 3933SOL     OW12697   0.609   0.076   5.182
 3933SOL    HW112698   0.603   7.008   5.216
 3933SOL    HW212699   0.572   0.138   5.250
 3934SOL     OW12700   5.488   6.857   6.888
 3934SOL    HW112701   5.536   6.771   6.871
 3934SOL    HW212702   5.488   6.877   6.986
 3935SOL     OW12703   4.557   0.533   0.621
 3935SOL    HW112704   4.490   0.563   0.689
 3935SOL    HW212705   4.648   0.567   0.646
 3936SOL     OW12706   0.453   4.703   3.097
 3936SOL    HW112707   0.399   4.638   3.043
 3936SOL    HW212708   0.445   4.679   3.194
 3937SOL     OW12709   0.500   1.523   2.544
 3937SOL    HW112710   0.491   1.594   2.475
 3937SOL    HW212711   0.555   1.558   2.620
 3938SOL     OW12712   0.248   2.246   2.292
 3938SOL    HW112713   0.164   2.298   2.311
 3938SOL    HW212714   0.311   2.255   2.369
 3939SOL     OW12715   2.778   1.957   1.397
 3939SOL    HW112716   2.826   1.942   1.310
 3939SOL    HW212717   2.834   1.923   1.472
 3940SOL     OW12718   4.472   3.194   1.457
 3940SOL    HW112719   4.556   3.211   1.508
 3940SOL    HW212720   4.417   3.126   1.506
 3941SOL     OW12721   4.816   4.116   6.448
 3941SOL    HW112722   4.727   4.071   6.458
 3941SOL    HW212723   4.819   4.197   6.505
 3942SOL     OW12724   6.694   6.801   6.894
 3942SOL    HW112725   6.674   6.703   6.893
 3942SOL    HW212726   6.739   6.824   6.980
 3943SOL     OW12727   0.252   3.211   4.499
 3943SOL    HW112728   0.277   3.242   4.407
 3943SOL    HW212729   0.251   3.111   4.501
 3944SOL     OW12730   5.145   2.468   4.710
 3944SOL    HW112731   5.132   2.407   4.632
 3944SOL    HW212732   5.227   2.442   4.760
 3945SOL     OW12733   0.134   0.665   0.380
 3945SOL    HW112734   0.180   0.683   0.294
 3945SOL    HW212735   0.178   0.718   0.453
 3946SOL     OW12736   4.313   4.731   3.058
 3946SOL    HW112737   4.370   4.662   3.013
 3946SOL    HW212738   4.355   4.821   3.046
 3947SOL     OW12739   6.023   5.491   6.834
 3947SOL    HW112740   5.953   5.562   6.828
 3947SOL    HW212741   6.110   5.528   6.803
 3948SOL     OW12742   6.203   4.270   0.779
 3948SOL    HW112743   6.215   4.364   0.808
 3948SOL    HW212744   6.269   4.212   0.827
 3949SOL     OW12745   5.450   6.174   3.334
 3949SOL    HW112746   5.356   6.207   3.326
 3949SOL    HW212747   5.508   6.226   3.272
 3950SOL     OW12748   1.449   6.182   0.394
 3950SOL    HW112749   1.349   6.182   0.398
 3950SOL    HW212750   1.480   6.098   0.349
 3951SOL     OW12751   5.602   0.013   1.794
 3951SOL    HW112752   5.516   0.062   1.781
 3951SOL    HW212753   5.586   6.941   1.797
 3952SOL     OW12754   5.815   2.260   7.012
 3952SOL    HW112755   5.870   2.189   6.968
 3952SOL    HW212756   5.819   2.248   0.086
 3953SOL     OW12757   3.566   4.130   2.960
 3953SOL    HW112758   3.650   4.107   3.009
 3953SOL    HW212759   3.487   4.105   3.015
 3954SOL     OW12760   4.017   5.011   5.814
 3954SOL    HW112761   3.948   5.064   5.863
 3954SOL    HW212762   4.096   4.997   5.873
 3955SOL     OW12763   4.103   0.993   4.559
 3955SOL    HW112764   4.163   0.927   4.604
 3955SOL    HW212765   4.009   0.958   4.559
 3956SOL     OW12766   1.840   1.579   1.333
 3956SOL    HW112767   1.746   1.544   1.334
 3956SOL    HW212768   1.893   1.536   1.407
 3957SOL     OW12769   3.847   0.565   4.691
 3957SOL    HW112770   3.917   0.629   4.724
 3957SOL    HW212771   3.871   0.472   4.720
 3958SOL     OW12772   5.712   0.418   5.692
 3958SOL    HW112773   5.740   0.512   5.673
 3958SOL    HW212774   5.640   0.390   5.628
 3959SOL     OW12775   4.340   5.716   0.517
 3959SOL    HW112776   4.421   5.722   0.459
 3959SOL    HW212777   4.263   5.760   0.471
 3960SOL     OW12778   5.558   2.338   4.482
 3960SOL    HW112779   5.485   2.386   4.433
 3960SOL    HW212780   5.522   2.252   4.519
 3961SOL     OW12781   5.917   6.337   3.609
 3961SOL    HW112782   5.884   6.372   3.521
 3961SOL    HW212783   6.014   6.313   3.600
 3962SOL     OW12784   0.075   5.559   5.207
 3962SOL    HW112785   0.020   5.486   5.165
 3962SOL    HW212786   0.116   5.525   5.292
 3963SOL     OW12787   4.574   6.870   1.984
 3963SOL    HW112788   4.629   6.829   2.056
 3963SOL    HW212789   4.481   6.833   1.987
 3964SOL     OW12790   5.516   3.246   3.098
 3964SOL    HW112791   5.505   3.342   3.123
 3964SOL    HW212792   5.527   3.191   3.181
 3965SOL     OW12793   4.877   4.000   4.445
 3965SOL    HW112794   4.883   3.914   4.496
 3965SOL    HW212795   4.804   4.056   4.484
 3966SOL     OW12796   2.823   6.236   6.526
 3966SOL    HW112797   2.886   6.191   6.462
 3966SOL    HW212798   2.744   6.176   6.541
 3967SOL     OW12799   1.923   4.655   2.886
 3967SOL    HW112800   1.987   4.580   2.869
 3967SOL    HW212801   1.866   4.669   2.805
 3968SOL     OW12802   3.950   6.791   0.758
 3968SOL    HW112803   3.956   6.732   0.677
 3968SOL    HW212804   3.865   6.771   0.808
 3969SOL     OW12805   0.984   5.428   2.801
 3969SOL    HW112806   1.058   5.466   2.744
 3969SOL    HW212807   0.978   5.329   2.786
 3970SOL     OW12808   4.965   6.207   2.672
 3970SOL    HW112809   4.891   6.255   2.720
 3970SOL    HW212810   5.007   6.269   2.605
 3971SOL     OW12811   2.376   5.718   3.526
 3971SOL    HW112812   2.422   5.795   3.570
 3971SOL    HW212813   2.436   5.678   3.457
 3972SOL     OW12814   2.220   3.741   0.095
 3972SOL    HW112815   2.183   3.790   0.015
 3972SOL    HW212816   2.239   3.646   0.070
 3973SOL     OW12817   1.283   5.486   0.618
 3973SOL    HW112818   1.342   5.406   0.606
 3973SOL    HW212819   1.314   5.538   0.698
 3974SOL     OW12820   1.962   0.617   4.919
 3974SOL    HW112821   1.906   0.697   4.899
 3974SOL    HW212822   1.961   0.599   5.018
 3975SOL     OW12823   5.946   2.700   6.288
 3975SOL    HW112824   5.937   2.609   6.328
 3975SOL    HW212825   5.875   2.714   6.220
 3976SOL     OW12826   1.991   4.998   2.165
 3976SOL    HW112827   2.042   5.044   2.238
 3976SOL    HW212828   2.010   4.900   2.168
 3977SOL     OW12829   1.363   3.560   6.778
 3977SOL    HW112830   1.376   3.461   6.791
 3977SOL    HW212831   1.442   3.597   6.728
 3978SOL     OW12832   6.606   4.462   3.694
 3978SOL    HW112833   6.678   4.458   3.625
 3978SOL    HW212834   6.619   4.389   3.761
 3979SOL     OW12835   4.091   0.012   6.594
 3979SOL    HW112836   4.189   0.034   6.599
 3979SOL    HW212837   4.080   6.941   6.573
 3980SOL     OW12838   5.713   6.347   5.639
 3980SOL    HW112839   5.756   6.389   5.719
 3980SOL    HW212840   5.640   6.286   5.668
 3981SOL     OW12841   4.462   6.635   0.318
 3981SOL    HW112842   4.448   6.691   0.236
 3981SOL    HW212843   4.506   6.691   0.389
 3982SOL     OW12844   3.234   6.305   3.045
 3982SOL    HW112845   3.138   6.328   3.027
 3982SOL    HW212846   3.266   6.357   3.124
 3983SOL     OW12847   3.588   6.099   4.055
 3983SOL    HW112848   3.586   6.111   4.154
 3983SOL    HW212849   3.683   6.096   4.024
 3984SOL     OW12850   6.538   2.504   2.766
 3984SOL    HW112851   6.506   2.436   2.701
 3984SOL    HW212852   6.577   2.459   2.846
 3985SOL     OW12853   3.812   5.444   6.742
 3985SOL    HW112854   3.726   5.395   6.756
 3985SOL    HW212855   3.795   5.543   6.740
 3986SOL     OW12856   5.098   0.649   2.488
 3986SOL    HW112857   5.075   0.557   2.456
 3986SOL    HW212858   5.197   0.661   2.487
 3987SOL     OW12859   3.597   5.255   4.567
 3987SOL    HW112860   3.690   5.259   4.532
 3987SOL    HW212861   3.590   5.182   4.636
 3988SOL     OW12862   3.992   5.826   0.614
 3988SOL    HW112863   3.986   5.780   0.703
 3988SOL    HW212864   4.055   5.903   0.621
 3989SOL     OW12865   5.683   2.252   0.298
 3989SOL    HW112866   5.655   2.168   0.252
 3989SOL    HW212867   5.753   2.232   0.367
 3990SOL     OW12868   6.447   1.910   2.499
 3990SOL    HW112869   6.382   1.973   2.541
 3990SOL    HW212870   6.505   1.959   2.434
 3991SOL     OW12871   6.796   0.622   3.015
 3991SOL    HW112872   6.742   0.623   3.100
 3991SOL    HW212873   6.784   0.533   2.970
 3992SOL     OW12874   2.679   1.742   0.833
 3992SOL    HW112875   2.614   1.701   0.897
 3992SOL    HW212876   2.757   1.780   0.883
 3993SOL     OW12877   1.235   3.111   1.367
 3993SOL    HW112878   1.334   3.123   1.379
 3993SOL    HW212879   1.217   3.026   1.317
 3994SOL     OW12880   2.782   6.150   4.719
 3994SOL    HW112881   2.811   6.241   4.688
 3994SOL    HW212882   2.861   6.101   4.754
 3995SOL     OW12883   1.675   2.637   5.034
 3995SOL    HW112884   1.646   2.601   4.945
 3995SOL    HW212885   1.743   2.575   5.074
 3996SOL     OW12886   0.151   6.300   4.926
 3996SOL    HW112887   0.176   6.218   4.875
 3996SOL    HW212888   0.054   6.298   4.948
 3997SOL     OW12889   4.943   0.525   4.398
 3997SOL    HW112890   4.889   0.586   4.341
 3997SOL    HW212891   5.016   0.483   4.343
 3998SOL     OW12892   4.729   2.204   3.500
 3998SOL    HW112893   4.705   2.200   3.403
 3998SOL    HW212894   4.820   2.244   3.509
 3999SOL     OW12895   5.029   2.341   4.228
 3999SOL    HW112896   5.093   2.330   4.151
 3999SOL    HW212897   4.978   2.426   4.217
 4000SOL     OW12898   4.062   0.056   4.039
 4000SOL    HW112899   4.082   0.138   3.984
 4000SOL    HW212900   4.076   7.000   3.983
 4001SOL     OW12901   1.196   2.172   4.145
 4001SOL    HW112902   1.221   2.176   4.049
 4001SOL    HW212903   1.194   2.264   4.183
 4002SOL     OW12904   2.376   3.900   1.756
 4002SOL    HW112905   2.301   3.834   1.746
 4002SOL    HW212906   2.464   3.854   1.747
 4003SOL     OW12907   4.001   1.646   5.222
 4003SOL    HW112908   3.914   1.659   5.173
 4003SOL    HW212909   4.025   1.549   5.222
 4004SOL     OW12910   0.096   1.852   5.387
 4004SOL    HW112911   0.141   1.788   5.324
 4004SOL    HW212912   0.150   1.860   5.471
 4005SOL     OW12913   6.295   5.238   5.552
 4005SOL    HW112914   6.271   5.314   5.611
 4005SOL    HW212915   6.389   5.248   5.520
 4006SOL     OW12916   3.618   6.009   2.653
 4006SOL    HW112917   3.650   5.958   2.733
 4006SOL    HW212918   3.597   5.945   2.579
 4007SOL     OW12919   6.758   1.885   6.667
 4007SOL    HW112920   6.666   1.848   6.682
 4007SOL    HW212921   6.751   1.981   6.638
 4008SOL     OW12922   2.641   2.333   4.887
 4008SOL    HW112923   2.682   2.347   4.977
 4008SOL    HW212924   2.561   2.393   4.877
 4009SOL     OW12925   3.433   3.089   2.694
 4009SOL    HW112926   3.448   3.035   2.612
 4009SOL    HW212927   3.366   3.160   2.675
 4010SOL     OW12928   1.907   2.663   6.627
 4010SOL    HW112929   1.856   2.596   6.681
 4010SOL    HW212930   1.845   2.735   6.597
 4011SOL     OW12931   0.806   2.627   0.950
 4011SOL    HW112932   0.733   2.605   0.884
 4011SOL    HW212933   0.889   2.576   0.925
 4012SOL     OW12934   6.025   2.806   3.908
 4012SOL    HW112935   6.095   2.743   3.941
 4012SOL    HW212936   6.014   2.881   3.973
 4013SOL     OW12937   4.464   2.387   3.249
 4013SOL    HW112938   4.548   2.339   3.225
 4013SOL    HW212939   4.467   2.417   3.344
 4014SOL     OW12940   5.380   6.152   2.077
 4014SOL    HW112941   5.438   6.100   2.140
 4014SOL    HW212942   5.299   6.097   2.055
 4015SOL     OW12943   4.658   3.422   6.642
 4015SOL    HW112944   4.750   3.401   6.610
 4015SOL    HW212945   4.659   3.510   6.689
 4016SOL     OW12946   3.285   6.190   4.655
 4016SOL    HW112947   3.356   6.126   4.683
 4016SOL    HW212948   3.269   6.181   4.556
 4017SOL     OW12949   6.280   6.885   0.124
 4017SOL    HW112950   6.190   6.886   0.079
 4017SOL    HW212951   6.286   6.805   0.183
 4018SOL     OW12952   2.423   6.310   0.486
 4018SOL    HW112953   2.423   6.408   0.505
 4018SOL    HW212954   2.330   6.274   0.497
 4019SOL     OW12955   5.100   5.420   3.285
 4019SOL    HW112956   5.130   5.342   3.339
 4019SOL    HW212957   5.094   5.393   3.189
 4020SOL     OW12958   5.035   2.157   5.244
 4020SOL    HW112959   5.104   2.217   5.282
 4020SOL    HW212960   4.947   2.205   5.240
 4021SOL     OW12961   4.335   4.519   0.144
 4021SOL    HW112962   4.239   4.534   0.171
 4021SOL    HW212963   4.390   4.596   0.176
 4022SOL     OW12964   5.494   0.661   0.796
 4022SOL    HW112965   5.519   0.672   0.700
 4022SOL    HW212966   5.413   0.717   0.816
 4023SOL     OW12967   6.914   0.301   5.841
 4023SOL    HW112968   6.873   0.383   5.801
 4023SOL    HW212969   6.881   0.220   5.792
 4024SOL     OW12970   4.438   4.668   4.328
 4024SOL    HW112971   4.474   4.590   4.379
 4024SOL    HW212972   4.403   4.737   4.392
 4025SOL     OW12973   1.367   3.960   3.237
 4025SOL    HW112974   1.383   4.059   3.233
 4025SOL    HW212975   1.454   3.912   3.249
 4026SOL     OW12976   4.933   0.072   4.800
 4026SOL    HW112977   4.835   0.054   4.797
 4026SOL    HW212978   4.949   0.170   4.786
 4027SOL     OW12979   4.087   4.878   2.150
 4027SOL    HW112980   4.007   4.877   2.090
 4027SOL    HW212981   4.057   4.881   2.245
 4028SOL     OW12982   2.517   6.253   3.589
 4028SOL    HW112983   2.433   6.285   3.632
 4028SOL    HW212984   2.580   6.329   3.577
 4029SOL     OW12985   1.703   3.735   3.891
 4029SOL    HW112986   1.661   3.695   3.973
 4029SOL    HW212987   1.667   3.827   3.877
 4030SOL     OW12988   1.125   1.592   6.124
 4030SOL    HW112989   1.216   1.598   6.083
 4030SOL    HW212990   1.128   1.531   6.203
 4031SOL     OW12991   5.904   5.744   4.117
 4031SOL    HW112992   6.002   5.764   4.127
 4031SOL    HW212993   5.885   5.718   4.022
 4032SOL     OW12994   4.134   6.975   4.904
 4032SOL    HW112995   4.073   0.003   4.963
 4032SOL    HW212996   4.210   6.940   4.959
 4033SOL     OW12997   3.435   3.453   5.728
 4033SOL    HW112998   3.437   3.457   5.628
 4033SOL    HW212999   3.470   3.364   5.759
 4034SOL     OW13000   5.897   2.826   4.977
 4034SOL    HW113001   5.895   2.920   5.010
 4034SOL    HW213002   5.818   2.808   4.920
 4035SOL     OW13003   0.270   5.345   1.257
 4035SOL    HW113004   0.318   5.430   1.273
 4035SOL    HW213005   0.293   5.279   1.329
 4036SOL     OW13006   6.657   6.123   2.546
 4036SOL    HW113007   6.589   6.130   2.619
 4036SOL    HW213008   6.634   6.046   2.486
 4037SOL     OW13009   6.733   3.992   6.255
 4037SOL    HW113010   6.697   3.954   6.340
 4037SOL    HW213011   6.666   4.053   6.214
 4038SOL     OW13012   6.980   5.138   3.407
 4038SOL    HW113013   0.021   5.108   3.338
 4038SOL    HW213014   6.978   5.238   3.409
 4039SOL     OW13015   3.699   6.213   1.244
 4039SOL    HW113016   3.656   6.125   1.262
 4039SOL    HW213017   3.629   6.281   1.226
 4040SOL     OW13018   3.771   6.269   0.542
 4040SOL    HW113019   3.748   6.346   0.483
 4040SOL    HW213020   3.734   6.284   0.633
 4041SOL     OW13021   1.040   6.799   3.021
 4041SOL    HW113022   1.101   6.726   3.052
 4041SOL    HW213023   1.093   6.879   2.995
 4042SOL     OW13024   5.973   5.859   2.131
 4042SOL    HW113025   6.070   5.840   2.117
 4042SOL    HW213026   5.925   5.851   2.044
 4043SOL     OW13027   6.323   3.953   1.743
 4043SOL    HW113028   6.260   3.938   1.667
 4043SOL    HW213029   6.273   3.995   1.819
 4044SOL     OW13030   6.283   5.672   3.240
 4044SOL    HW113031   6.266   5.698   3.335
 4044SOL    HW213032   6.197   5.677   3.188
 4045SOL     OW13033   2.155   4.680   5.869
 4045SOL    HW113034   2.070   4.629   5.862
 4045SOL    HW213035   2.215   4.635   5.936
 4046SOL     OW13036   0.232   3.265   0.620
 4046SOL    HW113037   0.302   3.241   0.688
 4046SOL    HW213038   0.223   3.364   0.615
 4047SOL     OW13039   3.109   3.725   2.618
 4047SOL    HW113040   3.199   3.709   2.578
 4047SOL    HW213041   3.071   3.639   2.650
 4048SOL     OW13042   4.722   2.444   0.998
 4048SOL    HW113043   4.650   2.382   0.966
 4048SOL    HW213044   4.761   2.492   0.919
 4049SOL     OW13045   6.790   0.521   5.748
 4049SOL    HW113046   6.836   0.608   5.767
 4049SOL    HW213047   6.726   0.533   5.673
 4050SOL     OW13048   2.502   0.744   1.690
 4050SOL    HW113049   2.473   0.699   1.606
 4050SOL    HW213050   2.440   0.819   1.711
 4051SOL     OW13051   1.190   4.176   1.048
 4051SOL    HW113052   1.257   4.168   0.974
 4051SOL    HW213053   1.208   4.108   1.118
 4052SOL     OW13054   1.470   6.740   1.279
 4052SOL    HW113055   1.457   6.709   1.373
 4052SOL    HW213056   1.481   6.661   1.219
 4053SOL     OW13057   3.320   5.335   3.351
 4053SOL    HW113058   3.266   5.289   3.280
 4053SOL    HW213059   3.409   5.291   3.358
 4054SOL     OW13060   5.270   1.444   6.728
 4054SOL    HW113061   5.186   1.444   6.674
 4054SOL    HW213062   5.346   1.409   6.672
 4055SOL     OW13063   4.778   2.607   0.782
 4055SOL    HW113064   4.748   2.702   0.790
 4055SOL    HW213065   4.697   2.548   0.769
 4056SOL     OW13066   4.363   2.591   0.936
 4056SOL    HW113067   4.294   2.663   0.931
 4056SOL    HW213068   4.353   2.542   1.023
 4057SOL     OW13069   6.246   2.395   0.109
 4057SOL    HW113070   6.203   2.353   0.188
 4057SOL    HW213071   6.220   2.492   0.104
 4058SOL     OW13072   1.493   1.840   4.511
 4058SOL    HW113073   1.520   1.856   4.416
 4058SOL    HW213074   1.559   1.882   4.573
 4059SOL     OW13075   6.669   1.982   5.377
 4059SOL    HW113076   6.756   2.023   5.348
 4059SOL    HW213077   6.684   1.887   5.404
 4060SOL     OW13078   3.382   5.866   5.493
 4060SOL    HW113079   3.417   5.958   5.510
 4060SOL    HW213080   3.288   5.859   5.528
 4061SOL     OW13081   2.343   2.794   1.487
 4061SOL    HW113082   2.432   2.813   1.444
 4061SOL    HW213083   2.292   2.880   1.496
 4062SOL     OW13084   3.582   6.308   2.437
 4062SOL    HW113085   3.616   6.389   2.389
 4062SOL    HW213086   3.633   6.227   2.408
 4063SOL     OW13087   2.412   5.044   6.594
 4063SOL    HW113088   2.372   4.990   6.520
 4063SOL    HW213089   2.414   4.990   6.678
 4064SOL     OW13090   5.860   6.871   4.168
 4064SOL    HW113091   5.872   6.918   4.080
 4064SOL    HW213092   5.795   6.796   4.156
 4065SOL     OW13093   0.022   4.587   6.419
 4065SOL    HW113094   6.951   4.604   6.401
 4065SOL    HW213095   0.076   4.664   6.385
 4066SOL     OW13096   5.976   5.551   1.652
 4066SOL    HW113097   6.051   5.499   1.611
 4066SOL    HW213098   6.012   5.632   1.698
 4067SOL     OW13099   5.623   1.288   1.855
 4067SOL    HW113100   5.712   1.247   1.874
 4067SOL    HW213101   5.575   1.232   1.787
 4068SOL     OW13102   5.052   1.598   4.641
 4068SOL    HW113103   5.122   1.572   4.574
 4068SOL    HW213104   5.071   1.691   4.675
 4069SOL     OW13105   0.071   6.394   0.849
 4069SOL    HW113106   0.110   6.305   0.823
 4069SOL    HW213107   0.107   6.465   0.789
 4070SOL     OW13108   0.161   3.388   3.260
 4070SOL    HW113109   0.186   3.313   3.198
 4070SOL    HW213110   0.200   3.474   3.225
 4071SOL     OW13111   2.720   0.474   4.025
 4071SOL    HW113112   2.686   0.480   3.931
 4071SOL    HW213113   2.818   0.454   4.024
 4072SOL     OW13114   1.099   6.939   3.736
 4072SOL    HW113115   1.097   6.927   3.835
 4072SOL    HW213116   1.145   6.860   3.694
 4073SOL     OW13117   2.297   5.088   1.767
 4073SOL    HW113118   2.232   5.162   1.785
 4073SOL    HW213119   2.386   5.126   1.743
 4074SOL     OW13120   0.748   2.878   6.992
 4074SOL    HW113121   0.653   2.870   6.959
 4074SOL    HW213122   0.749   2.863   0.066
 4075SOL     OW13123   5.221   0.197   3.494
 4075SOL    HW113124   5.282   0.268   3.458
 4075SOL    HW213125   5.134   0.238   3.521
 4076SOL     OW13126   2.104   2.298   2.920
 4076SOL    HW113127   2.195   2.341   2.916
 4076SOL    HW213128   2.034   2.370   2.919
 4077SOL     OW13129   3.523   0.932   0.785
 4077SOL    HW113130   3.584   0.922   0.864
 4077SOL    HW213131   3.428   0.929   0.815
 4078SOL     OW13132   4.905   3.542   2.922
 4078SOL    HW113133   4.928   3.543   2.825
 4078SOL    HW213134   4.894   3.447   2.952
 4079SOL     OW13135   5.837   0.203   4.403
 4079SOL    HW113136   5.882   0.228   4.317
 4079SOL    HW213137   5.802   0.110   4.397
 4080SOL     OW13138   3.548   2.874   3.437
 4080SOL    HW113139   3.537   2.971   3.458
 4080SOL    HW213140   3.640   2.858   3.400
 4081SOL     OW13141   2.861   2.106   6.425
 4081SOL    HW113142   2.796   2.098   6.500
 4081SOL    HW213143   2.813   2.092   6.338
 4082SOL     OW13144   1.101   2.183   5.588
 4082SOL    HW113145   1.101   2.190   5.488
 4082SOL    HW213146   1.115   2.274   5.627
 4083SOL     OW13147   6.329   5.329   2.751
 4083SOL    HW113148   6.271   5.390   2.805
 4083SOL    HW213149   6.319   5.350   2.654
 4084SOL     OW13150   5.044   0.258   1.765
 4084SOL    HW113151   5.088   0.347   1.747
 4084SOL    HW213152   4.965   0.272   1.824
 4085SOL     OW13153   2.436   4.370   2.902
 4085SOL    HW113154   2.512   4.405   2.956
 4085SOL    HW213155   2.383   4.305   2.957
 4086SOL     OW13156   5.902   5.090   5.559
 4086SOL    HW113157   5.850   5.152   5.617
 4086SOL    HW213158   5.840   5.048   5.492
 4087SOL     OW13159   1.915   0.790   1.760
 4087SOL    HW113160   2.002   0.756   1.795
 4087SOL    HW213161   1.899   0.883   1.794
 4088SOL     OW13162   0.288   1.713   5.632
 4088SOL    HW113163   0.324   1.634   5.683
 4088SOL    HW213164   0.220   1.760   5.688
 4089SOL     OW13165   1.279   0.871   2.545
 4089SOL    HW113166   1.249   0.966   2.532
 4089SOL    HW213167   1.372   0.861   2.510
 4090SOL     OW13168   2.899   2.451   5.854
 4090SOL    HW113169   2.855   2.509   5.785
 4090SOL    HW213170   2.997   2.472   5.858
 4091SOL     OW13171   3.083   5.987   2.590
 4091SOL    HW113172   3.004   5.931   2.614
 4091SOL    HW213173   3.123   6.025   2.673
 4092SOL     OW13174   5.660   1.844   5.878
 4092SOL    HW113175   5.599   1.849   5.957
 4092SOL    HW213176   5.685   1.748   5.861
 4093SOL     OW13177   5.649   4.035   3.222
 4093SOL    HW113178   5.594   3.974   3.164
 4093SOL    HW213179   5.745   4.030   3.194
 4094SOL     OW13180   6.762   6.756   0.698
 4094SOL    HW113181   6.689   6.824   0.696
 4094SOL    HW213182   6.781   6.731   0.793
 4095SOL     OW13183   1.816   5.388   0.539
 4095SOL    HW113184   1.797   5.308   0.482
 4095SOL    HW213185   1.907   5.425   0.516
 4096SOL     OW13186   0.154   0.480   6.812
 4096SOL    HW113187   0.169   0.439   6.902
 4096SOL    HW213188   0.226   0.451   6.749
 4097SOL     OW13189   0.735   4.070   5.180
 4097SOL    HW113190   0.671   4.043   5.252
 4097SOL    HW213191   0.697   4.146   5.128
 4098SOL     OW13192   1.128   6.157   2.249
 4098SOL    HW113193   1.136   6.074   2.195
 4098SOL    HW213194   1.044   6.153   2.303
 4099SOL     OW13195   6.720   3.317   5.504
 4099SOL    HW113196   6.769   3.263   5.571
 4099SOL    HW213197   6.630   3.342   5.540
 4100SOL     OW13198   2.375   0.804   3.061
 4100SOL    HW113199   2.380   0.832   2.965
 4100SOL    HW213200   2.393   0.706   3.068
 4101SOL     OW13201   6.350   5.759   6.292
 4101SOL    HW113202   6.316   5.685   6.233
 4101SOL    HW213203   6.448   5.770   6.279
 4102SOL     OW13204   1.177   5.862   0.343
 4102SOL    HW113205   1.147   5.877   0.249
 4102SOL    HW213206   1.234   5.780   0.346
 4103SOL     OW13207   2.579   5.454   2.859
 4103SOL    HW113208   2.513   5.382   2.881
 4103SOL    HW213209   2.664   5.438   2.909
 4104SOL     OW13210   1.300   6.014   5.373
 4104SOL    HW113211   1.295   5.914   5.374
 4104SOL    HW213212   1.386   6.042   5.330
 4105SOL     OW13213   4.005   6.689   2.073
 4105SOL    HW113214   3.969   6.780   2.095
 4105SOL    HW213215   3.933   6.633   2.032
 4106SOL     OW13216   1.384   0.108   2.224
 4106SOL    HW113217   1.444   0.058   2.287
 4106SOL    HW213218   1.408   0.205   2.225
 4107SOL     OW13219   1.748   0.900   0.687
 4107SOL    HW113220   1.791   0.810   0.680
 4107SOL    HW213221   1.732   0.936   0.595
 4108SOL     OW13222   6.306   6.506   5.789
 4108SOL    HW113223   6.394   6.553   5.783
 4108SOL    HW213224   6.319   6.414   5.823
 4109SOL     OW13225   4.918   6.472   4.594
 4109SOL    HW113226   4.889   6.456   4.689
 4109SOL    HW213227   5.013   6.445   4.584
 4110SOL     OW13228   4.550   3.092   0.266
 4110SOL    HW113229   4.491   3.156   0.315
 4110SOL    HW213230   4.645   3.108   0.293
 4111SOL     OW13231   5.454   4.824   4.007
 4111SOL    HW113232   5.459   4.729   4.036
 4111SOL    HW213233   5.378   4.869   4.054
 4112SOL     OW13234   4.462   5.753   4.404
 4112SOL    HW113235   4.536   5.735   4.469
 4112SOL    HW213236   4.500   5.769   4.313
 4113SOL     OW13237   4.543   5.024   4.745
 4113SOL    HW113238   4.525   5.063   4.655
 4113SOL    HW213239   4.640   5.036   4.767
 4114SOL     OW13240   0.227   1.217   1.949
 4114SOL    HW113241   0.141   1.165   1.948
 4114SOL    HW213242   0.214   1.302   2.000
 4115SOL     OW13243   4.081   5.772   4.074
 4115SOL    HW113244   4.035   5.778   3.985
 4115SOL    HW213245   4.160   5.833   4.075
 4116SOL     OW13246   5.962   3.389   3.290
 4116SOL    HW113247   6.053   3.374   3.329
 4116SOL    HW213248   5.923   3.300   3.263
 4117SOL     OW13249   0.131   1.036   3.060
 4117SOL    HW113250   0.045   1.003   3.099
 4117SOL    HW213251   0.172   0.964   3.004
 4118SOL     OW13252   1.261   0.351   1.274
 4118SOL    HW113253   1.357   0.321   1.269
 4118SOL    HW213254   1.229   0.374   1.183
 4119SOL     OW13255   6.958   0.788   4.752
 4119SOL    HW113256   0.003   0.788   4.823
 4119SOL    HW213257   6.899   0.708   4.764
 4120SOL     OW13258   1.993   0.759   6.171
 4120SOL    HW113259   2.076   0.803   6.137
 4120SOL    HW213260   2.017   0.680   6.227
 4121SOL     OW13261   6.595   1.135   2.105
 4121SOL    HW113262   6.511   1.154   2.056
 4121SOL    HW213263   6.573   1.104   2.198
 4122SOL     OW13264   1.004   5.220   3.162
 4122SOL    HW113265   1.017   5.122   3.144
 4122SOL    HW213266   0.916   5.234   3.208
 4123SOL     OW13267   5.383   4.570   1.594
 4123SOL    HW113268   5.406   4.489   1.649
 4123SOL    HW213269   5.357   4.541   1.502
 4124SOL     OW13270   6.409   6.667   6.948
 4124SOL    HW113271   6.368   6.743   6.998
 4124SOL    HW213272   6.365   6.582   6.976
 4125SOL     OW13273   0.105   2.823   0.031
 4125SOL    HW113274   0.172   2.887   7.020
 4125SOL    HW213275   0.022   2.826   7.001
 4126SOL     OW13276   1.081   3.642   4.246
 4126SOL    HW113277   1.018   3.565   4.258
 4126SOL    HW213278   1.147   3.620   4.174
 4127SOL     OW13279   5.263   2.241   4.093
 4127SOL    HW113280   5.234   2.271   4.001
 4127SOL    HW213281   5.311   2.315   4.139
 4128SOL     OW13282   6.626   2.761   6.343
 4128SOL    HW113283   6.549   2.762   6.407
 4128SOL    HW213284   6.655   2.666   6.328
 4129SOL     OW13285   3.004   1.134   1.141
 4129SOL    HW113286   2.939   1.169   1.209
 4129SOL    HW213287   2.959   1.129   1.052
 4130SOL     OW13288   6.080   2.776   0.507
 4130SOL    HW113289   6.032   2.800   0.592
 4130SOL    HW213290   6.120   2.685   0.516
 4131SOL     OW13291   4.794   6.409   3.826
 4131SOL    HW113292   4.882   6.452   3.810
 4131SOL    HW213293   4.736   6.421   3.745
 4132SOL     OW13294   6.603   4.320   3.107
 4132SOL    HW113295   6.660   4.257   3.054
 4132SOL    HW213296   6.530   4.356   3.049
 4133SOL     OW13297   5.610   6.296   3.160
 4133SOL    HW113298   5.627   6.208   3.115
 4133SOL    HW213299   5.673   6.365   3.124
 4134SOL     OW13300   1.577   3.562   1.449
 4134SOL    HW113301   1.644   3.621   1.494
 4134SOL    HW213302   1.624   3.495   1.392
 4135SOL     OW13303   6.101   1.086   0.991
 4135SOL    HW113304   6.140   1.021   0.925
 4135SOL    HW213305   6.150   1.078   1.078
 4136SOL     OW13306   0.639   4.491   0.567
 4136SOL    HW113307   0.703   4.423   0.602
 4136SOL    HW213308   0.573   4.447   0.505
 4137SOL     OW13309   0.322   2.939   5.890
 4137SOL    HW113310   0.391   2.907   5.825
 4137SOL    HW213311   0.362   2.943   5.981
 4138SOL     OW13312   4.874   6.953   6.475
 4138SOL    HW113313   4.963   6.994   6.452
 4138SOL    HW213314   4.870   6.860   6.438
 4139SOL     OW13315   1.604   4.418   2.300
 4139SOL    HW113316   1.504   4.410   2.304
 4139SOL    HW213317   1.646   4.340   2.346
 4140SOL     OW13318   2.316   7.008   6.703
 4140SOL    HW113319   2.388   0.016   6.642
 4140SOL    HW213320   2.254   0.057   6.725
 4141SOL     OW13321   4.880   0.913   6.030
 4141SOL    HW113322   4.819   0.992   6.027
 4141SOL    HW213323   4.974   0.943   6.014
 4142SOL     OW13324   6.318   5.723   1.136
 4142SOL    HW113325   6.301   5.765   1.046
 4142SOL    HW213326   6.378   5.783   1.189
 4143SOL     OW13327   5.611   3.908   6.420
 4143SOL    HW113328   5.634   3.885   6.325
 4143SOL    HW213329   5.515   3.886   6.437
 4144SOL     OW13330   4.509   0.459   1.477
 4144SOL    HW113331   4.417   0.499   1.469
 4144SOL    HW213332   4.538   0.461   1.573
 4145SOL     OW13333   5.480   0.219   1.314
 4145SOL    HW113334   5.384   0.215   1.288
 4145SOL    HW213335   5.532   0.269   1.245
 4146SOL     OW13336   4.209   0.094   1.867
 4146SOL    HW113337   4.288   0.080   1.927
 4146SOL    HW213338   4.236   0.077   1.772
 4147SOL     OW13339   4.453   5.046   6.978
 4147SOL    HW113340   4.382   5.108   6.944
 4147SOL    HW213341   4.422   5.002   0.036
 4148SOL     OW13342   2.698   1.414   5.866
 4148SOL    HW113343   2.788   1.372   5.869
 4148SOL    HW213344   2.669   1.424   5.770
 4149SOL     OW13345   1.452   3.477   5.855
 4149SOL    HW113346   1.550   3.467   5.837
 4149SOL    HW213347   1.422   3.405   5.917
 4150SOL     OW13348   5.644   1.457   0.333
 4150SOL    HW113349   5.612   1.404   0.411
 4150SOL    HW213350   5.646   1.554   0.357
 4151SOL     OW13351   2.667   5.764   4.677
 4151SOL    HW113352   2.618   5.686   4.714
 4151SOL    HW213353   2.720   5.808   4.750
 4152SOL     OW13354   3.143   3.751   1.064
 4152SOL    HW113355   3.213   3.787   1.125
 4152SOL    HW213356   3.105   3.825   1.008
 4153SOL     OW13357   6.939   5.713   2.059
 4153SOL    HW113358   6.982   5.684   1.973
 4153SOL    HW213359   6.956   5.645   2.129
 4154SOL     OW13360   0.155   6.933   3.724
 4154SOL    HW113361   0.145   6.995   3.803
 4154SOL    HW213362   0.213   6.856   3.750
 4155SOL     OW13363   6.321   0.843   2.125
 4155SOL    HW113364   6.322   0.833   2.224
 4155SOL    HW213365   6.305   0.939   2.101
 4156SOL     OW13366   0.607   4.887   5.378
 4156SOL    HW113367   0.656   4.970   5.352
 4156SOL    HW213368   0.635   4.812   5.319
 4157SOL     OW13369   4.989   5.894   0.800
 4157SOL    HW113370   5.010   5.924   0.893
 4157SOL    HW213371   5.066   5.844   0.762
 4158SOL     OW13372   0.633   2.654   0.533
 4158SOL    HW113373   0.594   2.746   0.521
 4158SOL    HW213374   0.594   2.612   0.615
 4159SOL     OW13375   3.055   0.776   4.104
 4159SOL    HW113376   3.077   0.849   4.169
 4159SOL    HW213377   3.083   0.804   4.012
 4160SOL     OW13378   1.486   6.685   6.115
 4160SOL    HW113379   1.446   6.608   6.165
 4160SOL    HW213380   1.509   6.758   6.179
 4161SOL     OW13381   3.541   3.077   3.176
 4161SOL    HW113382   3.546   3.065   3.077
 4161SOL    HW213383   3.572   3.169   3.200
 4162SOL     OW13384   5.433   6.020   1.203
 4162SOL    HW113385   5.376   5.948   1.243
 4162SOL    HW213386   5.400   6.109   1.233
 4163SOL     OW13387   3.786   5.564   1.807
 4163SOL    HW113388   3.878   5.563   1.769
 4163SOL    HW213389   3.729   5.498   1.757
 4164SOL     OW13390   5.269   2.016   6.450
 4164SOL    HW113391   5.189   2.056   6.406
 4164SOL    HW213392   5.269   2.039   6.547
 4165SOL     OW13393   3.769   1.607   4.645
 4165SOL    HW113394   3.821   1.594   4.561
 4165SOL    HW213395   3.684   1.655   4.625
 4166SOL     OW13396   6.020   2.251   1.693
 4166SOL    HW113397   6.070   2.306   1.761
 4166SOL    HW213398   6.055   2.157   1.694
 4167SOL     OW13399   3.842   5.209   4.435
 4167SOL    HW113400   3.863   5.227   4.339
 4167SOL    HW213401   3.859   5.113   4.455
 4168SOL     OW13402   5.656   4.374   0.291
 4168SOL    HW113403   5.619   4.377   0.198
 4168SOL    HW213404   5.588   4.336   0.353
 4169SOL     OW13405   5.188   3.380   6.917
 4169SOL    HW113406   5.247   3.452   6.881
 4169SOL    HW213407   5.240   3.324   6.981
 4170SOL     OW13408   0.912   2.441   5.179
 4170SOL    HW113409   0.881   2.462   5.272
 4170SOL    HW213410   0.894   2.520   5.120
 4171SOL     OW13411   0.449   1.597   6.023
 4171SOL    HW113412   0.485   1.622   5.933
 4171SOL    HW213413   0.451   1.677   6.083
 4172SOL     OW13414   2.733   2.407   6.302
 4172SOL    HW113415   2.773   2.414   6.393
 4172SOL    HW213416   2.677   2.325   6.296
 4173SOL     OW13417   4.821   1.669   5.681
 4173SOL    HW113418   4.780   1.642   5.593
 4173SOL    HW213419   4.920   1.655   5.677
 4174SOL     OW13420   4.129   6.389   4.411
 4174SOL    HW113421   4.107   6.358   4.319
 4174SOL    HW213422   4.096   6.321   4.477
 4175SOL     OW13423   1.417   4.706   6.339
 4175SOL    HW113424   1.339   4.706   6.402
 4175SOL    HW213425   1.502   4.697   6.391
 4176SOL     OW13426   4.841   6.651   5.480
 4176SOL    HW113427   4.890   6.732   5.511
 4176SOL    HW213428   4.839   6.583   5.552
 4177SOL     OW13429   4.475   5.139   2.666
 4177SOL    HW113430   4.526   5.054   2.668
 4177SOL    HW213431   4.539   5.216   2.672
 4178SOL     OW13432   3.851   6.475   1.683
 4178SOL    HW113433   3.868   6.403   1.616
 4178SOL    HW213434   3.800   6.550   1.641
 4179SOL     OW13435   4.531   2.473   0.281
 4179SOL    HW113436   4.531   2.572   0.265
 4179SOL    HW213437   4.437   2.440   0.286
 4180SOL     OW13438   3.997   3.679   0.388
 4180SOL    HW113439   4.084   3.651   0.429
 4180SOL    HW213440   4.000   3.663   0.290
 4181SOL     OW13441   5.814   6.696   5.617
 4181SOL    HW113442   5.742   6.742   5.669
 4181SOL    HW213443   5.902   6.741   5.634
 4182SOL     OW13444   0.951   6.073   5.801
 4182SOL    HW113445   0.934   6.150   5.740
 4182SOL    HW213446   0.888   5.998   5.780
 4183SOL     OW13447   4.499   1.866   0.553
 4183SOL    HW113448   4.571   1.846   0.620
 4183SOL    HW213449   4.535   1.851   0.461
 4184SOL     OW13450   3.491   5.511   3.121
 4184SOL    HW113451   3.401   5.487   3.085
 4184SOL    HW213452   3.523   5.595   3.077
 4185SOL     OW13453   4.857   3.730   3.434
 4185SOL    HW113454   4.853   3.830   3.433
 4185SOL    HW213455   4.838   3.695   3.342
 4186SOL     OW13456   1.767   5.480   6.935
 4186SOL    HW113457   1.687   5.452   6.988
 4186SOL    HW213458   1.833   5.405   6.931
 4187SOL     OW13459   2.339   3.717   5.861
 4187SOL    HW113460   2.377   3.629   5.888
 4187SOL    HW213461   2.295   3.709   5.771
 4188SOL     OW13462   4.769   0.103   0.063
 4188SOL    HW113463   4.785   0.135   0.157
 4188SOL    HW213464   4.772   0.181   0.001
 4189SOL     OW13465   4.582   4.914   3.272
 4189SOL    HW113466   4.552   4.918   3.367
 4189SOL    HW213467   4.600   4.819   3.246
 4190SOL     OW13468   6.121   6.783   1.525
 4190SOL    HW113469   6.041   6.808   1.471
 4190SOL    HW213470   6.204   6.807   1.475
 4191SOL     OW13471   4.169   3.271   6.729
 4191SOL    HW113472   4.148   3.196   6.792
 4191SOL    HW213473   4.140   3.358   6.769
 4192SOL     OW13474   1.599   3.696   6.615
 4192SOL    HW113475   1.629   3.773   6.558
 4192SOL    HW213476   1.640   3.612   6.580
 4193SOL     OW13477   0.185   0.411   0.076
 4193SOL    HW113478   0.179   0.381   0.171
 4193SOL    HW213479   0.205   0.332   0.018
 4194SOL     OW13480   5.469   1.232   6.293
 4194SOL    HW113481   5.419   1.313   6.264
 4194SOL    HW213482   5.484   1.236   6.392
 4195SOL     OW13483   2.789   6.865   1.128
 4195SOL    HW113484   2.770   6.946   1.073
 4195SOL    HW213485   2.832   6.795   1.070
 4196SOL     OW13486   6.761   2.176   3.024
 4196SOL    HW113487   6.675   2.225   3.021
 4196SOL    HW213488   6.760   2.101   2.957
 4197SOL     OW13489   3.445   0.914   0.173
 4197SOL    HW113490   3.466   1.011   0.165
 4197SOL    HW213491   3.354   0.902   0.213
 4198SOL     OW13492   6.136   1.997   2.253
 4198SOL    HW113493   6.089   2.068   2.201
 4198SOL    HW213494   6.234   2.015   2.252
 4199SOL     OW13495   0.153   3.744   6.539
 4199SOL    HW113496   0.180   3.652   6.567
 4199SOL    HW213497   0.054   3.750   6.534
 4200SOL     OW13498   4.632   1.572   3.806
 4200SOL    HW113499   4.668   1.563   3.713
 4200SOL    HW213500   4.680   1.645   3.854
 4201SOL     OW13501   6.226   6.508   4.823
 4201SOL    HW113502   6.285   6.543   4.895
 4201SOL    HW213503   6.186   6.421   4.852
 4202SOL     OW13504   4.629   4.134   1.654
 4202SOL    HW113505   4.697   4.206   1.642
 4202SOL    HW213506   4.571   4.156   1.732
 4203SOL     OW13507   5.759   4.353   5.533
 4203SOL    HW113508   5.699   4.370   5.612
 4203SOL    HW213509   5.803   4.264   5.544
 4204SOL     OW13510   1.860   4.174   6.126
 4204SOL    HW113511   1.848   4.220   6.038
 4204SOL    HW213512   1.773   4.135   6.155
 4205SOL     OW13513   4.647   6.774   6.328
 4205SOL    HW113514   4.694   6.835   6.264
 4205SOL    HW213515   4.713   6.708   6.365
 4206SOL     OW13516   2.182   1.539   4.106
 4206SOL    HW113517   2.214   1.552   4.199
 4206SOL    HW213518   2.257   1.508   4.048
 4207SOL     OW13519   1.230   2.281   2.803
 4207SOL    HW113520   1.182   2.341   2.866
 4207SOL    HW213521   1.328   2.305   2.802
 4208SOL     OW13522   2.103   1.995   3.832
 4208SOL    HW113523   2.120   1.915   3.889
 4208SOL    HW213524   2.016   1.984   3.785
 4209SOL     OW13525   6.957   5.676   1.791
 4209SOL    HW113526   0.004   5.745   1.786
 4209SOL    HW213527   6.915   5.666   1.701
 4210SOL     OW13528   2.942   4.351   5.353
 4210SOL    HW113529   2.939   4.425   5.286
 4210SOL    HW213530   3.034   4.346   5.393
 4211SOL     OW13531   3.739   2.766   5.210
 4211SOL    HW113532   3.652   2.779   5.258
 4211SOL    HW213533   3.780   2.680   5.240
 4212SOL     OW13534   6.958   1.843   2.982
 4212SOL    HW113535   6.932   1.749   3.004
 4212SOL    HW213536   7.024   1.876   3.050
 4213SOL     OW13537   3.633   0.298   3.789
 4213SOL    HW113538   3.688   0.226   3.832
 4213SOL    HW213539   3.650   0.298   3.691
 4214SOL     OW13540   6.687   5.723   3.300
 4214SOL    HW113541   6.781   5.695   3.319
 4214SOL    HW213542   6.627   5.692   3.374
 4215SOL     OW13543   5.973   0.115   6.021
 4215SOL    HW113544   5.947   0.210   6.005
 4215SOL    HW213545   6.029   0.083   5.945
 4216SOL     OW13546   2.488   5.193   2.059
 4216SOL    HW113547   2.548   5.157   1.987
 4216SOL    HW213548   2.403   5.226   2.018
 4217SOL     OW13549   1.356   0.065   3.112
 4217SOL    HW113550   1.354   0.061   3.212
 4217SOL    HW213551   1.278   0.120   3.080
 4218SOL     OW13552   2.341   1.148   1.656
 4218SOL    HW113553   2.314   1.066   1.706
 4218SOL    HW213554   2.383   1.122   1.569
 4219SOL     OW13555   3.683   4.931   3.132
 4219SOL    HW113556   3.679   4.928   3.232
 4219SOL    HW213557   3.606   4.984   3.096
 4220SOL     OW13558   6.255   1.932   1.183
 4220SOL    HW113559   6.210   1.854   1.140
 4220SOL    HW213560   6.279   1.999   1.113
 4221SOL     OW13561   0.458   6.181   0.765
 4221SOL    HW113562   0.507   6.234   0.696
 4221SOL    HW213563   0.482   6.214   0.856
 4222SOL     OW13564   4.851   3.130   4.345
 4222SOL    HW113565   4.759   3.170   4.348
 4222SOL    HW213566   4.909   3.176   4.413
 4223SOL     OW13567   3.313   3.729   3.140
 4223SOL    HW113568   3.293   3.807   3.199
 4223SOL    HW213569   3.324   3.760   3.046
 4224SOL     OW13570   4.733   4.766   4.463
 4224SOL    HW113571   4.808   4.784   4.399
 4224SOL    HW213572   4.652   4.818   4.437
 4225SOL     OW13573   1.244   1.825   5.712
 4225SOL    HW113574   1.237   1.842   5.810
 4225SOL    HW213575   1.285   1.905   5.667
 4226SOL     OW13576   0.329   5.517   5.112
 4226SOL    HW113577   0.372   5.427   5.121
 4226SOL    HW213578   0.235   5.512   5.146
 4227SOL     OW13579   4.818   5.417   2.026
 4227SOL    HW113580   4.803   5.320   2.044
 4227SOL    HW213581   4.852   5.428   1.933
 4228SOL     OW13582   1.339   4.687   3.951
 4228SOL    HW113583   1.362   4.698   3.855
 4228SOL    HW213584   1.423   4.675   4.004
 4229SOL     OW13585   5.407   5.712   5.338
 4229SOL    HW113586   5.499   5.748   5.356
 4229SOL    HW213587   5.408   5.613   5.343
 4230SOL     OW13588   6.694   1.337   1.539
 4230SOL    HW113589   6.794   1.334   1.546
 4230SOL    HW213590   6.655   1.258   1.587
 4231SOL     OW13591   0.101   0.928   5.985
 4231SOL    HW113592   0.157   0.993   5.935
 4231SOL    HW213593   0.087   0.846   5.929
 4232SOL     OW13594   1.470   4.788   4.405
 4232SOL    HW113595   1.531   4.723   4.452
 4232SOL    HW213596   1.524   4.865   4.370
 4233SOL     OW13597   5.230   5.407   2.440
 4233SOL    HW113598   5.284   5.482   2.402
 4233SOL    HW213599   5.170   5.369   2.370
 4234SOL     OW13600   3.412   5.107   5.924
 4234SOL    HW113601   3.512   5.113   5.925
 4234SOL    HW213602   3.373   5.199   5.924
 4235SOL     OW13603   7.006   5.924   6.325
 4235SOL    HW113604   0.051   5.914   6.395
 4235SOL    HW213605   6.964   6.014   6.333
 4236SOL     OW13606   0.181   5.732   3.033
 4236SOL    HW113607   0.181   5.633   3.022
 4236SOL    HW213608   0.269   5.762   3.069
 4237SOL     OW13609   0.220   4.798   4.184
 4237SOL    HW113610   0.157   4.742   4.130
 4237SOL    HW213611   0.229   4.888   4.142
 4238SOL     OW13612   2.659   6.002   2.242
 4238SOL    HW113613   2.633   6.074   2.306
 4238SOL    HW213614   2.742   6.030   2.194
 4239SOL     OW13615   4.245   0.977   4.121
 4239SOL    HW113616   4.277   1.013   4.209
 4239SOL    HW213617   4.151   1.007   4.104
 4240SOL     OW13618   5.688   6.820   1.541
 4240SOL    HW113619   5.645   6.898   1.496
 4240SOL    HW213620   5.718   6.846   1.633
 4241SOL     OW13621   6.695   4.019   0.224
 4241SOL    HW113622   6.652   4.031   0.313
 4241SOL    HW213623   6.727   4.107   0.191
 4242SOL     OW13624   2.852   2.172   3.103
 4242SOL    HW113625   2.779   2.236   3.128
 4242SOL    HW213626   2.903   2.144   3.184
 4243SOL     OW13627   4.520   1.335   2.975
 4243SOL    HW113628   4.498   1.362   2.881
 4243SOL    HW213629   4.593   1.266   2.973
 4244SOL     OW13630   3.222   3.078   4.823
 4244SOL    HW113631   3.300   3.096   4.883
 4244SOL    HW213632   3.165   3.008   4.864
 4245SOL     OW13633   5.851   0.324   0.042
 4245SOL    HW113634   5.830   0.301   6.973
 4245SOL    HW213635   5.781   0.286   0.102
 4246SOL     OW13636   6.899   4.013   6.704
 4246SOL    HW113637   6.924   3.995   6.799
 4246SOL    HW213638   6.837   4.091   6.700
 4247SOL     OW13639   0.598   5.755   5.233
 4247SOL    HW113640   0.592   5.854   5.249
 4247SOL    HW213641   0.694   5.728   5.225
 4248SOL     OW13642   2.165   3.901   6.254
 4248SOL    HW113643   2.229   3.843   6.304
 4248SOL    HW213644   2.207   3.932   6.169
 4249SOL     OW13645   5.272   4.054   5.274
 4249SOL    HW113646   5.244   4.074   5.180
 4249SOL    HW213647   5.371   4.060   5.281
 4250SOL     OW13648   1.505   4.220   3.243
 4250SOL    HW113649   1.496   4.202   3.341
 4250SOL    HW213650   1.560   4.302   3.230
 4251SOL     OW13651   5.238   4.439   0.099
 4251SOL    HW113652   5.323   4.386   0.103
 4251SOL    HW213653   5.171   4.389   0.044
 4252SOL     OW13654   0.332   5.630   5.593
 4252SOL    HW113655   0.431   5.629   5.604
 4252SOL    HW213656   0.290   5.583   5.670
 4253SOL     OW13657   4.029   6.207   2.478
 4253SOL    HW113658   4.089   6.270   2.526
 4253SOL    HW213659   4.081   6.126   2.450
 4254SOL     OW13660   3.033   4.158   1.579
 4254SOL    HW113661   2.944   4.112   1.575
 4254SOL    HW213662   3.096   4.105   1.634
 4255SOL     OW13663   0.875   2.188   4.254
 4255SOL    HW113664   0.873   2.263   4.189
 4255SOL    HW213665   0.964   2.186   4.301
 4256SOL     OW13666   2.004   1.030   2.042
 4256SOL    HW113667   2.038   1.123   2.050
 4256SOL    HW213668   1.931   1.027   1.973
 4257SOL     OW13669   4.029   2.196   5.058
 4257SOL    HW113670   4.086   2.261   5.008
 4257SOL    HW213671   4.087   2.131   5.107
 4258SOL     OW13672   5.256   6.605   2.892
 4258SOL    HW113673   5.220   6.624   2.983
 4258SOL    HW213674   5.216   6.520   2.857
 4259SOL     OW13675   1.656   2.971   0.658
 4259SOL    HW113676   1.697   2.949   0.747
 4259SOL    HW213677   1.672   3.068   0.637
 4260SOL     OW13678   3.942   5.841   3.855
 4260SOL    HW113679   3.938   5.941   3.851
 4260SOL    HW213680   3.866   5.803   3.801
 4261SOL     OW13681   1.435   1.551   2.744
 4261SOL    HW113682   1.406   1.633   2.696
 4261SOL    HW213683   1.391   1.547   2.834
 4262SOL     OW13684   6.657   6.726   6.229
 4262SOL    HW113685   6.617   6.738   6.138
 4262SOL    HW213686   6.593   6.674   6.287
 4263SOL     OW13687   4.021   5.387   6.592
 4263SOL    HW113688   3.944   5.396   6.655
 4263SOL    HW213689   4.105   5.372   6.644
 4264SOL     OW13690   0.029   0.673   1.233
 4264SOL    HW113691   0.076   0.599   1.281
 4264SOL    HW213692   6.958   0.674   1.259
 4265SOL     OW13693   1.152   2.712   0.318
 4265SOL    HW113694   1.119   2.618   0.320
 4265SOL    HW213695   1.236   2.717   0.264
 4266SOL     OW13696   3.011   4.566   1.330
 4266SOL    HW113697   3.036   4.518   1.414
 4266SOL    HW213698   3.023   4.664   1.342
 4267SOL     OW13699   1.731   4.182   5.838
 4267SOL    HW113700   1.683   4.139   5.915
 4267SOL    HW213701   1.677   4.259   5.804
 4268SOL     OW13702   1.790   0.611   0.396
 4268SOL    HW113703   1.712   0.557   0.366
 4268SOL    HW213704   1.872   0.583   0.345
 4269SOL     OW13705   3.188   4.058   0.697
 4269SOL    HW113706   3.196   4.003   0.780
 4269SOL    HW213707   3.268   4.044   0.639
 4270SOL     OW13708   3.971   2.773   6.250
 4270SOL    HW113709   3.961   2.694   6.310
 4270SOL    HW213710   3.900   2.841   6.272
 4271SOL     OW13711   1.493   0.120   0.499
 4271SOL    HW113712   1.486   0.030   0.455
 4271SOL    HW213713   1.412   0.135   0.557
 4272SOL     OW13714   6.947   4.227   3.652
 4272SOL    HW113715   6.975   4.323   3.661
 4272SOL    HW213716   6.894   4.200   3.733
 4273SOL     OW13717   5.355   6.070   4.492
 4273SOL    HW113718   5.429   6.039   4.551
 4273SOL    HW213719   5.383   6.058   4.396
 4274SOL     OW13720   1.847   0.182   3.873
 4274SOL    HW113721   1.762   0.233   3.888
 4274SOL    HW213722   1.921   0.225   3.925
 4275SOL     OW13723   1.240   0.164   6.548
 4275SOL    HW113724   1.231   0.106   6.467
 4275SOL    HW213725   1.334   0.198   6.555
 4276SOL     OW13726   1.809   4.593   2.255
 4276SOL    HW113727   1.734   4.526   2.253
 4276SOL    HW213728   1.882   4.562   2.194
 4277SOL     OW13729   1.102   5.434   4.792
 4277SOL    HW113730   1.017   5.408   4.837
 4277SOL    HW213731   1.125   5.367   4.721
 4278SOL     OW13732   1.149   6.783   5.807
 4278SOL    HW113733   1.155   6.713   5.877
 4278SOL    HW213734   1.087   6.856   5.837
 4279SOL     OW13735   3.348   5.984   4.171
 4279SOL    HW113736   3.401   5.980   4.086
 4279SOL    HW213737   3.258   5.943   4.156
 4280SOL     OW13738   4.831   3.078   3.908
 4280SOL    HW113739   4.822   3.167   3.863
 4280SOL    HW213740   4.763   3.015   3.873
 4281SOL     OW13741   2.567   4.059   5.350
 4281SOL    HW113742   2.524   4.125   5.411
 4281SOL    HW213743   2.506   4.039   5.273
 4282SOL     OW13744   0.864   3.081   1.047
 4282SOL    HW113745   0.930   3.149   1.078
 4282SOL    HW213746   0.911   3.005   1.002
 4283SOL     OW13747   2.211   0.521   4.367
 4283SOL    HW113748   2.284   0.501   4.432
 4283SOL    HW213749   2.146   0.585   4.408
 4284SOL     OW13750   6.474   1.797   3.199
 4284SOL    HW113751   6.453   1.858   3.123
 4284SOL    HW213752   6.562   1.820   3.238
 4285SOL     OW13753   1.103   6.377   4.684
 4285SOL    HW113754   1.065   6.468   4.700
 4285SOL    HW213755   1.096   6.354   4.587
 4286SOL     OW13756   5.697   5.680   0.049
 4286SOL    HW113757   5.653   5.767   0.067
 4286SOL    HW213758   5.741   5.647   0.133
 4287SOL     OW13759   3.933   6.243   5.447
 4287SOL    HW113760   3.959   6.286   5.360
 4287SOL    HW213761   3.997   6.170   5.469
 4288SOL     OW13762   1.666   6.507   2.902
 4288SOL    HW113763   1.661   6.429   2.839
 4288SOL    HW213764   1.751   6.501   2.955
 4289SOL     OW13765   6.326   3.664   0.224
 4289SOL    HW113766   6.404   3.650   0.163
 4289SOL    HW213767   6.262   3.729   0.182
 4290SOL     OW13768   2.338   1.287   3.034
 4290SOL    HW113769   2.268   1.216   3.047
 4290SOL    HW213770   2.293   1.375   3.014
 4291SOL     OW13771   6.645   4.711   1.382
 4291SOL    HW113772   6.640   4.614   1.357
 4291SOL    HW213773   6.695   4.761   1.312
 4292SOL     OW13774   5.549   5.750   5.965
 4292SOL    HW113775   5.557   5.651   5.972
 4292SOL    HW213776   5.478   5.782   6.028
 4293SOL     OW13777   0.322   2.453   6.112
 4293SOL    HW113778   0.403   2.511   6.100
 4293SOL    HW213779   0.340   2.386   6.183
 4294SOL     OW13780   5.058   2.463   5.826
 4294SOL    HW113781   4.997   2.474   5.747
 4294SOL    HW213782   5.081   2.553   5.864
 4295SOL     OW13783   3.777   6.224   5.051
 4295SOL    HW113784   3.731   6.204   5.137
 4295SOL    HW213785   3.709   6.245   4.981
 4296SOL     OW13786   2.656   1.202   2.277
 4296SOL    HW113787   2.706   1.177   2.194
 4296SOL    HW213788   2.672   1.298   2.298
 4297SOL     OW13789   5.871   1.127   6.951
 4297SOL    HW113790   5.879   1.065   6.873
 4297SOL    HW213791   5.829   1.079   0.002
 4298SOL     OW13792   2.802   5.185   1.294
 4298SOL    HW113793   2.729   5.239   1.252
 4298SOL    HW213794   2.772   5.155   1.385
 4299SOL     OW13795   0.984   4.518   5.990
 4299SOL    HW113796   0.891   4.550   5.973
 4299SOL    HW213797   1.042   4.597   6.012
 4300SOL     OW13798   5.608   0.143   5.952
 4300SOL    HW113799   5.661   0.083   6.012
 4300SOL    HW213800   5.665   0.219   5.920
 4301SOL     OW13801   2.629   1.369   0.734
 4301SOL    HW113802   2.531   1.371   0.711
 4301SOL    HW213803   2.675   1.302   0.676
 4302SOL     OW13804   1.101   6.543   6.736
 4302SOL    HW113805   1.141   6.605   6.803
 4302SOL    HW213806   1.056   6.467   6.783
 4303SOL     OW13807   0.004   3.949   1.717
 4303SOL    HW113808   0.044   4.003   1.790
 4303SOL    HW213809   0.020   3.994   1.629
 4304SOL     OW13810   3.309   2.771   5.164
 4304SOL    HW113811   3.376   2.781   5.237
 4304SOL    HW213812   3.356   2.763   5.076
 4305SOL     OW13813   5.866   0.974   5.184
 4305SOL    HW113814   5.931   1.023   5.242
 4305SOL    HW213815   5.786   0.948   5.238
 4306SOL     OW13816   6.115   5.841   6.581
 4306SOL    HW113817   6.214   5.829   6.589
 4306SOL    HW213818   6.093   5.875   6.490
 4307SOL     OW13819   4.995   3.532   0.400
 4307SOL    HW113820   5.032   3.471   0.330
 4307SOL    HW213821   4.925   3.591   0.359
 4308SOL     OW13822   4.004   6.642   5.211
 4308SOL    HW113823   3.934   6.710   5.237
 4308SOL    HW213824   4.093   6.687   5.204
 4309SOL     OW13825   1.395   1.177   1.294
 4309SOL    HW113826   1.315   1.229   1.325
 4309SOL    HW213827   1.438   1.133   1.373
 4310SOL     OW13828   1.648   0.742   2.668
 4310SOL    HW113829   1.688   0.666   2.616
 4310SOL    HW213830   1.671   0.828   2.622
 4311SOL     OW13831   1.700   5.675   4.045
 4311SOL    HW113832   1.629   5.645   4.109
 4311SOL    HW213833   1.726   5.599   3.986
 4312SOL     OW13834   1.360   5.475   1.547
 4312SOL    HW113835   1.313   5.411   1.487
 4312SOL    HW213836   1.383   5.430   1.633
 4313SOL     OW13837   4.809   0.396   1.843
 4313SOL    HW113838   4.745   0.320   1.857
 4313SOL    HW213839   4.786   0.444   1.758
 4314SOL     OW13840   5.413   3.549   2.798
 4314SOL    HW113841   5.382   3.504   2.715
 4314SOL    HW213842   5.394   3.491   2.877
 4315SOL     OW13843   2.266   1.400   2.081
 4315SOL    HW113844   2.200   1.475   2.075
 4315SOL    HW213845   2.322   1.411   2.163
 4316SOL     OW13846   0.351   0.672   2.151
 4316SOL    HW113847   0.444   0.660   2.117
 4316SOL    HW213848   0.306   0.745   2.100
 4317SOL     OW13849   3.918   0.387   3.722
 4317SOL    HW113850   3.890   0.450   3.793
 4317SOL    HW213851   3.965   0.308   3.763
 4318SOL     OW13852   6.903   2.894   4.213
 4318SOL    HW113853   7.000   2.917   4.221
 4318SOL    HW213854   6.893   2.794   4.208
 4319SOL     OW13855   2.669   3.124   5.710
 4319SOL    HW113856   2.756   3.074   5.700
 4319SOL    HW213857   2.680   3.217   5.674
 4320SOL     OW13858   0.444   5.772   3.107
 4320SOL    HW113859   0.493   5.857   3.088
 4320SOL    HW213860   0.451   5.750   3.205
 4321SOL     OW13861   0.185   0.984   4.664
 4321SOL    HW113862   0.098   0.946   4.695
 4321SOL    HW213863   0.260   0.938   4.710
 4322SOL     OW13864   5.796   1.060   0.776
 4322SOL    HW113865   5.814   0.970   0.817
 4322SOL    HW213866   5.878   1.091   0.728
 4323SOL     OW13867   0.049   2.194   3.723
 4323SOL    HW113868   7.016   2.175   3.802
 4323SOL    HW213869   7.022   2.183   3.639
 4324SOL     OW13870   6.164   3.093   6.273
 4324SOL    HW113871   6.158   3.189   6.246
 4324SOL    HW213872   6.114   3.079   6.358
 4325SOL     OW13873   1.830   1.475   5.623
 4325SOL    HW113874   1.910   1.419   5.598
 4325SOL    HW213875   1.854   1.572   5.615
 4326SOL     OW13876   6.368   2.313   5.403
 4326SOL    HW113877   6.397   2.282   5.312
 4326SOL    HW213878   6.415   2.259   5.473
 4327SOL     OW13879   5.141   0.538   3.128
 4327SOL    HW113880   5.095   0.584   3.205
 4327SOL    HW213881   5.238   0.529   3.149
 4328SOL     OW13882   5.277   5.164   0.599
 4328SOL    HW113883   5.192   5.125   0.564
 4328SOL    HW213884   5.350   5.149   0.533
 4329SOL     OW13885   4.695   1.677   6.438
 4329SOL    HW113886   4.663   1.616   6.511
 4329SOL    HW213887   4.623   1.741   6.413
 4330SOL     OW13888   0.411   0.384   6.757
 4330SOL    HW113889   0.452   0.413   6.844
 4330SOL    HW213890   0.421   0.458   6.690
 4331SOL     OW13891   5.321   2.598   0.204
 4331SOL    HW113892   5.380   2.624   0.280
 4331SOL    HW213893   5.362   2.628   0.118
 4332SOL     OW13894   5.189   3.588   1.657
 4332SOL    HW113895   5.221   3.581   1.751
 4332SOL    HW213896   5.246   3.531   1.598
 4333SOL     OW13897   5.581   1.568   5.483
 4333SOL    HW113898   5.523   1.492   5.512
 4333SOL    HW213899   5.657   1.578   5.547
 4334SOL     OW13900   4.634   0.194   1.874
 4334SOL    HW113901   4.552   0.173   1.927
 4334SOL    HW213902   4.706   0.129   1.896
 4335SOL     OW13903   3.851   4.482   5.648
 4335SOL    HW113904   3.812   4.573   5.635
 4335SOL    HW213905   3.878   4.470   5.744
 4336SOL     OW13906   1.630   6.241   4.937
 4336SOL    HW113907   1.565   6.205   5.004
 4336SOL    HW213908   1.659   6.167   4.876
 4337SOL     OW13909   0.815   4.899   0.348
 4337SOL    HW113910   0.776   4.896   0.256
 4337SOL    HW213911   0.896   4.842   0.353
 4338SOL     OW13912   6.277   5.949   3.798
 4338SOL    HW113913   6.211   5.970   3.726
 4338SOL    HW213914   6.269   6.016   3.872
 4339SOL     OW13915   6.459   1.319   6.243
 4339SOL    HW113916   6.463   1.220   6.259
 4339SOL    HW213917   6.425   1.364   6.326
 4340SOL     OW13918   4.897   3.267   2.031
 4340SOL    HW113919   4.897   3.326   1.950
 4340SOL    HW213920   4.897   3.171   2.002
 4341SOL     OW13921   0.811   3.628   6.902
 4341SOL    HW113922   0.893   3.660   6.856
 4341SOL    HW213923   0.791   3.534   6.875
 4342SOL     OW13924   6.762   1.941   2.816
 4342SOL    HW113925   6.674   1.897   2.836
 4342SOL    HW213926   6.836   1.881   2.847
 4343SOL     OW13927   2.189   1.891   1.177
 4343SOL    HW113928   2.272   1.840   1.200
 4343SOL    HW213929   2.213   1.986   1.160
 4344SOL     OW13930   2.184   3.956   2.639
 4344SOL    HW113931   2.181   4.055   2.640
 4344SOL    HW213932   2.149   3.922   2.552
 4345SOL     OW13933   2.493   1.280   6.005
 4345SOL    HW113934   2.581   1.318   5.978
 4345SOL    HW213935   2.502   1.231   6.091
 4346SOL     OW13936   0.248   3.159   1.283
 4346SOL    HW113937   0.221   3.253   1.303
 4346SOL    HW213938   0.187   3.096   1.332
 4347SOL     OW13939   5.935   6.091   2.862
 4347SOL    HW113940   5.951   6.186   2.836
 4347SOL    HW213941   5.910   6.038   2.781
 4348SOL     OW13942   1.043   3.935   6.852
 4348SOL    HW113943   1.016   3.952   6.946
 4348SOL    HW213944   1.125   3.988   6.830
 4349SOL     OW13945   0.131   0.320   2.485
 4349SOL    HW113946   0.155   0.236   2.436
 4349SOL    HW213947   0.159   0.399   2.431
 4350SOL     OW13948   4.817   1.093   3.579
 4350SOL    HW113949   4.768   1.164   3.529
 4350SOL    HW213950   4.761   1.061   3.656
 4351SOL     OW13951   2.715   6.011   0.691
 4351SOL    HW113952   2.746   5.952   0.617
 4351SOL    HW213953   2.617   6.030   0.679
 4352SOL     OW13954   6.269   1.353   2.590
 4352SOL    HW113955   6.276   1.318   2.684
 4352SOL    HW213956   6.173   1.371   2.569
 4353SOL     OW13957   2.869   5.661   1.603
 4353SOL    HW113958   2.903   5.742   1.651
 4353SOL    HW213959   2.916   5.580   1.637
 4354SOL     OW13960   1.949   0.590   1.370
 4354SOL    HW113961   1.911   0.497   1.365
 4354SOL    HW213962   1.889   0.647   1.426
 4355SOL     OW13963   4.714   0.941   0.895
 4355SOL    HW113964   4.641   0.952   0.828
 4355SOL    HW213965   4.676   0.948   0.987
 4356SOL     OW13966   3.688   4.455   0.120
 4356SOL    HW113967   3.740   4.505   0.051
 4356SOL    HW213968   3.596   4.437   0.085
 4357SOL     OW13969   6.738   0.652   6.580
 4357SOL    HW113970   6.732   0.567   6.527
 4357SOL    HW213971   6.811   0.709   6.543
 4358SOL     OW13972   6.442   1.250   1.421
 4358SOL    HW113973   6.344   1.269   1.429
 4358SOL    HW213974   6.494   1.323   1.465
 4359SOL     OW13975   6.630   2.831   4.122
 4359SOL    HW113976   6.696   2.803   4.052
 4359SOL    HW213977   6.657   2.793   4.210
 4360SOL     OW13978   2.246   3.342   1.248
 4360SOL    HW113979   2.331   3.335   1.301
 4360SOL    HW213980   2.243   3.431   1.201
 4361SOL     OW13981   5.369   1.496   2.116
 4361SOL    HW113982   5.463   1.510   2.147
 4361SOL    HW213983   5.306   1.515   2.191
 4362SOL     OW13984   5.379   4.201   3.323
 4362SOL    HW113985   5.312   4.253   3.271
 4362SOL    HW213986   5.470   4.242   3.312
 4363SOL     OW13987   5.296   1.042   6.213
 4363SOL    HW113988   5.353   1.108   6.262
 4363SOL    HW213989   5.200   1.065   6.226
 4364SOL     OW13990   3.396   3.753   5.079
 4364SOL    HW113991   3.373   3.658   5.059
 4364SOL    HW213992   3.403   3.804   4.993
 4365SOL     OW13993   3.585   1.504   0.659
 4365SOL    HW113994   3.540   1.551   0.583
 4365SOL    HW213995   3.655   1.442   0.624
 4366SOL     OW13996   5.217   5.019   1.291
 4366SOL    HW113997   5.254   5.053   1.377
 4366SOL    HW213998   5.248   5.079   1.216
 4367SOL     OW13999   0.185   6.668   0.738
 4367SOL    HW114000   0.148   6.715   0.818
 4367SOL    HW214001   0.284   6.685   0.733
 4368SOL     OW14002   4.844   4.161   2.041
 4368SOL    HW114003   4.839   4.206   1.951
 4368SOL    HW214004   4.751   4.144   2.074
 4369SOL     OW14005   3.194   5.894   1.852
 4369SOL    HW114006   3.101   5.919   1.824
 4369SOL    HW214007   3.255   5.901   1.773
 4370SOL     OW14008   5.843   4.358   2.640
 4370SOL    HW114009   5.832   4.299   2.720
 4370SOL    HW214010   5.873   4.449   2.670
 4371SOL     OW14011   0.392   2.338   2.070
 4371SOL    HW114012   0.353   2.289   1.992
 4371SOL    HW214013   0.334   2.324   2.150
 4372SOL     OW14014   4.569   0.314   3.480
 4372SOL    HW114015   4.512   0.279   3.405
 4372SOL    HW214016   4.511   0.351   3.552
 4373SOL     OW14017   6.659   1.699   6.132
 4373SOL    HW114018   6.696   1.779   6.178
 4373SOL    HW214019   6.660   1.621   6.195
 4374SOL     OW14020   3.442   1.602   1.471
 4374SOL    HW114021   3.441   1.675   1.540
 4374SOL    HW214022   3.377   1.625   1.398
 4375SOL     OW14023   3.782   6.638   3.899
 4375SOL    HW114024   3.849   6.627   3.973
 4375SOL    HW214025   3.706   6.695   3.930
 4376SOL     OW14026   6.512   2.092   4.109
 4376SOL    HW114027   6.491   2.120   4.015
 4376SOL    HW214028   6.611   2.081   4.119
 4377SOL     OW14029   6.584   5.144   6.323
 4377SOL    HW114030   6.641   5.101   6.253
 4377SOL    HW214031   6.543   5.228   6.285
 4378SOL     OW14032   2.505   1.563   3.871
 4378SOL    HW114033   2.528   1.652   3.832
 4378SOL    HW214034   2.573   1.495   3.841
 4379SOL     OW14035   3.016   1.796   5.512
 4379SOL    HW114036   2.969   1.880   5.488
 4379SOL    HW214037   2.953   1.736   5.563
 4380SOL     OW14038   0.485   2.046   2.333
 4380SOL    HW114039   0.534   2.103   2.268
 4380SOL    HW214040   0.399   2.014   2.292
 4381SOL     OW14041   1.990   6.054   6.460
 4381SOL    HW114042   1.904   6.011   6.487
 4381SOL    HW214043   1.972   6.126   6.393
 4382SOL     OW14044   0.433   4.584   4.637
 4382SOL    HW114045   0.529   4.556   4.647
 4382SOL    HW214046   0.374   4.504   4.646
 4383SOL     OW14047   6.176   3.657   6.909
 4383SOL    HW114048   6.217   3.747   6.897
 4383SOL    HW214049   6.249   3.588   6.912
 4384SOL     OW14050   5.567   0.018   3.891
 4384SOL    HW114051   5.549   6.957   3.844
 4384SOL    HW214052   5.549   0.094   3.829
 4385SOL     OW14053   4.752   1.873   5.853
 4385SOL    HW114054   4.822   1.864   5.924
 4385SOL    HW214055   4.768   1.805   5.781
 4386SOL     OW14056   2.061   3.761   4.952
 4386SOL    HW114057   2.054   3.833   5.020
 4386SOL    HW214058   2.027   3.675   4.991
 4387SOL     OW14059   5.704   2.086   0.759
 4387SOL    HW114060   5.700   2.069   0.660
 4387SOL    HW214061   5.770   2.023   0.801
 4388SOL     OW14062   4.947   4.033   6.926
 4388SOL    HW114063   4.980   4.002   7.016
 4388SOL    HW214064   4.848   4.042   6.929
 4389SOL     OW14065   0.842   2.834   0.658
 4389SOL    HW114066   0.934   2.815   0.624
 4389SOL    HW214067   0.779   2.764   0.626
 4390SOL     OW14068   6.975   1.330   0.564
 4390SOL    HW114069   7.020   1.329   0.654
 4390SOL    HW214070   6.935   1.240   0.547
 4391SOL     OW14071   1.139   5.866   0.803
 4391SOL    HW114072   1.051   5.836   0.839
 4391SOL    HW214073   1.212   5.809   0.841
 4392SOL     OW14074   0.860   3.217   5.584
 4392SOL    HW114075   0.951   3.175   5.580
 4392SOL    HW214076   0.870   3.316   5.594
 4393SOL     OW14077   4.931   0.872   1.739
 4393SOL    HW114078   4.995   0.939   1.777
 4393SOL    HW214079   4.897   0.813   1.812
 4394SOL     OW14080   1.034   0.302   2.757
 4394SOL    HW114081   1.042   0.373   2.687
 4394SOL    HW214082   0.947   0.252   2.744
 4395SOL     OW14083   1.944   4.542   1.792
 4395SOL    HW114084   1.850   4.508   1.795
 4395SOL    HW214085   1.999   4.482   1.734
 4396SOL     OW14086   3.083   1.236   2.797
 4396SOL    HW114087   3.133   1.151   2.788
 4396SOL    HW214088   3.105   1.279   2.885
 4397SOL     OW14089   3.181   1.599   4.645
 4397SOL    HW114090   3.159   1.692   4.616
 4397SOL    HW214091   3.125   1.574   4.724
 4398SOL     OW14092   2.028   3.065   5.489
 4398SOL    HW114093   1.962   3.072   5.414
 4398SOL    HW214094   2.120   3.073   5.452
 4399SOL     OW14095   2.486   6.329   1.970
 4399SOL    HW114096   2.533   6.267   1.907
 4399SOL    HW214097   2.518   6.313   2.063
 4400SOL     OW14098   1.905   5.802   4.623
 4400SOL    HW114099   1.996   5.766   4.646
 4400SOL    HW214100   1.878   5.869   4.692
 4401SOL     OW14101   3.450   6.728   6.618
 4401SOL    HW114102   3.371   6.777   6.580
 4401SOL    HW214103   3.512   6.794   6.662
 4402SOL     OW14104   2.042   0.500   3.054
 4402SOL    HW114105   2.035   0.413   3.005
 4402SOL    HW214106   1.971   0.562   3.021
 4403SOL     OW14107   0.374   5.154   1.865
 4403SOL    HW114108   0.387   5.097   1.945
 4403SOL    HW214109   0.436   5.232   1.868
 4404SOL     OW14110   6.984   6.780   6.108
 4404SOL    HW114111   6.962   6.764   6.204
 4404SOL    HW214112   6.931   6.716   6.051
 4405SOL     OW14113   1.798   5.360   2.141
 4405SOL    HW114114   1.763   5.267   2.132
 4405SOL    HW214115   1.752   5.405   2.218
 4406SOL     OW14116   5.720   4.212   2.056
 4406SOL    HW114117   5.632   4.258   2.068
 4406SOL    HW214118   5.791   4.263   2.104
 4407SOL     OW14119   6.293   6.676   1.181
 4407SOL    HW114120   6.306   6.577   1.188
 4407SOL    HW214121   6.206   6.695   1.135
 4408SOL     OW14122   3.950   0.840   0.251
 4408SOL    HW114123   3.925   0.785   0.331
 4408SOL    HW214124   4.046   0.826   0.229
 4409SOL     OW14125   3.085   0.745   3.367
 4409SOL    HW114126   3.026   0.667   3.389
 4409SOL    HW214127   3.161   0.749   3.431
 4410SOL     OW14128   0.362   0.154   0.799
 4410SOL    HW114129   0.341   0.250   0.780
 4410SOL    HW214130   0.278   0.107   0.826
 4411SOL     OW14131   4.256   4.781   5.175
 4411SOL    HW114132   4.250   4.700   5.117
 4411SOL    HW214133   4.224   4.758   5.267
 4412SOL     OW14134   4.114   6.272   1.876
 4412SOL    HW114135   4.174   6.309   1.948
 4412SOL    HW214136   4.166   6.262   1.791
 4413SOL     OW14137   4.710   5.391   4.105
 4413SOL    HW114138   4.739   5.391   4.009
 4413SOL    HW214139   4.617   5.426   4.111
 4414SOL     OW14140   5.398   4.002   1.837
 4414SOL    HW114141   5.312   3.952   1.823
 4414SOL    HW214142   5.392   4.092   1.793
 4415SOL     OW14143   1.707   3.209   1.655
 4415SOL    HW114144   1.681   3.145   1.583
 4415SOL    HW214145   1.638   3.282   1.661
 4416SOL     OW14146   5.087   2.700   3.259
 4416SOL    HW114147   5.158   2.634   3.236
 4416SOL    HW214148   5.006   2.652   3.292
 4417SOL     OW14149   0.062   4.135   1.910
 4417SOL    HW114150   0.089   4.231   1.906
 4417SOL    HW214151   7.021   4.122   1.983
 4418SOL     OW14152   6.571   6.962   5.616
 4418SOL    HW114153   6.492   6.997   5.666
 4418SOL    HW214154   6.566   6.862   5.612
 4419SOL     OW14155   6.750   5.483   6.838
 4419SOL    HW114156   6.695   5.439   6.909
 4419SOL    HW214157   6.689   5.522   6.769
 4420SOL     OW14158   3.793   1.543   1.151
 4420SOL    HW114159   3.868   1.575   1.093
 4420SOL    HW214160   3.752   1.620   1.200
 4421SOL     OW14161   1.824   3.123   0.317
 4421SOL    HW114162   1.899   3.059   0.333
 4421SOL    HW214163   1.742   3.072   0.292
 4422SOL     OW14164   6.405   3.407   6.040
 4422SOL    HW114165   6.427   3.435   6.133
 4422SOL    HW214166   6.484   3.361   5.999
 4423SOL     OW14167   6.600   4.474   5.267
 4423SOL    HW114168   6.530   4.430   5.212
 4423SOL    HW214169   6.632   4.410   5.338
 4424SOL     OW14170   4.818   5.911   2.825
 4424SOL    HW114171   4.916   5.895   2.833
 4424SOL    HW214172   4.792   5.990   2.881
 4425SOL     OW14173   0.905   5.523   1.198
 4425SOL    HW114174   0.818   5.507   1.244
 4425SOL    HW214175   0.953   5.598   1.244
 4426SOL     OW14176   0.464   0.790   4.458
 4426SOL    HW114177   0.521   0.852   4.513
 4426SOL    HW214178   0.371   0.827   4.453
 4427SOL     OW14179   2.055   5.216   2.372
 4427SOL    HW114180   2.127   5.272   2.330
 4427SOL    HW214181   1.973   5.220   2.316
 4428SOL     OW14182   6.319   5.408   3.199
 4428SOL    HW114183   6.283   5.498   3.222
 4428SOL    HW214184   6.272   5.338   3.253
 4429SOL     OW14185   3.184   6.465   3.680
 4429SOL    HW114186   3.227   6.555   3.685
 4429SOL    HW214187   3.109   6.460   3.745
 4430SOL     OW14188   5.766   3.681   5.151
 4430SOL    HW114189   5.785   3.773   5.185
 4430SOL    HW214190   5.826   3.616   5.197
 4431SOL     OW14191   4.154   6.410   4.790
 4431SOL    HW114192   4.198   6.467   4.721
 4431SOL    HW214193   4.089   6.348   4.746
 4432SOL     OW14194   0.838   3.793   5.788
 4432SOL    HW114195   0.801   3.771   5.698
 4432SOL    HW214196   0.813   3.887   5.813
 4433SOL     OW14197   0.687   1.138   4.311
 4433SOL    HW114198   0.647   1.172   4.226
 4433SOL    HW214199   0.624   1.157   4.387
 4434SOL     OW14200   6.951   0.235   2.192
 4434SOL    HW114201   6.951   0.317   2.250
 4434SOL    HW214202   0.018   0.221   2.155
 4435SOL     OW14203   2.511   3.877   0.697
 4435SOL    HW114204   2.567   3.933   0.758
 4435SOL    HW214205   2.557   3.866   0.610
 4436SOL     OW14206   4.461   2.369   2.153
 4436SOL    HW114207   4.362   2.366   2.139
 4436SOL    HW214208   4.480   2.403   2.245
 4437SOL     OW14209   6.685   4.322   0.123
 4437SOL    HW114210   6.607   4.322   0.187
 4437SOL    HW214211   6.659   4.274   0.040
 4438SOL     OW14212   4.288   0.780   4.705
 4438SOL    HW114213   4.193   0.760   4.731
 4438SOL    HW214214   4.337   0.820   4.782
 4439SOL     OW14215   2.696   6.111   3.052
 4439SOL    HW114216   2.672   6.030   3.106
 4439SOL    HW214217   2.613   6.161   3.027
 4440SOL     OW14218   1.577   4.402   6.054
 4440SOL    HW114219   1.657   4.460   6.069
 4440SOL    HW214220   1.532   4.429   5.969
 4441SOL     OW14221   6.848   2.284   0.986
 4441SOL    HW114222   6.934   2.317   1.023
 4441SOL    HW214223   6.805   2.356   0.931
 4442SOL     OW14224   1.722   5.084   0.119
 4442SOL    HW114225   1.773   5.151   0.064
 4442SOL    HW214226   1.627   5.114   0.128
 4443SOL     OW14227   0.629   5.534   5.858
 4443SOL    HW114228   0.608   5.624   5.895
 4443SOL    HW214229   0.719   5.504   5.890
 4444SOL     OW14230   5.906   5.143   0.922
 4444SOL    HW114231   5.912   5.243   0.916
 4444SOL    HW214232   5.837   5.110   0.858
 4445SOL     OW14233   1.409   4.382   0.380
 4445SOL    HW114234   1.335   4.319   0.406
 4445SOL    HW214235   1.374   4.450   0.316
 4446SOL     OW14236   4.444   1.839   1.546
 4446SOL    HW114237   4.528   1.786   1.557
 4446SOL    HW214238   4.466   1.936   1.547
 4447SOL     OW14239   3.750   5.931   5.933
 4447SOL    HW114240   3.696   5.868   5.988
 4447SOL    HW214241   3.746   6.023   5.973
 4448SOL     OW14242   3.376   6.414   1.931
 4448SOL    HW114243   3.298   6.381   1.984
 4448SOL    HW214244   3.448   6.345   1.932
 4449SOL     OW14245   3.681   1.531   5.612
 4449SOL    HW114246   3.725   1.590   5.545
 4449SOL    HW214247   3.583   1.550   5.615
 4450SOL     OW14248   2.436   6.501   0.092
 4450SOL    HW114249   2.453   6.403   0.078
 4450SOL    HW214250   2.519   6.553   0.072
 4451SOL     OW14251   4.542   5.316   3.351
 4451SOL    HW114252   4.444   5.304   3.335
 4451SOL    HW214253   4.572   5.254   3.423
 4452SOL     OW14254   4.812   5.585   4.289
 4452SOL    HW114255   4.912   5.577   4.297
 4452SOL    HW214256   4.776   5.506   4.240
 4453SOL     OW14257   6.836   4.660   0.792
 4453SOL    HW114258   6.810   4.713   0.712
 4453SOL    HW214259   6.755   4.643   0.848
 4454SOL     OW14260   1.474   2.609   0.427
 4454SOL    HW114261   1.470   2.530   0.489
 4454SOL    HW214262   1.388   2.616   0.377
 4455SOL     OW14263   1.776   0.422   4.261
 4455SOL    HW114264   1.800   0.456   4.170
 4455SOL    HW214265   1.857   0.380   4.302
 4456SOL     OW14266   2.297   6.342   3.752
 4456SOL    HW114267   2.221   6.333   3.816
 4456SOL    HW214268   2.350   6.424   3.774
 4457SOL     OW14269   1.655   1.929   4.716
 4457SOL    HW114270   1.690   2.020   4.742
 4457SOL    HW214271   1.647   1.872   4.797
 4458SOL     OW14272   1.370   3.323   6.281
 4458SOL    HW114273   1.366   3.235   6.328
 4458SOL    HW214274   1.305   3.386   6.325
 4459SOL     OW14275   0.991   3.154   2.886
 4459SOL    HW114276   0.894   3.171   2.871
 4459SOL    HW214277   1.045   3.219   2.832
 4460SOL     OW14278   0.062   2.674   4.585
 4460SOL    HW114279   0.031   2.610   4.656
 4460SOL    HW214280   0.018   2.763   4.599
 4461SOL     OW14281   1.877   0.649   0.653
 4461SOL    HW114282   1.872   0.583   0.727
 4461SOL    HW214283   1.830   0.613   0.572
 4462SOL     OW14284   6.333   4.172   2.907
 4462SOL    HW114285   6.288   4.113   2.840
 4462SOL    HW214286   6.269   4.242   2.938
 4463SOL     OW14287   5.639   1.722   0.327
 4463SOL    HW114288   5.540   1.732   0.325
 4463SOL    HW214289   5.677   1.774   0.404
 4464SOL     OW14290   0.516   4.224   1.549
 4464SOL    HW114291   0.543   4.232   1.645
 4464SOL    HW214292   0.464   4.140   1.536
 4465SOL     OW14293   3.629   5.203   1.913
 4465SOL    HW114294   3.558   5.146   1.871
 4465SOL    HW214295   3.656   5.164   2.001
 4466SOL     OW14296   0.457   2.964   2.573
 4466SOL    HW114297   0.512   2.992   2.495
 4466SOL    HW214298   0.392   2.893   2.545
 4467SOL     OW14299   5.484   4.695   2.579
 4467SOL    HW114300   5.427   4.722   2.501
 4467SOL    HW214301   5.508   4.599   2.570
 4468SOL     OW14302   1.506   3.220   1.342
 4468SOL    HW114303   1.591   3.273   1.343
 4468SOL    HW214304   1.450   3.249   1.264
 4469SOL     OW14305   2.176   5.543   1.438
 4469SOL    HW114306   2.118   5.531   1.358
 4469SOL    HW214307   2.121   5.530   1.521
 4470SOL     OW14308   0.785   0.281   2.611
 4470SOL    HW114309   0.814   0.369   2.575
 4470SOL    HW214310   0.685   0.281   2.622
 4471SOL     OW14311   0.986   0.174   6.389
 4471SOL    HW114312   1.066   0.211   6.341
 4471SOL    HW214313   1.007   0.164   6.486
 4472SOL     OW14314   1.788   2.878   0.880
 4472SOL    HW114315   1.799   2.944   0.955
 4472SOL    HW214316   1.874   2.830   0.865
 4473SOL     OW14317   0.485   3.633   4.773
 4473SOL    HW114318   0.564   3.572   4.780
 4473SOL    HW214319   0.431   3.608   4.692
 4474SOL     OW14320   2.854   6.078   1.311
 4474SOL    HW114321   2.810   6.161   1.276
 4474SOL    HW214322   2.801   5.998   1.282
 4475SOL     OW14323   0.848   3.803   0.528
 4475SOL    HW114324   0.806   3.751   0.602
 4475SOL    HW214325   0.776   3.839   0.467
 4476SOL     OW14326   5.604   1.178   3.547
 4476SOL    HW114327   5.533   1.126   3.499
 4476SOL    HW214328   5.571   1.271   3.564
 4477SOL     OW14329   7.004   1.032   4.941
 4477SOL    HW114330   0.046   1.084   4.992
 4477SOL    HW214331   6.959   1.092   4.874
 4478SOL     OW14332   1.485   0.397   1.820
 4478SOL    HW114333   1.540   0.471   1.857
 4478SOL    HW214334   1.404   0.383   1.877
 4479SOL     OW14335   2.035   2.402   6.892
 4479SOL    HW114336   2.005   2.486   6.939
 4479SOL    HW214337   2.090   2.348   6.955
 4480SOL     OW14338   0.808   6.886   3.222
 4480SOL    HW114339   0.778   6.813   3.283
 4480SOL    HW214340   0.895   6.860   3.179
 4481SOL     OW14341   2.006   3.702   5.561
 4481SOL    HW114342   1.953   3.706   5.645
 4481SOL    HW214343   1.945   3.699   5.482
 4482SOL     OW14344   1.853   0.130   1.523
 4482SOL    HW114345   1.841   0.107   1.427
 4482SOL    HW214346   1.766   0.162   1.561
 4483SOL     OW14347   1.600   3.643   0.605
 4483SOL    HW114348   1.647   3.716   0.555
 4483SOL    HW214349   1.597   3.561   0.549
 4484SOL     OW14350   2.828   0.925   6.760
 4484SOL    HW114351   2.907   0.877   6.798
 4484SOL    HW214352   2.841   1.024   6.771
 4485SOL     OW14353   0.068   3.184   5.029
 4485SOL    HW114354   0.047   3.129   5.110
 4485SOL    HW214355   0.167   3.193   5.019
 4486SOL     OW14356   5.241   4.369   4.103
 4486SOL    HW114357   5.287   4.324   4.027
 4486SOL    HW214358   5.154   4.323   4.122
 4487SOL     OW14359   0.592   2.893   6.633
 4487SOL    HW114360   0.514   2.864   6.688
 4487SOL    HW214361   0.640   2.812   6.598
 4488SOL     OW14362   0.055   3.702   3.521
 4488SOL    HW114363   0.003   3.640   3.579
 4488SOL    HW214364   0.016   3.794   3.527
 4489SOL     OW14365   3.344   6.066   6.392
 4489SOL    HW114366   3.350   6.038   6.487
 4489SOL    HW214367   3.430   6.044   6.345
 4490SOL     OW14368   5.313   1.674   1.921
 4490SOL    HW114369   5.324   1.620   2.004
 4490SOL    HW214370   5.349   1.622   1.843
 4491SOL     OW14371   1.212   3.244   3.048
 4491SOL    HW114372   1.169   3.320   3.097
 4491SOL    HW214373   1.142   3.188   3.005
 4492SOL     OW14374   6.805   1.287   2.480
 4492SOL    HW114375   6.706   1.280   2.491
 4492SOL    HW214376   6.841   1.353   2.547
 4493SOL     OW14377   5.051   1.553   5.791
 4493SOL    HW114378   5.093   1.637   5.759
 4493SOL    HW214379   5.116   1.477   5.783
 4494SOL     OW14380   1.727   0.693   2.311
 4494SOL    HW114381   1.702   0.634   2.234
 4494SOL    HW214382   1.713   0.643   2.397
 4495SOL     OW14383   3.911   6.568   1.083
 4495SOL    HW114384   3.972   6.600   1.155
 4495SOL    HW214385   3.951   6.488   1.037
 4496SOL     OW14386   2.611   6.401   5.439
 4496SOL    HW114387   2.537   6.388   5.505
 4496SOL    HW214388   2.699   6.387   5.486
 4497SOL     OW14389   4.157   0.712   6.209
 4497SOL    HW114390   4.229   0.771   6.245
 4497SOL    HW214391   4.100   0.680   6.285
 4498SOL     OW14392   0.598   4.854   4.650
 4498SOL    HW114393   0.543   4.938   4.651
 4498SOL    HW214394   0.538   4.775   4.655
 4499SOL     OW14395   5.999   0.844   2.577
 4499SOL    HW114396   6.016   0.836   2.675
 4499SOL    HW214397   6.048   0.771   2.529
 4500SOL     OW14398   4.001   6.225   0.697
 4500SOL    HW114399   4.024   6.321   0.717
 4500SOL    HW214400   3.930   6.222   0.626
 4501SOL     OW14401   5.807   0.712   2.412
 4501SOL    HW114402   5.767   0.700   2.503
 4501SOL    HW214403   5.840   0.806   2.402
 4502SOL     OW14404   0.672   3.755   6.638
 4502SOL    HW114405   0.766   3.782   6.660
 4502SOL    HW214406   0.608   3.816   6.685
 4503SOL     OW14407   3.681   1.611   2.311
 4503SOL    HW114408   3.690   1.674   2.233
 4503SOL    HW214409   3.738   1.643   2.386
 4504SOL     OW14410   0.922   2.355   3.573
 4504SOL    HW114411   0.953   2.438   3.620
 4504SOL    HW214412   0.993   2.323   3.511
 4505SOL     OW14413   6.119   2.886   3.425
 4505SOL    HW114414   6.175   2.967   3.441
 4505SOL    HW214415   6.117   2.867   3.327
 4506SOL     OW14416   4.187   3.904   6.756
 4506SOL    HW114417   4.175   3.983   6.695
 4506SOL    HW214418   4.189   3.936   6.851
 4507SOL     OW14419   6.070   2.133   3.284
 4507SOL    HW114420   6.009   2.054   3.287
 4507SOL    HW214421   6.163   2.106   3.308
 4508SOL     OW14422   6.475   4.910   0.569
 4508SOL    HW114423   6.489   4.962   0.653
 4508SOL    HW214424   6.433   4.969   0.500
 4509SOL     OW14425   5.774   2.078   2.226
 4509SOL    HW114426   5.801   2.135   2.148
 4509SOL    HW214427   5.712   2.006   2.195
 4510SOL     OW14428   4.427   1.670   4.486
 4510SOL    HW114429   4.334   1.708   4.487
 4510SOL    HW214430   4.422   1.570   4.486
 4511SOL     OW14431   6.919   4.930   6.678
 4511SOL    HW114432   6.927   4.957   6.774
 4511SOL    HW214433   6.885   5.007   6.624
 4512SOL     OW14434   3.237   3.066   5.541
 4512SOL    HW114435   3.192   2.977   5.556
 4512SOL    HW214436   3.207   3.103   5.454
 4513SOL     OW14437   6.953   0.465   0.259
 4513SOL    HW114438   7.015   0.505   0.327
 4513SOL    HW214439   6.961   0.517   0.173
 4514SOL     OW14440   4.737   4.979   6.518
 4514SOL    HW114441   4.643   5.000   6.489
 4514SOL    HW214442   4.799   5.047   6.479
 4515SOL     OW14443   3.993   0.980   6.372
 4515SOL    HW114444   4.034   1.071   6.371
 4515SOL    HW214445   4.027   0.927   6.295
 4516SOL     OW14446   3.183   2.510   5.819
 4516SOL    HW114447   3.176   2.533   5.722
 4516SOL    HW214448   3.267   2.549   5.856
 4517SOL     OW14449   4.347   0.510   4.535
 4517SOL    HW114450   4.330   0.607   4.518
 4517SOL    HW214451   4.379   0.466   4.451
 4518SOL     OW14452   0.197   6.709   1.036
 4518SOL    HW114453   0.130   6.639   1.062
 4518SOL    HW214454   0.191   6.786   1.101
 4519SOL     OW14455   4.806   6.591   6.771
 4519SOL    HW114456   4.895   6.552   6.794
 4519SOL    HW214457   4.771   6.643   6.849
 4520SOL     OW14458   4.853   5.184   5.437
 4520SOL    HW114459   4.816   5.277   5.436
 4520SOL    HW214460   4.868   5.153   5.343
 4521SOL     OW14461   4.418   2.475   3.807
 4521SOL    HW114462   4.351   2.548   3.818
 4521SOL    HW214463   4.418   2.443   3.712
 4522SOL     OW14464   5.666   3.640   3.653
 4522SOL    HW114465   5.578   3.668   3.613
 4522SOL    HW214466   5.711   3.575   3.592
 4523SOL     OW14467   6.954   3.273   6.003
 4523SOL    HW114468   0.026   3.260   5.984
 4523SOL    HW214469   6.937   3.369   6.024
 4524SOL     OW14470   1.982   3.709   2.201
 4524SOL    HW114471   2.032   3.624   2.215
 4524SOL    HW214472   2.026   3.762   2.129
 4525SOL     OW14473   3.865   2.743   5.519
 4525SOL    HW114474   3.889   2.839   5.502
 4525SOL    HW214475   3.803   2.738   5.597
 4526SOL     OW14476   1.300   0.383   5.552
 4526SOL    HW114477   1.296   0.330   5.467
 4526SOL    HW214478   1.264   0.475   5.536
 4527SOL     OW14479   0.303   1.440   3.231
 4527SOL    HW114480   0.244   1.478   3.159
 4527SOL    HW214481   0.286   1.342   3.239
 4528SOL     OW14482   5.119   0.793   4.477
 4528SOL    HW114483   5.121   0.723   4.549
 4528SOL    HW214484   5.128   0.883   4.517
 4529SOL     OW14485   2.091   1.649   3.712
 4529SOL    HW114486   2.142   1.695   3.639
 4529SOL    HW214487   1.993   1.654   3.691
 4530SOL     OW14488   3.644   5.584   6.434
 4530SOL    HW114489   3.692   5.626   6.511
 4530SOL    HW214490   3.710   5.552   6.367
 4531SOL     OW14491   1.612   6.752   5.278
 4531SOL    HW114492   1.520   6.789   5.295
 4531SOL    HW214493   1.648   6.713   5.363
 4532SOL     OW14494   6.484   1.348   2.429
 4532SOL    HW114495   6.503   1.434   2.383
 4532SOL    HW214496   6.408   1.360   2.492
 4533SOL     OW14497   2.968   6.536   1.612
 4533SOL    HW114498   2.992   6.633   1.611
 4533SOL    HW214499   2.880   6.524   1.658
 4534SOL     OW14500   5.514   1.457   4.407
 4534SOL    HW114501   5.587   1.521   4.433
 4534SOL    HW214502   5.553   1.381   4.355
 4535SOL     OW14503   1.783   0.484   6.913
 4535SOL    HW114504   1.743   0.567   6.950
 4535SOL    HW214505   1.821   0.429   6.988
 4536SOL     OW14506   3.951   1.206   5.751
 4536SOL    HW114507   4.007   1.210   5.834
 4536SOL    HW214508   3.959   1.116   5.710
 4537SOL     OW14509   3.321   3.250   3.442
 4537SOL    HW114510   3.315   3.298   3.530
 4537SOL    HW214511   3.357   3.312   3.372
 4538SOL     OW14512   0.910   2.293   0.490
 4538SOL    HW114513   0.866   2.208   0.463
 4538SOL    HW214514   0.862   2.332   0.569
 4539SOL     OW14515   1.649   5.836   4.914
 4539SOL    HW114516   1.677   5.919   4.864
 4539SOL    HW214517   1.652   5.854   5.012
 4540SOL     OW14518   1.611   1.715   0.357
 4540SOL    HW114519   1.609   1.615   0.351
 4540SOL    HW214520   1.700   1.749   0.324
 4541SOL     OW14521   4.072   3.506   0.170
 4541SOL    HW114522   3.984   3.504   0.122
 4541SOL    HW214523   4.082   3.422   0.224
 4542SOL     OW14524   0.477   1.599   6.483
 4542SOL    HW114525   0.497   1.641   6.571
 4542SOL    HW214526   0.480   1.499   6.492
 4543SOL     OW14527   4.133   1.832   0.908
 4543SOL    HW114528   4.078   1.750   0.921
 4543SOL    HW214529   4.211   1.811   0.849
 4544SOL     OW14530   4.664   6.687   0.532
 4544SOL    HW114531   4.578   6.681   0.582
 4544SOL    HW214532   4.736   6.638   0.583
 4545SOL     OW14533   2.755   2.620   5.676
 4545SOL    HW114534   2.681   2.685   5.691
 4545SOL    HW214535   2.737   2.567   5.593
 4546SOL     OW14536   3.953   0.314   6.339
 4546SOL    HW114537   4.024   0.310   6.269
 4546SOL    HW214538   3.993   0.293   6.428
 4547SOL     OW14539   0.474   0.131   0.249
 4547SOL    HW114540   0.404   0.067   0.217
 4547SOL    HW214541   0.554   0.080   0.280
 4548SOL     OW14542   3.218   1.092   2.028
 4548SOL    HW114543   3.167   1.154   2.088
 4548SOL    HW214544   3.183   0.999   2.039
 4549SOL     OW14545   0.226   3.359   4.259
 4549SOL    HW114546   0.289   3.332   4.186
 4549SOL    HW214547   0.132   3.356   4.225
 4550SOL     OW14548   1.881   5.720   5.183
 4550SOL    HW114549   1.899   5.816   5.164
 4550SOL    HW214550   1.960   5.665   5.154
 4551SOL     OW14551   3.500   2.324   6.076
 4551SOL    HW114552   3.539   2.385   6.145
 4551SOL    HW214553   3.406   2.354   6.055
 4552SOL     OW14554   4.738   0.918   0.045
 4552SOL    HW114555   4.684   0.834   0.054
 4552SOL    HW214556   4.782   0.939   0.132
 4553SOL     OW14557   0.454   6.170   0.300
 4553SOL    HW114558   0.488   6.206   0.387
 4553SOL    HW214559   0.432   6.073   0.311
 4554SOL     OW14560   5.973   0.356   3.245
 4554SOL    HW114561   5.879   0.364   3.213
 4554SOL    HW214562   5.986   0.413   3.326
 4555SOL     OW14563   0.740   0.799   1.671
 4555SOL    HW114564   0.764   0.875   1.610
 4555SOL    HW214565   0.642   0.802   1.690
 4556SOL     OW14566   5.331   4.194   3.915
 4556SOL    HW114567   5.416   4.145   3.894
 4556SOL    HW214568   5.254   4.130   3.914
 4557SOL     OW14569   6.839   4.684   4.215
 4557SOL    HW114570   6.866   4.620   4.287
 4557SOL    HW214571   6.759   4.736   4.244
 4558SOL     OW14572   1.476   3.881   5.008
 4558SOL    HW114573   1.518   3.966   5.039
 4558SOL    HW214574   1.417   3.899   4.930
 4559SOL     OW14575   0.163   3.032   3.956
 4559SOL    HW114576   0.225   3.017   3.878
 4559SOL    HW214577   0.094   3.099   3.930
 4560SOL     OW14578   6.253   4.617   3.130
 4560SOL    HW114579   6.277   4.523   3.156
 4560SOL    HW214580   6.336   4.672   3.124
 4561SOL     OW14581   4.291   2.387   4.260
 4561SOL    HW114582   4.314   2.340   4.175
 4561SOL    HW214583   4.310   2.485   4.249
 4562SOL     OW14584   3.668   1.286   0.438
 4562SOL    HW114585   3.641   1.233   0.519
 4562SOL    HW214586   3.725   1.230   0.378
 4563SOL     OW14587   0.792   4.119   1.772
 4563SOL    HW114588   0.824   4.049   1.708
 4563SOL    HW214589   0.704   4.090   1.811
 4564SOL     OW14590   1.972   4.280   2.426
 4564SOL    HW114591   1.873   4.273   2.439
 4564SOL    HW214592   1.995   4.373   2.397
 4565SOL     OW14593   1.674   7.015   5.668
 4565SOL    HW114594   1.711   0.061   5.727
 4565SOL    HW214595   1.706   6.925   5.700
 4566SOL     OW14596   6.985   4.182   3.177
 4566SOL    HW114597   0.057   4.172   3.156
 4566SOL    HW214598   6.974   4.242   3.256
 4567SOL     OW14599   6.938   6.877   6.694
 4567SOL    HW114600   6.982   6.934   6.763
 4567SOL    HW214601   6.841   6.903   6.686
 4568SOL     OW14602   1.068   5.499   3.811
 4568SOL    HW114603   0.993   5.530   3.869
 4568SOL    HW214604   1.072   5.557   3.729
 4569SOL     OW14605   1.498   1.887   2.902
 4569SOL    HW114606   1.417   1.842   2.864
 4569SOL    HW214607   1.473   1.938   2.984
 4570SOL     OW14608   5.224   5.499   1.168
 4570SOL    HW114609   5.275   5.577   1.133
 4570SOL    HW214610   5.160   5.529   1.238
 4571SOL     OW14611   2.549   3.721   5.536
 4571SOL    HW114612   2.449   3.718   5.527
 4571SOL    HW214613   2.579   3.815   5.551
 4572SOL     OW14614   4.076   3.012   1.808
 4572SOL    HW114615   4.165   3.028   1.767
 4572SOL    HW214616   4.028   2.941   1.755
 4573SOL     OW14617   2.614   4.623   0.344
 4573SOL    HW114618   2.685   4.561   0.377
 4573SOL    HW214619   2.584   4.682   0.420
 4574SOL     OW14620   4.615   1.021   2.140
 4574SOL    HW114621   4.615   1.115   2.107
 4574SOL    HW214622   4.583   1.019   2.235
 4575SOL     OW14623   0.061   0.774   5.459
 4575SOL    HW114624   0.009   0.811   5.382
 4575SOL    HW214625   0.004   0.708   5.509
 4576SOL     OW14626   3.496   3.901   6.787
 4576SOL    HW114627   3.433   3.919   6.711
 4576SOL    HW214628   3.526   3.806   6.783
 4577SOL     OW14629   0.571   1.572   1.710
 4577SOL    HW114630   0.599   1.605   1.620
 4577SOL    HW214631   0.471   1.574   1.716
 4578SOL     OW14632   1.666   0.702   2.931
 4578SOL    HW114633   1.666   0.704   2.831
 4578SOL    HW214634   1.572   0.695   2.965
 4579SOL     OW14635   4.545   0.720   3.644
 4579SOL    HW114636   4.583   0.808   3.675
 4579SOL    HW214637   4.596   0.645   3.687
 4580SOL     OW14638   0.568   0.961   0.372
 4580SOL    HW114639   0.476   0.994   0.389
 4580SOL    HW214640   0.624   0.975   0.454
 4581SOL     OW14641   2.743   0.563   0.908
 4581SOL    HW114642   2.644   0.576   0.901
 4581SOL    HW214643   2.762   0.472   0.944
 4582SOL     OW14644   6.882   0.528   3.573
 4582SOL    HW114645   6.905   0.473   3.653
 4582SOL    HW214646   6.926   0.488   3.492
 4583SOL     OW14647   2.081   6.884   0.071
 4583SOL    HW114648   2.122   6.795   0.093
 4583SOL    HW214649   2.151   6.955   0.071
 4584SOL     OW14650   0.129   1.812   4.032
 4584SOL    HW114651   0.189   1.889   4.056
 4584SOL    HW214652   0.184   1.729   4.025
 4585SOL     OW14653   1.828   2.868   2.911
 4585SOL    HW114654   1.868   2.776   2.910
 4585SOL    HW214655   1.848   2.912   2.999
 4586SOL     OW14656   6.400   4.796   6.284
 4586SOL    HW114657   6.429   4.805   6.379
 4586SOL    HW214658   6.317   4.849   6.269
 4587SOL     OW14659   4.148   4.335   5.622
 4587SOL    HW114660   4.120   4.241   5.640
 4587SOL    HW214661   4.123   4.361   5.529
 4588SOL     OW14662   3.147   4.154   6.644
 4588SOL    HW114663   3.153   4.214   6.724
 4588SOL    HW214664   3.221   4.175   6.581
 4589SOL     OW14665   5.828   6.391   2.646
 4589SOL    HW114666   5.741   6.371   2.691
 4589SOL    HW214667   5.859   6.309   2.597
 4590SOL     OW14668   2.831   5.562   1.308
 4590SOL    HW114669   2.769   5.490   1.276
 4590SOL    HW214670   2.884   5.527   1.386
 4591SOL     OW14671   2.559   0.838   5.017
 4591SOL    HW114672   2.466   0.866   4.991
 4591SOL    HW214673   2.606   0.800   4.937
 4592SOL     OW14674   2.649   1.754   3.693
 4592SOL    HW114675   2.737   1.785   3.658
 4592SOL    HW214676   2.576   1.812   3.658
 4593SOL     OW14677   1.341   6.557   4.452
 4593SOL    HW114678   1.324   6.654   4.472
 4593SOL    HW214679   1.333   6.504   4.536
 4594SOL     OW14680   2.030   6.350   4.120
 4594SOL    HW114681   1.981   6.272   4.158
 4594SOL    HW214682   2.009   6.432   4.174
 4595SOL     OW14683   5.682   1.883   6.241
 4595SOL    HW114684   5.747   1.951   6.206
 4595SOL    HW214685   5.728   1.795   6.252
 4596SOL     OW14686   0.967   0.940   2.191
 4596SOL    HW114687   0.930   0.948   2.283
 4596SOL    HW214688   0.928   1.011   2.132
 4597SOL     OW14689   2.393   5.729   0.633
 4597SOL    HW114690   2.347   5.765   0.714
 4597SOL    HW214691   2.468   5.669   0.661
 4598SOL     OW14692   0.886   4.012   0.066
 4598SOL    HW114693   0.824   4.089   0.082
 4598SOL    HW214694   0.835   3.926   0.077
 4599SOL     OW14695   3.374   6.588   2.302
 4599SOL    HW114696   3.420   6.655   2.359
 4599SOL    HW214697   3.423   6.577   2.216
 4600SOL     OW14698   0.012   6.849   6.383
 4600SOL    HW114699   6.989   6.936   6.371
 4600SOL    HW214700   0.014   6.826   6.480
 4601SOL     OW14701   1.786   0.575   5.732
 4601SOL    HW114702   1.718   0.503   5.721
 4601SOL    HW214703   1.856   0.566   5.662
 4602SOL     OW14704   3.430   1.772   6.517
 4602SOL    HW114705   3.421   1.794   6.614
 4602SOL    HW214706   3.347   1.725   6.486
 4603SOL     OW14707   3.829   6.951   1.091
 4603SOL    HW114708   3.884   6.917   1.168
 4603SOL    HW214709   3.884   7.014   1.036
 4604SOL     OW14710   6.937   6.918   3.568
 4604SOL    HW114711   7.021   6.950   3.612
 4604SOL    HW214712   6.961   6.861   3.489
 4605SOL     OW14713   4.271   0.875   1.372
 4605SOL    HW114714   4.317   0.849   1.287
 4605SOL    HW214715   4.312   0.959   1.407
 4606SOL     OW14716   0.079   6.691   5.192
 4606SOL    HW114717   0.075   6.747   5.274
 4606SOL    HW214718   0.098   6.596   5.218
 4607SOL     OW14719   2.039   1.643   0.553
 4607SOL    HW114720   2.106   1.645   0.628
 4607SOL    HW214721   1.955   1.688   0.583
 4608SOL     OW14722   7.017   2.919   4.685
 4608SOL    HW114723   6.924   2.927   4.650
 4608SOL    HW214724   7.016   2.914   4.785
 4609SOL     OW14725   5.172   5.571   6.749
 4609SOL    HW114726   5.079   5.608   6.739
 4609SOL    HW214727   5.202   5.534   6.661
 4610SOL     OW14728   5.084   4.965   0.557
 4610SOL    HW114729   5.078   4.959   0.656
 4610SOL    HW214730   5.001   4.927   0.516
 4611SOL     OW14731   0.082   1.357   6.562
 4611SOL    HW114732   0.147   1.283   6.546
 4611SOL    HW214733   0.095   1.393   6.654
 4612SOL     OW14734   2.449   1.271   2.591
 4612SOL    HW114735   2.492   1.204   2.530
 4612SOL    HW214736   2.462   1.242   2.686
 4613SOL     OW14737   1.280   5.412   1.829
 4613SOL    HW114738   1.240   5.342   1.770
 4613SOL    HW214739   1.277   5.381   1.924
 4614SOL     OW14740   6.995   4.518   3.608
 4614SOL    HW114741   0.052   4.573   3.601
 4614SOL    HW214742   6.931   4.561   3.672
 4615SOL     OW14743   1.503   4.432   6.438
 4615SOL    HW114744   1.434   4.453   6.507
 4615SOL    HW214745   1.577   4.499   6.443
 4616SOL     OW14746   1.509   3.736   6.288
 4616SOL    HW114747   1.558   3.802   6.345
 4616SOL    HW214748   1.420   3.715   6.330
 4617SOL     OW14749   6.664   3.185   3.376
 4617SOL    HW114750   6.683   3.206   3.280
 4617SOL    HW214751   6.638   3.089   3.384
 4618SOL     OW14752   2.202   3.431   5.648
 4618SOL    HW114753   2.168   3.468   5.561
 4618SOL    HW214754   2.289   3.384   5.632
 4619SOL     OW14755   4.415   6.053   6.311
 4619SOL    HW114756   4.351   6.038   6.236
 4619SOL    HW214757   4.479   5.976   6.315
 4620SOL     OW14758   0.761   4.279   1.354
 4620SOL    HW114759   0.696   4.247   1.423
 4620SOL    HW214760   0.721   4.269   1.264
 4621SOL     OW14761   3.118   0.488   2.526
 4621SOL    HW114762   3.192   0.477   2.593
 4621SOL    HW214763   3.157   0.502   2.435
 4622SOL     OW14764   5.137   0.165   0.616
 4622SOL    HW114765   5.197   0.132   0.688
 4622SOL    HW214766   5.115   0.090   0.553
 4623SOL     OW14767   3.183   4.891   2.501
 4623SOL    HW114768   3.193   4.880   2.403
 4623SOL    HW214769   3.102   4.946   2.521
 4624SOL     OW14770   5.176   1.615   1.628
 4624SOL    HW114771   5.276   1.619   1.629
 4624SOL    HW214772   5.145   1.587   1.537
 4625SOL     OW14773   1.488   5.948   1.659
 4625SOL    HW114774   1.477   5.887   1.737
 4625SOL    HW214775   1.401   5.956   1.610
 4626SOL     OW14776   4.165   3.378   1.978
 4626SOL    HW114777   4.142   3.450   1.912
 4626SOL    HW214778   4.247   3.405   2.029
 4627SOL     OW14779   5.328   0.159   4.626
 4627SOL    HW114780   5.283   0.094   4.566
 4627SOL    HW214781   5.416   0.186   4.587
 4628SOL     OW14782   5.987   4.619   2.995
 4628SOL    HW114783   5.920   4.602   3.066
 4628SOL    HW214784   6.079   4.621   3.035
 4629SOL     OW14785   1.570   5.382   0.063
 4629SOL    HW114786   1.503   5.375   7.015
 4629SOL    HW214787   1.524   5.372   0.152
 4630SOL     OW14788   1.889   3.697   1.390
 4630SOL    HW114789   1.937   3.614   1.416
 4630SOL    HW214790   1.887   3.705   1.290
 4631SOL     OW14791   6.524   0.797   3.045
 4631SOL    HW114792   6.572   0.860   2.984
 4631SOL    HW214793   6.567   0.799   3.135
 4632SOL     OW14794   2.990   5.009   3.363
 4632SOL    HW114795   2.982   4.944   3.287
 4632SOL    HW214796   3.018   4.960   3.446
 4633SOL     OW14797   4.538   2.539   4.577
 4633SOL    HW114798   4.605   2.597   4.531
 4633SOL    HW214799   4.582   2.487   4.650
 4634SOL     OW14800   3.902   3.042   4.680
 4634SOL    HW114801   3.892   2.973   4.752
 4634SOL    HW214802   3.861   3.007   4.596
 4635SOL     OW14803   4.721   5.842   2.566
 4635SOL    HW114804   4.677   5.755   2.587
 4635SOL    HW214805   4.796   5.859   2.630
 4636SOL     OW14806   1.739   5.936   6.493
 4636SOL    HW114807   1.670   5.965   6.426
 4636SOL    HW214808   1.718   5.842   6.523
 4637SOL     OW14809   2.327   2.187   3.146
 4637SOL    HW114810   2.314   2.286   3.151
 4637SOL    HW214811   2.400   2.165   3.082
 4638SOL     OW14812   3.852   4.786   0.472
 4638SOL    HW114813   3.824   4.698   0.434
 4638SOL    HW214814   3.920   4.828   0.412
 4639SOL     OW14815   3.739   1.933   1.779
 4639SOL    HW114816   3.766   2.018   1.733
 4639SOL    HW214817   3.668   1.953   1.847
 4640SOL     OW14818   6.322   3.208   0.537
 4640SOL    HW114819   6.332   3.272   0.612
 4640SOL    HW214820   6.321   3.258   0.450
 4641SOL     OW14821   1.874   5.521   4.593
 4641SOL    HW114822   1.858   5.620   4.597
 4641SOL    HW214823   1.878   5.485   4.687
 4642SOL     OW14824   6.163   1.507   5.523
 4642SOL    HW114825   6.198   1.495   5.616
 4642SOL    HW214826   6.146   1.604   5.505
 4643SOL     OW14827   0.169   1.726   0.375
 4643SOL    HW114828   0.162   1.771   0.464
 4643SOL    HW214829   0.256   1.750   0.332
 4644SOL     OW14830   1.003   0.304   0.405
 4644SOL    HW114831   0.954   0.217   0.401
 4644SOL    HW214832   1.026   0.326   0.500
 4645SOL     OW14833   6.226   1.862   4.948
 4645SOL    HW114834   6.166   1.901   5.017
 4645SOL    HW214835   6.239   1.929   4.874
 4646SOL     OW14836   2.202   3.863   2.891
 4646SOL    HW114837   2.223   3.893   2.798
 4646SOL    HW214838   2.286   3.835   2.937
 4647SOL     OW14839   1.921   6.119   1.921
 4647SOL    HW114840   1.889   6.039   1.870
 4647SOL    HW214841   1.885   6.115   2.015
 4648SOL     OW14842   3.036   1.000   4.696
 4648SOL    HW114843   3.077   1.044   4.616
 4648SOL    HW214844   2.943   0.971   4.673
 4649SOL     OW14845   5.982   1.851   0.481
 4649SOL    HW114846   5.899   1.903   0.501
 4649SOL    HW214847   5.957   1.762   0.442
 4650SOL     OW14848   4.554   5.828   1.365
 4650SOL    HW114849   4.631   5.795   1.310
 4650SOL    HW214850   4.588   5.872   1.448
 4651SOL     OW14851   0.177   3.868   6.285
 4651SOL    HW114852   0.102   3.935   6.290
 4651SOL    HW214853   0.176   3.811   6.367
 4652SOL     OW14854   6.792   0.050   5.754
 4652SOL    HW114855   6.873   7.022   5.729
 4652SOL    HW214856   6.717   0.028   5.692
 4653SOL     OW14857   6.960   5.644   0.973
 4653SOL    HW114858   6.912   5.556   0.973
 4653SOL    HW214859   0.008   5.642   0.905
 4654SOL     OW14860   0.745   1.075   5.780
 4654SOL    HW114861   0.808   1.004   5.748
 4654SOL    HW214862   0.708   1.124   5.701
 4655SOL     OW14863   5.289   3.371   2.637
 4655SOL    HW114864   5.277   3.272   2.642
 4655SOL    HW214865   5.327   3.395   2.548
 4656SOL     OW14866   6.278   1.223   2.271
 4656SOL    HW114867   6.333   1.179   2.200
 4656SOL    HW214868   6.336   1.241   2.351
 4657SOL     OW14869   3.816   1.670   3.080
 4657SOL    HW114870   3.906   1.633   3.054
 4657SOL    HW214871   3.790   1.742   3.016
 4658SOL     OW14872   1.377   1.924   6.515
 4658SOL    HW114873   1.461   1.927   6.460
 4658SOL    HW214874   1.397   1.956   6.607
 4659SOL     OW14875   2.070   4.616   0.613
 4659SOL    HW114876   2.166   4.601   0.637
 4659SOL    HW214877   2.022   4.529   0.613
 4660SOL     OW14878   0.733   5.418   3.852
 4660SOL    HW114879   0.671   5.345   3.878
 4660SOL    HW214880   0.736   5.487   3.924
 4661SOL     OW14881   0.959   1.677   5.751
 4661SOL    HW114882   0.991   1.766   5.782
 4661SOL    HW214883   1.017   1.645   5.676
 4662SOL     OW14884   2.539   0.227   6.104
 4662SOL    HW114885   2.500   0.142   6.069
 4662SOL    HW214886   2.489   0.305   6.066
 4663SOL     OW14887   1.120   6.575   0.687
 4663SOL    HW114888   1.051   6.524   0.738
 4663SOL    HW214889   1.083   6.665   0.663
 4664SOL     OW14890   5.880   6.824   5.948
 4664SOL    HW114891   5.939   6.892   5.992
 4664SOL    HW214892   5.933   6.742   5.928
 4665SOL     OW14893   0.101   0.404   3.083
 4665SOL    HW114894   0.191   0.380   3.119
 4665SOL    HW214895   0.100   0.500   3.057
 4666SOL     OW14896   1.713   2.355   6.053
 4666SOL    HW114897   1.658   2.359   5.970
 4666SOL    HW214898   1.690   2.432   6.112
 4667SOL     OW14899   6.814   3.264   0.812
 4667SOL    HW114900   6.766   3.224   0.889
 4667SOL    HW214901   6.912   3.245   0.820
 4668SOL     OW14902   4.435   2.183   4.671
 4668SOL    HW114903   4.416   2.279   4.651
 4668SOL    HW214904   4.430   2.129   4.587
 4669SOL     OW14905   5.057   6.980   6.736
 4669SOL    HW114906   5.111   6.911   6.687
 4669SOL    HW214907   5.095   0.045   6.717
 4670SOL     OW14908   0.258   3.490   6.586
 4670SOL    HW114909   0.211   3.411   6.547
 4670SOL    HW214910   0.357   3.472   6.590
 4671SOL     OW14911   0.002   2.891   2.168
 4671SOL    HW114912   6.959   2.961   2.150
 4671SOL    HW214913   0.091   2.934   2.180
 4672SOL     OW14914   3.010   3.935   0.048
 4672SOL    HW114915   2.964   3.884   0.120
 4672SOL    HW214916   3.000   3.887   6.987
 4673SOL     OW14917   6.069   0.575   0.671
 4673SOL    HW114918   6.137   0.572   0.597
 4673SOL    HW214919   6.046   0.482   0.699
 4674SOL     OW14920   1.178   3.252   0.867
 4674SOL    HW114921   1.257   3.190   0.869
 4674SOL    HW214922   1.137   3.256   0.958
 4675SOL     OW14923   1.881   5.461   6.664
 4675SOL    HW114924   1.852   5.501   6.751
 4675SOL    HW214925   1.948   5.521   6.621
 4676SOL     OW14926   0.542   6.133   4.696
 4676SOL    HW114927   0.560   6.123   4.599
 4676SOL    HW214928   0.519   6.044   4.735
 4677SOL     OW14929   4.183   6.914   0.130
 4677SOL    HW114930   4.192   6.915   0.229
 4677SOL    HW214931   4.145   6.826   0.101
 4678SOL     OW14932   2.291   4.277   0.549
 4678SOL    HW114933   2.305   4.179   0.562
 4678SOL    HW214934   2.366   4.327   0.594
 4679SOL     OW14935   2.264   6.632   5.847
 4679SOL    HW114936   2.326   6.640   5.769
 4679SOL    HW214937   2.301   6.682   5.925
 4680SOL     OW14938   1.184   4.954   7.000
 4680SOL    HW114939   1.108   5.002   0.019
 4680SOL    HW214940   1.187   4.980   6.904
 4681SOL     OW14941   6.570   5.608   4.871
 4681SOL    HW114942   6.476   5.630   4.896
 4681SOL    HW214943   6.601   5.670   4.798
 4682SOL     OW14944   2.788   6.310   0.730
 4682SOL    HW114945   2.809   6.338   0.824
 4682SOL    HW214946   2.740   6.223   0.731
 4683SOL     OW14947   0.312   4.513   2.955
 4683SOL    HW114948   0.289   4.485   2.861
 4683SOL    HW214949   0.347   4.434   3.005
 4684SOL     OW14950   1.702   1.262   5.060
 4684SOL    HW114951   1.795   1.242   5.031
 4684SOL    HW214952   1.644   1.182   5.042
 4685SOL     OW14953   5.007   4.905   5.183
 4685SOL    HW114954   5.087   4.964   5.196
 4685SOL    HW214955   5.022   4.817   5.228
 4686SOL     OW14956   5.051   5.902   0.334
 4686SOL    HW114957   5.061   5.827   0.399
 4686SOL    HW214958   5.066   5.868   0.241
 4687SOL     OW14959   4.939   6.722   4.471
 4687SOL    HW114960   5.039   6.717   4.473
 4687SOL    HW214961   4.900   6.636   4.505
 4688SOL     OW14962   0.482   1.855   0.536
 4688SOL    HW114963   0.569   1.842   0.490
 4688SOL    HW214964   0.459   1.772   0.588
 4689SOL     OW14965   1.780   4.961   5.054
 4689SOL    HW114966   1.721   4.900   5.107
 4689SOL    HW214967   1.843   4.906   4.999
 4690SOL     OW14968   1.226   1.360   0.732
 4690SOL    HW114969   1.200   1.279   0.680
 4690SOL    HW214970   1.272   1.425   0.672
 4691SOL     OW14971   4.032   4.821   0.258
 4691SOL    HW114972   3.985   4.838   0.171
 4691SOL    HW214973   4.122   4.866   0.256
 4692SOL     OW14974   0.595   5.940   3.373
 4692SOL    HW114975   0.688   5.907   3.389
 4692SOL    HW214976   0.590   6.037   3.396
 4693SOL     OW14977   0.840   0.611   3.397
 4693SOL    HW114978   0.768   0.630   3.331
 4693SOL    HW214979   0.882   0.697   3.426
 4694SOL     OW14980   1.381   0.954   5.694
 4694SOL    HW114981   1.377   1.018   5.772
 4694SOL    HW214982   1.448   0.987   5.628
 4695SOL     OW14983   3.154   2.860   1.958
 4695SOL    HW114984   3.118   2.801   2.030
 4695SOL    HW214985   3.172   2.951   1.994
 4696SOL     OW14986   5.959   3.334   0.173
 4696SOL    HW114987   5.948   3.427   0.140
 4696SOL    HW214988   5.935   3.269   0.101
 4697SOL     OW14989   1.336   5.824   6.689
 4697SOL    HW114990   1.405   5.788   6.753
 4697SOL    HW214991   1.377   5.895   6.632
 4698SOL     OW14992   6.299   3.281   2.397
 4698SOL    HW114993   6.224   3.307   2.457
 4698SOL    HW214994   6.342   3.364   2.360
 4699SOL     OW14995   6.882   6.733   3.234
 4699SOL    HW114996   6.795   6.700   3.197
 4699SOL    HW214997   6.877   6.831   3.248
 4700SOL     OW14998   5.703   6.498   0.290
 4700SOL    HW114999   5.789   6.547   0.305
 4700SOL    HW215000   5.649   6.546   0.221
 4701SOL     OW15001   0.896   0.783   0.007
 4701SOL    HW115002   0.812   0.766   0.059
 4701SOL    HW215003   0.906   0.714   6.961
 4702SOL     OW15004   2.942   3.514   0.124
 4702SOL    HW115005   3.010   3.570   0.170
 4702SOL    HW215006   2.919   3.556   0.036
 4703SOL     OW15007   0.892   1.174   1.869
 4703SOL    HW115008   0.815   1.208   1.816
 4703SOL    HW215009   0.871   1.083   1.904
 4704SOL     OW15010   4.516   6.878   0.143
 4704SOL    HW115011   4.457   6.903   0.220
 4704SOL    HW215012   4.607   6.856   0.178
 4705SOL     OW15013   3.128   4.035   4.425
 4705SOL    HW115014   3.075   4.069   4.502
 4705SOL    HW215015   3.180   3.954   4.453
 4706SOL     OW15016   4.779   5.002   0.749
 4706SOL    HW115017   4.869   5.009   0.793
 4706SOL    HW215018   4.707   5.015   0.817
 4707SOL     OW15019   3.361   5.904   1.326
 4707SOL    HW115020   3.297   5.829   1.338
 4707SOL    HW215021   3.328   5.985   1.375
 4708SOL     OW15022   1.903   2.985   2.664
 4708SOL    HW115023   1.879   2.955   2.572
 4708SOL    HW215024   1.848   2.936   2.731
 4709SOL     OW15025   2.973   4.177   0.578
 4709SOL    HW115026   3.048   4.134   0.627
 4709SOL    HW215027   2.978   4.152   0.481
 4710SOL     OW15028   4.761   3.029   1.345
 4710SOL    HW115029   4.758   2.942   1.395
 4710SOL    HW215030   4.756   3.105   1.409
 4711SOL     OW15031   2.750   6.895   3.255
 4711SOL    HW115032   2.724   6.848   3.338
 4711SOL    HW215033   2.796   6.831   3.193
 4712SOL     OW15034   1.633   4.121   6.559
 4712SOL    HW115035   1.620   4.195   6.492
 4712SOL    HW215036   1.560   4.124   6.627
 4713SOL     OW15037   1.454   5.589   0.807
 4713SOL    HW115038   1.453   5.683   0.771
 4713SOL    HW215039   1.548   5.556   0.811
 4714SOL     OW15040   3.659   2.096   0.814
 4714SOL    HW115041   3.717   2.088   0.895
 4714SOL    HW215042   3.667   2.013   0.760
 4715SOL     OW15043   5.125   4.005   4.802
 4715SOL    HW115044   5.173   3.924   4.769
 4715SOL    HW215045   5.079   4.050   4.726
 4716SOL     OW15046   2.403   5.030   0.211
 4716SOL    HW115047   2.382   5.070   0.122
 4716SOL    HW215048   2.393   5.100   0.282
 4717SOL     OW15049   1.923   5.168   3.866
 4717SOL    HW115050   2.002   5.141   3.921
 4717SOL    HW215051   1.913   5.103   3.790
 4718SOL     OW15052   5.462   1.186   6.959
 4718SOL    HW115053   5.522   1.160   6.884
 4718SOL    HW215054   5.497   1.269   7.003
 4719SOL     OW15055   4.699   3.183   1.618
 4719SOL    HW115056   4.659   3.128   1.691
 4719SOL    HW215057   4.778   3.233   1.653
 4720SOL     OW15058   3.004   1.176   3.868
 4720SOL    HW115059   2.981   1.145   3.960
 4720SOL    HW215060   2.993   1.101   3.803
 4721SOL     OW15061   1.153   1.891   0.903
 4721SOL    HW115062   1.171   1.797   0.874
 4721SOL    HW215063   1.215   1.916   0.977
 4722SOL     OW15064   3.059   0.822   2.471
 4722SOL    HW115065   3.121   0.844   2.546
 4722SOL    HW215066   3.104   0.756   2.409
 4723SOL     OW15067   3.097   0.173   5.606
 4723SOL    HW115068   3.149   0.210   5.528
 4723SOL    HW215069   3.063   0.082   5.582
 4724SOL     OW15070   4.599   4.648   1.553
 4724SOL    HW115071   4.609   4.607   1.462
 4724SOL    HW215072   4.531   4.597   1.605
 4725SOL     OW15073   5.772   5.248   3.058
 4725SOL    HW115074   5.808   5.267   2.967
 4725SOL    HW215075   5.672   5.252   3.056
 4726SOL     OW15076   0.430   6.315   5.130
 4726SOL    HW115077   0.416   6.333   5.033
 4726SOL    HW215078   0.501   6.245   5.142
 4727SOL     OW15079   5.968   6.129   0.598
 4727SOL    HW115080   6.019   6.051   0.636
 4727SOL    HW215081   5.901   6.161   0.665
 4728SOL     OW15082   7.011   0.864   6.749
 4728SOL    HW115083   6.985   0.813   6.831
 4728SOL    HW215084   0.072   0.911   6.764
 4729SOL     OW15085   2.919   0.671   0.403
 4729SOL    HW115086   2.925   0.656   0.502
 4729SOL    HW215087   2.862   0.750   0.385
 4730SOL     OW15088   2.095   0.477   5.462
 4730SOL    HW115089   2.085   0.418   5.542
 4730SOL    HW215090   2.167   0.440   5.402
 4731SOL     OW15091   5.287   1.990   6.745
 4731SOL    HW115092   5.214   2.049   6.781
 4731SOL    HW215093   5.268   1.895   6.770
 4732SOL     OW15094   6.933   1.447   0.096
 4732SOL    HW115095   7.016   1.421   0.145
 4732SOL    HW215096   6.957   1.481   0.005
 4733SOL     OW15097   6.904   3.331   3.857
 4733SOL    HW115098   6.918   3.259   3.924
 4733SOL    HW215099   6.879   3.291   3.769
 4734SOL     OW15100   5.037   4.577   6.006
 4734SOL    HW115101   5.111   4.511   6.011
 4734SOL    HW215102   5.014   4.609   6.098
 4735SOL     OW15103   0.346   4.293   3.770
 4735SOL    HW115104   0.366   4.389   3.749
 4735SOL    HW215105   0.430   4.247   3.799
 4736SOL     OW15106   2.295   0.165   1.107
 4736SOL    HW115107   2.282   0.258   1.139
 4736SOL    HW215108   2.234   0.148   1.029
 4737SOL     OW15109   3.418   5.084   1.810
 4737SOL    HW115110   3.365   5.169   1.810
 4737SOL    HW215111   3.361   5.009   1.844
 4738SOL     OW15112   6.955   6.405   2.740
 4738SOL    HW115113   6.875   6.366   2.695
 4738SOL    HW215114   6.926   6.462   2.817
 4739SOL     OW15115   4.211   6.711   1.773
 4739SOL    HW115116   4.134   6.773   1.754
 4739SOL    HW215117   4.260   6.744   1.854
 4740SOL     OW15118   0.496   2.003   3.885
 4740SOL    HW115119   0.466   1.966   3.973
 4740SOL    HW215120   0.562   1.940   3.843
 4741SOL     OW15121   3.949   3.505   1.551
 4741SOL    HW115122   3.851   3.515   1.566
 4741SOL    HW215123   3.984   3.430   1.607
 4742SOL     OW15124   4.133   0.886   0.512
 4742SOL    HW115125   4.166   0.808   0.565
 4742SOL    HW215126   4.060   0.932   0.563
 4743SOL     OW15127   1.647   6.279   0.560
 4743SOL    HW115128   1.571   6.229   0.520
 4743SOL    HW215129   1.676   6.352   0.498
 4744SOL     OW15130   1.768   5.690   1.629
 4744SOL    HW115131   1.696   5.689   1.699
 4744SOL    HW215132   1.751   5.617   1.563
 4745SOL     OW15133   1.820   3.518   0.143
 4745SOL    HW115134   1.884   3.535   0.218
 4745SOL    HW215135   1.809   3.601   0.089
 4746SOL     OW15136   5.096   5.829   3.868
 4746SOL    HW115137   5.020   5.894   3.869
 4746SOL    HW215138   5.170   5.863   3.926
 4747SOL     OW15139   2.993   0.717   6.414
 4747SOL    HW115140   3.076   0.753   6.456
 4747SOL    HW215141   2.976   0.624   6.446
 4748SOL     OW15142   1.821   6.734   1.799
 4748SOL    HW115143   1.766   6.652   1.817
 4748SOL    HW215144   1.905   6.730   1.854
 4749SOL     OW15145   2.046   1.936   0.695
 4749SOL    HW115146   1.956   1.898   0.712
 4749SOL    HW215147   2.063   2.010   0.760
 4750SOL     OW15148   4.377   3.343   5.891
 4750SOL    HW115149   4.385   3.438   5.861
 4750SOL    HW215150   4.458   3.318   5.944
 4751SOL     OW15151   4.820   1.665   3.128
 4751SOL    HW115152   4.867   1.675   3.040
 4751SOL    HW215153   4.726   1.634   3.112
 4752SOL     OW15154   5.784   1.603   6.592
 4752SOL    HW115155   5.877   1.638   6.582
 4752SOL    HW215156   5.719   1.679   6.585
 4753SOL     OW15157   3.023   6.493   4.857
 4753SOL    HW115158   3.047   6.586   4.831
 4753SOL    HW215159   3.105   6.437   4.863
 4754SOL     OW15160   4.750   4.278   0.071
 4754SOL    HW115161   4.786   4.340   0.001
 4754SOL    HW215162   4.819   4.267   0.143
 4755SOL     OW15163   0.666   1.241   0.764
 4755SOL    HW115164   0.765   1.246   0.766
 4755SOL    HW215165   0.635   1.176   0.834
 4756SOL     OW15166   0.276   3.954   5.533
 4756SOL    HW115167   0.238   4.042   5.564
 4756SOL    HW215168   0.250   3.939   5.438
 4757SOL     OW15169   2.310   3.466   0.033
 4757SOL    HW115170   2.221   3.422   0.046
 4757SOL    HW215171   2.382   3.407   0.069
 4758SOL     OW15172   2.463   5.447   3.191
 4758SOL    HW115173   2.558   5.467   3.166
 4758SOL    HW215174   2.438   5.356   3.157
 4759SOL     OW15175   0.522   6.237   2.144
 4759SOL    HW115176   0.589   6.311   2.141
 4759SOL    HW215177   0.566   6.154   2.178
 4760SOL     OW15178   1.665   5.893   0.906
 4760SOL    HW115179   1.653   5.894   1.005
 4760SOL    HW215180   1.577   5.910   0.861
 4761SOL     OW15181   5.124   6.769   1.900
 4761SOL    HW115182   5.048   6.707   1.920
 4761SOL    HW215183   5.201   6.747   1.960
 4762SOL     OW15184   1.698   0.435   3.030
 4762SOL    HW115185   1.625   0.400   2.971
 4762SOL    HW215186   1.703   0.535   3.021
 4763SOL     OW15187   5.505   5.659   2.029
 4763SOL    HW115188   5.538   5.565   2.026
 4763SOL    HW215189   5.562   5.712   2.091
 4764SOL     OW15190   4.819   3.105   0.229
 4764SOL    HW115191   4.803   3.184   0.170
 4764SOL    HW215192   4.909   3.114   0.273
 4765SOL     OW15193   4.128   2.136   5.903
 4765SOL    HW115194   4.110   2.061   5.967
 4765SOL    HW215195   4.174   2.100   5.822
 4766SOL     OW15196   1.177   1.048   4.527
 4766SOL    HW115197   1.246   1.114   4.497
 4766SOL    HW215198   1.108   1.037   4.456
 4767SOL     OW15199   1.907   4.901   3.482
 4767SOL    HW115200   1.974   4.844   3.530
 4767SOL    HW215201   1.892   4.985   3.534
 4768SOL     OW15202   4.800   2.254   6.269
 4768SOL    HW115203   4.853   2.247   6.185
 4768SOL    HW215204   4.791   2.351   6.295
 4769SOL     OW15205   1.537   3.307   0.682
 4769SOL    HW115206   1.470   3.240   0.651
 4769SOL    HW215207   1.624   3.291   0.636
 4770SOL     OW15208   6.872   1.433   3.581
 4770SOL    HW115209   6.931   1.509   3.555
 4770SOL    HW215210   6.825   1.455   3.666
 4771SOL     OW15211   1.870   0.598   3.781
 4771SOL    HW115212   1.831   0.678   3.827
 4771SOL    HW215213   1.800   0.526   3.775
 4772SOL     OW15214   2.721   5.450   3.116
 4772SOL    HW115215   2.717   5.352   3.096
 4772SOL    HW215216   2.780   5.465   3.196
 4773SOL     OW15217   2.993   5.226   4.689
 4773SOL    HW115218   3.025   5.273   4.607
 4773SOL    HW215219   3.034   5.134   4.692
 4774SOL     OW15220   1.016   4.079   0.835
 4774SOL    HW115221   1.080   4.117   0.901
 4774SOL    HW215222   1.037   3.982   0.821
 4775SOL     OW15223   5.706   5.504   5.086
 4775SOL    HW115224   5.703   5.536   4.991
 4775SOL    HW215225   5.767   5.564   5.138
 4776SOL     OW15226   0.424   1.590   4.929
 4776SOL    HW115227   0.451   1.659   4.863
 4776SOL    HW215228   0.327   1.568   4.917
 4777SOL     OW15229   1.460   6.730   3.282
 4777SOL    HW115230   1.361   6.728   3.267
 4777SOL    HW215231   1.487   6.650   3.335
 4778SOL     OW15232   1.635   0.653   6.734
 4778SOL    HW115233   1.558   0.668   6.796
 4778SOL    HW215234   1.693   0.580   6.769
 4779SOL     OW15235   4.820   0.870   4.797
 4779SOL    HW115236   4.773   0.922   4.726
 4779SOL    HW215237   4.829   0.775   4.768
 4780SOL     OW15238   5.004   2.932   4.692
 4780SOL    HW115239   4.988   2.834   4.682
 4780SOL    HW215240   5.101   2.952   4.678
 4781SOL     OW15241   1.103   4.997   1.913
 4781SOL    HW115242   1.014   5.042   1.904
 4781SOL    HW215243   1.099   4.929   1.986
 4782SOL     OW15244   0.212   6.363   4.188
 4782SOL    HW115245   0.148   6.402   4.255
 4782SOL    HW215246   0.229   6.267   4.211
 4783SOL     OW15247   6.968   3.548   6.016
 4783SOL    HW115248   6.889   3.604   6.042
 4783SOL    HW215249   0.027   3.592   6.044
 4784SOL     OW15250   5.351   3.217   0.062
 4784SOL    HW115251   5.445   3.250   0.051
 4784SOL    HW215252   5.336   3.188   0.156
 4785SOL     OW15253   0.644   0.025   3.844
 4785SOL    HW115254   0.656   7.006   3.756
 4785SOL    HW215255   0.708   7.013   3.910
 4786SOL     OW15256   0.732   5.809   0.177
 4786SOL    HW115257   0.673   5.849   0.106
 4786SOL    HW215258   0.703   5.715   0.196
 4787SOL     OW15259   4.954   1.158   4.827
 4787SOL    HW115260   5.003   1.242   4.852
 4787SOL    HW215261   4.940   1.103   4.909
 4788SOL     OW15262   6.889   5.961   0.743
 4788SOL    HW115263   6.859   5.866   0.743
 4788SOL    HW215264   6.989   5.964   0.753
 4789SOL     OW15265   6.145   0.770   2.800
 4789SOL    HW115266   6.155   0.786   2.898
 4789SOL    HW215267   6.142   0.672   2.782
 4790SOL     OW15268   0.004   2.216   4.327
 4790SOL    HW115269   7.014   2.259   4.237
 4790SOL    HW215270   0.102   2.218   4.347
 4791SOL     OW15271   0.706   0.070   7.010
 4791SOL    HW115272   0.804   0.083   7.024
 4791SOL    HW215273   0.670   0.013   0.058
 4792SOL     OW15274   1.496   3.903   2.163
 4792SOL    HW115275   1.536   3.943   2.245
 4792SOL    HW215276   1.441   3.823   2.188
 4793SOL     OW15277   1.309   4.108   5.198
 4793SOL    HW115278   1.303   4.206   5.212
 4793SOL    HW215279   1.396   4.086   5.153
 4794SOL     OW15280   4.873   1.991   5.537
 4794SOL    HW115281   4.852   1.910   5.482
 4794SOL    HW215282   4.791   2.020   5.586
 4795SOL     OW15283   6.673   1.469   6.294
 4795SOL    HW115284   6.755   1.415   6.312
 4795SOL    HW215285   6.593   1.408   6.290
 4796SOL     OW15286   4.761   1.425   5.481
 4796SOL    HW115287   4.764   1.413   5.382
 4796SOL    HW215288   4.668   1.444   5.510
 4797SOL     OW15289   2.145   5.068   6.181
 4797SOL    HW115290   2.189   5.005   6.245
 4797SOL    HW215291   2.215   5.124   6.137
 4798SOL     OW15292   3.355   6.178   0.285
 4798SOL    HW115293   3.408   6.206   0.206
 4798SOL    HW215294   3.415   6.136   0.353
 4799SOL     OW15295   3.998   2.887   0.299
 4799SOL    HW115296   3.968   2.951   0.229
 4799SOL    HW215297   4.070   2.929   0.354
 4800SOL     OW15298   0.901   4.462   0.141
 4800SOL    HW115299   0.975   4.515   0.182
 4800SOL    HW215300   0.825   4.523   0.117
 4801SOL     OW15301   5.246   2.151   3.276
 4801SOL    HW115302   5.288   2.225   3.329
 4801SOL    HW215303   5.227   2.074   3.336
 4802SOL     OW15304   7.015   0.522   4.571
 4802SOL    HW115305   0.046   0.548   4.649
 4802SOL    HW215306   6.931   0.479   4.603
 4803SOL     OW15307   4.825   4.078   5.471
 4803SOL    HW115308   4.745   4.109   5.522
 4803SOL    HW215309   4.849   4.146   5.402
 4804SOL     OW15310   5.513   2.351   0.789
 4804SOL    HW115311   5.519   2.252   0.781
 4804SOL    HW215312   5.493   2.391   0.699
 4805SOL     OW15313   5.663   1.793   0.053
 4805SOL    HW115314   5.662   1.767   0.149
 4805SOL    HW215315   5.671   1.712   7.022
 4806SOL     OW15316   1.079   1.639   2.852
 4806SOL    HW115317   1.064   1.667   2.756
 4806SOL    HW215318   0.996   1.654   2.904
 4807SOL     OW15319   6.500   4.160   6.229
 4807SOL    HW115320   6.429   4.170   6.299
 4807SOL    HW215321   6.465   4.105   6.153
 4808SOL     OW15322   3.819   5.819   2.350
 4808SOL    HW115323   3.827   5.904   2.402
 4808SOL    HW215324   3.724   5.787   2.353
 4809SOL     OW15325   3.060   3.806   1.533
 4809SOL    HW115326   3.103   3.742   1.468
 4809SOL    HW215327   3.091   3.784   1.625
 4810SOL     OW15328   1.827   5.072   4.243
 4810SOL    HW115329   1.841   5.171   4.243
 4810SOL    HW215330   1.744   5.050   4.293
 4811SOL     OW15331   3.821   3.321   4.546
 4811SOL    HW115332   3.908   3.278   4.524
 4811SOL    HW215333   3.747   3.253   4.537
 4812SOL     OW15334   1.890   6.370   2.703
 4812SOL    HW115335   1.904   6.469   2.703
 4812SOL    HW215336   1.794   6.349   2.684
 4813SOL     OW15337   0.802   2.665   5.022
 4813SOL    HW115338   0.857   2.631   4.946
 4813SOL    HW215339   0.781   2.762   5.008
 4814SOL     OW15340   6.452   3.083   0.839
 4814SOL    HW115341   6.390   3.012   0.805
 4814SOL    HW215342   6.416   3.173   0.815
 4815SOL     OW15343   6.275   4.536   2.309
 4815SOL    HW115344   6.271   4.455   2.251
 4815SOL    HW215345   6.229   4.517   2.396
 4816SOL     OW15346   2.731   0.456   2.504
 4816SOL    HW115347   2.774   0.524   2.444
 4816SOL    HW215348   2.768   0.365   2.483
 4817SOL     OW15349   4.506   2.257   1.046
 4817SOL    HW115350   4.491   2.167   1.088
 4817SOL    HW215351   4.425   2.314   1.060
 4818SOL     OW15352   4.329   6.769   4.141
 4818SOL    HW115353   4.369   6.678   4.148
 4818SOL    HW215354   4.335   6.815   4.230
 4819SOL     OW15355   2.735   1.109   0.675
 4819SOL    HW115356   2.826   1.080   0.645
 4819SOL    HW215357   2.676   1.029   0.684
 4820SOL     OW15358   6.628   3.979   1.523
 4820SOL    HW115359   6.611   3.883   1.546
 4820SOL    HW215360   6.581   4.001   1.438
 4821SOL     OW15361   6.857   5.598   1.535
 4821SOL    HW115362   6.916   5.641   1.467
 4821SOL    HW215363   6.880   5.501   1.544
 4822SOL     OW15364   0.933   3.604   1.676
 4822SOL    HW115365   0.931   3.683   1.614
 4822SOL    HW215366   0.839   3.578   1.698
 4823SOL     OW15367   0.682   1.410   3.558
 4823SOL    HW115368   0.739   1.492   3.569
 4823SOL    HW215369   0.641   1.409   3.467
 4824SOL     OW15370   6.007   2.034   2.502
 4824SOL    HW115371   5.923   2.081   2.472
 4824SOL    HW215372   6.044   1.981   2.426
 4825SOL     OW15373   1.064   3.273   3.953
 4825SOL    HW115374   1.104   3.243   3.866
 4825SOL    HW215375   1.060   3.196   4.016
 4826SOL     OW15376   6.901   6.671   0.228
 4826SOL    HW115377   6.953   6.692   0.310
 4826SOL    HW215378   6.951   6.703   0.147
 4827SOL     OW15379   5.132   1.712   6.901
 4827SOL    HW115380   5.120   1.710   6.801
 4827SOL    HW215381   5.044   1.691   6.945
 4828SOL     OW15382   5.156   3.840   6.572
 4828SOL    HW115383   5.172   3.850   6.670
 4828SOL    HW215384   5.058   3.827   6.555
 4829SOL     OW15385   3.820   0.331   5.108
 4829SOL    HW115386   3.802   0.352   5.204
 4829SOL    HW215387   3.872   0.406   5.067
 4830SOL     OW15388   4.687   5.647   5.153
 4830SOL    HW115389   4.700   5.548   5.156
 4830SOL    HW215390   4.590   5.667   5.139
 4831SOL     OW15391   6.312   2.704   6.806
 4831SOL    HW115392   6.317   2.699   6.706
 4831SOL    HW215393   6.317   2.800   6.835
 4832SOL     OW15394   1.962   2.282   6.094
 4832SOL    HW115395   2.012   2.327   6.019
 4832SOL    HW215396   1.865   2.306   6.088
 4833SOL     OW15397   6.082   1.417   3.571
 4833SOL    HW115398   6.123   1.396   3.482
 4833SOL    HW215399   6.046   1.334   3.612
 4834SOL     OW15400   6.045   0.567   3.048
 4834SOL    HW115401   6.127   0.561   2.991
 4834SOL    HW215402   6.054   0.506   3.127
 4835SOL     OW15403   1.878   1.087   5.983
 4835SOL    HW115404   1.907   1.179   6.010
 4835SOL    HW215405   1.778   1.085   5.975
 4836SOL     OW15406   5.865   2.956   2.271
 4836SOL    HW115407   5.801   3.030   2.253
 4836SOL    HW215408   5.886   2.908   2.186
 4837SOL     OW15409   0.553   4.274   0.786
 4837SOL    HW115410   0.467   4.273   0.734
 4837SOL    HW215411   0.625   4.229   0.732
 4838SOL     OW15412   2.878   5.405   2.425
 4838SOL    HW115413   2.900   5.498   2.398
 4838SOL    HW215414   2.787   5.402   2.465
 4839SOL     OW15415   0.466   0.155   6.631
 4839SOL    HW115416   0.543   0.096   6.657
 4839SOL    HW215417   0.457   0.229   6.698
 4840SOL     OW15418   6.240   6.693   6.191
 4840SOL    HW115419   6.280   6.713   6.281
 4840SOL    HW215420   6.259   6.769   6.129
 4841SOL     OW15421   1.969   5.515   1.655
 4841SOL    HW115422   1.897   5.583   1.645
 4841SOL    HW215423   1.949   5.457   1.734
 4842SOL     OW15424   3.268   6.544   1.252
 4842SOL    HW115425   3.305   6.576   1.339
 4842SOL    HW215426   3.333   6.484   1.208
 4843SOL     OW15427   1.446   3.259   6.769
 4843SOL    HW115428   1.536   3.267   6.728
 4843SOL    HW215429   1.451   3.198   6.849
 4844SOL     OW15430   0.627   1.577   5.530
 4844SOL    HW115431   0.670   1.657   5.487
 4844SOL    HW215432   0.633   1.499   5.468
 4845SOL     OW15433   5.869   5.610   3.871
 4845SOL    HW115434   5.956   5.569   3.844
 4845SOL    HW215435   5.850   5.689   3.813
 4846SOL     OW15436   0.297   4.851   6.652
 4846SOL    HW115437   0.210   4.804   6.642
 4846SOL    HW215438   0.281   4.944   6.686
 4847SOL     OW15439   4.786   3.057   4.946
 4847SOL    HW115440   4.789   2.989   5.020
 4847SOL    HW215441   4.722   3.026   4.875
 4848SOL     OW15442   2.510   2.397   1.448
 4848SOL    HW115443   2.477   2.338   1.522
 4848SOL    HW215444   2.555   2.477   1.488
 4849SOL     OW15445   1.910   6.339   5.791
 4849SOL    HW115446   1.934   6.425   5.837
 4849SOL    HW215447   1.824   6.304   5.830
 4850SOL     OW15448   3.783   0.011   3.250
 4850SOL    HW115449   3.688   7.008   3.249
 4850SOL    HW215450   3.823   7.019   3.340
 4851SOL     OW15451   4.809   1.324   5.075
 4851SOL    HW115452   4.874   1.250   5.094
 4851SOL    HW215453   4.779   1.318   4.980
 4852SOL     OW15454   1.731   2.082   1.756
 4852SOL    HW115455   1.797   2.074   1.830
 4852SOL    HW215456   1.707   1.990   1.722
 4853SOL     OW15457   3.546   1.896   1.504
 4853SOL    HW115458   3.558   1.882   1.602
 4853SOL    HW215459   3.561   1.992   1.481
 4854SOL     OW15460   3.537   0.244   6.757
 4854SOL    HW115461   3.509   0.290   6.672
 4854SOL    HW215462   3.457   0.201   6.799
 4855SOL     OW15463   6.615   3.089   2.350
 4855SOL    HW115464   6.525   3.060   2.318
 4855SOL    HW215465   6.606   3.171   2.407
 4856SOL     OW15466   1.270   4.144   2.818
 4856SOL    HW115467   1.273   4.053   2.776
 4856SOL    HW215468   1.328   4.145   2.900
 4857SOL     OW15469   0.268   1.263   5.746
 4857SOL    HW115470   0.305   1.294   5.659
 4857SOL    HW215471   0.304   1.320   5.820
 4858SOL     OW15472   1.566   0.566   3.876
 4858SOL    HW115473   1.576   0.661   3.846
 4858SOL    HW215474   1.469   0.541   3.878
 4859SOL     OW15475   3.829   5.674   6.231
 4859SOL    HW115476   3.833   5.764   6.275
 4859SOL    HW215477   3.921   5.635   6.226
 4860SOL     OW15478   3.774   4.365   0.576
 4860SOL    HW115479   3.699   4.320   0.623
 4860SOL    HW215480   3.829   4.297   0.527
 4861SOL     OW15481   4.598   3.962   6.467
 4861SOL    HW115482   4.512   3.989   6.424
 4861SOL    HW215483   4.580   3.895   6.540
 4862SOL     OW15484   0.577   6.926   0.909
 4862SOL    HW115485   0.514   6.997   0.877
 4862SOL    HW215486   0.526   6.851   0.950
 4863SOL     OW15487   5.001   4.667   6.467
 4863SOL    HW115488   5.037   4.584   6.509
 4863SOL    HW215489   5.023   4.745   6.525
 4864SOL     OW15490   3.539   1.566   4.059
 4864SOL    HW115491   3.583   1.495   4.003
 4864SOL    HW215492   3.490   1.629   3.999
 4865SOL     OW15493   1.259   0.259   5.302
 4865SOL    HW115494   1.198   0.184   5.327
 4865SOL    HW215495   1.204   0.341   5.282
 4866SOL     OW15496   6.321   4.158   6.450
 4866SOL    HW115497   6.307   4.066   6.486
 4866SOL    HW215498   6.235   4.192   6.412
 4867SOL     OW15499   4.696   1.131   2.985
 4867SOL    HW115500   4.701   1.048   3.040
 4867SOL    HW215501   4.717   1.110   2.890
 4868SOL     OW15502   6.827   4.592   0.461
 4868SOL    HW115503   6.823   4.685   0.498
 4868SOL    HW215504   6.910   4.582   0.405
 4869SOL     OW15505   0.769   1.560   0.691
 4869SOL    HW115506   0.686   1.517   0.655
 4869SOL    HW215507   0.752   1.591   0.785
 4870SOL     OW15508   0.249   0.053   1.122
 4870SOL    HW115509   0.339   0.038   1.164
 4870SOL    HW215510   0.183   7.016   1.163
 4871SOL     OW15511   1.034   1.415   3.366
 4871SOL    HW115512   1.105   1.363   3.318
 4871SOL    HW215513   1.071   1.448   3.453
 4872SOL     OW15514   5.950   6.624   2.674
 4872SOL    HW115515   5.990   6.651   2.587
 4872SOL    HW215516   5.932   6.525   2.673
 4873SOL     OW15517   6.622   5.331   4.881
 4873SOL    HW115518   6.634   5.430   4.885
 4873SOL    HW215519   6.567   5.300   4.958
 4874SOL     OW15520   4.961   2.953   3.103
 4874SOL    HW115521   4.933   2.994   3.190
 4874SOL    HW215522   4.953   2.854   3.109
 4875SOL     OW15523   5.990   6.456   5.061
 4875SOL    HW115524   5.959   6.395   5.134
 4875SOL    HW215525   6.027   6.539   5.101
 4876SOL     OW15526   0.525   1.457   2.167
 4876SOL    HW115527   0.430   1.468   2.197
 4876SOL    HW215528   0.530   1.379   2.104
 4877SOL     OW15529   6.345   1.447   6.473
 4877SOL    HW115530   6.382   1.385   6.543
 4877SOL    HW215531   6.369   1.541   6.495
 4878SOL     OW15532   6.460   3.470   2.276
 4878SOL    HW115533   6.414   3.480   2.188
 4878SOL    HW215534   6.557   3.493   2.266
 4879SOL     OW15535   5.295   0.901   3.012
 4879SOL    HW115536   5.229   0.961   2.967
 4879SOL    HW215537   5.388   0.926   2.984
 4880SOL     OW15538   0.187   2.926   6.569
 4880SOL    HW115539   0.150   2.833   6.565
 4880SOL    HW215540   0.166   2.973   6.483
 4881SOL     OW15541   1.701   2.903   1.558
 4881SOL    HW115542   1.780   2.913   1.618
 4881SOL    HW215543   1.619   2.887   1.613
 4882SOL     OW15544   4.744   2.293   4.012
 4882SOL    HW115545   4.802   2.360   4.059
 4882SOL    HW215546   4.701   2.233   4.079
 4883SOL     OW15547   6.334   4.146   0.505
 4883SOL    HW115548   6.262   4.118   0.442
 4883SOL    HW215549   6.293   4.181   0.589
 4884SOL     OW15550   1.527   1.379   1.500
 4884SOL    HW115551   1.609   1.322   1.505
 4884SOL    HW215552   1.535   1.443   1.424
 4885SOL     OW15553   1.197   4.593   6.914
 4885SOL    HW115554   1.210   4.509   6.967
 4885SOL    HW215555   1.103   4.597   6.880
 4886SOL     OW15556   2.747   0.648   2.098
 4886SOL    HW115557   2.744   0.701   2.013
 4886SOL    HW215558   2.713   0.556   2.082
 4887SOL     OW15559   4.968   6.144   0.242
 4887SOL    HW115560   4.869   6.135   0.226
 4887SOL    HW215561   4.998   6.073   0.306
 4888SOL     OW15562   4.359   0.633   3.088
 4888SOL    HW115563   4.328   0.564   3.153
 4888SOL    HW215564   4.382   0.717   3.138
 4889SOL     OW15565   6.592   3.126   3.752
 4889SOL    HW115566   6.584   3.177   3.837
 4889SOL    HW215567   6.667   3.163   3.698
 4890SOL     OW15568   6.708   1.686   4.788
 4890SOL    HW115569   6.637   1.728   4.846
 4890SOL    HW215570   6.693   1.714   4.693
 4891SOL     OW15571   2.766   5.288   0.294
 4891SOL    HW115572   2.686   5.325   0.247
 4891SOL    HW215573   2.745   5.197   0.329
 4892SOL     OW15574   5.188   5.083   2.914
 4892SOL    HW115575   5.266   5.031   2.881
 4892SOL    HW215576   5.110   5.069   2.853
 4893SOL     OW15577   1.075   3.243   1.114
 4893SOL    HW115578   1.037   3.322   1.163
 4893SOL    HW215579   1.125   3.185   1.177
 4894SOL     OW15580   4.655   6.438   1.579
 4894SOL    HW115581   4.658   6.496   1.498
 4894SOL    HW215582   4.560   6.415   1.601
 4895SOL     OW15583   0.222   4.523   5.614
 4895SOL    HW115584   0.318   4.535   5.590
 4895SOL    HW215585   0.213   4.456   5.687
 4896SOL     OW15586   2.882   5.168   4.934
 4896SOL    HW115587   2.846   5.079   4.904
 4896SOL    HW215588   2.944   5.203   4.864
 4897SOL     OW15589   1.850   0.848   4.822
 4897SOL    HW115590   1.880   0.941   4.803
 4897SOL    HW215591   1.751   0.842   4.810
 4898SOL     OW15592   4.783   1.849   3.849
 4898SOL    HW115593   4.797   1.902   3.765
 4898SOL    HW215594   4.868   1.850   3.903
 4899SOL     OW15595   6.271   6.559   1.920
 4899SOL    HW115596   6.197   6.608   1.874
 4899SOL    HW215597   6.269   6.579   2.018
 4900SOL     OW15598   3.775   6.131   6.165
 4900SOL    HW115599   3.738   6.223   6.155
 4900SOL    HW215600   3.854   6.133   6.227
 4901SOL     OW15601   1.293   0.684   6.618
 4901SOL    HW115602   1.324   0.591   6.600
 4901SOL    HW215603   1.214   0.705   6.561
 4902SOL     OW15604   2.812   0.070   5.419
 4902SOL    HW115605   2.845   0.145   5.362
 4902SOL    HW215606   2.821   7.009   5.369
 4903SOL     OW15607   5.255   3.447   3.047
 4903SOL    HW115608   5.192   3.370   3.039
 4903SOL    HW215609   5.218   3.516   3.109
 4904SOL     OW15610   1.560   0.598   1.563
 4904SOL    HW115611   1.525   0.656   1.636
 4904SOL    HW215612   1.508   0.513   1.559
 4905SOL     OW15613   2.338   0.130   3.116
 4905SOL    HW115614   2.394   0.102   3.194
 4905SOL    HW215615   2.249   0.162   3.149
 4906SOL     OW15616   5.132   3.709   5.069
 4906SOL    HW115617   5.139   3.622   5.117
 4906SOL    HW215618   5.104   3.694   4.975
 4907SOL     OW15619   4.124   2.574   0.009
 4907SOL    HW115620   4.072   2.638   6.978
 4907SOL    HW215621   4.096   2.585   0.105
 4908SOL     OW15622   3.592   6.905   6.751
 4908SOL    HW115623   3.588   6.927   6.848
 4908SOL    HW215624   3.684   6.925   6.717
 4909SOL     OW15625   5.184   5.015   4.032
 4909SOL    HW115626   5.118   4.942   4.013
 4909SOL    HW215627   5.248   5.023   3.956
 4910SOL     OW15628   4.207   2.466   6.479
 4910SOL    HW115629   4.305   2.484   6.467
 4910SOL    HW215630   4.174   2.411   6.402
 4911SOL     OW15631   6.487   4.016   2.679
 4911SOL    HW115632   6.469   3.924   2.643
 4911SOL    HW215633   6.585   4.025   2.698
 4912SOL     OW15634   5.899   2.580   4.580
 4912SOL    HW115635   5.858   2.651   4.522
 4912SOL    HW215636   5.992   2.561   4.549
 4913SOL     OW15637   0.444   4.018   4.582
 4913SOL    HW115638   0.447   4.018   4.682
 4913SOL    HW215639   0.365   3.966   4.551
 4914SOL     OW15640   3.897   0.218   4.226
 4914SOL    HW115641   3.953   0.170   4.159
 4914SOL    HW215642   3.940   0.306   4.249
 4915SOL     OW15643   3.864   5.565   5.695
 4915SOL    HW115644   3.819   5.631   5.634
 4915SOL    HW215645   3.797   5.528   5.759
 4916SOL     OW15646   5.161   2.137   3.688
 4916SOL    HW115647   5.259   2.153   3.688
 4916SOL    HW215648   5.115   2.209   3.740
 4917SOL     OW15649   3.867   6.961   6.767
 4917SOL    HW115650   3.878   7.010   6.853
 4917SOL    HW215651   3.922   7.005   6.695
 4918SOL     OW15652   5.971   5.085   3.429
 4918SOL    HW115653   5.892   5.045   3.381
 4918SOL    HW215654   5.939   5.155   3.493
 4919SOL     OW15655   3.420   3.787   1.972
 4919SOL    HW115656   3.501   3.738   2.006
 4919SOL    HW215657   3.442   3.884   1.965
 4920SOL     OW15658   6.000   1.555   6.334
 4920SOL    HW115659   5.961   1.597   6.252
 4920SOL    HW215660   6.011   1.624   6.405
 4921SOL     OW15661   0.003   6.590   1.797
 4921SOL    HW115662   6.992   6.514   1.743
 4921SOL    HW215663   0.015   6.560   1.892
 4922SOL     OW15664   3.729   1.692   5.843
 4922SOL    HW115665   3.700   1.633   5.768
 4922SOL    HW215666   3.829   1.689   5.851
 4923SOL     OW15667   3.776   1.633   1.751
 4923SOL    HW115668   3.860   1.612   1.800
 4923SOL    HW215669   3.783   1.725   1.712
 4924SOL     OW15670   2.220   0.566   5.136
 4924SOL    HW115671   2.247   0.541   5.043
 4924SOL    HW215672   2.206   0.483   5.190
 4925SOL     OW15673   4.891   5.444   3.472
 4925SOL    HW115674   4.944   5.448   3.387
 4925SOL    HW215675   4.934   5.504   3.540
 4926SOL     OW15676   5.725   2.875   1.804
 4926SOL    HW115677   5.726   2.955   1.744
 4926SOL    HW215678   5.641   2.875   1.857
 4927SOL     OW15679   2.825   1.638   0.033
 4927SOL    HW115680   2.801   1.675   6.969
 4927SOL    HW215681   2.745   1.641   0.093
 4928SOL     OW15682   0.240   2.105   0.417
 4928SOL    HW115683   0.163   2.101   0.354
 4928SOL    HW215684   0.217   2.054   0.500
 4929SOL     OW15685   0.018   0.112   4.785
 4929SOL    HW115686   0.044   0.189   4.842
 4929SOL    HW215687   0.099   0.060   4.759
 4930SOL     OW15688   5.006   5.488   2.614
 4930SOL    HW115689   5.085   5.477   2.554
 4930SOL    HW215690   4.956   5.401   2.621
 4931SOL     OW15691   6.847   0.225   1.096
 4931SOL    HW115692   6.909   0.302   1.089
 4931SOL    HW215693   6.787   0.237   1.175
 4932SOL     OW15694   3.315   3.335   2.456
 4932SOL    HW115695   3.239   3.293   2.505
 4932SOL    HW215696   3.391   3.270   2.449
 4933SOL     OW15697   0.888   0.450   5.677
 4933SOL    HW115698   0.912   0.358   5.649
 4933SOL    HW215699   0.825   0.490   5.611
 4934SOL     OW15700   3.489   6.779   2.447
 4934SOL    HW115701   3.587   6.785   2.430
 4934SOL    HW215702   3.444   6.863   2.416
 4935SOL     OW15703   0.408   1.035   5.203
 4935SOL    HW115704   0.487   0.994   5.157
 4935SOL    HW215705   0.366   0.966   5.263
 4936SOL     OW15706   4.760   1.851   1.016
 4936SOL    HW115707   4.777   1.944   0.986
 4936SOL    HW215708   4.830   1.824   1.082
 4937SOL     OW15709   4.538   2.808   5.245
 4937SOL    HW115710   4.541   2.709   5.254
 4937SOL    HW215711   4.506   2.849   5.331
 4938SOL     OW15712   3.695   4.464   6.347
 4938SOL    HW115713   3.756   4.441   6.272
 4938SOL    HW215714   3.628   4.532   6.316
 4939SOL     OW15715   4.643   4.215   6.146
 4939SOL    HW115716   4.618   4.143   6.081
 4939SOL    HW215717   4.735   4.248   6.124
 4940SOL     OW15718   2.468   5.847   4.078
 4940SOL    HW115719   2.498   5.804   4.164
 4940SOL    HW215720   2.534   5.826   4.006
 4941SOL     OW15721   5.700   0.319   0.713
 4941SOL    HW115722   5.614   0.352   0.753
 4941SOL    HW215723   5.704   0.345   0.617
 4942SOL     OW15724   4.612   3.032   6.040
 4942SOL    HW115725   4.651   3.108   6.091
 4942SOL    HW215726   4.537   2.991   6.092
 4943SOL     OW15727   5.717   3.349   1.527
 4943SOL    HW115728   5.789   3.402   1.483
 4943SOL    HW215729   5.652   3.317   1.458
 4944SOL     OW15730   2.310   4.042   2.003
 4944SOL    HW115731   2.347   3.986   1.929
 4944SOL    HW215732   2.344   4.136   1.994
 4945SOL     OW15733   6.931   5.946   4.430
 4945SOL    HW115734   0.002   5.947   4.457
 4945SOL    HW215735   6.917   5.877   4.359
 4946SOL     OW15736   0.286   3.980   2.066
 4946SOL    HW115737   0.191   4.010   2.053
 4946SOL    HW215738   0.310   3.914   1.995
 4947SOL     OW15739   6.594   0.412   0.897
 4947SOL    HW115740   6.537   0.420   0.978
 4947SOL    HW215741   6.670   0.477   0.903
 4948SOL     OW15742   2.389   1.131   2.339
 4948SOL    HW115743   2.487   1.149   2.339
 4948SOL    HW215744   2.374   1.034   2.318
 4949SOL     OW15745   5.394   2.526   4.833
 4949SOL    HW115746   5.389   2.503   4.930
 4949SOL    HW215747   5.488   2.512   4.800
 4950SOL     OW15748   3.638   4.943   5.020
 4950SOL    HW115749   3.554   4.991   5.045
 4950SOL    HW215750   3.651   4.866   5.083
 4951SOL     OW15751   4.300   1.743   4.100
 4951SOL    HW115752   4.333   1.664   4.049
 4951SOL    HW215753   4.253   1.806   4.038
 4952SOL     OW15754   6.940   4.493   4.390
 4952SOL    HW115755   6.961   4.398   4.367
 4952SOL    HW215756   6.921   4.500   4.488
 4953SOL     OW15757   1.463   4.808   2.240
 4953SOL    HW115758   1.510   4.842   2.159
 4953SOL    HW215759   1.498   4.854   2.321
 4954SOL     OW15760   6.054   6.397   0.489
 4954SOL    HW115761   6.001   6.315   0.510
 4954SOL    HW215762   6.141   6.395   0.539
 4955SOL     OW15763   1.678   1.148   1.237
 4955SOL    HW115764   1.707   1.093   1.315
 4955SOL    HW215765   1.586   1.184   1.254
 4956SOL     OW15766   6.270   6.639   3.699
 4956SOL    HW115767   6.296   6.645   3.603
 4956SOL    HW215768   6.221   6.723   3.725
 4957SOL     OW15769   2.027   5.960   3.674
 4957SOL    HW115770   2.094   5.890   3.701
 4957SOL    HW215771   2.059   6.006   3.591
 4958SOL     OW15772   6.994   6.697   6.991
 4958SOL    HW115773   0.041   6.634   7.017
 4958SOL    HW215774   6.948   6.664   6.909
 4959SOL     OW15775   0.486   1.733   7.003
 4959SOL    HW115776   0.431   1.784   6.937
 4959SOL    HW215777   0.530   1.656   6.956
 4960SOL     OW15778   4.080   6.716   5.771
 4960SOL    HW115779   3.980   6.705   5.763
 4960SOL    HW215780   4.104   6.731   5.867
 4961SOL     OW15781   4.821   0.954   5.671
 4961SOL    HW115782   4.746   1.014   5.699
 4961SOL    HW215783   4.800   0.860   5.696
 4962SOL     OW15784   6.574   2.479   2.135
 4962SOL    HW115785   6.642   2.549   2.157
 4962SOL    HW215786   6.575   2.463   2.036
 4963SOL     OW15787   0.036   4.742   1.073
 4963SOL    HW115788   0.053   4.781   0.983
 4963SOL    HW215789   0.118   4.753   1.130
 4964SOL     OW15790   3.745   6.728   3.203
 4964SOL    HW115791   3.839   6.759   3.218
 4964SOL    HW215792   3.682   6.787   3.254
 4965SOL     OW15793   0.082   6.205   4.616
 4965SOL    HW115794   7.021   6.158   4.635
 4965SOL    HW215795   0.158   6.142   4.633
 4966SOL     OW15796   4.140   5.089   4.401
 4966SOL    HW115797   4.091   5.091   4.489
 4966SOL    HW215798   4.189   5.175   4.389
 4967SOL     OW15799   6.102   2.263   6.513
 4967SOL    HW115800   6.159   2.197   6.463
 4967SOL    HW215801   6.018   2.218   6.543
 4968SOL     OW15802   5.539   4.372   0.051
 4968SOL    HW115803   5.464   4.307   0.038
 4968SOL    HW215804   5.583   4.391   6.989
 4969SOL     OW15805   1.260   2.010   1.187
 4969SOL    HW115806   1.314   1.959   1.254
 4969SOL    HW215807   1.183   2.055   1.233
 4970SOL     OW15808   1.792   2.546   5.847
 4970SOL    HW115809   1.865   2.608   5.820
 4970SOL    HW215810   1.829   2.477   5.910
 4971SOL     OW15811   6.840   5.219   4.234
 4971SOL    HW115812   6.906   5.259   4.298
 4971SOL    HW215813   6.872   5.129   4.204
 4972SOL     OW15814   1.987   2.352   5.093
 4972SOL    HW115815   2.017   2.257   5.101
 4972SOL    HW215816   1.975   2.391   5.184
 4973SOL     OW15817   5.426   5.371   2.813
 4973SOL    HW115818   5.525   5.361   2.802
 4973SOL    HW215819   5.407   5.436   2.887
 4974SOL     OW15820   4.103   6.628   6.787
 4974SOL    HW115821   4.009   6.658   6.807
 4974SOL    HW215822   4.113   6.612   6.689
 4975SOL     OW15823   4.231   6.234   0.256
 4975SOL    HW115824   4.132   6.238   0.244
 4975SOL    HW215825   4.277   6.263   0.172
 4976SOL     OW15826   2.786   0.704   4.142
 4976SOL    HW115827   2.885   0.699   4.148
 4976SOL    HW215828   2.751   0.624   4.095
 4977SOL     OW15829   3.161   2.574   0.365
 4977SOL    HW115830   3.244   2.528   0.333
 4977SOL    HW215831   3.087   2.555   0.300
 4978SOL     OW15832   5.946   4.215   6.357
 4978SOL    HW115833   6.024   4.166   6.318
 4978SOL    HW215834   5.977   4.279   6.426
 4979SOL     OW15835   1.872   1.593   4.302
 4979SOL    HW115836   1.971   1.584   4.301
 4979SOL    HW215837   1.841   1.632   4.215
 4980SOL     OW15838   2.281   4.605   2.934
 4980SOL    HW115839   2.191   4.563   2.924
 4980SOL    HW215840   2.351   4.538   2.912
 4981SOL     OW15841   4.895   6.296   5.339
 4981SOL    HW115842   4.963   6.240   5.291
 4981SOL    HW215843   4.928   6.318   5.431
 4982SOL     OW15844   2.832   2.152   6.780
 4982SOL    HW115845   2.885   2.221   6.830
 4982SOL    HW215846   2.853   2.062   6.816
 4983SOL     OW15847   6.471   3.104   4.750
 4983SOL    HW115848   6.471   3.134   4.655
 4983SOL    HW215849   6.439   3.009   4.756
 4984SOL     OW15850   5.063   3.900   3.214
 4984SOL    HW115851   5.024   3.985   3.248
 4984SOL    HW215852   5.034   3.886   3.119
 4985SOL     OW15853   5.477   4.310   2.135
 4985SOL    HW115854   5.438   4.235   2.189
 4985SOL    HW215855   5.404   4.359   2.089
 4986SOL     OW15856   4.503   4.503   3.229
 4986SOL    HW115857   4.591   4.551   3.233
 4986SOL    HW215858   4.461   4.517   3.140
 4987SOL     OW15859   0.733   3.338   0.738
 4987SOL    HW115860   0.818   3.299   0.701
 4987SOL    HW215861   0.664   3.342   0.666
 4988SOL     OW15862   2.056   2.088   5.101
 4988SOL    HW115863   2.067   2.089   5.200
 4988SOL    HW215864   2.004   2.006   5.074
 4989SOL     OW15865   6.854   1.089   0.488
 4989SOL    HW115866   6.869   1.058   0.394
 4989SOL    HW215867   6.846   1.010   0.549
 4990SOL     OW15868   1.506   2.124   6.050
 4990SOL    HW115869   1.528   2.028   6.067
 4990SOL    HW215870   1.565   2.182   6.106
 4991SOL     OW15871   2.680   1.768   5.057
 4991SOL    HW115872   2.692   1.669   5.053
 4991SOL    HW215873   2.760   1.813   5.018
 4992SOL     OW15874   4.489   6.964   4.381
 4992SOL    HW115875   4.430   6.918   4.447
 4992SOL    HW215876   4.565   6.904   4.357
 4993SOL     OW15877   1.701   6.341   4.170
 4993SOL    HW115878   1.642   6.325   4.249
 4993SOL    HW215879   1.684   6.271   4.101
 4994SOL     OW15880   0.324   6.353   2.417
 4994SOL    HW115881   0.422   6.372   2.408
 4994SOL    HW215882   0.274   6.439   2.424
 4995SOL     OW15883   5.797   2.752   5.391
 4995SOL    HW115884   5.715   2.807   5.408
 4995SOL    HW215885   5.869   2.811   5.353
 4996SOL     OW15886   0.435   1.737   3.665
 4996SOL    HW115887   0.460   1.661   3.725
 4996SOL    HW215888   0.338   1.759   3.677
 4997SOL     OW15889   0.399   2.466   3.836
 4997SOL    HW115890   0.466   2.412   3.887
 4997SOL    HW215891   0.316   2.412   3.824
 4998SOL     OW15892   0.867   5.575   5.611
 4998SOL    HW115893   0.929   5.496   5.614
 4998SOL    HW215894   0.772   5.543   5.604
 4999SOL     OW15895   6.259   4.530   0.888
 4999SOL    HW115896   6.191   4.575   0.946
 4999SOL    HW215897   6.297   4.597   0.824
 5000SOL     OW15898   0.067   5.162   4.317
 5000SOL    HW115899   0.021   5.087   4.365
 5000SOL    HW215900   0.149   5.126   4.272
 5001SOL     OW15901   5.062   4.561   5.556
 5001SOL    HW115902   5.018   4.535   5.469
 5001SOL    HW215903   5.103   4.652   5.546
 5002SOL     OW15904   2.014   2.677   1.531
 5002SOL    HW115905   1.950   2.604   1.555
 5002SOL    HW215906   2.018   2.686   1.431
 5003SOL     OW15907   6.606   4.852   4.257
 5003SOL    HW115908   6.583   4.932   4.312
 5003SOL    HW215909   6.601   4.876   4.160
 5004SOL     OW15910   2.176   4.352   6.187
 5004SOL    HW115911   2.259   4.394   6.150
 5004SOL    HW215912   2.117   4.422   6.226
 5005SOL     OW15913   4.636   1.730   0.340
 5005SOL    HW115914   4.539   1.709   0.340
 5005SOL    HW215915   4.686   1.655   0.296
 5006SOL     OW15916   5.594   4.545   2.255
 5006SOL    HW115917   5.542   4.460   2.250
 5006SOL    HW215918   5.669   4.535   2.319
 5007SOL     OW15919   4.068   1.073   5.414
 5007SOL    HW115920   4.143   1.069   5.480
 5007SOL    HW215921   3.985   1.104   5.459
 5008SOL     OW15922   6.478   0.650   3.466
 5008SOL    HW115923   6.527   0.633   3.551
 5008SOL    HW215924   6.404   0.716   3.483
 5009SOL     OW15925   1.955   5.501   1.985
 5009SOL    HW115926   1.895   5.457   2.051
 5009SOL    HW215927   1.922   5.593   1.966
 5010SOL     OW15928   3.605   3.241   5.749
 5010SOL    HW115929   3.518   3.191   5.752
 5010SOL    HW215930   3.669   3.200   5.815
 5011SOL     OW15931   1.406   2.461   3.729
 5011SOL    HW115932   1.472   2.430   3.662
 5011SOL    HW215933   1.372   2.552   3.703
 5012SOL     OW15934   5.738   2.995   6.765
 5012SOL    HW115935   5.736   2.981   6.666
 5012SOL    HW215936   5.793   3.076   6.786
 5013SOL     OW15937   4.675   2.335   5.729
 5013SOL    HW115938   4.643   2.371   5.816
 5013SOL    HW215939   4.675   2.408   5.660
 5014SOL     OW15940   7.006   5.410   6.814
 5014SOL    HW115941   6.914   5.448   6.816
 5014SOL    HW215942   0.047   5.485   6.804
 5015SOL     OW15943   5.504   2.005   3.564
 5015SOL    HW115944   5.561   1.923   3.576
 5015SOL    HW215945   5.411   1.977   3.540
 5016SOL     OW15946   2.326   6.319   2.517
 5016SOL    HW115947   2.271   6.269   2.450
 5016SOL    HW215948   2.357   6.257   2.588
 5017SOL     OW15949   1.194   2.228   2.141
 5017SOL    HW115950   1.138   2.181   2.072
 5017SOL    HW215951   1.157   2.211   2.232
 5018SOL     OW15952   6.836   4.673   3.783
 5018SOL    HW115953   6.804   4.745   3.722
 5018SOL    HW215954   6.758   4.623   3.820
 5019SOL     OW15955   2.203   5.236   5.570
 5019SOL    HW115956   2.176   5.305   5.503
 5019SOL    HW215957   2.283   5.187   5.536
 5020SOL     OW15958   4.218   5.451   7.009
 5020SOL    HW115959   4.286   5.467   6.937
 5020SOL    HW215960   4.128   5.481   6.977
 5021SOL     OW15961   2.103   4.446   5.535
 5021SOL    HW115962   2.154   4.360   5.529
 5021SOL    HW215963   2.157   4.513   5.585
 5022SOL     OW15964   2.539   3.535   0.667
 5022SOL    HW115965   2.519   3.609   0.603
 5022SOL    HW215966   2.454   3.489   0.693
 5023SOL     OW15967   0.353   2.970   4.381
 5023SOL    HW115968   0.324   2.942   4.472
 5023SOL    HW215969   0.435   2.918   4.355
 5024SOL     OW15970   4.717   3.618   5.657
 5024SOL    HW115971   4.739   3.525   5.687
 5024SOL    HW215972   4.690   3.673   5.736
 5025SOL     OW15973   6.268   0.834   4.207
 5025SOL    HW115974   6.257   0.932   4.190
 5025SOL    HW215975   6.237   0.813   4.300
 5026SOL     OW15976   0.775   6.254   3.320
 5026SOL    HW115977   0.825   6.170   3.296
 5026SOL    HW215978   0.836   6.316   3.370
 5027SOL     OW15979   0.705   6.095   3.732
 5027SOL    HW115980   0.776   6.066   3.796
 5027SOL    HW215981   0.617   6.057   3.761
 5028SOL     OW15982   0.830   6.949   2.493
 5028SOL    HW115983   0.849   6.941   2.590
 5028SOL    HW215984   0.867   0.009   2.458
 5029SOL     OW15985   6.659   0.906   3.797
 5029SOL    HW115986   6.639   0.996   3.759
 5029SOL    HW215987   6.740   0.868   3.752
 5030SOL     OW15988   1.720   5.784   7.009
 5030SOL    HW115989   1.753   5.867   0.028
 5030SOL    HW215990   1.774   5.767   6.926
 5031SOL     OW15991   5.546   0.783   6.802
 5031SOL    HW115992   5.635   0.755   6.765
 5031SOL    HW215993   5.491   0.823   6.729
 5032SOL     OW15994   1.854   5.750   2.248
 5032SOL    HW115995   1.857   5.723   2.152
 5032SOL    HW215996   1.781   5.817   2.261
 5033SOL     OW15997   0.709   4.060   4.864
 5033SOL    HW115998   0.802   4.046   4.898
 5033SOL    HW215999   0.713   4.079   4.766
 5034SOL     OW16000   6.389   3.754   5.975
 5034SOL    HW116001   6.362   3.658   5.967
 5034SOL    HW216002   6.428   3.785   5.888
 5035SOL     OW16003   6.653   4.465   1.264
 5035SOL    HW116004   6.579   4.436   1.203
 5035SOL    HW216005   6.722   4.393   1.269
 5036SOL     OW16006   1.556   0.882   2.419
 5036SOL    HW116007   1.629   0.824   2.382
 5036SOL    HW216008   1.592   0.974   2.435
 5037SOL     OW16009   4.719   2.755   2.735
 5037SOL    HW116010   4.722   2.789   2.641
 5037SOL    HW216011   4.752   2.826   2.798
 5038SOL     OW16012   2.885   5.566   5.493
 5038SOL    HW116013   2.909   5.538   5.586
 5038SOL    HW216014   2.959   5.622   5.456
 5039SOL     OW16015   1.743   2.169   2.614
 5039SOL    HW116016   1.697   2.247   2.657
 5039SOL    HW216017   1.789   2.199   2.531
 5040SOL     OW16018   3.122   3.351   5.923
 5040SOL    HW116019   3.173   3.397   5.850
 5040SOL    HW216020   3.040   3.405   5.945
 5041SOL     OW16021   0.183   5.342   1.003
 5041SOL    HW116022   0.224   5.338   1.095
 5041SOL    HW216023   0.240   5.399   0.944
 5042SOL     OW16024   5.738   1.552   5.924
 5042SOL    HW116025   5.663   1.487   5.912
 5042SOL    HW216026   5.806   1.538   5.853
 5043SOL     OW16027   5.076   6.538   3.975
 5043SOL    HW116028   4.980   6.534   4.005
 5043SOL    HW216029   5.092   6.624   3.927
 5044SOL     OW16030   5.846   4.866   2.076
 5044SOL    HW116031   5.828   4.793   2.010
 5044SOL    HW216032   5.945   4.878   2.086
 5045SOL     OW16033   6.032   3.489   5.022
 5045SOL    HW116034   6.095   3.444   5.085
 5045SOL    HW216035   6.077   3.504   4.934
 5046SOL     OW16036   3.780   3.125   5.935
 5046SOL    HW116037   3.728   3.108   6.019
 5046SOL    HW216038   3.871   3.083   5.943
 5047SOL     OW16039   0.498   1.747   2.217
 5047SOL    HW116040   0.542   1.798   2.291
 5047SOL    HW216041   0.550   1.665   2.197
 5048SOL     OW16042   5.800   3.590   1.192
 5048SOL    HW116043   5.811   3.662   1.260
 5048SOL    HW216044   5.839   3.620   1.105
 5049SOL     OW16045   0.953   1.915   1.356
 5049SOL    HW116046   0.984   2.007   1.380
 5049SOL    HW216047   0.948   1.859   1.438
 5050SOL     OW16048   2.073   4.111   0.229
 5050SOL    HW116049   2.122   4.035   0.272
 5050SOL    HW216050   2.123   4.196   0.245
 5051SOL     OW16051   2.565   3.407   6.556
 5051SOL    HW116052   2.502   3.348   6.606
 5051SOL    HW216053   2.523   3.437   6.471
 5052SOL     OW16054   6.022   3.090   0.626
 5052SOL    HW116055   5.966   3.135   0.556
 5052SOL    HW216056   6.109   3.139   0.634
 5053SOL     OW16057   1.550   4.067   1.082
 5053SOL    HW116058   1.584   4.153   1.118
 5053SOL    HW216059   1.626   4.014   1.044
 5054SOL     OW16060   4.098   6.044   5.499
 5054SOL    HW116061   4.051   5.977   5.556
 5054SOL    HW216062   4.100   6.013   5.404
 5055SOL     OW16063   1.514   1.469   4.004
 5055SOL    HW116064   1.496   1.389   3.947
 5055SOL    HW216065   1.447   1.473   4.078
 5056SOL     OW16066   2.983   2.314   5.569
 5056SOL    HW116067   2.955   2.339   5.662
 5056SOL    HW216068   3.044   2.235   5.574
 5057SOL     OW16069   0.179   3.702   3.255
 5057SOL    HW116070   0.277   3.705   3.275
 5057SOL    HW216071   0.128   3.693   3.340
 5058SOL     OW16072   3.517   1.775   0.456
 5058SOL    HW116073   3.430   1.740   0.421
 5058SOL    HW216074   3.593   1.725   0.415
 5059SOL     OW16075   5.162   2.140   2.756
 5059SOL    HW116076   5.178   2.088   2.672
 5059SOL    HW216077   5.198   2.089   2.834
 5060SOL     OW16078   6.925   3.709   5.275
 5060SOL    HW116079   7.008   3.654   5.287
 5060SOL    HW216080   6.946   3.805   5.294
 5061SOL     OW16081   4.222   2.677   6.169
 5061SOL    HW116082   4.126   2.707   6.176
 5061SOL    HW216083   4.225   2.579   6.149
 5062SOL     OW16084   5.294   1.306   3.284
 5062SOL    HW116085   5.338   1.222   3.316
 5062SOL    HW216086   5.350   1.385   3.309
 5063SOL     OW16087   0.634   1.659   1.449
 5063SOL    HW116088   0.713   1.597   1.454
 5063SOL    HW216089   0.558   1.612   1.405
 5064SOL     OW16090   5.514   4.813   1.294
 5064SOL    HW116091   5.520   4.726   1.343
 5064SOL    HW216092   5.605   4.851   1.282
 5065SOL     OW16093   2.584   1.660   1.959
 5065SOL    HW116094   2.605   1.562   1.959
 5065SOL    HW216095   2.510   1.679   2.023
 5066SOL     OW16096   1.711   5.368   2.490
 5066SOL    HW116097   1.801   5.391   2.454
 5066SOL    HW216098   1.716   5.283   2.543
 5067SOL     OW16099   5.737   3.061   1.616
 5067SOL    HW116100   5.733   3.160   1.605
 5067SOL    HW216101   5.668   3.018   1.558
 5068SOL     OW16102   1.589   6.202   0.992
 5068SOL    HW116103   1.614   6.155   1.077
 5068SOL    HW216104   1.666   6.198   0.929
 5069SOL     OW16105   4.536   5.314   5.842
 5069SOL    HW116106   4.491   5.308   5.753
 5069SOL    HW216107   4.470   5.295   5.915
 5070SOL     OW16108   5.887   3.456   5.736
 5070SOL    HW116109   5.949   3.382   5.761
 5070SOL    HW216110   5.929   3.544   5.757
 5071SOL     OW16111   2.386   6.052   2.976
 5071SOL    HW116112   2.382   6.097   3.065
 5071SOL    HW216113   2.393   5.953   2.989
 5072SOL     OW16114   0.927   1.462   2.034
 5072SOL    HW116115   0.894   1.374   1.999
 5072SOL    HW216116   1.014   1.450   2.080
 5073SOL     OW16117   1.849   1.101   3.318
 5073SOL    HW116118   1.875   1.033   3.386
 5073SOL    HW216119   1.783   1.061   3.254
 5074SOL     OW16120   3.213   2.229   1.668
 5074SOL    HW116121   3.257   2.245   1.579
 5074SOL    HW216122   3.121   2.268   1.666
 5075SOL     OW16123   6.300   2.742   0.295
 5075SOL    HW116124   6.239   2.745   0.216
 5075SOL    HW216125   6.307   2.833   0.335
 5076SOL     OW16126   6.970   0.728   5.733
 5076SOL    HW116127   6.925   0.817   5.723
 5076SOL    HW216128   0.041   0.742   5.755
 5077SOL     OW16129   0.792   4.228   3.710
 5077SOL    HW116130   0.830   4.188   3.627
 5077SOL    HW216131   0.788   4.328   3.700
 5078SOL     OW16132   6.165   2.309   3.766
 5078SOL    HW116133   6.166   2.353   3.676
 5078SOL    HW216134   6.095   2.237   3.768
 5079SOL     OW16135   1.683   3.779   4.695
 5079SOL    HW116136   1.590   3.768   4.660
 5079SOL    HW216137   1.714   3.694   4.737
 5080SOL     OW16138   6.587   5.675   0.063
 5080SOL    HW116139   6.532   5.758   0.047
 5080SOL    HW216140   6.679   5.688   0.025
 5081SOL     OW16141   2.379   4.848   5.067
 5081SOL    HW116142   2.352   4.918   5.001
 5081SOL    HW216143   2.477   4.854   5.083
 5082SOL     OW16144   5.501   6.375   1.564
 5082SOL    HW116145   5.482   6.474   1.564
 5082SOL    HW216146   5.455   6.333   1.642
 5083SOL     OW16147   2.065   0.029   3.711
 5083SOL    HW116148   2.017   6.974   3.677
 5083SOL    HW216149   2.000   0.103   3.726
 5084SOL     OW16150   3.745   4.732   5.604
 5084SOL    HW116151   3.680   4.805   5.583
 5084SOL    HW216152   3.836   4.770   5.615
 5085SOL     OW16153   0.445   4.646   5.541
 5085SOL    HW116154   0.411   4.680   5.454
 5085SOL    HW216155   0.394   4.689   5.616
 5086SOL     OW16156   1.061   4.645   2.790
 5086SOL    HW116157   1.099   4.631   2.881
 5086SOL    HW216158   1.074   4.563   2.735
 5087SOL     OW16159   0.405   4.945   2.033
 5087SOL    HW116160   0.417   4.853   1.995
 5087SOL    HW216161   0.474   4.961   2.104
 5088SOL     OW16162   5.216   4.970   2.500
 5088SOL    HW116163   5.282   5.026   2.550
 5088SOL    HW216164   5.129   4.971   2.549
 5089SOL     OW16165   5.330   6.402   6.075
 5089SOL    HW116166   5.414   6.395   6.130
 5089SOL    HW216167   5.353   6.429   5.982
 5090SOL     OW16168   2.625   6.752   4.631
 5090SOL    HW116169   2.574   6.681   4.581
 5090SOL    HW216170   2.681   6.804   4.567
 5091SOL     OW16171   6.469   6.477   6.201
 5091SOL    HW116172   6.402   6.548   6.226
 5091SOL    HW216173   6.421   6.390   6.187
 5092SOL     OW16174   4.100   3.711   3.879
 5092SOL    HW116175   4.074   3.757   3.964
 5092SOL    HW216176   4.143   3.623   3.901
 5093SOL     OW16177   2.894   2.292   2.778
 5093SOL    HW116178   2.930   2.227   2.712
 5093SOL    HW216179   2.899   2.253   2.870
 5094SOL     OW16180   2.226   6.136   4.807
 5094SOL    HW116181   2.216   6.199   4.884
 5094SOL    HW216182   2.323   6.118   4.790
 5095SOL     OW16183   0.047   0.935   3.511
 5095SOL    HW116184   0.141   0.903   3.515
 5095SOL    HW216185   0.045   1.035   3.517
 5096SOL     OW16186   6.621   3.152   5.884
 5096SOL    HW116187   6.561   3.106   5.819
 5096SOL    HW216188   6.660   3.085   5.947
 5097SOL     OW16189   0.487   1.012   5.584
 5097SOL    HW116190   0.409   0.977   5.532
 5097SOL    HW216191   0.469   1.003   5.682
 5098SOL     OW16192   2.996   2.446   0.190
 5098SOL    HW116193   2.975   2.379   0.261
 5098SOL    HW216194   2.925   2.516   0.188
 5099SOL     OW16195   2.037   5.916   2.435
 5099SOL    HW116196   2.113   5.861   2.400
 5099SOL    HW216197   1.951   5.882   2.396
 5100SOL     OW16198   5.325   3.686   2.335
 5100SOL    HW116199   5.286   3.594   2.343
 5100SOL    HW216200   5.388   3.689   2.257
 5101SOL     OW16201   3.373   0.352   4.534
 5101SOL    HW116202   3.328   0.387   4.616
 5101SOL    HW216203   3.314   0.282   4.491
 5102SOL     OW16204   5.807   5.186   5.276
 5102SOL    HW116205   5.723   5.212   5.324
 5102SOL    HW216206   5.787   5.169   5.180
 5103SOL     OW16207   0.590   0.618   6.322
 5103SOL    HW116208   0.680   0.589   6.353
 5103SOL    HW216209   0.552   0.550   6.259
 5104SOL     OW16210   4.164   3.623   3.182
 5104SOL    HW116211   4.250   3.642   3.136
 5104SOL    HW216212   4.158   3.678   3.266
 5105SOL     OW16213   4.303   3.217   7.010
 5105SOL    HW116214   4.254   3.304   7.005
 5105SOL    HW216215   4.245   3.144   6.975
 5106SOL     OW16216   3.709   1.503   1.518
 5106SOL    HW116217   3.753   1.535   1.602
 5106SOL    HW216218   3.615   1.535   1.516
 5107SOL     OW16219   6.182   5.307   0.903
 5107SOL    HW116220   6.161   5.308   1.001
 5107SOL    HW216221   6.145   5.223   0.862
 5108SOL     OW16222   3.778   4.447   0.941
 5108SOL    HW116223   3.722   4.475   0.863
 5108SOL    HW216224   3.851   4.514   0.955
 5109SOL     OW16225   1.606   2.707   2.741
 5109SOL    HW116226   1.687   2.758   2.713
 5109SOL    HW216227   1.584   2.730   2.836
 5110SOL     OW16228   4.256   6.750   5.262
 5110SOL    HW116229   4.261   6.685   5.337
 5110SOL    HW216230   4.276   6.842   5.297
 5111SOL     OW16231   1.288   5.491   5.886
 5111SOL    HW116232   1.316   5.460   5.795
 5111SOL    HW216233   1.369   5.503   5.944
 5112SOL     OW16234   1.509   6.004   3.438
 5112SOL    HW116235   1.450   5.973   3.363
 5112SOL    HW216236   1.587   6.055   3.401
 5113SOL     OW16237   1.970   3.937   0.610
 5113SOL    HW116238   2.031   3.893   0.545
 5113SOL    HW216239   2.023   3.990   0.676
 5114SOL     OW16240   4.409   4.564   1.311
 5114SOL    HW116241   4.431   4.479   1.263
 5114SOL    HW216242   4.422   4.642   1.249
 5115SOL     OW16243   1.737   3.850   0.476
 5115SOL    HW116244   1.818   3.854   0.534
 5115SOL    HW216245   1.751   3.906   0.394
 5116SOL     OW16246   0.375   6.869   5.136
 5116SOL    HW116247   0.446   6.864   5.206
 5116SOL    HW216248   0.366   6.780   5.092
 5117SOL     OW16249   0.062   2.737   3.065
 5117SOL    HW116250   7.008   2.729   3.125
 5117SOL    HW216251   0.074   2.833   3.040
 5118SOL     OW16252   4.056   5.687   0.144
 5118SOL    HW116253   4.049   5.783   0.171
 5118SOL    HW216254   4.145   5.652   0.170
 5119SOL     OW16255   5.991   1.580   0.456
 5119SOL    HW116256   5.932   1.573   0.537
 5119SOL    HW216257   5.996   1.491   0.411
 5120SOL     OW16258   5.355   6.369   6.978
 5120SOL    HW116259   5.262   6.335   6.994
 5120SOL    HW216260   5.350   6.454   6.926
 5121SOL     OW16261   1.596   3.182   6.540
 5121SOL    HW116262   1.503   3.147   6.532
 5121SOL    HW216263   1.657   3.127   6.483
 5122SOL     OW16264   4.722   4.672   3.301
 5122SOL    HW116265   4.815   4.650   3.270
 5122SOL    HW216266   4.726   4.714   3.392
 5123SOL     OW16267   5.109   2.718   1.981
 5123SOL    HW116268   5.088   2.759   2.070
 5123SOL    HW216269   5.170   2.640   1.995
 5124SOL     OW16270   1.257   6.132   4.642
 5124SOL    HW116271   1.247   6.045   4.689
 5124SOL    HW216272   1.210   6.203   4.694
 5125SOL     OW16273   6.217   1.878   3.917
 5125SOL    HW116274   6.207   1.874   4.016
 5125SOL    HW216275   6.297   1.933   3.893
 5126SOL     OW16276   2.016   0.769   2.179
 5126SOL    HW116277   2.033   0.860   2.140
 5126SOL    HW216278   1.923   0.766   2.216
 5127SOL     OW16279   2.202   5.964   6.926
 5127SOL    HW116280   2.296   5.971   6.894
 5127SOL    HW216281   2.148   6.039   6.887
 5128SOL     OW16282   5.091   6.882   1.631
 5128SOL    HW116283   5.041   6.816   1.576
 5128SOL    HW216284   5.106   6.846   1.723
 5129SOL     OW16285   6.258   6.544   0.633
 5129SOL    HW116286   6.195   6.622   0.630
 5129SOL    HW216287   6.215   6.468   0.682
 5130SOL     OW16288   6.049   5.134   2.662
 5130SOL    HW116289   6.037   5.071   2.739
 5130SOL    HW216290   6.127   5.105   2.607
 5131SOL     OW16291   2.378   2.629   2.372
 5131SOL    HW116292   2.414   2.558   2.432
 5131SOL    HW216293   2.399   2.606   2.277
 5132SOL     OW16294   2.706   6.067   5.030
 5132SOL    HW116295   2.718   6.058   5.129
 5132SOL    HW216296   2.732   5.981   4.985
 5133SOL     OW16297   3.693   6.218   5.325
 5133SOL    HW116298   3.606   6.256   5.356
 5133SOL    HW216299   3.763   6.234   5.395
 5134SOL     OW16300   6.422   3.848   6.221
 5134SOL    HW116301   6.342   3.848   6.282
 5134SOL    HW216302   6.395   3.814   6.131
 5135SOL     OW16303   6.601   1.742   4.516
 5135SOL    HW116304   6.622   1.762   4.420
 5135SOL    HW216305   6.612   1.825   4.571
 5136SOL     OW16306   3.899   2.219   6.189
 5136SOL    HW116307   3.854   2.252   6.106
 5136SOL    HW216308   3.902   2.119   6.188
 5137SOL     OW16309   3.715   3.259   0.152
 5137SOL    HW116310   3.761   3.208   0.225
 5137SOL    HW216311   3.773   3.334   0.121
 5138SOL     OW16312   2.139   3.148   5.883
 5138SOL    HW116313   2.091   3.153   5.970
 5138SOL    HW216314   2.227   3.196   5.890
 5139SOL     OW16315   0.759   0.166   3.285
 5139SOL    HW116316   0.779   0.070   3.265
 5139SOL    HW216317   0.829   0.203   3.346
 5140SOL     OW16318   3.054   3.044   1.586
 5140SOL    HW116319   3.002   3.101   1.650
 5140SOL    HW216320   2.991   3.002   1.521
 5141SOL     OW16321   0.641   4.402   5.835
 5141SOL    HW116322   0.700   4.331   5.873
 5141SOL    HW216323   0.546   4.383   5.860
 5142SOL     OW16324   5.862   2.838   2.834
 5142SOL    HW116325   5.826   2.886   2.754
 5142SOL    HW216326   5.789   2.785   2.876
 5143SOL     OW16327   6.952   5.345   5.135
 5143SOL    HW116328   6.984   5.283   5.207
 5143SOL    HW216329   6.974   5.306   5.046
 5144SOL     OW16330   1.924   1.484   5.045
 5144SOL    HW116331   1.901   1.537   4.963
 5144SOL    HW216332   1.840   1.464   5.096
 5145SOL     OW16333   3.299   5.358   5.899
 5145SOL    HW116334   3.232   5.386   5.968
 5145SOL    HW216335   3.268   5.387   5.809
 5146SOL     OW16336   2.684   4.859   0.174
 5146SOL    HW116337   2.670   4.771   0.218
 5146SOL    HW216338   2.602   4.883   0.121
 5147SOL     OW16339   0.116   5.262   6.615
 5147SOL    HW116340   0.052   5.300   6.682
 5147SOL    HW216341   0.071   5.257   6.525
 5148SOL     OW16342   0.493   0.475   0.370
 5148SOL    HW116343   0.454   0.549   0.425
 5148SOL    HW216344   0.419   0.418   0.335
 5149SOL     OW16345   0.394   0.887   5.873
 5149SOL    HW116346   0.426   0.948   5.945
 5149SOL    HW216347   0.382   0.795   5.910
 5150SOL     OW16348   2.496   5.957   4.539
 5150SOL    HW116349   2.589   5.934   4.512
 5150SOL    HW216350   2.440   5.874   4.541
 5151SOL     OW16351   4.224   1.091   5.907
 5151SOL    HW116352   4.294   1.163   5.905
 5151SOL    HW216353   4.207   1.058   5.814
 5152SOL     OW16354   0.278   4.765   0.070
 5152SOL    HW116355   0.185   4.732   0.054
 5152SOL    HW216356   0.278   4.833   0.144
 5153SOL     OW16357   1.878   2.148   1.071
 5153SOL    HW116358   1.837   2.057   1.065
 5153SOL    HW216359   1.972   2.144   1.040
 5154SOL     OW16360   1.962   4.454   5.303
 5154SOL    HW116361   1.941   4.552   5.300
 5154SOL    HW216362   2.027   4.437   5.377
 5155SOL     OW16363   3.348   0.517   2.689
 5155SOL    HW116364   3.353   0.489   2.785
 5155SOL    HW216365   3.435   0.557   2.662
 5156SOL     OW16366   5.498   2.736   6.172
 5156SOL    HW116367   5.475   2.686   6.089
 5156SOL    HW216368   5.596   2.754   6.174
 5157SOL     OW16369   6.481   2.550   4.482
 5157SOL    HW116370   6.383   2.535   4.490
 5157SOL    HW216371   6.527   2.463   4.465
 5158SOL     OW16372   3.419   0.417   1.307
 5158SOL    HW116373   3.448   0.376   1.393
 5158SOL    HW216374   3.396   0.513   1.322
 5159SOL     OW16375   2.033   3.561   4.759
 5159SOL    HW116376   2.075   3.630   4.818
 5159SOL    HW216377   1.936   3.552   4.782
 5160SOL     OW16378   2.260   2.251   3.952
 5160SOL    HW116379   2.335   2.195   3.916
 5160SOL    HW216380   2.173   2.207   3.932
 5161SOL     OW16381   2.293   3.087   6.431
 5161SOL    HW116382   2.270   3.004   6.380
 5161SOL    HW216383   2.310   3.162   6.367
 5162SOL     OW16384   6.526   5.084   4.620
 5162SOL    HW116385   6.434   5.077   4.658
 5162SOL    HW216386   6.576   4.999   4.638
 5163SOL     OW16387   5.539   4.553   0.749
 5163SOL    HW116388   5.457   4.499   0.766
 5163SOL    HW216389   5.524   4.613   0.671
 5164SOL     OW16390   5.999   5.952   5.765
 5164SOL    HW116391   5.918   5.937   5.823
 5164SOL    HW216392   5.971   5.954   5.669
 5165SOL     OW16393   5.890   3.888   4.454
 5165SOL    HW116394   5.989   3.872   4.457
 5165SOL    HW216395   5.872   3.985   4.469
 5166SOL     OW16396   1.584   0.150   1.914
 5166SOL    HW116397   1.572   0.239   1.870
 5166SOL    HW216398   1.498   0.099   1.909
 5167SOL     OW16399   1.672   6.884   6.231
 5167SOL    HW116400   1.707   6.803   6.185
 5167SOL    HW216401   1.691   6.965   6.176
 5168SOL     OW16402   3.884   2.187   2.984
 5168SOL    HW116403   3.793   2.172   2.944
 5168SOL    HW216404   3.950   2.203   2.910
 5169SOL     OW16405   4.019   4.572   6.432
 5169SOL    HW116406   4.037   4.473   6.428
 5169SOL    HW216407   4.095   4.617   6.479
 5170SOL     OW16408   4.394   5.071   4.220
 5170SOL    HW116409   4.341   5.135   4.275
 5170SOL    HW216410   4.343   5.049   4.137
 5171SOL     OW16411   2.613   4.639   4.575
 5171SOL    HW116412   2.642   4.614   4.667
 5171SOL    HW216413   2.630   4.737   4.559
 5172SOL     OW16414   1.650   4.444   0.119
 5172SOL    HW116415   1.669   4.346   0.119
 5172SOL    HW216416   1.605   4.469   0.205
 5173SOL     OW16417   7.010   2.451   5.506
 5173SOL    HW116418   0.019   2.482   5.595
 5173SOL    HW216419   0.005   2.520   5.437
 5174SOL     OW16420   1.953   4.885   6.019
 5174SOL    HW116421   2.015   4.910   5.944
 5174SOL    HW216422   1.974   4.942   6.099
 5175SOL     OW16423   6.971   5.501   6.212
 5175SOL    HW116424   6.911   5.573   6.177
 5175SOL    HW216425   0.031   5.502   6.162
 5176SOL     OW16426   5.183   3.966   5.946
 5176SOL    HW116427   5.162   4.062   5.933
 5176SOL    HW216428   5.104   3.910   5.922
 5177SOL     OW16429   5.151   5.690   6.005
 5177SOL    HW116430   5.142   5.713   5.908
 5177SOL    HW216431   5.118   5.767   6.061
 5178SOL     OW16432   2.699   2.988   1.137
 5178SOL    HW116433   2.650   3.026   1.058
 5178SOL    HW216434   2.797   2.995   1.123
 5179SOL     OW16435   3.156   6.648   5.405
 5179SOL    HW116436   3.134   6.679   5.312
 5179SOL    HW216437   3.214   6.717   5.449
 5180SOL     OW16438   3.695   1.930   0.092
 5180SOL    HW116439   3.721   1.902   0.185
 5180SOL    HW216440   3.602   1.899   0.073
 5181SOL     OW16441   2.839   5.876   2.723
 5181SOL    HW116442   2.825   5.858   2.821
 5181SOL    HW216443   2.807   5.968   2.702
 5182SOL     OW16444   4.482   4.100   1.434
 5182SOL    HW116445   4.551   4.080   1.504
 5182SOL    HW216446   4.515   4.067   1.346
 5183SOL     OW16447   3.940   1.124   3.563
 5183SOL    HW116448   4.032   1.150   3.594
 5183SOL    HW216449   3.920   1.030   3.592
 5184SOL     OW16450   1.318   1.641   2.997
 5184SOL    HW116451   1.232   1.638   2.947
 5184SOL    HW216452   1.303   1.675   3.089
 5185SOL     OW16453   3.581   0.001   1.158
 5185SOL    HW116454   3.552   0.096   1.173
 5185SOL    HW216455   3.679   7.024   1.141
 5186SOL     OW16456   5.133   4.596   0.275
 5186SOL    HW116457   5.196   4.531   0.232
 5186SOL    HW216458   5.071   4.633   0.206
 5187SOL     OW16459   4.873   2.099   4.517
 5187SOL    HW116460   4.911   2.007   4.521
 5187SOL    HW216461   4.853   2.122   4.421
 5188SOL     OW16462   1.278   2.090   3.900
 5188SOL    HW116463   1.373   2.065   3.882
 5188SOL    HW216464   1.247   2.155   3.831
 5189SOL     OW16465   4.323   6.468   6.829
 5189SOL    HW116466   4.235   6.512   6.814
 5189SOL    HW216467   4.347   6.413   6.749
 5190SOL     OW16468   2.043   2.694   2.233
 5190SOL    HW116469   2.090   2.620   2.185
 5190SOL    HW216470   2.105   2.772   2.244
 5191SOL     OW16471   5.212   0.031   2.253
 5191SOL    HW116472   5.194   6.987   2.323
 5191SOL    HW216473   5.225   0.120   2.298
 5192SOL     OW16474   6.149   4.140   1.358
 5192SOL    HW116475   6.056   4.175   1.363
 5192SOL    HW216476   6.214   4.213   1.381
 5193SOL     OW16477   4.652   4.425   2.198
 5193SOL    HW116478   4.748   4.418   2.224
 5193SOL    HW216479   4.631   4.357   2.128
 5194SOL     OW16480   5.242   1.390   0.527
 5194SOL    HW116481   5.339   1.367   0.533
 5194SOL    HW216482   5.212   1.431   0.613
 5195SOL     OW16483   6.253   6.470   5.509
 5195SOL    HW116484   6.302   6.542   5.461
 5195SOL    HW216485   6.271   6.478   5.607
 5196SOL     OW16486   6.680   3.706   2.587
 5196SOL    HW116487   6.701   3.759   2.669
 5196SOL    HW216488   6.644   3.617   2.614
 5197SOL     OW16489   3.608   5.431   5.591
 5197SOL    HW116490   3.666   5.400   5.516
 5197SOL    HW216491   3.559   5.514   5.565
 5198SOL     OW16492   4.125   1.244   4.684
 5198SOL    HW116493   4.098   1.304   4.608
 5198SOL    HW216494   4.100   1.150   4.662
 5199SOL     OW16495   7.021   5.760   1.371
 5199SOL    HW116496   0.075   5.788   1.424
 5199SOL    HW216497   7.024   5.802   1.280
 5200SOL     OW16498   6.568   0.305   4.770
 5200SOL    HW116499   6.637   0.292   4.841
 5200SOL    HW216500   6.482   0.261   4.798
 5201SOL     OW16501   5.869   4.798   5.652
 5201SOL    HW116502   5.881   4.711   5.604
 5201SOL    HW216503   5.825   4.864   5.592
 5202SOL     OW16504   3.731   2.835   5.736
 5202SOL    HW116505   3.639   2.872   5.746
 5202SOL    HW216506   3.770   2.818   5.826
 5203SOL     OW16507   1.463   0.498   6.021
 5203SOL    HW116508   1.469   0.448   6.107
 5203SOL    HW216509   1.414   0.443   5.954
 5204SOL     OW16510   2.138   0.604   1.583
 5204SOL    HW116511   2.065   0.659   1.622
 5204SOL    HW216512   2.102   0.546   1.511
 5205SOL     OW16513   6.510   0.272   1.661
 5205SOL    HW116514   6.504   0.230   1.570
 5205SOL    HW216515   6.584   0.229   1.713
 5206SOL     OW16516   1.062   4.762   4.075
 5206SOL    HW116517   1.095   4.799   3.988
 5206SOL    HW216518   1.128   4.784   4.147
 5207SOL     OW16519   5.739   6.796   4.903
 5207SOL    HW116520   5.827   6.820   4.945
 5207SOL    HW216521   5.732   6.840   4.813
 5208SOL     OW16522   0.008   2.149   0.242
 5208SOL    HW116523   6.947   2.121   0.283
 5208SOL    HW216524   0.005   2.130   0.144
 5209SOL     OW16525   5.498   6.603   3.589
 5209SOL    HW116526   5.588   6.579   3.625
 5209SOL    HW216527   5.449   6.659   3.656
 5210SOL     OW16528   5.780   4.858   1.202
 5210SOL    HW116529   5.871   4.890   1.176
 5210SOL    HW216530   5.752   4.784   1.140
 5211SOL     OW16531   5.118   2.957   5.129
 5211SOL    HW116532   5.101   2.867   5.087
 5211SOL    HW216533   5.151   2.945   5.222
 5212SOL     OW16534   0.004   4.128   0.016
 5212SOL    HW116535   6.974   4.063   6.990
 5212SOL    HW216536   0.095   4.089   0.032
 5213SOL     OW16537   3.977   3.068   2.755
 5213SOL    HW116538   3.884   3.062   2.718
 5213SOL    HW216539   4.042   3.027   2.691
 5214SOL     OW16540   5.491   3.514   6.023
 5214SOL    HW116541   5.420   3.444   6.012
 5214SOL    HW216542   5.535   3.530   5.934
 5215SOL     OW16543   0.416   5.249   5.253
 5215SOL    HW116544   0.374   5.301   5.328
 5215SOL    HW216545   0.354   5.176   5.225
 5216SOL     OW16546   6.007   4.513   1.553
 5216SOL    HW116547   6.100   4.550   1.548
 5216SOL    HW216548   6.011   4.417   1.578
 5217SOL     OW16549   4.620   6.954   2.921
 5217SOL    HW116550   4.686   7.009   2.869
 5217SOL    HW216551   4.560   6.905   2.858
 5218SOL     OW16552   6.118   6.801   0.668
 5218SOL    HW116553   6.158   6.843   0.749
 5218SOL    HW216554   6.018   6.809   0.672
 5219SOL     OW16555   3.535   1.677   5.266
 5219SOL    HW116556   3.472   1.632   5.202
 5219SOL    HW216557   3.490   1.758   5.304
 5220SOL     OW16558   2.311   4.850   4.676
 5220SOL    HW116559   2.312   4.752   4.696
 5220SOL    HW216560   2.224   4.875   4.634
 5221SOL     OW16561   5.028   6.090   1.304
 5221SOL    HW116562   4.939   6.118   1.340
 5221SOL    HW216563   5.077   6.171   1.271
 5222SOL     OW16564   6.943   3.392   2.176
 5222SOL    HW116565   6.861   3.440   2.207
 5222SOL    HW216566   7.024   3.444   2.203
 5223SOL     OW16567   6.953   2.889   0.566
 5223SOL    HW116568   7.021   2.842   0.622
 5223SOL    HW216569   6.982   2.891   0.471
 5224SOL     OW16570   1.295   1.472   4.742
 5224SOL    HW116571   1.333   1.563   4.760
 5224SOL    HW216572   1.364   1.415   4.698
 5225SOL     OW16573   6.598   2.403   5.687
 5225SOL    HW116574   6.652   2.444   5.761
 5225SOL    HW216575   6.506   2.384   5.720
 5226SOL     OW16576   0.511   6.366   4.489
 5226SOL    HW116577   0.610   6.382   4.487
 5226SOL    HW216578   0.492   6.272   4.464
 5227SOL     OW16579   1.013   3.374   5.958
 5227SOL    HW116580   1.022   3.466   5.920
 5227SOL    HW216581   1.042   3.375   6.054
 5228SOL     OW16582   1.601   2.109   5.172
 5228SOL    HW116583   1.669   2.121   5.245
 5228SOL    HW216584   1.533   2.042   5.201
 5229SOL     OW16585   3.794   1.934   6.214
 5229SOL    HW116586   3.787   1.836   6.236
 5229SOL    HW216587   3.714   1.982   6.252
 5230SOL     OW16588   6.614   0.146   2.394
 5230SOL    HW116589   6.609   0.200   2.310
 5230SOL    HW216590   6.522   0.135   2.433
 5231SOL     OW16591   6.492   4.002   2.300
 5231SOL    HW116592   6.576   3.989   2.248
 5231SOL    HW216593   6.505   3.970   2.394
 5232SOL     OW16594   1.512   2.257   5.527
 5232SOL    HW116595   1.573   2.308   5.587
 5232SOL    HW216596   1.557   2.241   5.439
 5233SOL     OW16597   3.605   0.070   3.516
 5233SOL    HW116598   3.673   0.143   3.507
 5233SOL    HW216599   3.515   0.104   3.488
 5234SOL     OW16600   2.832   2.565   6.104
 5234SOL    HW116601   2.814   2.492   6.170
 5234SOL    HW216602   2.859   2.524   6.016
 5235SOL     OW16603   2.432   1.916   1.634
 5235SOL    HW116604   2.504   1.849   1.656
 5235SOL    HW216605   2.474   2.002   1.606
 5236SOL     OW16606   2.998   4.832   2.092
 5236SOL    HW116607   2.961   4.925   2.098
 5236SOL    HW216608   2.923   4.767   2.079
 5237SOL     OW16609   1.819   1.487   2.204
 5237SOL    HW116610   1.811   1.571   2.258
 5237SOL    HW216611   1.895   1.497   2.139
 5238SOL     OW16612   6.952   0.189   2.716
 5238SOL    HW116613   7.003   0.229   2.640
 5238SOL    HW216614   6.880   0.130   2.680
 5239SOL     OW16615   2.602   4.210   1.019
 5239SOL    HW116616   2.662   4.131   1.029
 5239SOL    HW216617   2.636   4.268   0.945
 5240SOL     OW16618   2.031   4.030   5.933
 5240SOL    HW116619   1.955   3.988   5.982
 5240SOL    HW216620   2.118   3.999   5.973
 5241SOL     OW16621   2.292   6.574   3.114
 5241SOL    HW116622   2.367   6.519   3.150
 5241SOL    HW216623   2.326   6.637   3.044
 5242SOL     OW16624   4.248   6.415   5.934
 5242SOL    HW116625   4.162   6.456   5.962
 5242SOL    HW216626   4.324   6.468   5.973
 5243SOL     OW16627   2.985   5.673   3.502
 5243SOL    HW116628   2.994   5.611   3.580
 5243SOL    HW216629   3.056   5.743   3.507
 5244SOL     OW16630   4.089   0.961   6.739
 5244SOL    HW116631   4.168   0.949   6.798
 5244SOL    HW216632   4.009   0.914   6.778
 5245SOL     OW16633   3.262   4.079   2.005
 5245SOL    HW116634   3.209   4.152   2.047
 5245SOL    HW216635   3.308   4.026   2.077
 5246SOL     OW16636   5.885   3.915   6.210
 5246SOL    HW116637   5.962   3.977   6.196
 5246SOL    HW216638   5.829   3.911   6.128
 5247SOL     OW16639   5.025   1.497   6.557
 5247SOL    HW116640   5.063   1.588   6.547
 5247SOL    HW216641   4.978   1.470   6.473
 5248SOL     OW16642   4.944   1.096   3.871
 5248SOL    HW116643   4.895   1.182   3.886
 5248SOL    HW216644   4.976   1.092   3.776
 5249SOL     OW16645   7.006   5.001   1.468
 5249SOL    HW116646   6.949   4.923   1.493
 5249SOL    HW216647   0.071   4.990   1.510
 5250SOL     OW16648   2.450   5.211   1.073
 5250SOL    HW116649   2.405   5.233   0.987
 5250SOL    HW216650   2.381   5.201   1.145
 5251SOL     OW16651   0.595   4.607   6.602
 5251SOL    HW116652   0.672   4.652   6.646
 5251SOL    HW216653   0.613   4.598   6.504
 5252SOL     OW16654   3.909   5.439   2.842
 5252SOL    HW116655   3.947   5.356   2.801
 5252SOL    HW216656   3.978   5.511   2.844
 5253SOL     OW16657   0.599   6.579   5.090
 5253SOL    HW116658   0.503   6.553   5.078
 5253SOL    HW216659   0.652   6.549   5.011
 5254SOL     OW16660   4.545   5.821   2.861
 5254SOL    HW116661   4.517   5.905   2.908
 5254SOL    HW216662   4.632   5.836   2.814
 5255SOL     OW16663   6.850   1.817   5.470
 5255SOL    HW116664   6.940   1.835   5.431
 5255SOL    HW216665   6.842   1.719   5.492
 5256SOL     OW16666   4.731   1.331   2.717
 5256SOL    HW116667   4.706   1.425   2.693
 5256SOL    HW216668   4.656   1.270   2.693
 5257SOL     OW16669   4.843   2.281   6.966
 5257SOL    HW116670   4.896   2.359   7.000
 5257SOL    HW216671   4.757   2.275   7.017
 5258SOL     OW16672   4.839   1.777   5.361
 5258SOL    HW116673   4.792   1.743   5.280
 5258SOL    HW216674   4.923   1.825   5.334
 5259SOL     OW16675   5.611   5.553   4.000
 5259SOL    HW116676   5.687   5.579   3.941
 5259SOL    HW216677   5.578   5.463   3.974
 5260SOL     OW16678   1.919   5.906   1.717
 5260SOL    HW116679   2.003   5.942   1.675
 5260SOL    HW216680   1.881   5.835   1.658
 5261SOL     OW16681   6.012   4.812   0.039
 5261SOL    HW116682   6.059   4.852   0.117
 5261SOL    HW216683   6.041   4.859   6.981
 5262SOL     OW16684   1.580   1.526   1.724
 5262SOL    HW116685   1.558   1.481   1.637
 5262SOL    HW216686   1.585   1.458   1.796
 5263SOL     OW16687   2.064   5.970   3.164
 5263SOL    HW116688   2.028   5.927   3.081
 5263SOL    HW216689   2.163   5.973   3.159
 5264SOL     OW16690   6.594   2.817   1.681
 5264SOL    HW116691   6.615   2.895   1.622
 5264SOL    HW216692   6.607   2.843   1.776
 5265SOL     OW16693   6.425   6.031   5.468
 5265SOL    HW116694   6.396   5.964   5.399
 5265SOL    HW216695   6.383   6.119   5.448
 5266SOL     OW16696   1.394   6.893   5.977
 5266SOL    HW116697   1.307   6.890   5.927
 5266SOL    HW216698   1.417   6.801   6.008
 5267SOL     OW16699   5.298   1.594   4.234
 5267SOL    HW116700   5.366   1.541   4.285
 5267SOL    HW216701   5.337   1.624   4.147
 5268SOL     OW16702   5.401   6.982   6.105
 5268SOL    HW116703   5.407   0.052   6.134
 5268SOL    HW216704   5.434   6.974   6.011
 5269SOL     OW16705   1.189   6.918   4.379
 5269SOL    HW116706   1.187   6.961   4.470
 5269SOL    HW216707   1.283   6.913   4.347
 5270SOL     OW16708   0.861   2.032   6.065
 5270SOL    HW116709   0.930   2.103   6.078
 5270SOL    HW216710   0.880   1.982   5.980
 5271SOL     OW16711   1.550   5.610   4.459
 5271SOL    HW116712   1.601   5.695   4.470
 5271SOL    HW216713   1.469   5.612   4.519
 5272SOL     OW16714   4.515   0.560   6.330
 5272SOL    HW116715   4.470   0.649   6.342
 5272SOL    HW216716   4.605   0.574   6.290
 5273SOL     OW16717   3.070   1.646   2.898
 5273SOL    HW116718   3.004   1.705   2.945
 5273SOL    HW216719   3.023   1.597   2.824
 5274SOL     OW16720   5.840   4.918   1.463
 5274SOL    HW116721   5.835   4.865   1.378
 5274SOL    HW216722   5.847   4.857   1.541
 5275SOL     OW16723   5.261   1.721   6.092
 5275SOL    HW116724   5.313   1.783   6.151
 5275SOL    HW216725   5.172   1.761   6.071
 5276SOL     OW16726   3.855   6.202   1.914
 5276SOL    HW116727   3.945   6.235   1.886
 5276SOL    HW216728   3.866   6.129   1.981
 5277SOL     OW16729   2.161   3.252   1.858
 5277SOL    HW116730   2.193   3.341   1.890
 5277SOL    HW216731   2.173   3.185   1.932
 5278SOL     OW16732   3.544   3.222   2.334
 5278SOL    HW116733   3.548   3.301   2.273
 5278SOL    HW216734   3.625   3.222   2.393
 5279SOL     OW16735   1.628   6.063   2.806
 5279SOL    HW116736   1.546   6.119   2.793
 5279SOL    HW216737   1.705   6.121   2.831
 5280SOL     OW16738   3.993   1.452   4.161
 5280SOL    HW116739   3.907   1.404   4.146
 5280SOL    HW216740   4.029   1.484   4.074
 5281SOL     OW16741   7.022   2.459   3.587
 5281SOL    HW116742   6.929   2.444   3.553
 5281SOL    HW216743   0.023   2.381   3.644
 5282SOL     OW16744   4.949   2.137   1.058
 5282SOL    HW116745   4.997   2.224   1.067
 5282SOL    HW216746   4.861   2.152   1.012
 5283SOL     OW16747   4.589   4.600   6.242
 5283SOL    HW116748   4.673   4.546   6.236
 5283SOL    HW216749   4.600   4.685   6.191
 5284SOL     OW16750   4.728   2.815   3.846
 5284SOL    HW116751   4.805   2.809   3.909
 5284SOL    HW216752   4.659   2.748   3.871
 5285SOL     OW16753   4.330   6.463   2.869
 5285SOL    HW116754   4.275   6.403   2.926
 5285SOL    HW216755   4.271   6.530   2.823
 5286SOL     OW16756   1.886   4.814   1.632
 5286SOL    HW116757   1.928   4.724   1.624
 5286SOL    HW216758   1.787   4.806   1.621
 5287SOL     OW16759   0.890   0.803   2.441
 5287SOL    HW116760   0.890   0.858   2.525
 5287SOL    HW216761   0.801   0.760   2.429
 5288SOL     OW16762   4.281   0.084   1.252
 5288SOL    HW116763   4.371   0.124   1.270
 5288SOL    HW216764   4.228   0.081   1.337
 5289SOL     OW16765   1.531   6.516   1.140
 5289SOL    HW116766   1.598   6.451   1.175
 5289SOL    HW216767   1.475   6.472   1.069
 5290SOL     OW16768   5.914   5.895   0.203
 5290SOL    HW116769   5.933   5.974   0.260
 5290SOL    HW216770   5.875   5.822   0.259
 5291SOL     OW16771   0.933   5.932   6.866
 5291SOL    HW116772   0.972   6.011   6.820
 5291SOL    HW216773   0.987   5.910   6.948
 5292SOL     OW16774   5.702   1.314   0.797
 5292SOL    HW116775   5.686   1.343   0.891
 5292SOL    HW216776   5.731   1.218   0.796
 5293SOL     OW16777   1.759   1.312   4.127
 5293SOL    HW116778   1.828   1.366   4.078
 5293SOL    HW216779   1.668   1.347   4.105
 5294SOL     OW16780   3.908   2.541   6.404
 5294SOL    HW116781   3.969   2.503   6.474
 5294SOL    HW216782   3.814   2.539   6.437
 5295SOL     OW16783   6.764   1.598   2.760
 5295SOL    HW116784   6.791   1.653   2.681
 5295SOL    HW216785   6.665   1.590   2.763
 5296SOL     OW16786   0.569   3.034   6.375
 5296SOL    HW116787   0.574   2.978   6.458
 5296SOL    HW216788   0.514   3.115   6.393
 5297SOL     OW16789   1.088   2.737   1.833
 5297SOL    HW116790   1.134   2.801   1.772
 5297SOL    HW216791   1.012   2.693   1.786
 5298SOL     OW16792   1.246   4.380   1.616
 5298SOL    HW116793   1.267   4.418   1.526
 5298SOL    HW216794   1.206   4.451   1.674
 5299SOL     OW16795   3.002   0.415   0.349
 5299SOL    HW116796   2.932   0.375   0.290
 5299SOL    HW216797   2.981   0.511   0.367
 5300SOL     OW16798   0.387   5.194   3.797
 5300SOL    HW116799   0.302   5.153   3.830
 5300SOL    HW216800   0.457   5.185   3.867
 5301SOL     OW16801   5.028   0.245   6.860
 5301SOL    HW116802   5.124   0.246   6.889
 5301SOL    HW216803   5.024   0.252   6.760
 5302SOL     OW16804   6.657   4.002   3.751
 5302SOL    HW116805   6.657   3.951   3.837
 5302SOL    HW216806   6.608   4.088   3.763
 5303SOL     OW16807   1.667   4.842   3.274
 5303SOL    HW116808   1.608   4.796   3.339
 5303SOL    HW216809   1.762   4.841   3.308
 5304SOL     OW16810   4.419   2.942   5.488
 5304SOL    HW116811   4.328   2.933   5.448
 5304SOL    HW216812   4.423   3.024   5.545
 5305SOL     OW16813   3.473   1.372   4.304
 5305SOL    HW116814   3.474   1.409   4.211
 5305SOL    HW216815   3.397   1.412   4.355
 5306SOL     OW16816   2.458   6.589   4.484
 5306SOL    HW116817   2.366   6.552   4.474
 5306SOL    HW216818   2.511   6.571   4.401
 5307SOL     OW16819   4.960   0.075   0.391
 5307SOL    HW116820   4.985   7.023   0.333
 5307SOL    HW216821   4.927   0.151   0.334
 5308SOL     OW16822   6.184   1.890   1.952
 5308SOL    HW116823   6.262   1.935   1.996
 5308SOL    HW216824   6.192   1.791   1.964
 5309SOL     OW16825   3.842   3.712   5.090
 5309SOL    HW116826   3.781   3.635   5.111
 5309SOL    HW216827   3.874   3.706   4.996
 5310SOL     OW16828   5.202   2.534   0.639
 5310SOL    HW116829   5.161   2.443   0.633
 5310SOL    HW216830   5.297   2.530   0.610
 5311SOL     OW16831   0.145   6.480   0.018
 5311SOL    HW116832   0.103   6.419   6.976
 5311SOL    HW216833   0.244   6.483   0.003
 5312SOL     OW16834   0.710   3.081   1.492
 5312SOL    HW116835   0.640   3.038   1.436
 5312SOL    HW216836   0.800   3.063   1.453
 5313SOL     OW16837   0.191   6.147   0.764
 5313SOL    HW116838   0.180   6.118   0.669
 5313SOL    HW216839   0.287   6.167   0.781
 5314SOL     OW16840   3.815   5.062   1.565
 5314SOL    HW116841   3.886   4.992   1.550
 5314SOL    HW216842   3.802   5.114   1.481
 5315SOL     OW16843   5.593   1.617   2.248
 5315SOL    HW116844   5.679   1.625   2.300
 5315SOL    HW216845   5.516   1.638   2.308
 5316SOL     OW16846   5.445   5.338   4.020
 5316SOL    HW116847   5.424   5.316   4.115
 5316SOL    HW216848   5.366   5.383   3.978
 5317SOL     OW16849   6.604   5.313   2.289
 5317SOL    HW116850   6.577   5.222   2.319
 5317SOL    HW216851   6.629   5.310   2.192
 5318SOL     OW16852   0.464   2.696   3.941
 5318SOL    HW116853   0.395   2.683   4.012
 5318SOL    HW216854   0.457   2.622   3.873
 5319SOL     OW16855   3.190   6.570   2.965
 5319SOL    HW116856   3.197   6.471   2.961
 5319SOL    HW216857   3.119   6.601   2.902
 5320SOL     OW16858   0.156   3.058   6.355
 5320SOL    HW116859   0.111   3.030   6.270
 5320SOL    HW216860   0.127   3.151   6.379
 5321SOL     OW16861   2.815   4.338   6.022
 5321SOL    HW116862   2.780   4.365   6.112
 5321SOL    HW216863   2.912   4.318   6.028
 5322SOL     OW16864   2.238   5.704   1.089
 5322SOL    HW116865   2.162   5.647   1.057
 5322SOL    HW216866   2.211   5.750   1.174
 5323SOL     OW16867   5.406   3.185   0.333
 5323SOL    HW116868   5.505   3.177   0.320
 5323SOL    HW216869   5.387   3.264   0.393
 5324SOL     OW16870   4.295   3.230   1.165
 5324SOL    HW116871   4.311   3.193   1.257
 5324SOL    HW216872   4.255   3.160   1.107
 5325SOL     OW16873   3.331   6.107   4.976
 5325SOL    HW116874   3.296   6.054   5.054
 5325SOL    HW216875   3.366   6.045   4.906
 5326SOL     OW16876   0.181   0.234   2.104
 5326SOL    HW116877   0.271   0.194   2.123
 5326SOL    HW216878   0.192   0.316   2.048
 5327SOL     OW16879   6.512   0.378   4.037
 5327SOL    HW116880   6.585   0.369   3.969
 5327SOL    HW216881   6.445   0.445   4.003
 5328SOL     OW16882   3.628   4.980   0.102
 5328SOL    HW116883   3.705   5.041   0.121
 5328SOL    HW216884   3.550   5.034   0.069
 5329SOL     OW16885   0.410   5.711   6.565
 5329SOL    HW116886   0.363   5.640   6.511
 5329SOL    HW216887   0.509   5.693   6.565
 5330SOL     OW16888   3.894   4.969   0.661
 5330SOL    HW116889   3.873   4.899   0.594
 5330SOL    HW216890   3.891   5.059   0.618
 5331SOL     OW16891   5.457   1.320   6.543
 5331SOL    HW116892   5.509   1.274   6.615
 5331SOL    HW216893   5.507   1.402   6.514
 5332SOL     OW16894   6.474   3.056   6.819
 5332SOL    HW116895   6.422   3.009   6.890
 5332SOL    HW216896   6.530   3.127   6.861
 5333SOL     OW16897   1.118   0.196   3.904
 5333SOL    HW116898   1.196   0.138   3.925
 5333SOL    HW216899   1.095   0.252   3.984
 5334SOL     OW16900   3.149   6.286   1.545
 5334SOL    HW116901   3.242   6.285   1.507
 5334SOL    HW216902   3.112   6.378   1.537
 5335SOL     OW16903   0.156   4.867   1.990
 5335SOL    HW116904   0.159   4.808   1.910
 5335SOL    HW216905   0.247   4.908   2.004
 5336SOL     OW16906   1.988   3.565   5.099
 5336SOL    HW116907   1.905   3.554   5.153
 5336SOL    HW216908   2.045   3.483   5.107
 5337SOL     OW16909   6.838   3.574   1.012
 5337SOL    HW116910   6.918   3.532   0.970
 5337SOL    HW216911   6.773   3.601   0.942
 5338SOL     OW16912   0.115   3.518   0.650
 5338SOL    HW116913   0.029   3.511   0.598
 5338SOL    HW216914   0.094   3.516   0.748
 5339SOL     OW16915   5.655   2.674   2.938
 5339SOL    HW116916   5.677   2.587   2.894
 5339SOL    HW216917   5.583   2.720   2.886
 5340SOL     OW16918   4.863   3.254   1.194
 5340SOL    HW116919   4.816   3.168   1.216
 5340SOL    HW216920   4.811   3.331   1.230
 5341SOL     OW16921   5.083   4.765   3.392
 5341SOL    HW116922   5.095   4.853   3.346
 5341SOL    HW216923   5.041   4.700   3.329
 5342SOL     OW16924   5.984   5.966   4.555
 5342SOL    HW116925   6.007   6.019   4.637
 5342SOL    HW216926   6.065   5.956   4.498
 5343SOL     OW16927   3.877   3.406   6.750
 5343SOL    HW116928   3.783   3.378   6.727
 5343SOL    HW216929   3.887   3.504   6.734
 5344SOL     OW16930   6.756   2.222   6.886
 5344SOL    HW116931   6.737   2.168   6.968
 5344SOL    HW216932   6.677   2.279   6.864
 5345SOL     OW16933   3.431   1.266   0.317
 5345SOL    HW116934   3.516   1.273   0.370
 5345SOL    HW216935   3.372   1.196   0.357
 5346SOL     OW16936   2.685   6.435   3.463
 5346SOL    HW116937   2.696   6.528   3.428
 5346SOL    HW216938   2.728   6.370   3.401
 5347SOL     OW16939   5.509   1.760   5.305
 5347SOL    HW116940   5.483   1.835   5.366
 5347SOL    HW216941   5.589   1.713   5.342
 5348SOL     OW16942   4.866   2.674   5.528
 5348SOL    HW116943   4.874   2.769   5.499
 5348SOL    HW216944   4.917   2.615   5.465
 5349SOL     OW16945   0.991   4.159   1.352
 5349SOL    HW116946   1.051   4.208   1.289
 5349SOL    HW216947   0.903   4.207   1.358
 5350SOL     OW16948   0.825   6.737   6.115
 5350SOL    HW116949   0.826   6.766   6.211
 5350SOL    HW216950   0.770   6.801   6.061
 5351SOL     OW16951   0.363   5.866   3.423
 5351SOL    HW116952   0.294   5.915   3.370
 5351SOL    HW216953   0.454   5.901   3.400
 5352SOL     OW16954   1.169   2.525   6.074
 5352SOL    HW116955   1.117   2.606   6.049
 5352SOL    HW216956   1.238   2.549   6.142
 5353SOL     OW16957   3.149   6.864   3.761
 5353SOL    HW116958   3.202   6.911   3.832
 5353SOL    HW216959   3.104   6.784   3.801
 5354SOL     OW16960   3.885   5.696   2.105
 5354SOL    HW116961   3.925   5.604   2.115
 5354SOL    HW216962   3.858   5.730   2.195
 5355SOL     OW16963   5.252   5.282   5.237
 5355SOL    HW116964   5.334   5.338   5.226
 5355SOL    HW216965   5.174   5.330   5.197
 5356SOL     OW16966   1.122   0.043   1.408
 5356SOL    HW116967   1.175   0.016   1.328
 5356SOL    HW216968   1.176   0.104   1.465
 5357SOL     OW16969   6.616   3.321   2.514
 5357SOL    HW116970   6.543   3.358   2.456
 5357SOL    HW216971   6.575   3.277   2.594
 5358SOL     OW16972   6.124   0.934   6.537
 5358SOL    HW116973   6.198   0.999   6.553
 5358SOL    HW216974   6.106   0.882   6.621
 5359SOL     OW16975   2.609   2.606   6.627
 5359SOL    HW116976   2.559   2.628   6.543
 5359SOL    HW216977   2.665   2.524   6.612
 5360SOL     OW16978   5.711   5.706   3.681
 5360SOL    HW116979   5.657   5.789   3.698
 5360SOL    HW216980   5.653   5.637   3.637
 5361SOL     OW16981   1.836   3.730   3.094
 5361SOL    HW116982   1.912   3.669   3.119
 5361SOL    HW216983   1.868   3.797   3.027
 5362SOL     OW16984   6.244   1.123   4.204
 5362SOL    HW116985   6.260   1.206   4.151
 5362SOL    HW216986   6.214   1.147   4.297
 5363SOL     OW16987   5.843   5.482   4.226
 5363SOL    HW116988   5.835   5.579   4.204
 5363SOL    HW216989   5.898   5.435   4.157
 5364SOL     OW16990   4.759   2.488   1.799
 5364SOL    HW116991   4.780   2.473   1.895
 5364SOL    HW216992   4.661   2.505   1.788
 5365SOL     OW16993   3.271   3.926   5.256
 5365SOL    HW116994   3.293   3.873   5.174
 5365SOL    HW216995   3.353   3.933   5.313
 5366SOL     OW16996   0.494   4.676   3.366
 5366SOL    HW116997   0.443   4.737   3.427
 5366SOL    HW216998   0.592   4.689   3.380
 5367SOL     OW16999   6.056   6.218   1.342
 5367SOL    HW117000   5.973   6.163   1.355
 5367SOL    HW217001   6.053   6.297   1.403
 5368SOL     OW17002   0.539   5.662   4.995
 5368SOL    HW117003   0.453   5.614   5.011
 5368SOL    HW217004   0.572   5.701   5.082
 5369SOL     OW17005   4.459   6.947   3.138
 5369SOL    HW117006   4.469   6.956   3.237
 5369SOL    HW217007   4.547   6.966   3.094
 5370SOL     OW17008   2.613   2.079   0.358
 5370SOL    HW117009   2.516   2.052   0.359
 5370SOL    HW217010   2.657   2.048   0.442
 5371SOL     OW17011   6.205   5.206   3.335
 5371SOL    HW117012   6.221   5.248   3.425
 5371SOL    HW217013   6.111   5.171   3.332
 5372SOL     OW17014   1.542   7.003   3.691
 5372SOL    HW117015   1.612   0.043   3.663
 5372SOL    HW217016   1.495   0.011   3.773
 5373SOL     OW17017   3.615   0.616   6.903
 5373SOL    HW117018   3.713   0.630   6.889
 5373SOL    HW217019   3.569   0.704   6.908
 5374SOL     OW17020   1.373   4.125   1.453
 5374SOL    HW117021   1.467   4.110   1.486
 5374SOL    HW217022   1.326   4.189   1.514
 5375SOL     OW17023   2.623   4.657   4.865
 5375SOL    HW117024   2.545   4.612   4.908
 5375SOL    HW217025   2.701   4.656   4.928
 5376SOL     OW17026   1.128   0.950   1.468
 5376SOL    HW117027   1.115   1.038   1.423
 5376SOL    HW217028   1.092   0.877   1.409
 5377SOL     OW17029   0.873   2.262   2.256
 5377SOL    HW117030   0.804   2.191   2.240
 5377SOL    HW217031   0.952   2.221   2.301
 5378SOL     OW17032   5.575   6.852   2.924
 5378SOL    HW117033   5.565   6.753   2.920
 5378SOL    HW217034   5.507   6.895   2.864
 5379SOL     OW17035   2.528   1.898   4.193
 5379SOL    HW117036   2.543   1.952   4.275
 5379SOL    HW217037   2.502   1.805   4.218
 5380SOL     OW17038   5.155   6.390   1.451
 5380SOL    HW117039   5.086   6.415   1.382
 5380SOL    HW217040   5.117   6.402   1.542
 5381SOL     OW17041   3.361   1.873   2.513
 5381SOL    HW117042   3.354   1.785   2.559
 5381SOL    HW217043   3.406   1.939   2.573
 5382SOL     OW17044   4.420   0.605   2.774
 5382SOL    HW117045   4.430   0.689   2.720
 5382SOL    HW217046   4.375   0.626   2.861
 5383SOL     OW17047   2.781   3.671   5.372
 5383SOL    HW117048   2.685   3.671   5.400
 5383SOL    HW217049   2.826   3.752   5.408
 5384SOL     OW17050   5.164   6.744   6.032
 5384SOL    HW117051   5.159   6.844   6.033
 5384SOL    HW217052   5.239   6.715   5.974
 5385SOL     OW17053   3.528   3.087   0.389
 5385SOL    HW117054   3.502   3.117   0.297
 5385SOL    HW217055   3.614   3.130   0.416
 5386SOL     OW17056   4.236   4.665   3.314
 5386SOL    HW117057   4.229   4.697   3.219
 5386SOL    HW217058   4.284   4.577   3.315
 5387SOL     OW17059   1.250   2.425   4.216
 5387SOL    HW117060   1.340   2.393   4.186
 5387SOL    HW217061   1.214   2.491   4.150
 5388SOL     OW17062   6.620   5.959   3.741
 5388SOL    HW117063   6.676   5.878   3.721
 5388SOL    HW217064   6.574   5.989   3.658
 5389SOL     OW17065   5.024   1.660   4.319
 5389SOL    HW117066   4.962   1.582   4.320
 5389SOL    HW217067   5.116   1.630   4.292
 5390SOL     OW17068   5.548   3.103   3.333
 5390SOL    HW117069   5.535   3.125   3.429
 5390SOL    HW217070   5.589   3.012   3.325
 5391SOL     OW17071   4.747   2.587   1.388
 5391SOL    HW117072   4.802   2.572   1.306
 5391SOL    HW217073   4.667   2.642   1.364
 5392SOL     OW17074   5.232   0.480   4.407
 5392SOL    HW117075   5.304   0.509   4.344
 5392SOL    HW217076   5.170   0.417   4.361
 5393SOL     OW17077   3.828   1.825   3.451
 5393SOL    HW117078   3.817   1.924   3.452
 5393SOL    HW217079   3.905   1.800   3.510
 5394SOL     OW17080   0.000   2.616   2.579
 5394SOL    HW117081   0.013   2.605   2.678
 5394SOL    HW217082   6.931   2.640   2.560
 5395SOL     OW17083   0.221   1.265   0.837
 5395SOL    HW117084   0.136   1.313   0.860
 5395SOL    HW217085   0.295   1.299   0.894
 5396SOL     OW17086   4.531   2.462   0.786
 5396SOL    HW117087   4.482   2.499   0.865
 5396SOL    HW217088   4.507   2.513   0.704
 5397SOL     OW17089   6.934   0.201   1.903
 5397SOL    HW117090   6.895   0.226   1.992
 5397SOL    HW217091   7.025   0.163   1.917
 5398SOL     OW17092   5.854   1.903   3.636
 5398SOL    HW117093   5.775   1.848   3.609
 5398SOL    HW217094   5.924   1.898   3.565
 5399SOL     OW17095   2.925   3.235   0.364
 5399SOL    HW117096   2.989   3.305   0.393
 5399SOL    HW217097   2.958   3.145   0.393
 5400SOL     OW17098   5.413   2.853   1.285
 5400SOL    HW117099   5.414   2.925   1.215
 5400SOL    HW217100   5.330   2.798   1.274
 5401SOL     OW17101   5.165   3.220   1.469
 5401SOL    HW117102   5.187   3.317   1.467
 5401SOL    HW217103   5.095   3.199   1.401
 5402SOL     OW17104   1.399   5.788   1.912
 5402SOL    HW117105   1.302   5.775   1.893
 5402SOL    HW217106   1.447   5.701   1.903
 5403SOL     OW17107   6.031   2.238   6.009
 5403SOL    HW117108   6.111   2.203   5.962
 5403SOL    HW217109   6.053   2.327   6.050
 5404SOL     OW17110   4.616   6.916   0.762
 5404SOL    HW117111   4.634   6.821   0.790
 5404SOL    HW217112   4.523   6.922   0.725
 5405SOL     OW17113   0.025   5.281   6.349
 5405SOL    HW117114   7.023   5.203   6.293
 5405SOL    HW217115   0.003   5.366   6.302
 5406SOL     OW17116   2.162   0.652   5.727
 5406SOL    HW117117   2.106   0.699   5.795
 5406SOL    HW217118   2.144   0.692   5.637
 5407SOL     OW17119   2.332   0.535   2.787
 5407SOL    HW117120   2.387   0.457   2.756
 5407SOL    HW217121   2.239   0.527   2.752
 5408SOL     OW17122   1.720   2.261   4.492
 5408SOL    HW117123   1.754   2.337   4.435
 5408SOL    HW217124   1.627   2.237   4.462
 5409SOL     OW17125   0.751   3.434   2.694
 5409SOL    HW117126   0.742   3.503   2.622
 5409SOL    HW217127   0.773   3.345   2.653
 5410SOL     OW17128   6.284   2.279   0.437
 5410SOL    HW117129   6.199   2.230   0.422
 5410SOL    HW217130   6.264   2.374   0.461
 5411SOL     OW17131   3.230   5.308   1.844
 5411SOL    HW117132   3.172   5.374   1.796
 5411SOL    HW217133   3.173   5.240   1.890
 5412SOL     OW17134   1.304   2.434   5.532
 5412SOL    HW117135   1.375   2.367   5.554
 5412SOL    HW217136   1.232   2.430   5.601
 5413SOL     OW17137   6.934   5.781   5.869
 5413SOL    HW117138   6.929   5.682   5.854
 5413SOL    HW217139   0.002   5.812   5.857
 5414SOL     OW17140   5.743   5.619   6.297
 5414SOL    HW117141   5.676   5.676   6.249
 5414SOL    HW217142   5.741   5.642   6.395
 5415SOL     OW17143   1.756   1.610   6.421
 5415SOL    HW117144   1.674   1.598   6.478
 5415SOL    HW217145   1.788   1.520   6.391
 5416SOL     OW17146   3.602   5.846   6.763
 5416SOL    HW117147   3.653   5.817   6.683
 5416SOL    HW217148   3.508   5.865   6.738
 5417SOL     OW17149   5.720   0.194   2.327
 5417SOL    HW117150   5.742   0.135   2.249
 5417SOL    HW217151   5.771   0.280   2.318
 5418SOL     OW17152   0.596   4.052   5.414
 5418SOL    HW117153   0.555   3.970   5.453
 5418SOL    HW217154   0.564   4.133   5.464
 5419SOL     OW17155   3.829   1.342   6.054
 5419SOL    HW117156   3.921   1.377   6.042
 5419SOL    HW217157   3.774   1.363   5.973
 5420SOL     OW17158   2.087   2.162   0.856
 5420SOL    HW117159   2.057   2.219   0.779
 5420SOL    HW217160   2.146   2.217   0.915
 5421SOL     OW17161   4.375   5.052   1.483
 5421SOL    HW117162   4.302   5.078   1.420
 5421SOL    HW217163   4.335   5.009   1.564
 5422SOL     OW17164   2.778   6.237   3.307
 5422SOL    HW117165   2.722   6.224   3.225
 5422SOL    HW217166   2.870   6.201   3.291
 5423SOL     OW17167   4.002   6.850   1.681
 5423SOL    HW117168   3.944   6.776   1.646
 5423SOL    HW217169   3.948   6.934   1.685
 5424SOL     OW17170   3.730   3.827   5.307
 5424SOL    HW117171   3.778   3.818   5.394
 5424SOL    HW217172   3.782   3.781   5.235
 5425SOL     OW17173   1.403   5.384   5.223
 5425SOL    HW117174   1.430   5.450   5.293
 5425SOL    HW217175   1.474   5.379   5.152
 5426SOL     OW17176   0.884   4.254   6.738
 5426SOL    HW117177   0.785   4.266   6.740
 5426SOL    HW217178   0.912   4.221   6.648
 5427SOL     OW17179   4.254   2.049   0.153
 5427SOL    HW117180   4.330   1.991   0.182
 5427SOL    HW217181   4.168   2.000   0.166
 5428SOL     OW17182   4.409   5.737   3.113
 5428SOL    HW117183   4.383   5.832   3.097
 5428SOL    HW217184   4.344   5.694   3.176
 5429SOL     OW17185   2.473   6.126   4.155
 5429SOL    HW117186   2.457   6.033   4.121
 5429SOL    HW217187   2.540   6.171   4.097
 5430SOL     OW17188   1.560   4.133   5.049
 5430SOL    HW117189   1.626   4.165   5.118
 5430SOL    HW217190   1.554   4.201   4.976
 5431SOL     OW17191   4.956   4.924   1.707
 5431SOL    HW117192   4.983   5.006   1.656
 5431SOL    HW217193   4.959   4.845   1.647
 5432SOL     OW17194   0.209   5.035   6.231
 5432SOL    HW117195   0.243   5.118   6.186
 5432SOL    HW217196   0.109   5.034   6.228
 5433SOL     OW17197   2.694   0.554   1.280
 5433SOL    HW117198   2.784   0.528   1.244
 5433SOL    HW217199   2.683   0.653   1.272
 5434SOL     OW17200   5.284   5.883   4.041
 5434SOL    HW117201   5.345   5.927   3.974
 5434SOL    HW217202   5.339   5.836   4.109
 5435SOL     OW17203   6.585   3.847   6.468
 5435SOL    HW117204   6.536   3.843   6.381
 5435SOL    HW217205   6.574   3.759   6.516
 5436SOL     OW17206   1.810   3.915   1.923
 5436SOL    HW117207   1.817   3.964   2.010
 5436SOL    HW217208   1.729   3.947   1.874
 5437SOL     OW17209   3.544   6.274   0.103
 5437SOL    HW117210   3.543   6.370   0.073
 5437SOL    HW217211   3.568   6.216   0.026
 5438SOL     OW17212   6.098   6.986   2.539
 5438SOL    HW117213   6.020   6.971   2.600
 5438SOL    HW217214   6.155   6.903   2.537
 5439SOL     OW17215   1.649   3.803   1.572
 5439SOL    HW117216   1.638   3.788   1.671
 5439SOL    HW217217   1.736   3.765   1.542
 5440SOL     OW17218   6.360   0.096   4.380
 5440SOL    HW117219   6.437   0.110   4.442
 5440SOL    HW217220   6.393   0.094   4.286
 5441SOL     OW17221   5.369   1.820   4.854
 5441SOL    HW117222   5.281   1.868   4.848
 5441SOL    HW217223   5.351   1.721   4.860
 5442SOL     OW17224   2.414   0.430   6.590
 5442SOL    HW117225   2.499   0.473   6.618
 5442SOL    HW217226   2.376   0.377   6.666
 5443SOL     OW17227   5.803   0.620   3.565
 5443SOL    HW117228   5.830   0.594   3.658
 5443SOL    HW217229   5.868   0.582   3.499
 5444SOL     OW17230   1.079   1.204   5.877
 5444SOL    HW117231   1.009   1.274   5.892
 5444SOL    HW217232   1.042   1.114   5.899
 5445SOL     OW17233   6.305   6.620   5.081
 5445SOL    HW117234   6.224   6.658   5.126
 5445SOL    HW217235   6.343   6.547   5.138
 5446SOL     OW17236   1.613   5.546   5.714
 5446SOL    HW117237   1.709   5.530   5.737
 5446SOL    HW217238   1.563   5.460   5.723
 5447SOL     OW17239   6.119   2.278   1.375
 5447SOL    HW117240   6.210   2.238   1.387
 5447SOL    HW217241   6.068   2.270   1.460
 5448SOL     OW17242   6.593   4.655   1.630
 5448SOL    HW117243   6.579   4.678   1.534
 5448SOL    HW217244   6.521   4.697   1.685
 5449SOL     OW17245   1.937   6.905   2.420
 5449SOL    HW117246   2.010   6.868   2.363
 5449SOL    HW217247   1.864   6.837   2.429
 5450SOL     OW17248   4.736   5.650   1.928
 5450SOL    HW117249   4.636   5.645   1.931
 5450SOL    HW217250   4.775   5.569   1.972
 5451SOL     OW17251   0.316   6.504   3.755
 5451SOL    HW117252   0.346   6.598   3.739
 5451SOL    HW217253   0.221   6.494   3.728
 5452SOL     OW17254   2.014   4.268   3.056
 5452SOL    HW117255   2.023   4.323   3.140
 5452SOL    HW217256   2.004   4.172   3.080
 5453SOL     OW17257   5.785   4.544   4.087
 5453SOL    HW117258   5.854   4.473   4.074
 5453SOL    HW217259   5.820   4.632   4.056
 5454SOL     OW17260   5.828   4.024   2.452
 5454SOL    HW117261   5.854   4.000   2.546
 5454SOL    HW217262   5.890   4.095   2.418
 5455SOL     OW17263   2.507   2.203   2.932
 5455SOL    HW117264   2.549   2.117   2.961
 5455SOL    HW217265   2.578   2.273   2.921
 5456SOL     OW17266   5.658   2.573   0.852
 5456SOL    HW117267   5.746   2.567   0.899
 5456SOL    HW217268   5.599   2.497   0.880
 5457SOL     OW17269   6.807   1.552   0.633
 5457SOL    HW117270   6.861   1.484   0.584
 5457SOL    HW217271   6.863   1.634   0.648
 5458SOL     OW17272   5.727   4.757   5.899
 5458SOL    HW117273   5.741   4.796   5.808
 5458SOL    HW217274   5.658   4.685   5.893
 5459SOL     OW17275   2.163   3.307   5.080
 5459SOL    HW117276   2.218   3.311   5.164
 5459SOL    HW217277   2.214   3.262   5.008
 5460SOL     OW17278   0.574   0.815   1.374
 5460SOL    HW117279   0.665   0.817   1.334
 5460SOL    HW217280   0.528   0.729   1.349
 5461SOL     OW17281   6.270   1.612   6.741
 5461SOL    HW117282   6.288   1.516   6.760
 5461SOL    HW217283   6.323   1.669   6.804
 5462SOL     OW17284   5.437   5.487   6.049
 5462SOL    HW117285   5.366   5.455   6.111
 5462SOL    HW217286   5.397   5.504   5.959
 5463SOL     OW17287   1.769   5.359   6.268
 5463SOL    HW117288   1.835   5.284   6.275
 5463SOL    HW217289   1.687   5.328   6.219
 5464SOL     OW17290   2.014   5.401   4.378
 5464SOL    HW117291   1.946   5.391   4.306
 5464SOL    HW217292   1.976   5.456   4.453
 5465SOL     OW17293   0.713   0.580   4.903
 5465SOL    HW117294   0.658   0.504   4.868
 5465SOL    HW217295   0.664   0.624   4.978
 5466SOL     OW17296   5.019   2.433   5.105
 5466SOL    HW117297   5.019   2.376   5.023
 5466SOL    HW217298   4.951   2.506   5.095
 5467SOL     OW17299   6.341   3.227   3.984
 5467SOL    HW117300   6.251   3.244   3.943
 5467SOL    HW217301   6.397   3.310   3.976
 5468SOL     OW17302   0.079   2.758   1.625
 5468SOL    HW117303   0.144   2.686   1.600
 5468SOL    HW217304   7.018   2.716   1.654
 5469SOL     OW17305   3.901   2.149   3.934
 5469SOL    HW117306   3.805   2.168   3.911
 5469SOL    HW217307   3.909   2.131   4.032
 5470SOL     OW17308   2.902   5.235   3.495
 5470SOL    HW117309   2.942   5.228   3.587
 5470SOL    HW217310   2.922   5.151   3.444
 5471SOL     OW17311   5.652   0.840   3.168
 5471SOL    HW117312   5.643   0.825   3.267
 5471SOL    HW217313   5.627   0.934   3.147
 5472SOL     OW17314   2.346   4.031   6.623
 5472SOL    HW117315   2.410   4.002   6.552
 5472SOL    HW217316   2.257   3.989   6.607
 5473SOL     OW17317   2.719   4.713   2.257
 5473SOL    HW117318   2.737   4.664   2.171
 5473SOL    HW217319   2.678   4.802   2.237
 5474SOL     OW17320   1.063   4.859   2.149
 5474SOL    HW117321   1.091   4.856   2.245
 5474SOL    HW217322   0.968   4.829   2.141
 5475SOL     OW17323   1.223   0.907   5.294
 5475SOL    HW117324   1.301   0.843   5.294
 5475SOL    HW217325   1.245   0.986   5.236
 5476SOL     OW17326   2.167   0.736   4.759
 5476SOL    HW117327   2.083   0.706   4.805
 5476SOL    HW217328   2.213   0.805   4.816
 5477SOL     OW17329   2.247   2.995   2.944
 5477SOL    HW117330   2.235   2.935   2.865
 5477SOL    HW217331   2.264   3.088   2.913
 5478SOL     OW17332   6.145   3.900   6.016
 5478SOL    HW117333   6.049   3.892   5.990
 5478SOL    HW217334   6.201   3.851   5.950
 5479SOL     OW17335   5.586   3.061   4.364
 5479SOL    HW117336   5.671   3.107   4.389
 5479SOL    HW217337   5.588   2.966   4.398
 5480SOL     OW17338   1.365   3.421   4.286
 5480SOL    HW117339   1.450   3.461   4.322
 5480SOL    HW217340   1.352   3.451   4.191
 5481SOL     OW17341   4.276   1.330   6.745
 5481SOL    HW117342   4.326   1.322   6.658
 5481SOL    HW217343   4.183   1.296   6.732
 5482SOL     OW17344   5.395   3.901   2.474
 5482SOL    HW117345   5.337   3.836   2.425
 5482SOL    HW217346   5.456   3.851   2.536
 5483SOL     OW17347   6.624   2.716   0.086
 5483SOL    HW117348   6.614   2.622   0.120
 5483SOL    HW217349   6.689   2.766   0.144
 5484SOL     OW17350   6.264   0.649   5.486
 5484SOL    HW117351   6.198   0.686   5.421
 5484SOL    HW217352   6.348   0.703   5.482
 5485SOL     OW17353   3.206   0.917   4.301
 5485SOL    HW117354   3.141   0.855   4.345
 5485SOL    HW217355   3.287   0.865   4.272
 5486SOL     OW17356   0.915   0.281   3.518
 5486SOL    HW117357   0.999   0.284   3.571
 5486SOL    HW217358   0.844   0.333   3.566
 5487SOL     OW17359   4.358   5.441   1.797
 5487SOL    HW117360   4.267   5.461   1.760
 5487SOL    HW217361   4.389   5.519   1.852
 5488SOL     OW17362   5.233   1.346   5.716
 5488SOL    HW117363   5.164   1.294   5.665
 5488SOL    HW217364   5.301   1.382   5.653
 5489SOL     OW17365   6.913   4.136   2.104
 5489SOL    HW117366   6.940   4.230   2.124
 5489SOL    HW217367   6.916   4.082   2.188
 5490SOL     OW17368   2.970   2.202   6.132
 5490SOL    HW117369   2.965   2.131   6.062
 5490SOL    HW217370   2.902   2.182   6.203
 5491SOL     OW17371   0.038   5.522   2.513
 5491SOL    HW117372   0.027   5.567   2.602
 5491SOL    HW217373   0.038   5.591   2.441
 5492SOL     OW17374   1.035   1.273   4.589
 5492SOL    HW117375   1.033   1.292   4.687
 5492SOL    HW217376   1.064   1.179   4.574
 5493SOL     OW17377   3.088   1.874   0.722
 5493SOL    HW117378   3.177   1.921   0.722
 5493SOL    HW217379   3.073   1.832   0.812
 5494SOL     OW17380   6.003   3.234   2.610
 5494SOL    HW117381   5.905   3.218   2.622
 5494SOL    HW217382   6.021   3.265   2.517
 5495SOL     OW17383   3.899   3.030   4.013
 5495SOL    HW117384   3.948   3.116   3.998
 5495SOL    HW217385   3.880   2.987   3.925
 5496SOL     OW17386   5.300   5.333   2.048
 5496SOL    HW117387   5.228   5.327   2.117
 5496SOL    HW217388   5.385   5.296   2.086
 5497SOL     OW17389   5.548   0.437   0.952
 5497SOL    HW117390   5.623   0.472   1.007
 5497SOL    HW217391   5.509   0.511   0.897
 5498SOL     OW17392   4.462   1.022   5.025
 5498SOL    HW117393   4.395   1.037   4.953
 5498SOL    HW217394   4.480   0.924   5.034
 5499SOL     OW17395   0.549   1.351   5.275
 5499SOL    HW117396   0.603   1.298   5.341
 5499SOL    HW217397   0.525   1.292   5.198
 5500SOL     OW17398   1.795   6.732   1.179
 5500SOL    HW117399   1.748   6.644   1.185
 5500SOL    HW217400   1.844   6.750   1.264
 5501SOL     OW17401   2.787   0.822   2.538
 5501SOL    HW117402   2.886   0.828   2.543
 5501SOL    HW217403   2.749   0.912   2.516
 5502SOL     OW17404   4.812   3.375   0.102
 5502SOL    HW117405   4.741   3.429   0.148
 5502SOL    HW217406   4.826   3.410   0.009
 5503SOL     OW17407   0.133   6.630   4.520
 5503SOL    HW117408   0.082   6.546   4.500
 5503SOL    HW217409   0.165   6.628   4.615
 5504SOL     OW17410   3.011   1.939   4.270
 5504SOL    HW117411   2.932   1.955   4.212
 5504SOL    HW217412   3.016   2.010   4.341
 5505SOL     OW17413   3.654   4.729   7.019
 5505SOL    HW117414   3.555   4.740   7.016
 5505SOL    HW217415   3.695   4.806   0.043
 5506SOL     OW17416   6.585   6.680   5.591
 5506SOL    HW117417   6.566   6.638   5.680
 5506SOL    HW217418   6.544   6.624   5.519
 5507SOL     OW17419   3.139   5.425   5.216
 5507SOL    HW117420   3.168   5.408   5.310
 5507SOL    HW217421   3.204   5.382   5.153
 5508SOL     OW17422   1.134   0.911   5.552
 5508SOL    HW117423   1.220   0.938   5.596
 5508SOL    HW217424   1.149   0.902   5.454
 5509SOL     OW17425   6.268   0.292   6.401
 5509SOL    HW117426   6.223   0.378   6.378
 5509SOL    HW217427   6.299   0.247   6.318
 5510SOL     OW17428   6.472   1.038   6.232
 5510SOL    HW117429   6.373   1.029   6.238
 5510SOL    HW217430   6.511   0.953   6.196
 5511SOL     OW17431   6.711   2.975   1.479
 5511SOL    HW117432   6.758   3.053   1.519
 5511SOL    HW217433   6.649   3.006   1.407
 5512SOL     OW17434   0.285   0.325   0.324
 5512SOL    HW117435   0.232   0.307   0.407
 5512SOL    HW217436   0.323   0.240   0.289
 5513SOL     OW17437   2.945   6.184   5.032
 5513SOL    HW117438   2.912   6.273   5.001
 5513SOL    HW217439   2.883   6.112   5.002
 5514SOL     OW17440   6.188   5.509   3.870
 5514SOL    HW117441   6.270   5.565   3.860
 5514SOL    HW217442   6.204   5.418   3.830
 5515SOL     OW17443   6.860   3.602   3.167
 5515SOL    HW117444   6.928   3.673   3.186
 5515SOL    HW217445   6.906   3.514   3.154
 5516SOL     OW17446   1.273   2.465   6.498
 5516SOL    HW117447   1.324   2.468   6.583
 5516SOL    HW217448   1.306   2.536   6.436
 5517SOL     OW17449   2.446   0.853   2.091
 5517SOL    HW117450   2.361   0.876   2.139
 5517SOL    HW217451   2.514   0.821   2.156
 5518SOL     OW17452   5.498   4.465   5.090
 5518SOL    HW117453   5.541   4.418   5.167
 5518SOL    HW217454   5.410   4.421   5.069
 5519SOL     OW17455   5.551   3.873   2.966
 5519SOL    HW117456   5.468   3.854   3.019
 5519SOL    HW217457   5.611   3.793   2.970
 5520SOL     OW17458   2.032   2.745   0.861
 5520SOL    HW117459   2.085   2.694   0.794
 5520SOL    HW217460   2.065   2.725   0.953
 5521SOL     OW17461   5.050   5.347   0.350
 5521SOL    HW117462   5.010   5.394   0.272
 5521SOL    HW217463   4.994   5.363   0.431
 5522SOL     OW17464   2.092   2.830   1.947
 5522SOL    HW117465   2.114   2.906   2.007
 5522SOL    HW217466   2.005   2.789   1.975
 5523SOL     OW17467   3.511   0.509   1.817
 5523SOL    HW117468   3.560   0.494   1.903
 5523SOL    HW217469   3.489   0.607   1.808
 5524SOL     OW17470   5.829   6.122   5.508
 5524SOL    HW117471   5.788   6.043   5.555
 5524SOL    HW217472   5.795   6.206   5.548
 5525SOL     OW17473   6.426   5.615   3.991
 5525SOL    HW117474   6.421   5.523   4.031
 5525SOL    HW217475   6.486   5.672   4.047
 5526SOL     OW17476   5.264   3.013   4.672
 5526SOL    HW117477   5.245   3.071   4.751
 5526SOL    HW217478   5.311   3.067   4.602
 5527SOL     OW17479   2.048   3.350   7.013
 5527SOL    HW117480   2.044   3.398   6.925
 5527SOL    HW217481   1.969   3.290   7.022
 5528SOL     OW17482   6.592   3.463   2.895
 5528SOL    HW117483   6.581   3.470   2.994
 5528SOL    HW217484   6.687   3.440   2.873
 5529SOL     OW17485   1.224   1.055   3.971
 5529SOL    HW117486   1.146   1.110   3.944
 5529SOL    HW217487   1.197   0.958   3.975
 5530SOL     OW17488   6.923   3.354   6.800
 5530SOL    HW117489   6.959   3.368   6.892
 5530SOL    HW217490   6.945   3.434   6.743
 5531SOL     OW17491   2.157   2.920   6.993
 5531SOL    HW117492   2.064   2.955   7.005
 5531SOL    HW217493   2.162   2.865   6.910
 5532SOL     OW17494   1.967   2.367   1.318
 5532SOL    HW117495   1.950   2.283   1.267
 5532SOL    HW217496   2.064   2.393   1.309
 5533SOL     OW17497   3.686   0.497   0.365
 5533SOL    HW117498   3.660   0.593   0.349
 5533SOL    HW217499   3.693   0.450   0.277
 5534SOL     OW17500   0.246   4.265   4.961
 5534SOL    HW117501   0.252   4.320   5.044
 5534SOL    HW217502   0.331   4.274   4.909
 5535SOL     OW17503   6.360   3.237   3.570
 5535SOL    HW117504   6.409   3.226   3.656
 5535SOL    HW217505   6.356   3.149   3.523
 5536SOL     OW17506   3.006   0.491   4.023
 5536SOL    HW117507   3.007   0.496   3.923
 5536SOL    HW217508   3.047   0.575   4.060
 5537SOL     OW17509   3.971   1.427   4.988
 5537SOL    HW117510   3.873   1.432   5.006
 5537SOL    HW217511   3.987   1.406   4.892
 5538SOL     OW17512   5.674   2.513   2.304
 5538SOL    HW117513   5.640   2.521   2.210
 5538SOL    HW217514   5.748   2.578   2.318
 5539SOL     OW17515   2.484   0.012   0.161
 5539SOL    HW117516   2.402   0.056   0.125
 5539SOL    HW217517   2.564   0.042   0.109
 5540SOL     OW17518   5.223   0.406   5.611
 5540SOL    HW117519   5.146   0.432   5.554
 5540SOL    HW217520   5.225   0.465   5.692
 5541SOL     OW17521   4.845   3.159   6.820
 5541SOL    HW117522   4.784   3.172   6.898
 5541SOL    HW217523   4.826   3.228   6.750
 5542SOL     OW17524   4.509   4.730   0.275
 5542SOL    HW117525   4.607   4.709   0.278
 5542SOL    HW217526   4.470   4.720   0.366
 5543SOL     OW17527   1.356   0.423   6.527
 5543SOL    HW117528   1.310   0.457   6.445
 5543SOL    HW217529   1.453   0.407   6.507
 5544SOL     OW17530   3.776   5.200   1.014
 5544SOL    HW117531   3.831   5.280   0.990
 5544SOL    HW217532   3.681   5.215   0.988
 5545SOL     OW17533   5.197   0.876   3.846
 5545SOL    HW117534   5.103   0.893   3.876
 5545SOL    HW217535   5.257   0.944   3.887
 5546SOL     OW17536   0.610   5.141   4.323
 5546SOL    HW117537   0.555   5.160   4.404
 5546SOL    HW217538   0.698   5.101   4.351
 5547SOL     OW17539   4.972   2.319   4.851
 5547SOL    HW117540   5.039   2.375   4.801
 5547SOL    HW217541   5.001   2.224   4.850
 5548SOL     OW17542   0.672   4.678   5.177
 5548SOL    HW117543   0.759   4.704   5.136
 5548SOL    HW217544   0.609   4.648   5.105
 5549SOL     OW17545   3.996   3.074   0.609
 5549SOL    HW117546   3.977   3.014   0.687
 5549SOL    HW217547   3.912   3.118   0.579
 5550SOL     OW17548   2.554   4.126   1.737
 5550SOL    HW117549   2.497   4.053   1.699
 5550SOL    HW217550   2.514   4.158   1.823
 5551SOL     OW17551   2.225   4.857   2.462
 5551SOL    HW117552   2.283   4.807   2.526
 5551SOL    HW217553   2.271   4.865   2.373
 5552SOL     OW17554   1.101   6.938   0.126
 5552SOL    HW117555   1.054   7.023   0.103
 5552SOL    HW217556   1.180   6.927   0.065
 5553SOL     OW17557   5.223   0.430   0.213
 5553SOL    HW117558   5.195   0.510   0.160
 5553SOL    HW217559   5.237   0.352   0.151
 5554SOL     OW17560   6.988   2.112   1.472
 5554SOL    HW117561   6.898   2.152   1.490
 5554SOL    HW217562   6.978   2.028   1.419
 5555SOL     OW17563   1.419   4.955   2.699
 5555SOL    HW117564   1.370   4.868   2.701
 5555SOL    HW217565   1.471   4.966   2.784
 5556SOL     OW17566   6.814   0.932   4.574
 5556SOL    HW117567   6.742   0.865   4.557
 5556SOL    HW217568   6.880   0.895   4.639
 5557SOL     OW17569   3.749   6.116   3.304
 5557SOL    HW117570   3.813   6.125   3.228
 5557SOL    HW217571   3.752   6.023   3.340
 5558SOL     OW17572   4.466   4.296   0.143
 5558SOL    HW117573   4.413   4.380   0.129
 5558SOL    HW217574   4.562   4.319   0.155
 5559SOL     OW17575   3.513   1.052   2.605
 5559SOL    HW117576   3.593   1.112   2.604
 5559SOL    HW217577   3.491   1.025   2.511
 5560SOL     OW17578   0.484   5.366   3.615
 5560SOL    HW117579   0.458   5.324   3.702
 5560SOL    HW217580   0.539   5.448   3.633
 5561SOL     OW17581   3.670   6.667   2.942
 5561SOL    HW117582   3.696   6.688   3.037
 5561SOL    HW217583   3.596   6.728   2.914
 5562SOL     OW17584   3.543   3.738   0.923
 5562SOL    HW117585   3.523   3.640   0.930
 5562SOL    HW217586   3.594   3.767   1.004
 5563SOL     OW17587   2.534   4.508   2.294
 5563SOL    HW117588   2.611   4.571   2.300
 5563SOL    HW217589   2.480   4.529   2.213
 5564SOL     OW17590   5.165   0.251   6.138
 5564SOL    HW117591   5.219   0.254   6.055
 5564SOL    HW217592   5.208   0.309   6.208
 5565SOL     OW17593   3.463   1.412   6.311
 5565SOL    HW117594   3.428   1.342   6.248
 5565SOL    HW217595   3.399   1.489   6.314
 5566SOL     OW17596   1.566   4.117   6.066
 5566SOL    HW117597   1.503   4.104   5.989
 5566SOL    HW217598   1.581   4.215   6.079
 5567SOL     OW17599   0.519   4.460   0.292
 5567SOL    HW117600   0.584   4.517   0.241
 5567SOL    HW217601   0.490   4.384   0.234
 5568SOL     OW17602   5.000   4.634   1.279
 5568SOL    HW117603   5.086   4.684   1.275
 5568SOL    HW217604   4.952   4.656   1.363
 5569SOL     OW17605   2.384   2.596   2.750
 5569SOL    HW117606   2.394   2.546   2.836
 5569SOL    HW217607   2.437   2.552   2.678
 5570SOL     OW17608   6.985   3.703   1.795
 5570SOL    HW117609   7.019   3.696   1.889
 5570SOL    HW217610   6.994   3.798   1.764
 5571SOL     OW17611   6.775   4.784   1.152
 5571SOL    HW117612   6.729   4.709   1.104
 5571SOL    HW217613   6.874   4.773   1.145
 5572SOL     OW17614   1.776   3.937   5.089
 5572SOL    HW117615   1.712   3.953   5.164
 5572SOL    HW217616   1.869   3.951   5.121
 5573SOL     OW17617   3.078   4.888   3.592
 5573SOL    HW117618   3.178   4.883   3.597
 5573SOL    HW217619   3.040   4.885   3.684
 5574SOL     OW17620   0.305   2.402   5.082
 5574SOL    HW117621   0.352   2.319   5.112
 5574SOL    HW217622   0.363   2.453   5.018
 5575SOL     OW17623   7.023   0.008   1.604
 5575SOL    HW117624   0.047   6.966   1.550
 5575SOL    HW217625   6.966   6.986   1.672
 5576SOL     OW17626   1.365   5.416   2.702
 5576SOL    HW117627   1.300   5.344   2.680
 5576SOL    HW217628   1.390   5.411   2.799
 5577SOL     OW17629   2.029   2.346   5.842
 5577SOL    HW117630   1.981   2.260   5.823
 5577SOL    HW217631   2.021   2.406   5.762
 5578SOL     OW17632   3.327   4.145   3.414
 5578SOL    HW117633   3.379   4.215   3.461
 5578SOL    HW217634   3.243   4.126   3.465
 5579SOL     OW17635   6.744   2.669   2.168
 5579SOL    HW117636   6.839   2.643   2.148
 5579SOL    HW217637   6.744   2.738   2.240
 5580SOL     OW17638   5.680   2.372   5.648
 5580SOL    HW117639   5.753   2.386   5.716
 5580SOL    HW217640   5.694   2.433   5.571
 5581SOL     OW17641   1.544   2.782   6.708
 5581SOL    HW117642   1.565   2.686   6.730
 5581SOL    HW217643   1.623   2.823   6.662
 5582SOL     OW17644   2.541   2.998   6.063
 5582SOL    HW117645   2.447   2.995   6.098
 5582SOL    HW217646   2.577   2.905   6.056
 5583SOL     OW17647   5.183   0.266   1.308
 5583SOL    HW117648   5.181   0.302   1.215
 5583SOL    HW217649   5.133   0.179   1.312
 5584SOL     OW17650   1.756   3.166   4.254
 5584SOL    HW117651   1.686   3.143   4.320
 5584SOL    HW217652   1.716   3.220   4.180
 5585SOL     OW17653   5.188   5.279   1.773
 5585SOL    HW117654   5.230   5.193   1.745
 5585SOL    HW217655   5.204   5.294   1.871
 5586SOL     OW17656   0.264   4.474   0.074
 5586SOL    HW117657   0.332   4.547   0.074
 5586SOL    HW217658   0.192   4.496   0.008
 5587SOL     OW17659   6.193   1.005   5.862
 5587SOL    HW117660   6.231   1.054   5.940
 5587SOL    HW217661   6.229   0.912   5.861
 5588SOL     OW17662   3.716   6.738   0.908
 5588SOL    HW117663   3.637   6.799   0.902
 5588SOL    HW217664   3.762   6.752   0.995
 5589SOL     OW17665   6.078   4.802   6.131
 5589SOL    HW117666   6.132   4.874   6.174
 5589SOL    HW217667   6.000   4.779   6.191
 5590SOL     OW17668   6.528   5.288   3.411
 5590SOL    HW117669   6.468   5.314   3.336
 5590SOL    HW217670   6.593   5.219   3.380
 5591SOL     OW17671   5.377   0.882   1.895
 5591SOL    HW117672   5.338   0.791   1.911
 5591SOL    HW217673   5.453   0.896   1.959
 5592SOL     OW17674   0.772   3.980   3.146
 5592SOL    HW117675   0.850   4.034   3.114
 5592SOL    HW217676   0.804   3.892   3.180
 5593SOL     OW17677   0.136   3.635   0.258
 5593SOL    HW117678   0.231   3.661   0.244
 5593SOL    HW217679   0.104   3.670   0.345
 5594SOL     OW17680   6.531   2.215   6.465
 5594SOL    HW117681   6.578   2.170   6.541
 5594SOL    HW217682   6.565   2.179   6.378
 5595SOL     OW17683   1.311   2.660   6.300
 5595SOL    HW117684   1.289   2.729   6.369
 5595SOL    HW217685   1.347   2.704   6.218
 5596SOL     OW17686   3.061   6.208   3.255
 5596SOL    HW117687   3.076   6.231   3.351
 5596SOL    HW217688   3.141   6.237   3.202
 5597SOL     OW17689   4.977   3.158   2.786
 5597SOL    HW117690   5.021   3.157   2.876
 5597SOL    HW217691   5.047   3.164   2.715
 5598SOL     OW17692   5.092   1.882   5.315
 5598SOL    HW117693   5.172   1.868   5.256
 5598SOL    HW217694   5.064   1.978   5.309
 5599SOL     OW17695   1.074   0.480   3.313
 5599SOL    HW117696   1.077   0.404   3.378
 5599SOL    HW217697   0.994   0.537   3.331
 5600SOL     OW17698   1.865   2.702   4.760
 5600SOL    HW117699   1.787   2.640   4.760
 5600SOL    HW217700   1.903   2.708   4.667
 5601SOL     OW17701   2.538   0.856   6.053
 5601SOL    HW117702   2.554   0.818   6.144
 5601SOL    HW217703   2.549   0.784   5.985
 5602SOL     OW17704   1.733   0.718   7.017
 5602SOL    HW117705   1.733   0.803   6.965
 5602SOL    HW217706   1.743   0.739   0.089
 5603SOL     OW17707   5.699   4.964   6.065
 5603SOL    HW117708   5.673   4.938   6.158
 5603SOL    HW217709   5.714   4.882   6.010
 5604SOL     OW17710   5.933   1.398   5.793
 5604SOL    HW117711   5.986   1.324   5.752
 5604SOL    HW217712   5.917   1.378   5.890
 5605SOL     OW17713   1.472   2.362   6.266
 5605SOL    HW117714   1.409   2.349   6.343
 5605SOL    HW217715   1.505   2.457   6.266
 5606SOL     OW17716   5.642   0.482   3.103
 5606SOL    HW117717   5.663   0.387   3.127
 5606SOL    HW217718   5.694   0.508   3.021
 5607SOL     OW17719   6.082   0.760   1.295
 5607SOL    HW117720   6.109   0.694   1.363
 5607SOL    HW217721   6.007   0.816   1.330
 5608SOL     OW17722   3.991   6.354   5.218
 5608SOL    HW117723   3.995   6.454   5.213
 5608SOL    HW217724   3.930   6.319   5.146
 5609SOL     OW17725   1.831   5.588   4.916
 5609SOL    HW117726   1.921   5.611   4.879
 5609SOL    HW217727   1.773   5.669   4.916
 5610SOL     OW17728   4.763   0.346   6.522
 5610SOL    HW117729   4.823   0.301   6.588
 5610SOL    HW217730   4.762   0.293   6.437
 5611SOL     OW17731   2.134   4.543   3.829
 5611SOL    HW117732   2.080   4.506   3.904
 5611SOL    HW217733   2.225   4.501   3.831
 5612SOL     OW17734   2.535   0.205   5.359
 5612SOL    HW117735   2.577   0.205   5.450
 5612SOL    HW217736   2.606   0.212   5.289
 5613SOL     OW17737   3.923   5.236   1.755
 5613SOL    HW117738   3.837   5.267   1.795
 5613SOL    HW217739   3.905   5.171   1.681
 5614SOL     OW17740   4.989   2.345   3.531
 5614SOL    HW117741   5.076   2.308   3.499
 5614SOL    HW217742   4.978   2.326   3.629
 5615SOL     OW17743   1.566   1.537   1.271
 5615SOL    HW117744   1.488   1.600   1.280
 5615SOL    HW217745   1.576   1.511   1.175
 5616SOL     OW17746   2.304   0.250   4.559
 5616SOL    HW117747   2.327   0.169   4.613
 5616SOL    HW217748   2.205   0.252   4.543
 5617SOL     OW17749   0.574   0.720   5.082
 5617SOL    HW117750   0.483   0.705   5.120
 5617SOL    HW217751   0.587   0.817   5.063
 5618SOL     OW17752   6.832   4.148   2.677
 5618SOL    HW117753   6.844   4.140   2.776
 5618SOL    HW217754   6.795   4.238   2.654
 5619SOL     OW17755   2.141   3.922   4.765
 5619SOL    HW117756   2.201   3.984   4.815
 5619SOL    HW217757   2.108   3.850   4.826
 5620SOL     OW17758   3.758   2.048   6.507
 5620SOL    HW117759   3.763   1.956   6.545
 5620SOL    HW217760   3.847   2.094   6.518
 5621SOL     OW17761   2.482   1.769   6.250
 5621SOL    HW117762   2.458   1.865   6.262
 5621SOL    HW217763   2.581   1.759   6.250
 5622SOL     OW17764   5.231   0.873   5.430
 5622SOL    HW117765   5.288   0.800   5.468
 5622SOL    HW217766   5.263   0.897   5.339
 5623SOL     OW17767   0.420   5.718   7.000
 5623SOL    HW117768   0.486   5.686   0.042
 5623SOL    HW217769   0.327   5.701   0.008
 5624SOL     OW17770   1.009   4.256   2.536
 5624SOL    HW117771   1.085   4.208   2.493
 5624SOL    HW217772   0.966   4.197   2.603
 5625SOL     OW17773   6.395   2.391   6.006
 5625SOL    HW117774   6.310   2.385   5.954
 5625SOL    HW217775   6.451   2.310   5.988
 5626SOL     OW17776   4.663   6.772   4.302
 5626SOL    HW117777   4.596   6.744   4.233
 5626SOL    HW217778   4.662   6.707   4.378
 5627SOL     OW17779   1.326   6.568   0.954
 5627SOL    HW117780   1.235   6.593   0.987
 5627SOL    HW217781   1.323   6.556   0.855
 5628SOL     OW17782   1.422   1.732   4.776
 5628SOL    HW117783   1.424   1.732   4.676
 5628SOL    HW217784   1.363   1.807   4.808
 5629SOL     OW17785   3.831   3.077   2.996
 5629SOL    HW117786   3.883   3.085   2.911
 5629SOL    HW217787   3.892   3.096   3.074
 5630SOL     OW17788   0.078   4.205   1.389
 5630SOL    HW117789   0.057   4.288   1.338
 5630SOL    HW217790   0.140   4.227   1.465
 5631SOL     OW17791   4.945   0.611   6.627
 5631SOL    HW117792   4.956   0.603   6.528
 5631SOL    HW217793   4.848   0.609   6.651
 5632SOL     OW17794   3.272   3.372   0.157
 5632SOL    HW117795   3.226   3.415   0.234
 5632SOL    HW217796   3.203   3.334   0.094
 5633SOL     OW17797   6.689   2.746   4.717
 5633SOL    HW117798   6.590   2.729   4.720
 5633SOL    HW217799   6.707   2.834   4.674
 5634SOL     OW17800   4.827   5.603   4.748
 5634SOL    HW117801   4.760   5.624   4.818
 5634SOL    HW217802   4.918   5.630   4.779
 5635SOL     OW17803   3.203   2.100   5.291
 5635SOL    HW117804   3.193   2.194   5.258
 5635SOL    HW217805   3.141   2.040   5.241
 5636SOL     OW17806   4.121   5.632   4.449
 5636SOL    HW117807   4.162   5.723   4.461
 5636SOL    HW217808   4.145   5.596   4.359
 5637SOL     OW17809   6.263   0.159   2.904
 5637SOL    HW117810   6.173   0.150   2.945
 5637SOL    HW217811   6.315   0.230   2.952
 5638SOL     OW17812   5.431   4.022   6.693
 5638SOL    HW117813   5.520   4.068   6.684
 5638SOL    HW217814   5.431   3.938   6.640
 5639SOL     OW17815   3.344   0.523   6.967
 5639SOL    HW117816   3.430   0.489   6.930
 5639SOL    HW217817   3.334   0.620   6.945
 5640SOL     OW17818   1.843   6.841   2.903
 5640SOL    HW117819   1.745   6.820   2.907
 5640SOL    HW217820   1.880   6.846   2.996
 5641SOL     OW17821   6.306   5.730   4.892
 5641SOL    HW117822   6.246   5.728   4.972
 5641SOL    HW217823   6.265   5.676   4.819
 5642SOL     OW17824   2.135   1.777   0.221
 5642SOL    HW117825   2.121   1.679   0.204
 5642SOL    HW217826   2.228   1.802   0.196
 5643SOL     OW17827   5.494   1.942   5.499
 5643SOL    HW117828   5.417   1.984   5.546
 5643SOL    HW217829   5.573   2.003   5.502
 5644SOL     OW17830   2.845   0.154   6.185
 5644SOL    HW117831   2.815   0.157   6.281
 5644SOL    HW217832   2.789   0.217   6.131
 5645SOL     OW17833   5.683   3.731   4.873
 5645SOL    HW117834   5.733   3.807   4.831
 5645SOL    HW217835   5.711   3.721   4.969
 5646SOL     OW17836   1.378   4.314   3.031
 5646SOL    HW117837   1.432   4.269   3.101
 5646SOL    HW217838   1.424   4.399   3.002
 5647SOL     OW17839   6.349   6.484   2.757
 5647SOL    HW117840   6.312   6.576   2.769
 5647SOL    HW217841   6.449   6.487   2.766
 5648SOL     OW17842   4.602   6.087   3.709
 5648SOL    HW117843   4.693   6.092   3.667
 5648SOL    HW217844   4.611   6.049   3.802
 5649SOL     OW17845   1.100   6.534   3.976
 5649SOL    HW117846   1.035   6.460   3.993
 5649SOL    HW217847   1.166   6.539   4.052
 5650SOL     OW17848   6.144   4.511   6.056
 5650SOL    HW117849   6.208   4.446   6.013
 5650SOL    HW217850   6.190   4.559   6.131
 5651SOL     OW17851   2.810   1.201   0.939
 5651SOL    HW117852   2.814   1.295   0.973
 5651SOL    HW217853   2.770   1.201   0.847
 5652SOL     OW17854   0.173   6.095   2.318
 5652SOL    HW117855   0.188   6.174   2.378
 5652SOL    HW217856   0.222   6.109   2.232
 5653SOL     OW17857   6.903   0.411   1.744
 5653SOL    HW117858   6.909   0.329   1.801
 5653SOL    HW217859   6.914   0.492   1.802
 5654SOL     OW17860   3.617   5.999   4.499
 5654SOL    HW117861   3.649   5.918   4.451
 5654SOL    HW217862   3.619   5.983   4.598
 5655SOL     OW17863   5.550   2.859   5.427
 5655SOL    HW117864   5.497   2.831   5.348
 5655SOL    HW217865   5.530   2.955   5.449
 5656SOL     OW17866   6.621   3.643   0.175
 5656SOL    HW117867   6.666   3.702   0.108
 5656SOL    HW217868   6.613   3.691   0.262
 5657SOL     OW17869   5.184   5.478   4.861
 5657SOL    HW117870   5.251   5.547   4.832
 5657SOL    HW217871   5.152   5.499   4.953
 5658SOL     OW17872   2.387   2.898   5.536
 5658SOL    HW117873   2.338   2.935   5.457
 5658SOL    HW217874   2.479   2.939   5.540
 5659SOL     OW17875   2.484   3.938   6.406
 5659SOL    HW117876   2.488   3.841   6.432
 5659SOL    HW217877   2.528   3.951   6.318
 5660SOL     OW17878   4.747   0.326   5.774
 5660SOL    HW117879   4.678   0.317   5.846
 5660SOL    HW217880   4.788   0.237   5.755
 5661SOL     OW17881   1.042   5.698   6.192
 5661SOL    HW117882   1.136   5.669   6.209
 5661SOL    HW217883   1.006   5.744   6.273
 5662SOL     OW17884   3.032   6.618   1.120
 5662SOL    HW117885   2.976   6.628   1.202
 5662SOL    HW217886   3.114   6.565   1.141
 5663SOL     OW17887   1.645   3.191   5.925
 5663SOL    HW117888   1.657   3.094   5.901
 5663SOL    HW217889   1.549   3.209   5.944
 5664SOL     OW17890   4.875   4.457   4.654
 5664SOL    HW117891   4.841   4.551   4.656
 5664SOL    HW217892   4.915   4.434   4.743
 5665SOL     OW17893   1.613   1.309   0.621
 5665SOL    HW117894   1.687   1.242   0.630
 5665SOL    HW217895   1.527   1.261   0.602
 5666SOL     OW17896   6.305   2.399   4.840
 5666SOL    HW117897   6.207   2.387   4.857
 5666SOL    HW217898   6.347   2.309   4.825
 5667SOL     OW17899   2.758   4.819   4.083
 5667SOL    HW117900   2.826   4.878   4.038
 5667SOL    HW217901   2.797   4.783   4.167
 5668SOL     OW17902   4.835   3.953   3.762
 5668SOL    HW117903   4.820   3.876   3.824
 5668SOL    HW217904   4.803   4.037   3.806
 5669SOL     OW17905   5.270   4.446   6.302
 5669SOL    HW117906   5.194   4.382   6.308
 5669SOL    HW217907   5.263   4.514   6.375
 5670SOL     OW17908   1.623   2.647   3.531
 5670SOL    HW117909   1.657   2.688   3.446
 5670SOL    HW217910   1.698   2.599   3.577
 5671SOL     OW17911   0.275   5.432   4.067
 5671SOL    HW117912   0.253   5.357   4.130
 5671SOL    HW217913   0.234   5.413   3.977
 5672SOL     OW17914   5.329   3.446   4.481
 5672SOL    HW117915   5.369   3.533   4.512
 5672SOL    HW217916   5.232   3.459   4.461
 5673SOL     OW17917   0.779   1.785   0.481
 5673SOL    HW117918   0.813   1.878   0.491
 5673SOL    HW217919   0.835   1.723   0.535
 5674SOL     OW17920   2.589   4.959   4.863
 5674SOL    HW117921   2.528   5.017   4.917
 5674SOL    HW217922   2.543   4.872   4.844
 5675SOL     OW17923   2.535   2.043   0.797
 5675SOL    HW117924   2.458   2.029   0.735
 5675SOL    HW217925   2.565   2.138   0.792
 5676SOL     OW17926   3.126   1.275   1.757
 5676SOL    HW117927   3.205   1.325   1.721
 5676SOL    HW217928   3.157   1.203   1.819
 5677SOL     OW17929   0.266   1.623   6.323
 5677SOL    HW117930   0.344   1.624   6.385
 5677SOL    HW217931   0.182   1.607   6.376
 5678SOL     OW17932   3.583   1.980   2.014
 5678SOL    HW117933   3.546   1.974   2.107
 5678SOL    HW217934   3.630   2.068   2.003
 5679SOL     OW17935   6.792   4.051   5.529
 5679SOL    HW117936   6.724   4.113   5.490
 5679SOL    HW217937   6.883   4.090   5.516
 5680SOL     OW17938   0.869   5.751   5.202
 5680SOL    HW117939   0.919   5.828   5.160
 5680SOL    HW217940   0.923   5.668   5.195
 5681SOL     OW17941   0.930   3.506   3.690
 5681SOL    HW117942   0.931   3.493   3.789
 5681SOL    HW217943   1.024   3.522   3.658
 5682SOL     OW17944   2.031   4.462   0.894
 5682SOL    HW117945   1.958   4.447   0.828
 5682SOL    HW217946   2.120   4.457   0.848
 5683SOL     OW17947   6.409   0.791   5.909
 5683SOL    HW117948   6.435   0.699   5.881
 5683SOL    HW217949   6.491   0.847   5.920
 5684SOL     OW17950   2.210   2.972   4.871
 5684SOL    HW117951   2.189   3.062   4.832
 5684SOL    HW217952   2.293   2.978   4.925
 5685SOL     OW17953   2.191   1.976   1.721
 5685SOL    HW117954   2.127   1.917   1.672
 5685SOL    HW217955   2.285   1.952   1.695
 5686SOL     OW17956   4.907   5.590   5.660
 5686SOL    HW117957   4.853   5.537   5.725
 5686SOL    HW217958   4.978   5.532   5.619
 5687SOL     OW17959   2.124   6.387   6.447
 5687SOL    HW117960   2.208   6.412   6.398
 5687SOL    HW217961   2.045   6.426   6.400
 5688SOL     OW17962   1.997   2.093   3.110
 5688SOL    HW117963   2.008   2.167   3.176
 5688SOL    HW217964   2.051   2.114   3.028
 5689SOL     OW17965   0.161   2.370   1.339
 5689SOL    HW117966   0.146   2.291   1.398
 5689SOL    HW217967   0.072   2.403   1.305
 5690SOL     OW17968   2.398   4.884   6.844
 5690SOL    HW117969   2.344   4.815   6.891
 5690SOL    HW217970   2.493   4.851   6.834
 5691SOL     OW17971   4.420   2.020   2.796
 5691SOL    HW117972   4.401   2.109   2.754
 5691SOL    HW217973   4.487   2.031   2.868
 5692SOL     OW17974   6.307   4.419   1.680
 5692SOL    HW117975   6.370   4.361   1.629
 5692SOL    HW217976   6.249   4.363   1.738
 5693SOL     OW17977   3.925   0.153   1.828
 5693SOL    HW117978   4.019   0.122   1.837
 5693SOL    HW217979   3.868   0.108   1.898
 5694SOL     OW17980   1.068   0.461   1.441
 5694SOL    HW117981   1.137   0.403   1.396
 5694SOL    HW217982   1.075   0.449   1.540
 5695SOL     OW17983   2.610   1.384   2.019
 5695SOL    HW117984   2.659   1.320   1.959
 5695SOL    HW217985   2.512   1.373   2.007
 5696SOL     OW17986   0.670   0.312   3.848
 5696SOL    HW117987   0.681   0.364   3.763
 5696SOL    HW217988   0.688   0.215   3.830
 5697SOL     OW17989   6.347   2.188   6.988
 5697SOL    HW117990   6.299   2.265   0.004
 5697SOL    HW217991   6.413   2.222   6.921
 5698SOL     OW17992   3.244   1.863   4.459
 5698SOL    HW117993   3.172   1.855   4.390
 5698SOL    HW217994   3.329   1.826   4.422
 5699SOL     OW17995   2.236   2.868   2.269
 5699SOL    HW117996   2.325   2.829   2.293
 5699SOL    HW217997   2.210   2.937   2.337
 5700SOL     OW17998   6.404   0.558   2.516
 5700SOL    HW117999   6.411   0.540   2.614
 5700SOL    HW218000   6.492   0.538   2.473
 5701SOL     OW18001   1.121   0.391   0.652
 5701SOL    HW118002   1.184   0.469   0.642
 5701SOL    HW218003   1.053   0.413   0.722
 5702SOL     OW18004   2.296   7.000   4.696
 5702SOL    HW118005   2.310   0.017   4.785
 5702SOL    HW218006   2.306   6.901   4.705
 5703SOL     OW18007   0.197   3.212   5.909
 5703SOL    HW118008   0.231   3.306   5.918
 5703SOL    HW218009   0.273   3.150   5.891
 5704SOL     OW18010   3.773   5.302   3.960
 5704SOL    HW118011   3.720   5.264   4.036
 5704SOL    HW218012   3.712   5.325   3.885
 5705SOL     OW18013   6.063   0.612   5.677
 5705SOL    HW118014   6.139   0.610   5.612
 5705SOL    HW218015   5.976   0.614   5.626
 5706SOL     OW18016   5.101   1.912   0.976
 5706SOL    HW118017   5.030   1.981   0.971
 5706SOL    HW218018   5.190   1.955   0.992
 5707SOL     OW18019   6.078   5.311   1.162
 5707SOL    HW118020   6.079   5.243   1.235
 5707SOL    HW218021   6.001   5.373   1.174
 5708SOL     OW18022   5.232   6.290   2.448
 5708SOL    HW118023   5.328   6.293   2.420
 5708SOL    HW218024   5.183   6.222   2.393
 5709SOL     OW18025   6.680   2.355   2.525
 5709SOL    HW118026   6.718   2.448   2.529
 5709SOL    HW218027   6.731   2.295   2.586
 5710SOL     OW18028   4.436   1.502   0.635
 5710SOL    HW118029   4.394   1.502   0.544
 5710SOL    HW218030   4.458   1.409   0.662
 5711SOL     OW18031   5.029   1.712   2.874
 5711SOL    HW118032   4.941   1.739   2.836
 5711SOL    HW218033   5.100   1.722   2.804
 5712SOL     OW18034   5.955   6.635   0.352
 5712SOL    HW118035   5.984   6.581   0.431
 5712SOL    HW218036   6.027   6.637   0.283
 5713SOL     OW18037   1.706   1.004   0.439
 5713SOL    HW118038   1.763   1.085   0.456
 5713SOL    HW218039   1.612   1.024   0.468
 5714SOL     OW18040   6.382   0.279   0.177
 5714SOL    HW118041   6.295   0.230   0.178
 5714SOL    HW218042   6.397   0.320   0.087
 5715SOL     OW18043   0.082   6.956   1.884
 5715SOL    HW118044   0.086   6.914   1.975
 5715SOL    HW218045   7.018   6.937   1.843
 5716SOL     OW18046   6.720   4.315   5.472
 5716SOL    HW118047   6.818   4.328   5.484
 5716SOL    HW218048   6.673   4.330   5.559
 5717SOL     OW18049   0.843   5.332   3.599
 5717SOL    HW118050   0.836   5.233   3.603
 5717SOL    HW218051   0.855   5.369   3.691
 5718SOL     OW18052   1.094   3.555   6.754
 5718SOL    HW118053   1.068   3.522   6.845
 5718SOL    HW218054   1.193   3.567   6.750
 5719SOL     OW18055   2.882   3.393   0.625
 5719SOL    HW118056   2.808   3.340   0.584
 5719SOL    HW218057   2.936   3.335   0.685
 5720SOL     OW18058   2.768   4.809   5.773
 5720SOL    HW118059   2.697   4.849   5.715
 5720SOL    HW218060   2.820   4.883   5.816
 5721SOL     OW18061   1.890   2.991   6.973
 5721SOL    HW118062   1.843   2.903   6.969
 5721SOL    HW218063   1.826   3.062   7.002
 5722SOL     OW18064   1.302   6.973   6.955
 5722SOL    HW118065   1.248   6.906   6.904
 5722SOL    HW218066   1.287   0.038   6.916
 5723SOL     OW18067   4.022   3.430   0.689
 5723SOL    HW118068   4.009   3.476   0.777
 5723SOL    HW218069   4.073   3.345   0.703
 5724SOL     OW18070   5.425   2.072   6.035
 5724SOL    HW118071   5.450   2.013   6.112
 5724SOL    HW218072   5.501   2.075   5.971
 5725SOL     OW18073   0.278   4.620   4.894
 5725SOL    HW118074   0.231   4.533   4.877
 5725SOL    HW218075   0.252   4.686   4.824
 5726SOL     OW18076   5.227   4.301   2.379
 5726SOL    HW118077   5.289   4.223   2.379
 5726SOL    HW218078   5.161   4.290   2.305
 5727SOL     OW18079   1.135   2.924   4.967
 5727SOL    HW118080   1.130   2.861   5.045
 5727SOL    HW218081   1.134   3.018   5.001
 5728SOL     OW18082   3.948   0.090   5.065
 5728SOL    HW118083   3.874   0.040   5.022
 5728SOL    HW218084   3.914   0.176   5.103
 5729SOL     OW18085   2.862   1.927   4.932
 5729SOL    HW118086   2.923   1.913   4.854
 5729SOL    HW218087   2.905   1.988   4.998
 5730SOL     OW18088   6.706   4.179   5.010
 5730SOL    HW118089   6.758   4.146   5.089
 5730SOL    HW218090   6.728   4.122   4.930
 5731SOL     OW18091   0.572   6.849   2.564
 5731SOL    HW118092   0.667   6.849   2.531
 5731SOL    HW218093   0.573   6.848   2.664
 5732SOL     OW18094   0.218   0.569   3.308
 5732SOL    HW118095   0.230   0.662   3.275
 5732SOL    HW218096   0.198   0.570   3.406
 5733SOL     OW18097   3.135   0.409   4.728
 5733SOL    HW118098   3.189   0.416   4.812
 5733SOL    HW218099   3.095   0.498   4.706
 5734SOL     OW18100   1.934   6.776   3.602
 5734SOL    HW118101   1.895   6.701   3.549
 5734SOL    HW218102   1.901   6.863   3.567
 5735SOL     OW18103   3.446   0.717   1.272
 5735SOL    HW118104   3.411   0.748   1.184
 5735SOL    HW218105   3.418   0.782   1.343
 5736SOL     OW18106   1.484   5.698   0.256
 5736SOL    HW118107   1.407   5.646   0.293
 5736SOL    HW218108   1.530   5.644   0.185
 5737SOL     OW18109   5.671   4.048   0.083
 5737SOL    HW118110   5.572   4.066   0.090
 5737SOL    HW218111   5.693   4.021   7.015
 5738SOL     OW18112   1.042   4.259   4.734
 5738SOL    HW118113   1.111   4.225   4.798
 5738SOL    HW218114   1.011   4.185   4.675
 5739SOL     OW18115   0.309   2.554   1.719
 5739SOL    HW118116   0.356   2.622   1.775
 5739SOL    HW218117   0.374   2.508   1.659
 5740SOL     OW18118   3.732   5.367   0.248
 5740SOL    HW118119   3.797   5.422   0.299
 5740SOL    HW218120   3.721   5.278   0.292
 5741SOL     OW18121   0.330   4.219   1.832
 5741SOL    HW118122   0.268   4.142   1.841
 5741SOL    HW218123   0.422   4.192   1.861
 5742SOL     OW18124   0.343   5.643   4.483
 5742SOL    HW118125   0.433   5.669   4.449
 5742SOL    HW218126   0.340   5.544   4.499
 5743SOL     OW18127   1.977   6.194   4.690
 5743SOL    HW118128   1.960   6.263   4.620
 5743SOL    HW218129   2.075   6.189   4.709
 5744SOL     OW18130   6.018   0.325   1.411
 5744SOL    HW118131   5.995   0.310   1.508
 5744SOL    HW218132   6.012   0.238   1.362
 5745SOL     OW18133   1.629   2.551   3.184
 5745SOL    HW118134   1.562   2.586   3.119
 5745SOL    HW218135   1.684   2.480   3.141
 5746SOL     OW18136   6.569   4.232   6.925
 5746SOL    HW118137   6.495   4.290   6.960
 5746SOL    HW218138   6.568   4.235   6.825
 5747SOL     OW18139   0.588   6.512   3.579
 5747SOL    HW118140   0.667   6.516   3.640
 5747SOL    HW218141   0.509   6.475   3.629
 5748SOL     OW18142   2.026   6.265   3.847
 5748SOL    HW118143   2.023   6.239   3.943
 5748SOL    HW218144   1.958   6.335   3.829
 5749SOL     OW18145   1.478   1.219   3.029
 5749SOL    HW118146   1.471   1.298   3.090
 5749SOL    HW218147   1.562   1.226   2.975
 5750SOL     OW18148   5.887   6.126   2.551
 5750SOL    HW118149   5.827   6.049   2.572
 5750SOL    HW218150   5.961   6.096   2.492
 5751SOL     OW18151   1.041   3.248   6.209
 5751SOL    HW118152   0.949   3.213   6.225
 5751SOL    HW218153   1.083   3.274   6.295
 5752SOL     OW18154   0.632   1.566   6.830
 5752SOL    HW118155   0.570   1.494   6.860
 5752SOL    HW218156   0.696   1.529   6.762
 5753SOL     OW18157   4.355   1.739   0.297
 5753SOL    HW118158   4.290   1.791   0.353
 5753SOL    HW218159   4.342   1.641   0.312
 5754SOL     OW18160   5.667   5.117   0.587
 5754SOL    HW118161   5.755   5.095   0.546
 5754SOL    HW218162   5.666   5.086   0.682
 5755SOL     OW18163   3.445   3.966   1.327
 5755SOL    HW118164   3.472   3.978   1.422
 5755SOL    HW218165   3.385   4.042   1.300
 5756SOL     OW18166   0.021   6.370   4.407
 5756SOL    HW118167   6.994   6.319   4.339
 5756SOL    HW218168   0.056   6.307   4.476
 5757SOL     OW18169   6.934   6.130   1.776
 5757SOL    HW118170   6.981   6.123   1.864
 5757SOL    HW218171   6.838   6.155   1.791
 5758SOL     OW18172   2.752   0.972   5.301
 5758SOL    HW118173   2.737   0.997   5.397
 5758SOL    HW218174   2.695   1.030   5.243
 5759SOL     OW18175   0.255   2.035   4.993
 5759SOL    HW118176   0.250   1.935   4.997
 5759SOL    HW218177   0.343   2.066   5.030
 5760SOL     OW18178   0.632   5.516   1.443
 5760SOL    HW118179   0.677   5.601   1.415
 5760SOL    HW218180   0.670   5.487   1.531
 5761SOL     OW18181   4.957   0.346   4.748
 5761SOL    HW118182   5.052   0.360   4.723
 5761SOL    HW218183   4.911   0.434   4.758
 5762SOL     OW18184   5.835   6.436   1.256
 5762SOL    HW118185   5.871   6.468   1.344
 5762SOL    HW218186   5.864   6.341   1.241
 5763SOL     OW18187   2.185   1.333   0.803
 5763SOL    HW118188   2.193   1.432   0.815
 5763SOL    HW218189   2.252   1.287   0.861
 5764SOL     OW18190   4.630   3.193   6.464
 5764SOL    HW118191   4.641   3.237   6.553
 5764SOL    HW218192   4.601   3.098   6.477
 5765SOL     OW18193   6.379   5.305   0.234
 5765SOL    HW118194   6.374   5.261   0.145
 5765SOL    HW218195   6.349   5.400   0.227
 5766SOL     OW18196   2.894   1.411   3.107
 5766SOL    HW118197   2.928   1.351   3.179
 5766SOL    HW218198   2.801   1.441   3.128
 5767SOL     OW18199   5.379   0.261   0.455
 5767SOL    HW118200   5.469   0.219   0.443
 5767SOL    HW218201   5.361   0.276   0.552
 5768SOL     OW18202   6.317   0.900   2.399
 5768SOL    HW118203   6.350   0.924   2.490
 5768SOL    HW218204   6.269   0.812   2.404
 5769SOL     OW18205   2.031   5.040   3.258
 5769SOL    HW118206   2.031   5.019   3.161
 5769SOL    HW218207   2.059   4.959   3.310
 5770SOL     OW18208   5.332   2.147   1.431
 5770SOL    HW118209   5.266   2.222   1.432
 5770SOL    HW218210   5.425   2.185   1.426
 5771SOL     OW18211   1.024   0.743   0.841
 5771SOL    HW118212   1.117   0.734   0.878
 5771SOL    HW218213   0.979   0.654   0.842
 5772SOL     OW18214   6.483   4.818   6.027
 5772SOL    HW118215   6.396   4.865   6.014
 5772SOL    HW218216   6.496   4.798   6.125
 5773SOL     OW18217   5.042   5.783   4.854
 5773SOL    HW118218   4.984   5.803   4.932
 5773SOL    HW218219   5.125   5.737   4.886
 5774SOL     OW18220   2.402   4.830   2.224
 5774SOL    HW118221   2.386   4.839   2.125
 5774SOL    HW218222   2.448   4.911   2.258
 5775SOL     OW18223   0.568   1.039   0.114
 5775SOL    HW118224   0.588   1.019   0.210
 5775SOL    HW218225   0.510   1.120   0.108
 5776SOL     OW18226   4.678   1.218   6.512
 5776SOL    HW118227   4.708   1.164   6.591
 5776SOL    HW218228   4.724   1.186   6.430
 5777SOL     OW18229   5.507   0.382   5.499
 5777SOL    HW118230   5.516   0.351   5.404
 5777SOL    HW218231   5.411   0.376   5.527
 5778SOL     OW18232   2.581   6.539   4.259
 5778SOL    HW118233   2.526   6.472   4.209
 5778SOL    HW218234   2.558   6.631   4.226
 5779SOL     OW18235   4.053   0.116   1.085
 5779SOL    HW118236   3.998   0.133   1.167
 5779SOL    HW218237   4.146   0.092   1.112
 5780SOL     OW18238   6.126   3.686   0.459
 5780SOL    HW118239   6.033   3.657   0.436
 5780SOL    HW218240   6.174   3.710   0.374
 5781SOL     OW18241   3.256   4.210   5.229
 5781SOL    HW118242   3.316   4.157   5.289
 5781SOL    HW218243   3.232   4.155   5.149
 5782SOL     OW18244   4.325   1.260   3.166
 5782SOL    HW118245   4.399   1.305   3.116
 5782SOL    HW218246   4.241   1.313   3.155
 5783SOL     OW18247   2.224   6.532   2.288
 5783SOL    HW118248   2.176   6.507   2.373
 5783SOL    HW218249   2.189   6.475   2.213
 5784SOL     OW18250   1.483   6.363   0.204
 5784SOL    HW118251   1.452   6.328   0.292
 5784SOL    HW218252   1.576   6.399   0.213
 5785SOL     OW18253   2.095   1.946   6.467
 5785SOL    HW118254   2.090   1.988   6.376
 5785SOL    HW218255   2.145   1.859   6.461
 5786SOL     OW18256   0.479   2.175   5.593
 5786SOL    HW118257   0.468   2.082   5.629
 5786SOL    HW218258   0.546   2.225   5.648
 5787SOL     OW18259   0.574   2.482   4.956
 5787SOL    HW118260   0.610   2.434   4.876
 5787SOL    HW218261   0.611   2.574   4.959
 5788SOL     OW18262   0.277   1.652   1.473
 5788SOL    HW118263   0.334   1.617   1.399
 5788SOL    HW218264   0.247   1.745   1.451
 5789SOL     OW18265   2.706   5.781   6.709
 5789SOL    HW118266   2.778   5.723   6.746
 5789SOL    HW218267   2.730   5.811   6.617
 5790SOL     OW18268   6.804   6.546   2.419
 5790SOL    HW118269   6.854   6.632   2.415
 5790SOL    HW218270   6.822   6.493   2.337
 5791SOL     OW18271   3.967   0.618   1.154
 5791SOL    HW118272   3.874   0.612   1.119
 5791SOL    HW218273   4.016   0.692   1.108
 5792SOL     OW18274   5.139   2.283   2.450
 5792SOL    HW118275   5.069   2.224   2.409
 5792SOL    HW218276   5.101   2.331   2.529
 5793SOL     OW18277   4.059   1.577   6.991
 5793SOL    HW118278   4.069   1.484   0.001
 5793SOL    HW218279   3.962   1.603   6.991
 5794SOL     OW18280   3.051   5.638   0.169
 5794SOL    HW118281   2.998   5.659   0.087
 5794SOL    HW218282   3.148   5.638   0.147
 5795SOL     OW18283   0.742   0.203   0.922
 5795SOL    HW118284   0.815   0.254   0.968
 5795SOL    HW218285   0.761   0.105   0.928
 5796SOL     OW18286   4.883   0.479   5.959
 5796SOL    HW118287   4.982   0.470   5.959
 5796SOL    HW218288   4.845   0.432   5.879
 5797SOL     OW18289   0.393   2.725   0.227
 5797SOL    HW118290   0.381   2.824   0.229
 5797SOL    HW218291   0.414   2.696   0.133
 5798SOL     OW18292   2.093   2.800   4.100
 5798SOL    HW118293   2.020   2.806   4.032
 5798SOL    HW218294   2.078   2.869   4.171
 5799SOL     OW18295   2.571   0.443   3.484
 5799SOL    HW118296   2.532   0.535   3.491
 5799SOL    HW218297   2.636   0.428   3.558
 5800SOL     OW18298   1.255   6.328   2.037
 5800SOL    HW118299   1.322   6.331   2.111
 5800SOL    HW218300   1.187   6.257   2.057
 5801SOL     OW18301   1.588   1.933   2.661
 5801SOL    HW118302   1.633   2.020   2.646
 5801SOL    HW218303   1.569   1.921   2.758
 5802SOL     OW18304   0.349   7.023   2.609
 5802SOL    HW118305   0.303   7.017   2.697
 5802SOL    HW218306   0.435   6.971   2.613
 5803SOL     OW18307   0.271   6.978   4.038
 5803SOL    HW118308   0.338   6.904   4.036
 5803SOL    HW218309   0.264   7.014   4.131
 5804SOL     OW18310   6.248   1.850   3.569
 5804SOL    HW118311   6.301   1.770   3.542
 5804SOL    HW218312   6.223   1.843   3.666
 5805SOL     OW18313   0.503   2.420   1.584
 5805SOL    HW118314   0.496   2.336   1.529
 5805SOL    HW218315   0.554   2.401   1.668
 5806SOL     OW18316   6.585   3.873   1.802
 5806SOL    HW118317   6.489   3.883   1.779
 5806SOL    HW218318   6.632   3.961   1.793
 5807SOL     OW18319   0.957   1.843   1.955
 5807SOL    HW118320   0.912   1.780   1.892
 5807SOL    HW218321   0.934   1.819   2.049
 5808SOL     OW18322   6.660   0.150   5.424
 5808SOL    HW118323   6.650   0.084   5.349
 5808SOL    HW218324   6.666   0.100   5.511
 5809SOL     OW18325   6.996   3.364   4.132
 5809SOL    HW118326   7.026   3.358   4.036
 5809SOL    HW218327   6.939   3.445   4.144
 5810SOL     OW18328   1.420   0.057   5.514
 5810SOL    HW118329   1.339   0.056   5.572
 5810SOL    HW218330   1.502   0.044   5.570
 5811SOL     OW18331   3.312   5.310   6.957
 5811SOL    HW118332   3.367   5.332   0.012
 5811SOL    HW218333   3.336   5.371   6.882
 5812SOL     OW18334   6.237   3.534   5.848
 5812SOL    HW118335   6.160   3.582   5.890
 5812SOL    HW218336   6.259   3.452   5.902
 5813SOL     OW18337   6.050   4.888   0.730
 5813SOL    HW118338   6.122   4.892   0.800
 5813SOL    HW218339   6.022   4.793   0.717
 5814SOL     OW18340   5.476   0.981   2.610
 5814SOL    HW118341   5.532   1.046   2.559
 5814SOL    HW218342   5.450   1.021   2.698
 5815SOL     OW18343   6.495   3.628   4.448
 5815SOL    HW118344   6.459   3.718   4.424
 5815SOL    HW218345   6.591   3.636   4.473
 5816SOL     OW18346   6.689   4.342   0.998
 5816SOL    HW118347   6.765   4.406   1.011
 5816SOL    HW218348   6.724   4.248   1.000
 5817SOL     OW18349   6.882   2.934   3.520
 5817SOL    HW118350   6.962   2.877   3.503
 5817SOL    HW218351   6.812   2.915   3.452
 5818SOL     OW18352   2.428   0.291   4.328
 5818SOL    HW118353   2.394   0.237   4.251
 5818SOL    HW218354   2.354   0.310   4.392
 5819SOL     OW18355   4.265   4.339   1.104
 5819SOL    HW118356   4.186   4.359   1.162
 5819SOL    HW218357   4.274   4.411   1.035
 5820SOL     OW18358   7.020   6.718   2.330
 5820SOL    HW118359   0.066   6.669   2.380
 5820SOL    HW218360   7.002   6.806   2.376
 5821SOL     OW18361   6.277   6.655   2.259
 5821SOL    HW118362   6.322   6.734   2.216
 5821SOL    HW218363   6.341   6.611   2.322
 5822SOL     OW18364   0.947   4.061   2.733
 5822SOL    HW118365   1.042   4.030   2.725
 5822SOL    HW218366   0.929   4.089   2.827
 5823SOL     OW18367   2.421   6.718   5.143
 5823SOL    HW118368   2.447   6.792   5.205
 5823SOL    HW218369   2.491   6.646   5.146
 5824SOL     OW18370   2.215   6.145   2.316
 5824SOL    HW118371   2.186   6.207   2.243
 5824SOL    HW218372   2.140   6.082   2.338
 5825SOL     OW18373   4.138   1.495   5.475
 5825SOL    HW118374   4.144   1.595   5.477
 5825SOL    HW218375   4.062   1.468   5.416
 5826SOL     OW18376   1.676   6.128   4.508
 5826SOL    HW118377   1.613   6.204   4.491
 5826SOL    HW218378   1.765   6.147   4.467
 5827SOL     OW18379   2.146   3.582   3.012
 5827SOL    HW118380   2.143   3.679   2.988
 5827SOL    HW218381   2.113   3.528   2.935
 5828SOL     OW18382   4.378   6.784   5.006
 5828SOL    HW118383   4.331   6.789   5.094
 5828SOL    HW218384   4.382   6.688   4.976
 5829SOL     OW18385   2.126   0.535   2.550
 5829SOL    HW118386   2.110   0.521   2.452
 5829SOL    HW218387   2.132   0.633   2.568
 5830SOL     OW18388   4.381   5.624   4.682
 5830SOL    HW118389   4.342   5.693   4.621
 5830SOL    HW218390   4.464   5.660   4.725
 5831SOL     OW18391   2.382   1.840   4.466
 5831SOL    HW118392   2.309   1.841   4.535
 5831SOL    HW218393   2.469   1.862   4.509
 5832SOL     OW18394   2.209   4.888   3.713
 5832SOL    HW118395   2.221   4.983   3.684
 5832SOL    HW218396   2.287   4.834   3.683
 5833SOL     OW18397   3.080   4.461   1.064
 5833SOL    HW118398   3.130   4.547   1.074
 5833SOL    HW218399   3.005   4.458   1.129
 5834SOL     OW18400   6.270   2.399   6.686
 5834SOL    HW118401   6.223   2.455   6.754
 5834SOL    HW218402   6.203   2.353   6.628
 5835SOL     OW18403   4.035   1.809   3.621
 5835SOL    HW118404   4.133   1.814   3.638
 5835SOL    HW218405   3.989   1.886   3.665
 5836SOL     OW18406   4.934   5.417   1.777
 5836SOL    HW118407   4.871   5.369   1.716
 5836SOL    HW218408   5.020   5.365   1.784
 5837SOL     OW18409   2.979   4.102   0.300
 5837SOL    HW118410   2.913   4.175   0.281
 5837SOL    HW218411   2.932   4.013   0.299
 5838SOL     OW18412   3.455   3.109   0.115
 5838SOL    HW118413   3.526   3.163   0.070
 5838SOL    HW218414   3.373   3.165   0.125
 5839SOL     OW18415   1.849   1.220   1.011
 5839SOL    HW118416   1.906   1.280   1.066
 5839SOL    HW218417   1.791   1.165   1.071
 5840SOL     OW18418   0.130   3.413   2.582
 5840SOL    HW118419   0.143   3.318   2.553
 5840SOL    HW218420   0.035   3.440   2.566
 5841SOL     OW18421   5.112   1.862   0.452
 5841SOL    HW118422   5.024   1.849   0.498
 5841SOL    HW218423   5.104   1.835   0.356
 5842SOL     OW18424   3.504   1.971   2.288
 5842SOL    HW118425   3.416   1.992   2.246
 5842SOL    HW218426   3.490   1.949   2.385
 5843SOL     OW18427   3.229   3.132   0.984
 5843SOL    HW118428   3.293   3.209   0.991
 5843SOL    HW218429   3.212   3.112   0.887
 5844SOL     OW18430   0.576   6.026   5.276
 5844SOL    HW118431   0.625   6.104   5.235
 5844SOL    HW218432   0.535   6.055   5.363
 5845SOL     OW18433   2.159   6.385   2.883
 5845SOL    HW118434   2.215   6.405   2.963
 5845SOL    HW218435   2.063   6.408   2.902
 5846SOL     OW18436   0.288   4.570   5.950
 5846SOL    HW118437   0.362   4.623   5.991
 5846SOL    HW218438   0.321   4.480   5.922
 5847SOL     OW18439   1.920   3.780   6.333
 5847SOL    HW118440   1.905   3.682   6.334
 5847SOL    HW218441   2.018   3.799   6.331
 5848SOL     OW18442   2.570   6.207   1.566
 5848SOL    HW118443   2.523   6.147   1.501
 5848SOL    HW218444   2.594   6.155   1.648
 5849SOL     OW18445   2.721   5.821   6.417
 5849SOL    HW118446   2.655   5.823   6.341
 5849SOL    HW218447   2.749   5.727   6.434
 5850SOL     OW18448   5.664   1.761   1.474
 5850SOL    HW118449   5.734   1.722   1.535
 5850SOL    HW218450   5.585   1.789   1.528
 5851SOL     OW18451   0.617   3.668   4.436
 5851SOL    HW118452   0.661   3.696   4.351
 5851SOL    HW218453   0.633   3.571   4.452
 5852SOL     OW18454   5.027   4.092   2.668
 5852SOL    HW118455   5.096   4.137   2.724
 5852SOL    HW218456   5.068   4.061   2.583
 5853SOL     OW18457   4.426   5.074   0.372
 5853SOL    HW118458   4.524   5.095   0.370
 5853SOL    HW218459   4.377   5.154   0.408
 5854SOL     OW18460   2.886   4.695   5.383
 5854SOL    HW118461   2.926   4.678   5.472
 5854SOL    HW218462   2.943   4.653   5.312
 5855SOL     OW18463   2.020   2.031   4.563
 5855SOL    HW118464   2.068   2.093   4.500
 5855SOL    HW218465   2.000   2.080   4.648
 5856SOL     OW18466   0.430   0.141   2.126
 5856SOL    HW118467   0.473   0.101   2.207
 5856SOL    HW218468   0.499   0.154   2.054
 5857SOL     OW18469   5.438   5.205   6.901
 5857SOL    HW118470   5.515   5.266   6.882
 5857SOL    HW218471   5.354   5.244   6.863
 5858SOL     OW18472   2.615   1.846   2.688
 5858SOL    HW118473   2.516   1.856   2.694
 5858SOL    HW218474   2.642   1.828   2.593
 5859SOL     OW18475   5.627   5.537   2.301
 5859SOL    HW118476   5.579   5.544   2.388
 5859SOL    HW218477   5.726   5.541   2.317
 5860SOL     OW18478   2.096   3.171   2.709
 5860SOL    HW118479   2.093   3.230   2.628
 5860SOL    HW218480   2.040   3.090   2.693
 5861SOL     OW18481   5.691   0.389   5.162
 5861SOL    HW118482   5.751   0.346   5.229
 5861SOL    HW218483   5.597   0.358   5.178
 5862SOL     OW18484   6.709   5.106   3.089
 5862SOL    HW118485   6.708   5.080   3.186
 5862SOL    HW218486   6.670   5.197   3.078
 5863SOL     OW18487   4.206   7.012   5.685
 5863SOL    HW118488   4.302   6.987   5.694
 5863SOL    HW218489   4.149   6.945   5.733
 5864SOL     OW18490   3.775   2.961   3.259
 5864SOL    HW118491   3.693   3.002   3.217
 5864SOL    HW218492   3.838   2.932   3.186
 5865SOL     OW18493   6.225   0.022   1.319
 5865SOL    HW118494   6.155   0.040   1.387
 5865SOL    HW218495   6.294   6.985   1.357
 5866SOL     OW18496   3.408   3.278   3.803
 5866SOL    HW118497   3.309   3.289   3.802
 5866SOL    HW218498   3.437   3.243   3.892
 5867SOL     OW18499   3.776   1.433   0.863
 5867SOL    HW118500   3.695   1.463   0.912
 5867SOL    HW218501   3.779   1.333   0.860
 5868SOL     OW18502   1.246   0.639   0.637
 5868SOL    HW118503   1.328   0.592   0.669
 5868SOL    HW218504   1.255   0.660   0.540
 5869SOL     OW18505   1.824   5.437   2.826
 5869SOL    HW118506   1.777   5.513   2.780
 5869SOL    HW218507   1.922   5.445   2.812
 5870SOL     OW18508   4.520   0.220   3.929
 5870SOL    HW118509   4.476   0.130   3.925
 5870SOL    HW218510   4.600   0.215   3.989
 5871SOL     OW18511   3.797   3.704   3.583
 5871SOL    HW118512   3.750   3.706   3.495
 5871SOL    HW218513   3.877   3.646   3.577
 5872SOL     OW18514   3.699   5.982   1.410
 5872SOL    HW118515   3.632   5.909   1.399
 5872SOL    HW218516   3.716   5.997   1.508
 5873SOL     OW18517   3.942   6.338   2.260
 5873SOL    HW118518   3.915   6.282   2.182
 5873SOL    HW218519   3.984   6.280   2.330
 5874SOL     OW18520   0.564   4.643   4.920
 5874SOL    HW118521   0.599   4.565   4.868
 5874SOL    HW218522   0.464   4.645   4.915
 5875SOL     OW18523   4.274   2.376   1.153
 5875SOL    HW118524   4.187   2.331   1.136
 5875SOL    HW218525   4.276   2.413   1.246
 5876SOL     OW18526   3.481   3.008   2.210
 5876SOL    HW118527   3.564   2.958   2.184
 5876SOL    HW218528   3.507   3.090   2.260
 5877SOL     OW18529   5.184   4.747   1.681
 5877SOL    HW118530   5.214   4.833   1.640
 5877SOL    HW218531   5.259   4.680   1.678
 5878SOL     OW18532   1.944   3.560   2.741
 5878SOL    HW118533   1.884   3.542   2.663
 5878SOL    HW218534   1.933   3.655   2.770
 5879SOL     OW18535   1.993   3.583   4.177
 5879SOL    HW118536   2.018   3.641   4.254
 5879SOL    HW218537   2.036   3.493   4.186
 5880SOL     OW18538   2.918   5.590   6.775
 5880SOL    HW118539   2.884   5.534   6.851
 5880SOL    HW218540   3.005   5.632   6.800
 5881SOL     OW18541   1.895   6.404   4.495
 5881SOL    HW118542   1.965   6.476   4.495
 5881SOL    HW218543   1.810   6.442   4.458
 5882SOL     OW18544   5.043   0.288   3.086
 5882SOL    HW118545   5.058   0.387   3.088
 5882SOL    HW218546   5.040   0.256   2.991
 5883SOL     OW18547   1.333   3.226   4.659
 5883SOL    HW118548   1.255   3.244   4.599
 5883SOL    HW218549   1.394   3.159   4.615
 5884SOL     OW18550   0.391   0.567   2.825
 5884SOL    HW118551   0.461   0.513   2.872
 5884SOL    HW218552   0.310   0.510   2.810
 5885SOL     OW18553   5.497   6.933   0.626
 5885SOL    HW118554   5.521   6.944   0.723
 5885SOL    HW218555   5.489   6.836   0.605
 5886SOL     OW18556   6.086   1.715   6.569
 5886SOL    HW118557   6.138   1.778   6.512
 5886SOL    HW218558   6.149   1.665   6.629
 5887SOL     OW18559   3.915   5.735   3.025
 5887SOL    HW118560   3.972   5.666   2.981
 5887SOL    HW218561   3.965   5.777   3.100
 5888SOL     OW18562   6.669   6.183   1.802
 5888SOL    HW118563   6.583   6.134   1.784
 5888SOL    HW218564   6.648   6.271   1.845
 5889SOL     OW18565   2.918   6.968   6.542
 5889SOL    HW118566   2.931   6.898   6.612
 5889SOL    HW218567   2.968   6.942   6.460
 5890SOL     OW18568   4.172   5.289   6.352
 5890SOL    HW118569   4.180   5.190   6.348
 5890SOL    HW218570   4.103   5.314   6.421
 5891SOL     OW18571   1.974   3.412   5.840
 5891SOL    HW118572   1.929   3.336   5.793
 5891SOL    HW218573   2.046   3.449   5.782
 5892SOL     OW18574   2.243   6.176   2.753
 5892SOL    HW118575   2.307   6.133   2.817
 5892SOL    HW218576   2.199   6.254   2.797
 5893SOL     OW18577   1.282   2.052   3.038
 5893SOL    HW118578   1.314   2.112   2.965
 5893SOL    HW218579   1.342   2.059   3.117
 5894SOL     OW18580   1.478   4.087   4.068
 5894SOL    HW118581   1.399   4.146   4.082
 5894SOL    HW218582   1.539   4.094   4.147
 5895SOL     OW18583   5.800   4.210   3.461
 5895SOL    HW118584   5.774   4.121   3.424
 5895SOL    HW218585   5.866   4.198   3.535
 5896SOL     OW18586   4.997   3.057   6.237
 5896SOL    HW118587   4.963   2.964   6.226
 5896SOL    HW218588   5.077   3.057   6.296
 5897SOL     OW18589   4.520   5.605   1.191
 5897SOL    HW118590   4.512   5.688   1.247
 5897SOL    HW218591   4.497   5.627   1.096
 5898SOL     OW18592   2.943   0.021   3.386
 5898SOL    HW118593   2.874   7.006   3.327
 5898SOL    HW218594   2.923   0.001   3.481
 5899SOL     OW18595   5.581   0.662   3.870
 5899SOL    HW118596   5.591   0.700   3.962
 5899SOL    HW218597   5.592   0.563   3.874
 5900SOL     OW18598   3.837   4.930   1.991
 5900SOL    HW118599   3.780   4.849   2.002
 5900SOL    HW218600   3.810   4.999   2.059
 5901SOL     OW18601   2.830   6.408   4.660
 5901SOL    HW118602   2.799   6.448   4.573
 5901SOL    HW218603   2.895   6.469   4.704
 5902SOL     OW18604   6.189   2.664   0.050
 5902SOL    HW118605   6.244   2.701   7.001
 5902SOL    HW218606   6.097   2.702   0.046
 5903SOL     OW18607   0.495   2.915   6.128
 5903SOL    HW118608   0.453   2.834   6.169
 5903SOL    HW218609   0.507   2.985   6.199
 5904SOL     OW18610   1.818   2.859   2.453
 5904SOL    HW118611   1.725   2.827   2.435
 5904SOL    HW218612   1.845   2.926   2.384
 5905SOL     OW18613   0.125   4.554   2.540
 5905SOL    HW118614   0.163   4.631   2.488
 5905SOL    HW218615   0.058   4.588   2.606
 5906SOL     OW18616   0.801   0.625   2.752
 5906SOL    HW118617   0.821   0.567   2.831
 5906SOL    HW218618   0.841   0.715   2.767
 5907SOL     OW18619   2.331   6.968   2.732
 5907SOL    HW118620   2.268   6.909   2.682
 5907SOL    HW218621   2.279   0.015   2.777
 5908SOL     OW18622   0.964   2.709   6.156
 5908SOL    HW118623   0.873   2.714   6.116
 5908SOL    HW218624   0.981   2.615   6.187
 5909SOL     OW18625   6.442   4.813   0.228
 5909SOL    HW118626   6.528   4.762   0.234
 5909SOL    HW218627   6.441   4.866   0.143
 5910SOL     OW18628   1.176   1.680   3.262
 5910SOL    HW118629   1.077   1.694   3.254
 5910SOL    HW218630   1.194   1.601   3.320
 5911SOL     OW18631   6.791   5.863   6.752
 5911SOL    HW118632   6.772   5.817   6.839
 5911SOL    HW218633   6.882   5.838   6.720
 5912SOL     OW18634   0.433   0.240   3.615
 5912SOL    HW118635   0.463   0.334   3.633
 5912SOL    HW218636   0.415   0.194   3.701
 5913SOL     OW18637   6.710   2.490   0.872
 5913SOL    HW118638   6.674   2.562   0.932
 5913SOL    HW218639   6.724   2.527   0.780
 5914SOL     OW18640   0.905   6.400   0.750
 5914SOL    HW118641   0.813   6.418   0.786
 5914SOL    HW218642   0.961   6.358   0.821
 5915SOL     OW18643   3.903   0.553   5.910
 5915SOL    HW118644   3.943   0.507   5.989
 5915SOL    HW218645   3.890   0.650   5.931
 5916SOL     OW18646   0.709   0.411   2.335
 5916SOL    HW118647   0.629   0.459   2.373
 5916SOL    HW218648   0.712   0.318   2.370
 5917SOL     OW18649   3.356   2.450   0.168
 5917SOL    HW118650   3.414   2.376   0.203
 5917SOL    HW218651   3.378   2.467   0.072
 5918SOL     OW18652   3.298   6.975   4.019
 5918SOL    HW118653   3.370   7.014   3.962
 5918SOL    HW218654   3.325   6.883   4.048
 5919SOL     OW18655   3.385   3.420   4.741
 5919SOL    HW118656   3.343   3.332   4.763
 5919SOL    HW218657   3.363   3.444   4.646
 5920SOL     OW18658   0.555   0.445   6.118
 5920SOL    HW118659   0.495   0.365   6.111
 5920SOL    HW218660   0.551   0.497   6.033
 5921SOL     OW18661   2.793   4.331   0.188
 5921SOL    HW118662   2.836   4.337   0.099
 5921SOL    HW218663   2.698   4.302   0.178
 5922SOL     OW18664   5.528   2.822   2.664
 5922SOL    HW118665   5.478   2.857   2.585
 5922SOL    HW218666   5.625   2.844   2.654
 5923SOL     OW18667   5.893   0.791   3.060
 5923SOL    HW118668   5.954   0.714   3.079
 5923SOL    HW218669   5.801   0.768   3.093
 5924SOL     OW18670   6.138   6.862   3.767
 5924SOL    HW118671   6.130   6.871   3.668
 5924SOL    HW218672   6.184   6.943   3.804
 5925SOL     OW18673   4.643   1.345   0.882
 5925SOL    HW118674   4.603   1.281   0.817
 5925SOL    HW218675   4.571   1.399   0.925
 5926SOL     OW18676   5.677   3.585   2.993
 5926SOL    HW118677   5.603   3.569   3.057
 5926SOL    HW218678   5.763   3.597   3.043
 5927SOL     OW18679   0.419   5.653   1.690
 5927SOL    HW118680   0.420   5.751   1.672
 5927SOL    HW218681   0.332   5.614   1.661
 5928SOL     OW18682   2.715   0.041   6.776
 5928SOL    HW118683   2.714   0.134   6.813
 5928SOL    HW218684   2.738   7.002   6.848
 5929SOL     OW18685   1.473   0.667   0.896
 5929SOL    HW118686   1.473   0.627   0.805
 5929SOL    HW218687   1.520   0.755   0.895
 5930SOL     OW18688   1.551   3.871   2.451
 5930SOL    HW118689   1.618   3.908   2.387
 5930SOL    HW218690   1.529   3.777   2.425
 5931SOL     OW18691   4.897   6.313   3.406
 5931SOL    HW118692   4.932   6.269   3.323
 5931SOL    HW218693   4.856   6.401   3.381
 5932SOL     OW18694   3.141   6.142   0.520
 5932SOL    HW118695   3.187   6.174   0.438
 5932SOL    HW218696   3.075   6.211   0.551
 5933SOL     OW18697   6.202   5.525   4.729
 5933SOL    HW118698   6.268   5.453   4.744
 5933SOL    HW218699   6.119   5.487   4.687
 5934SOL     OW18700   3.033   3.159   0.718
 5934SOL    HW118701   3.095   3.186   0.644
 5934SOL    HW218702   3.010   3.062   0.708
 5935SOL     OW18703   0.883   0.511   5.082
 5935SOL    HW118704   0.854   0.583   5.145
 5935SOL    HW218705   0.847   0.531   4.990
 5936SOL     OW18706   3.739   2.907   2.110
 5936SOL    HW118707   3.779   2.817   2.094
 5936SOL    HW218708   3.709   2.946   2.022
 5937SOL     OW18709   0.497   2.890   0.548
 5937SOL    HW118710   0.405   2.888   0.588
 5937SOL    HW218711   0.516   2.982   0.514
 5938SOL     OW18712   0.496   3.472   3.931
 5938SOL    HW118713   0.424   3.407   3.952
 5938SOL    HW218714   0.559   3.433   3.865
 5939SOL     OW18715   4.536   1.433   6.067
 5939SOL    HW118716   4.568   1.458   5.975
 5939SOL    HW218717   4.602   1.466   6.135
 5940SOL     OW18718   4.814   5.145   2.012
 5940SOL    HW118719   4.797   5.094   1.928
 5940SOL    HW218720   4.819   5.082   2.089
 5941SOL     OW18721   0.111   1.975   3.158
 5941SOL    HW118722   0.130   1.951   3.253
 5941SOL    HW218723   0.196   1.999   3.112
 5942SOL     OW18724   5.327   2.643   6.744
 5942SOL    HW118725   5.242   2.676   6.704
 5942SOL    HW218726   5.395   2.628   6.672
 5943SOL     OW18727   1.617   4.609   1.158
 5943SOL    HW118728   1.674   4.527   1.164
 5943SOL    HW218729   1.669   4.682   1.113
 5944SOL     OW18730   6.024   3.709   5.651
 5944SOL    HW118731   6.075   3.787   5.687
 5944SOL    HW218732   6.083   3.655   5.591
 5945SOL     OW18733   6.713   6.340   4.363
 5945SOL    HW118734   6.653   6.398   4.417
 5945SOL    HW218735   6.701   6.361   4.266
 5946SOL     OW18736   2.277   3.162   6.934
 5946SOL    HW118737   2.229   3.084   6.973
 5946SOL    HW218738   2.218   3.243   6.936
 5947SOL     OW18739   3.722   3.572   4.600
 5947SOL    HW118740   3.665   3.585   4.518
 5947SOL    HW218741   3.770   3.485   4.595
 5948SOL     OW18742   4.906   4.048   1.369
 5948SOL    HW118743   4.938   4.012   1.457
 5948SOL    HW218744   4.938   4.142   1.357
 5949SOL     OW18745   0.397   3.608   2.881
 5949SOL    HW118746   0.405   3.511   2.906
 5949SOL    HW218747   0.461   3.661   2.936
 5950SOL     OW18748   2.899   6.948   4.606
 5950SOL    HW118749   2.978   6.902   4.566
 5950SOL    HW218750   2.829   6.960   4.536
 5951SOL     OW18751   6.939   3.537   6.534
 5951SOL    HW118752   6.927   3.618   6.591
 5951SOL    HW218753   6.872   3.539   6.459
 5952SOL     OW18754   3.732   4.035   1.857
 5952SOL    HW118755   3.744   4.076   1.947
 5952SOL    HW218756   3.636   4.040   1.831
 5953SOL     OW18757   6.665   3.442   5.795
 5953SOL    HW118758   6.655   3.346   5.819
 5953SOL    HW218759   6.762   3.467   5.795
 5954SOL     OW18760   2.106   5.391   3.773
 5954SOL    HW118761   2.106   5.460   3.846
 5954SOL    HW218762   2.070   5.305   3.810
 5955SOL     OW18763   4.424   3.272   0.438
 5955SOL    HW118764   4.493   3.288   0.508
 5955SOL    HW218765   4.334   3.267   0.480
 5956SOL     OW18766   4.276   3.110   6.021
 5956SOL    HW118767   4.322   3.156   5.946
 5956SOL    HW218768   4.320   3.135   6.107
 5957SOL     OW18769   6.448   1.641   3.494
 5957SOL    HW118770   6.494   1.553   3.479
 5957SOL    HW218771   6.419   1.679   3.406
 5958SOL     OW18772   2.464   6.379   3.289
 5958SOL    HW118773   2.493   6.383   3.384
 5958SOL    HW218774   2.523   6.438   3.233
 5959SOL     OW18775   5.647   3.322   2.878
 5959SOL    HW118776   5.647   3.412   2.922
 5959SOL    HW218777   5.584   3.261   2.926
 5960SOL     OW18778   5.162   0.482   5.947
 5960SOL    HW118779   5.190   0.560   5.891
 5960SOL    HW218780   5.242   0.423   5.963
 5961SOL     OW18781   3.220   2.169   3.640
 5961SOL    HW118782   3.264   2.128   3.720
 5961SOL    HW218783   3.128   2.199   3.663
 5962SOL     OW18784   4.446   5.002   0.691
 5962SOL    HW118785   4.511   5.010   0.767
 5962SOL    HW218786   4.449   5.085   0.635
 5963SOL     OW18787   1.963   3.540   0.364
 5963SOL    HW118788   1.935   3.552   0.460
 5963SOL    HW218789   2.059   3.513   0.361
 5964SOL     OW18790   1.859   0.220   3.067
 5964SOL    HW118791   1.816   0.310   3.076
 5964SOL    HW218792   1.788   0.149   3.068
 5965SOL     OW18793   2.459   0.650   0.874
 5965SOL    HW118794   2.418   0.564   0.844
 5965SOL    HW218795   2.399   0.694   0.941
 5966SOL     OW18796   2.903   1.979   5.354
 5966SOL    HW118797   2.814   1.999   5.395
 5966SOL    HW218798   2.916   2.036   5.273
 5967SOL     OW18799   4.794   2.284   5.231
 5967SOL    HW118800   4.750   2.287   5.142
 5967SOL    HW218801   4.834   2.374   5.252
 5968SOL     OW18802   5.597   1.802   3.062
 5968SOL    HW118803   5.642   1.787   2.974
 5968SOL    HW218804   5.568   1.898   3.068
 5969SOL     OW18805   4.476   0.165   0.951
 5969SOL    HW118806   4.537   0.179   1.029
 5969SOL    HW218807   4.528   0.178   0.866
 5970SOL     OW18808   6.785   3.123   0.579
 5970SOL    HW118809   6.834   3.036   0.585
 5970SOL    HW218810   6.788   3.169   0.667
 5971SOL     OW18811   0.109   5.310   3.849
 5971SOL    HW118812   0.095   5.218   3.886
 5971SOL    HW218813   0.021   5.356   3.841
 5972SOL     OW18814   5.907   5.546   1.157
 5972SOL    HW118815   5.957   5.579   1.076
 5972SOL    HW218816   5.810   5.539   1.135
 5973SOL     OW18817   2.479   0.701   2.423
 5973SOL    HW118818   2.465   0.608   2.455
 5973SOL    HW218819   2.500   0.760   2.500
 5974SOL     OW18820   5.425   1.348   4.757
 5974SOL    HW118821   5.468   1.265   4.721
 5974SOL    HW218822   5.345   1.370   4.702
 5975SOL     OW18823   4.455   5.343   1.564
 5975SOL    HW118824   4.433   5.390   1.649
 5975SOL    HW218825   4.381   5.278   1.542
 5976SOL     OW18826   1.667   3.959   5.646
 5976SOL    HW118827   1.707   3.917   5.564
 5976SOL    HW218828   1.695   4.055   5.651
 5977SOL     OW18829   6.526   5.154   1.082
 5977SOL    HW118830   6.514   5.249   1.109
 5977SOL    HW218831   6.611   5.118   1.121
 5978SOL     OW18832   2.534   3.688   6.532
 5978SOL    HW118833   2.628   3.688   6.566
 5978SOL    HW218834   2.483   3.613   6.574
 5979SOL     OW18835   6.667   6.983   1.083
 5979SOL    HW118836   6.609   0.029   1.044
 5979SOL    HW218837   6.665   6.903   1.023
 5980SOL     OW18838   3.113   2.447   0.894
 5980SOL    HW118839   3.164   2.467   0.810
 5980SOL    HW218840   3.163   2.380   0.948
 5981SOL     OW18841   2.787   2.282   1.038
 5981SOL    HW118842   2.823   2.361   0.987
 5981SOL    HW218843   2.692   2.300   1.064
 5982SOL     OW18844   5.604   3.130   1.956
 5982SOL    HW118845   5.520   3.076   1.956
 5982SOL    HW218846   5.598   3.201   1.886
 5983SOL     OW18847   6.944   0.871   3.766
 5983SOL    HW118848   7.017   0.914   3.713
 5983SOL    HW218849   6.983   0.824   3.844
 5984SOL     OW18850   6.089   6.138   3.155
 5984SOL    HW118851   6.062   6.097   3.068
 5984SOL    HW218852   6.155   6.079   3.201
 5985SOL     OW18853   0.120   3.428   2.854
 5985SOL    HW118854   0.108   3.525   2.877
 5985SOL    HW218855   0.131   3.418   2.756
 5986SOL     OW18856   3.570   3.558   3.938
 5986SOL    HW118857   3.508   3.583   3.863
 5986SOL    HW218858   3.532   3.479   3.987
 5987SOL     OW18859   0.239   6.040   4.833
 5987SOL    HW118860   0.222   5.952   4.788
 5987SOL    HW218861   0.257   6.025   4.930
 5988SOL     OW18862   1.175   3.221   6.896
 5988SOL    HW118863   1.174   3.123   6.916
 5988SOL    HW218864   1.158   3.236   6.799
 5989SOL     OW18865   1.376   6.874   5.323
 5989SOL    HW118866   1.377   6.939   5.399
 5989SOL    HW218867   1.338   6.918   5.242
 5990SOL     OW18868   2.133   4.497   1.575
 5990SOL    HW118869   2.102   4.442   1.496
 5990SOL    HW218870   2.169   4.584   1.542
 5991SOL     OW18871   5.649   0.983   1.143
 5991SOL    HW118872   5.687   0.894   1.117
 5991SOL    HW218873   5.723   1.044   1.170
 5992SOL     OW18874   3.255   5.380   2.978
 5992SOL    HW118875   3.236   5.312   3.049
 5992SOL    HW218876   3.172   5.432   2.958
 5993SOL     OW18877   5.777   2.286   0.568
 5993SOL    HW118878   5.728   2.270   0.654
 5993SOL    HW218879   5.866   2.327   0.589
 5994SOL     OW18880   6.607   3.678   6.857
 5994SOL    HW118881   6.559   3.609   6.911
 5994SOL    HW218882   6.627   3.757   6.915
 5995SOL     OW18883   5.156   3.545   1.220
 5995SOL    HW118884   5.138   3.482   1.145
 5995SOL    HW218885   5.254   3.565   1.225
 5996SOL     OW18886   2.286   6.970   1.289
 5996SOL    HW118887   2.254   0.025   1.238
 5996SOL    HW218888   2.384   6.979   1.307
 5997SOL     OW18889   6.179   0.436   4.030
 5997SOL    HW118890   6.112   0.467   4.096
 5997SOL    HW218891   6.237   0.512   4.001
 5998SOL     OW18892   6.301   6.379   6.552
 5998SOL    HW118893   6.284   6.319   6.474
 5998SOL    HW218894   6.355   6.330   6.621
 5999SOL     OW18895   5.331   3.860   1.470
 5999SOL    HW118896   5.267   3.937   1.460
 5999SOL    HW218897   5.287   3.788   1.523
 6000SOL     OW18898   1.447   4.455   0.810
 6000SOL    HW118899   1.453   4.355   0.809
 6000SOL    HW218900   1.444   4.489   0.716
 6001SOL     OW18901   6.194   5.440   5.708
 6001SOL    HW118902   6.163   5.525   5.751
 6001SOL    HW218903   6.120   5.372   5.710
 6002SOL     OW18904   5.349   4.683   5.267
 6002SOL    HW118905   5.394   4.758   5.218
 6002SOL    HW218906   5.400   4.598   5.253
 6003SOL     OW18907   2.643   2.068   4.809
 6003SOL    HW118908   2.712   2.016   4.859
 6003SOL    HW218909   2.647   2.164   4.836
 6004SOL     OW18910   5.245   3.395   5.404
 6004SOL    HW118911   5.154   3.371   5.438
 6004SOL    HW218912   5.269   3.337   5.327
 6005SOL     OW18913   4.202   4.210   0.438
 6005SOL    HW118914   4.288   4.249   0.403
 6005SOL    HW218915   4.139   4.284   0.460
 6006SOL     OW18916   3.198   6.464   7.006
 6006SOL    HW118917   3.287   6.481   6.964
 6006SOL    HW218918   3.204   6.479   0.079
 6007SOL     OW18919   2.181   6.660   5.063
 6007SOL    HW118920   2.270   6.701   5.081
 6007SOL    HW218921   2.167   6.582   5.124
 6008SOL     OW18922   1.971   4.083   6.347
 6008SOL    HW118923   2.042   4.019   6.319
 6008SOL    HW218924   1.940   4.135   6.267
 6009SOL     OW18925   4.229   5.067   2.658
 6009SOL    HW118926   4.325   5.095   2.660
 6009SOL    HW218927   4.216   4.990   2.722
 6010SOL     OW18928   0.399   5.065   4.699
 6010SOL    HW118929   0.417   5.046   4.796
 6010SOL    HW218930   0.311   5.026   4.673
 6011SOL     OW18931   5.285   1.678   3.322
 6011SOL    HW118932   5.230   1.652   3.242
 6011SOL    HW218933   5.237   1.651   3.405
 6012SOL     OW18934   6.526   0.801   5.597
 6012SOL    HW118935   6.447   0.802   5.659
 6012SOL    HW218936   6.602   0.851   5.638
 6013SOL     OW18937   5.409   1.409   2.487
 6013SOL    HW118938   5.365   1.325   2.455
 6013SOL    HW218939   5.385   1.426   2.582
 6014SOL     OW18940   3.425   3.382   4.452
 6014SOL    HW118941   3.332   3.418   4.448
 6014SOL    HW218942   3.423   3.285   4.476
 6015SOL     OW18943   5.938   6.792   4.536
 6015SOL    HW118944   6.035   6.791   4.511
 6015SOL    HW218945   5.885   6.830   4.460
 6016SOL     OW18946   4.153   2.311   4.759
 6016SOL    HW118947   4.150   2.411   4.750
 6016SOL    HW218948   4.179   2.270   4.672
 6017SOL     OW18949   1.592   1.737   5.608
 6017SOL    HW118950   1.573   1.676   5.531
 6017SOL    HW218951   1.524   1.811   5.610
 6018SOL     OW18952   2.570   1.076   3.788
 6018SOL    HW118953   2.609   1.161   3.822
 6018SOL    HW218954   2.537   1.021   3.865
 6019SOL     OW18955   6.682   4.662   6.606
 6019SOL    HW118956   6.735   4.673   6.690
 6019SOL    HW218957   6.604   4.602   6.624
 6020SOL     OW18958   0.708   5.063   5.621
 6020SOL    HW118959   0.679   4.975   5.583
 6020SOL    HW218960   0.783   5.100   5.565
 6021SOL     OW18961   5.653   0.297   3.445
 6021SOL    HW118962   5.684   0.243   3.523
 6021SOL    HW218963   5.560   0.331   3.463
 6022SOL     OW18964   6.284   2.836   1.646
 6022SOL    HW118965   6.229   2.917   1.624
 6022SOL    HW218966   6.223   2.759   1.665
 6023SOL     OW18967   4.521   6.542   2.075
 6023SOL    HW118968   4.556   6.487   1.999
 6023SOL    HW218969   4.592   6.604   2.107
 6024SOL     OW18970   0.561   6.557   6.332
 6024SOL    HW118971   0.647   6.515   6.303
 6024SOL    HW218972   0.575   6.607   6.417
 6025SOL     OW18973   2.633   0.446   5.693
 6025SOL    HW118974   2.585   0.492   5.618
 6025SOL    HW218975   2.726   0.424   5.663
 6026SOL     OW18976   5.948   5.732   3.535
 6026SOL    HW118977   5.863   5.703   3.579
 6026SOL    HW218978   5.965   5.829   3.555
 6027SOL     OW18979   5.837   5.360   6.335
 6027SOL    HW118980   5.807   5.453   6.315
 6027SOL    HW218981   5.933   5.360   6.362
 6028SOL     OW18982   5.988   6.147   6.142
 6028SOL    HW118983   5.986   6.190   6.051
 6028SOL    HW218984   6.008   6.049   6.132
 6029SOL     OW18985   3.820   1.469   2.657
 6029SOL    HW118986   3.892   1.419   2.705
 6029SOL    HW218987   3.860   1.534   2.593
 6030SOL     OW18988   6.284   3.264   4.468
 6030SOL    HW118989   6.307   3.340   4.409
 6030SOL    HW218990   6.344   3.186   4.448
 6031SOL     OW18991   0.327   6.601   5.045
 6031SOL    HW118992   0.241   6.636   5.081
 6031SOL    HW218993   0.311   6.555   4.958
 6032SOL     OW18994   3.136   6.852   3.347
 6032SOL    HW118995   3.065   6.914   3.381
 6032SOL    HW218996   3.215   6.857   3.407
 6033SOL     OW18997   0.579   1.798   2.482
 6033SOL    HW118998   0.678   1.789   2.489
 6033SOL    HW218999   0.540   1.814   2.572
 6034SOL     OW19000   0.182   7.005   0.499
 6034SOL    HW119001   0.096   6.963   0.529
 6034SOL    HW219002   0.183   0.076   0.525
 6035SOL     OW19003   2.655   0.158   2.630
 6035SOL    HW119004   2.722   0.168   2.556
 6035SOL    HW219005   2.694   0.104   2.704
 6036SOL     OW19006   6.208   3.448   0.643
 6036SOL    HW119007   6.229   3.530   0.589
 6036SOL    HW219008   6.119   3.412   0.616
 6037SOL     OW19009   4.786   1.170   6.230
 6037SOL    HW119010   4.784   1.269   6.240
 6037SOL    HW219011   4.745   1.144   6.142
 6038SOL     OW19012   1.589   1.035   5.940
 6038SOL    HW119013   1.509   1.094   5.928
 6038SOL    HW219014   1.564   0.941   5.916
 6039SOL     OW19015   4.055   3.628   3.628
 6039SOL    HW119016   4.067   3.529   3.619
 6039SOL    HW219017   4.069   3.655   3.724
 6040SOL     OW19018   0.981   2.063   0.141
 6040SOL    HW119019   0.972   2.161   0.127
 6040SOL    HW219020   0.901   2.017   0.102
 6041SOL     OW19021   0.755   3.776   5.263
 6041SOL    HW119022   0.763   3.704   5.193
 6041SOL    HW219023   0.833   3.838   5.255
 6042SOL     OW19024   3.032   6.285   3.520
 6042SOL    HW119025   3.103   6.354   3.532
 6042SOL    HW219026   2.946   6.318   3.560
 6043SOL     OW19027   2.535   6.927   2.565
 6043SOL    HW119028   2.476   6.964   2.637
 6043SOL    HW219029   2.487   6.930   2.478
 6044SOL     OW19030   0.540   3.344   0.466
 6044SOL    HW119031   0.442   3.350   0.445
 6044SOL    HW219032   0.573   3.252   0.442
 6045SOL     OW19033   5.664   1.039   3.985
 6045SOL    HW119034   5.714   1.121   4.011
 6045SOL    HW219035   5.688   1.013   3.892
 6046SOL     OW19036   3.490   3.253   2.913
 6046SOL    HW119037   3.497   3.169   2.860
 6046SOL    HW219038   3.394   3.280   2.921
 6047SOL     OW19039   6.754   1.645   0.214
 6047SOL    HW119040   6.807   1.575   0.166
 6047SOL    HW219041   6.815   1.699   0.272
 6048SOL     OW19042   5.867   6.049   3.310
 6048SOL    HW119043   5.929   6.102   3.252
 6048SOL    HW219044   5.795   6.010   3.254
 6049SOL     OW19045   4.423   4.975   6.486
 6049SOL    HW119046   4.325   4.994   6.496
 6049SOL    HW219047   4.440   4.877   6.502
 6050SOL     OW19048   2.570   5.329   2.554
 6050SOL    HW119049   2.579   5.414   2.502
 6050SOL    HW219050   2.479   5.325   2.596
 6051SOL     OW19051   0.470   1.556   2.934
 6051SOL    HW119052   0.499   1.463   2.914
 6051SOL    HW219053   0.410   1.557   3.014
 6052SOL     OW19054   5.379   5.407   0.694
 6052SOL    HW119055   5.322   5.337   0.651
 6052SOL    HW219056   5.436   5.364   0.764
 6053SOL     OW19057   4.595   2.486   6.902
 6053SOL    HW119058   4.566   2.412   6.962
 6053SOL    HW219059   4.640   2.557   6.957
 6054SOL     OW19060   4.215   3.938   0.921
 6054SOL    HW119061   4.265   3.852   0.906
 6054SOL    HW219062   4.259   4.012   0.871
 6055SOL     OW19063   3.064   3.502   1.048
 6055SOL    HW119064   2.982   3.486   0.993
 6055SOL    HW219065   3.082   3.600   1.052
 6056SOL     OW19066   5.386   5.947   3.486
 6056SOL    HW119067   5.292   5.916   3.474
 6056SOL    HW219068   5.396   6.038   3.445
 6057SOL     OW19069   5.473   0.888   3.705
 6057SOL    HW119070   5.494   0.803   3.753
 6057SOL    HW219071   5.404   0.939   3.756
 6058SOL     OW19072   0.298   2.647   5.819
 6058SOL    HW119073   0.294   2.746   5.833
 6058SOL    HW219074   0.251   2.600   5.894
 6059SOL     OW19075   4.468   2.927   0.063
 6059SOL    HW119076   4.485   2.970   7.000
 6059SOL    HW219077   4.507   2.984   0.135
 6060SOL     OW19078   2.371   2.606   0.419
 6060SOL    HW119079   2.455   2.567   0.381
 6060SOL    HW219080   2.294   2.583   0.360
 6061SOL     OW19081   3.541   4.150   6.884
 6061SOL    HW119082   3.504   4.149   6.976
 6061SOL    HW219083   3.541   4.057   6.847
 6062SOL     OW19084   2.387   1.776   5.993
 6062SOL    HW119085   2.376   1.786   6.092
 6062SOL    HW219086   2.470   1.823   5.964
 6063SOL     OW19087   4.437   4.255   6.730
 6063SOL    HW119088   4.407   4.341   6.772
 6063SOL    HW219089   4.493   4.204   6.795
 6064SOL     OW19090   5.776   5.825   0.853
 6064SOL    HW119091   5.707   5.898   0.844
 6064SOL    HW219092   5.816   5.828   0.944
 6065SOL     OW19093   1.997   6.084   1.310
 6065SOL    HW119094   2.082   6.085   1.258
 6065SOL    HW219095   2.010   6.136   1.395
 6066SOL     OW19096   5.992   5.636   2.698
 6066SOL    HW119097   6.077   5.672   2.658
 6066SOL    HW219098   5.973   5.546   2.659
 6067SOL     OW19099   0.119   6.378   5.970
 6067SOL    HW119100   0.057   6.366   6.048
 6067SOL    HW219101   0.149   6.473   5.965
 6068SOL     OW19102   4.860   2.130   4.253
 6068SOL    HW119103   4.900   2.043   4.224
 6068SOL    HW219104   4.928   2.203   4.243
 6069SOL     OW19105   0.100   4.788   6.009
 6069SOL    HW119106   0.177   4.731   5.982
 6069SOL    HW219107   0.061   4.832   5.928
 6070SOL     OW19108   2.508   1.709   0.475
 6070SOL    HW119109   2.598   1.726   0.515
 6070SOL    HW219110   2.438   1.714   0.547
 6071SOL     OW19111   5.324   0.912   5.951
 6071SOL    HW119112   5.310   0.961   6.037
 6071SOL    HW219113   5.347   0.977   5.878
 6072SOL     OW19114   6.819   3.174   0.032
 6072SOL    HW119115   6.901   3.125   0.004
 6072SOL    HW219116   6.841   3.239   0.104
 6073SOL     OW19117   4.903   3.906   0.549
 6073SOL    HW119118   4.816   3.913   0.500
 6073SOL    HW219119   4.901   3.965   0.629
 6074SOL     OW19120   0.800   6.806   1.967
 6074SOL    HW119121   0.741   6.846   1.898
 6074SOL    HW219122   0.752   6.733   2.016
 6075SOL     OW19123   6.155   0.930   6.882
 6075SOL    HW119124   6.223   0.995   6.849
 6075SOL    HW219125   6.073   0.936   6.826
 6076SOL     OW19126   0.377   6.219   3.292
 6076SOL    HW119127   0.445   6.207   3.365
 6076SOL    HW219128   0.424   6.249   3.209
 6077SOL     OW19129   5.079   6.002   2.833
 6077SOL    HW119130   5.042   6.077   2.778
 6077SOL    HW219131   5.114   5.931   2.772
 6078SOL     OW19132   5.015   4.212   0.541
 6078SOL    HW119133   4.994   4.196   0.445
 6078SOL    HW219134   5.106   4.253   0.549
 6079SOL     OW19135   3.360   1.733   7.004
 6079SOL    HW119136   3.270   1.720   6.963
 6079SOL    HW219137   3.358   1.814   0.037
 6080SOL     OW19138   6.824   3.814   5.633
 6080SOL    HW119139   6.802   3.907   5.602
 6080SOL    HW219140   6.772   3.748   5.580
 6081SOL     OW19141   1.513   3.611   3.581
 6081SOL    HW119142   1.508   3.533   3.519
 6081SOL    HW219143   1.603   3.654   3.574
 6082SOL     OW19144   5.267   1.245   1.628
 6082SOL    HW119145   5.169   1.263   1.633
 6082SOL    HW219146   5.312   1.324   1.586
 6083SOL     OW19147   5.241   6.839   6.549
 6083SOL    HW119148   5.250   6.858   6.451
 6083SOL    HW219149   5.320   6.786   6.580
 6084SOL     OW19150   6.162   5.491   2.910
 6084SOL    HW119151   6.114   5.517   2.994
 6084SOL    HW219152   6.243   5.550   2.899
 6085SOL     OW19153   0.898   6.423   0.486
 6085SOL    HW119154   0.902   6.422   0.586
 6085SOL    HW219155   0.869   6.513   0.455
 6086SOL     OW19156   3.242   3.680   6.825
 6086SOL    HW119157   3.289   3.687   6.913
 6086SOL    HW219158   3.274   3.753   6.764
 6087SOL     OW19159   4.263   0.290   0.730
 6087SOL    HW119160   4.320   0.303   0.810
 6087SOL    HW219161   4.184   0.233   0.753
 6088SOL     OW19162   4.749   5.464   2.821
 6088SOL    HW119163   4.680   5.439   2.889
 6088SOL    HW219164   4.818   5.523   2.863
 6089SOL     OW19165   6.487   3.823   3.081
 6089SOL    HW119166   6.396   3.795   3.049
 6089SOL    HW219167   6.482   3.913   3.122
 6090SOL     OW19168   3.605   5.676   4.611
 6090SOL    HW119169   3.675   5.747   4.618
 6090SOL    HW219170   3.606   5.620   4.693
 6091SOL     OW19171   0.203   1.383   1.512
 6091SOL    HW119172   0.242   1.475   1.520
 6091SOL    HW219173   0.236   1.327   1.588
 6092SOL     OW19174   2.525   6.645   1.476
 6092SOL    HW119175   2.585   6.595   1.539
 6092SOL    HW219176   2.578   6.717   1.430
 6093SOL     OW19177   2.475   2.626   1.961
 6093SOL    HW119178   2.431   2.684   1.893
 6093SOL    HW219179   2.545   2.570   1.917
 6094SOL     OW19180   0.719   6.564   5.599
 6094SOL    HW119181   0.677   6.514   5.523
 6094SOL    HW219182   0.793   6.621   5.565
 6095SOL     OW19183   5.150   5.015   1.898
 6095SOL    HW119184   5.222   4.946   1.909
 6095SOL    HW219185   5.083   4.983   1.831
 6096SOL     OW19186   5.043   5.980   3.118
 6096SOL    HW119187   5.006   5.887   3.109
 6096SOL    HW219188   5.044   6.024   3.028
 6097SOL     OW19189   2.596   5.029   2.236
 6097SOL    HW119190   2.689   5.014   2.203
 6097SOL    HW219191   2.554   5.102   2.183
 6098SOL     OW19192   6.437   0.827   5.261
 6098SOL    HW119193   6.529   0.861   5.246
 6098SOL    HW219194   6.374   0.903   5.275
 6099SOL     OW19195   4.116   0.163   5.887
 6099SOL    HW119196   4.149   0.255   5.867
 6099SOL    HW219197   4.149   0.100   5.816
 6100SOL     OW19198   1.012   5.730   5.440
 6100SOL    HW119199   0.974   5.642   5.470
 6100SOL    HW219200   0.945   5.779   5.385
 6101SOL     OW19201   0.131   3.007   1.855
 6101SOL    HW119202   0.131   2.947   1.774
 6101SOL    HW219203   0.157   2.953   1.935
 6102SOL     OW19204   3.587   7.005   2.833
 6102SOL    HW119205   3.524   6.931   2.808
 6102SOL    HW219206   3.554   0.024   2.916
 6103SOL     OW19207   5.974   1.256   3.033
 6103SOL    HW119208   5.963   1.162   3.000
 6103SOL    HW219209   5.888   1.306   3.017
 6104SOL     OW19210   6.649   1.407   4.760
 6104SOL    HW119211   6.698   1.494   4.751
 6104SOL    HW219212   6.605   1.402   4.850
 6105SOL     OW19213   3.801   4.367   5.915
 6105SOL    HW119214   3.885   4.338   5.962
 6105SOL    HW219215   3.724   4.358   5.977
 6106SOL     OW19216   6.287   4.668   5.163
 6106SOL    HW119217   6.264   4.731   5.237
 6106SOL    HW219218   6.386   4.665   5.151
 6107SOL     OW19219   5.386   5.138   5.579
 6107SOL    HW119220   5.289   5.143   5.554
 6107SOL    HW219221   5.406   5.049   5.618
 6108SOL     OW19222   2.557   0.989   6.514
 6108SOL    HW119223   2.624   0.916   6.503
 6108SOL    HW219224   2.595   1.061   6.573
 6109SOL     OW19225   0.218   6.647   4.165
 6109SOL    HW119226   0.221   6.547   4.173
 6109SOL    HW219227   0.311   6.681   4.148
 6110SOL     OW19228   1.811   1.387   4.713
 6110SOL    HW119229   1.863   1.459   4.758
 6110SOL    HW219230   1.717   1.418   4.697
 6111SOL     OW19231   2.218   3.475   0.403
 6111SOL    HW119232   2.224   3.377   0.382
 6111SOL    HW219233   2.310   3.512   0.416
 6112SOL     OW19234   4.649   6.439   3.595
 6112SOL    HW119235   4.587   6.388   3.536
 6112SOL    HW219236   4.601   6.466   3.679
 6113SOL     OW19237   2.237   5.454   0.623
 6113SOL    HW119238   2.300   5.529   0.643
 6113SOL    HW219239   2.239   5.436   0.524
 6114SOL     OW19240   4.938   2.613   1.172
 6114SOL    HW119241   4.863   2.669   1.138
 6114SOL    HW219242   4.984   2.568   1.095
 6115SOL     OW19243   0.891   1.027   5.277
 6115SOL    HW119244   0.872   1.098   5.345
 6115SOL    HW219245   0.969   1.054   5.221
 6116SOL     OW19246   5.963   3.633   0.094
 6116SOL    HW119247   6.045   3.633   0.036
 6116SOL    HW219248   5.981   3.687   0.177
 6117SOL     OW19249   1.739   1.993   1.468
 6117SOL    HW119250   1.771   2.071   1.522
 6117SOL    HW219251   1.816   1.949   1.423
 6118SOL     OW19252   5.634   1.160   2.485
 6118SOL    HW119253   5.667   1.239   2.536
 6118SOL    HW219254   5.680   1.155   2.396
 6119SOL     OW19255   6.372   1.361   6.752
 6119SOL    HW119256   6.337   1.333   6.841
 6119SOL    HW219257   6.472   1.362   6.754
 6120SOL     OW19258   3.361   0.349   4.168
 6120SOL    HW119259   3.358   0.447   4.189
 6120SOL    HW219260   3.444   0.309   4.207
 6121SOL     OW19261   2.197   1.667   5.297
 6121SOL    HW119262   2.181   1.715   5.384
 6121SOL    HW219263   2.287   1.692   5.261
 6122SOL     OW19264   5.289   4.658   4.818
 6122SOL    HW119265   5.258   4.743   4.775
 6122SOL    HW219266   5.379   4.671   4.859
 6123SOL     OW19267   5.904   1.361   5.463
 6123SOL    HW119268   5.986   1.390   5.513
 6123SOL    HW219269   5.887   1.422   5.386
 6124SOL     OW19270   2.620   5.728   3.875
 6124SOL    HW119271   2.588   5.750   3.783
 6124SOL    HW219272   2.710   5.770   3.890
 6125SOL     OW19273   3.553   1.547   5.995
 6125SOL    HW119274   3.629   1.592   5.949
 6125SOL    HW219275   3.549   1.576   6.090
 6126SOL     OW19276   5.994   3.221   5.898
 6126SOL    HW119277   6.016   3.170   5.815
 6126SOL    HW219278   6.072   3.220   5.960
 6127SOL     OW19279   5.382   2.012   3.073
 6127SOL    HW119280   5.438   2.090   3.045
 6127SOL    HW219281   5.319   2.040   3.145
 6128SOL     OW19282   5.963   5.876   6.791
 6128SOL    HW119283   5.995   5.943   6.857
 6128SOL    HW219284   6.032   5.863   6.720
 6129SOL     OW19285   2.775   5.804   2.420
 6129SOL    HW119286   2.728   5.875   2.472
 6129SOL    HW219287   2.782   5.832   2.324
 6130SOL     OW19288   5.662   2.997   0.297
 6130SOL    HW119289   5.649   2.970   0.393
 6130SOL    HW219290   5.672   2.914   0.241
 6131SOL     OW19291   6.410   1.937   2.996
 6131SOL    HW119292   6.316   1.915   3.022
 6131SOL    HW219293   6.425   1.908   2.901
 6132SOL     OW19294   4.514   0.238   6.159
 6132SOL    HW119295   4.601   0.195   6.186
 6132SOL    HW219296   4.455   0.246   6.238
 6133SOL     OW19297   0.498   2.045   2.829
 6133SOL    HW119298   0.536   1.958   2.860
 6133SOL    HW219299   0.432   2.029   2.755
 6134SOL     OW19300   0.622   6.803   5.253
 6134SOL    HW119301   0.634   6.732   5.184
 6134SOL    HW219302   0.698   6.800   5.318
 6135SOL     OW19303   6.792   0.370   0.503
 6135SOL    HW119304   6.706   0.336   0.467
 6135SOL    HW219305   6.842   0.418   0.431
 6136SOL     OW19306   1.196   2.293   3.718
 6136SOL    HW119307   1.149   2.273   3.632
 6136SOL    HW219308   1.275   2.352   3.701
 6137SOL     OW19309   0.286   4.620   0.949
 6137SOL    HW119310   0.199   4.578   0.925
 6137SOL    HW219311   0.291   4.632   1.048
 6138SOL     OW19312   4.791   0.455   2.376
 6138SOL    HW119313   4.746   0.483   2.291
 6138SOL    HW219314   4.786   0.528   2.443
 6139SOL     OW19315   1.259   0.803   4.927
 6139SOL    HW119316   1.296   0.865   4.858
 6139SOL    HW219317   1.331   0.776   4.991
 6140SOL     OW19318   1.574   6.895   2.698
 6140SOL    HW119319   1.558   6.820   2.762
 6140SOL    HW219320   1.531   6.978   2.733
 6141SOL     OW19321   1.057   1.120   6.191
 6141SOL    HW119322   1.112   1.046   6.228
 6141SOL    HW219323   0.987   1.082   6.130
 6142SOL     OW19324   6.154   0.554   1.443
 6142SOL    HW119325   6.112   0.464   1.439
 6142SOL    HW219326   6.223   0.555   1.515
 6143SOL     OW19327   0.284   3.328   5.249
 6143SOL    HW119328   0.303   3.373   5.162
 6143SOL    HW219329   0.368   3.320   5.302
 6144SOL     OW19330   4.184   5.143   2.393
 6144SOL    HW119331   4.166   5.095   2.479
 6144SOL    HW219332   4.230   5.082   2.329
 6145SOL     OW19333   4.956   3.327   4.007
 6145SOL    HW119334   4.953   3.323   3.908
 6145SOL    HW219335   4.954   3.234   4.045
 6146SOL     OW19336   5.765   0.256   5.391
 6146SOL    HW119337   5.830   0.269   5.465
 6146SOL    HW219338   5.677   0.226   5.429
 6147SOL     OW19339   1.391   2.671   4.831
 6147SOL    HW119340   1.367   2.763   4.800
 6147SOL    HW219341   1.391   2.668   4.931
 6148SOL     OW19342   3.450   5.052   0.329
 6148SOL    HW119343   3.442   5.061   0.230
 6148SOL    HW219344   3.441   4.956   0.355
 6149SOL     OW19345   3.842   1.218   1.883
 6149SOL    HW119346   3.818   1.149   1.951
 6149SOL    HW219347   3.804   1.191   1.794
 6150SOL     OW19348   0.710   4.186   4.625
 6150SOL    HW119349   0.800   4.175   4.584
 6150SOL    HW219350   0.640   4.167   4.556
 6151SOL     OW19351   4.415   5.001   3.079
 6151SOL    HW119352   4.484   4.987   3.150
 6151SOL    HW219353   4.431   5.088   3.034
 6152SOL     OW19354   1.773   4.542   3.544
 6152SOL    HW119355   1.815   4.508   3.460
 6152SOL    HW219356   1.842   4.589   3.599
 6153SOL     OW19357   4.627   6.230   1.209
 6153SOL    HW119358   4.678   6.223   1.294
 6153SOL    HW219359   4.552   6.164   1.210
 6154SOL     OW19360   5.095   3.737   2.237
 6154SOL    HW119361   5.191   3.733   2.264
 6154SOL    HW219362   5.045   3.797   2.299
 6155SOL     OW19363   1.828   1.422   3.717
 6155SOL    HW119364   1.895   1.397   3.787
 6155SOL    HW219365   1.769   1.495   3.752
 6156SOL     OW19366   5.292   4.443   1.949
 6156SOL    HW119367   5.360   4.516   1.959
 6156SOL    HW219368   5.201   4.483   1.947
 6157SOL     OW19369   0.526   3.002   1.325
 6157SOL    HW119370   0.436   3.039   1.304
 6157SOL    HW219371   0.560   2.951   1.247
 6158SOL     OW19372   3.053   2.193   4.747
 6158SOL    HW119373   2.967   2.244   4.741
 6158SOL    HW219374   3.084   2.192   4.842
 6159SOL     OW19375   6.388   2.892   7.002
 6159SOL    HW119376   6.342   2.926   0.059
 6159SOL    HW219377   6.472   2.844   0.003
 6160SOL     OW19378   0.836   0.561   1.329
 6160SOL    HW119379   0.918   0.544   1.383
 6160SOL    HW219380   0.755   0.545   1.386
 6161SOL     OW19381   4.647   4.044   7.016
 6161SOL    HW119382   4.686   4.125   0.034
 6161SOL    HW219383   4.553   4.062   6.988
 6162SOL     OW19384   6.408   5.503   2.314
 6162SOL    HW119385   6.465   5.422   2.299
 6162SOL    HW219386   6.398   5.553   2.228
 6163SOL     OW19387   6.466   6.126   2.739
 6163SOL    HW119388   6.370   6.119   2.711
 6163SOL    HW219389   6.471   6.163   2.832
 6164SOL     OW19390   2.903   3.669   4.898
 6164SOL    HW119391   2.810   3.704   4.905
 6164SOL    HW219392   2.933   3.635   4.987
 6165SOL     OW19393   3.273   1.695   0.366
 6165SOL    HW119394   3.261   1.659   0.459
 6165SOL    HW219395   3.183   1.703   0.323
 6166SOL     OW19396   2.724   2.049   6.198
 6166SOL    HW119397   2.730   1.950   6.184
 6166SOL    HW219398   2.713   2.094   6.110
 6167SOL     OW19399   1.666   3.386   2.855
 6167SOL    HW119400   1.641   3.394   2.759
 6167SOL    HW219401   1.754   3.338   2.862
 6168SOL     OW19402   0.302   3.690   3.628
 6168SOL    HW119403   0.371   3.628   3.591
 6168SOL    HW219404   0.217   3.680   3.577
 6169SOL     OW19405   2.081   0.639   6.655
 6169SOL    HW119406   2.161   0.666   6.602
 6169SOL    HW219407   2.006   0.703   6.639
 6170SOL     OW19408   2.720   3.680   0.833
 6170SOL    HW119409   2.675   3.635   0.756
 6170SOL    HW219410   2.736   3.613   0.906
 6171SOL     OW19411   2.205   3.688   1.824
 6171SOL    HW119412   2.218   3.595   1.859
 6171SOL    HW219413   2.198   3.752   1.901
 6172SOL     OW19414   2.609   5.541   2.401
 6172SOL    HW119415   2.638   5.591   2.483
 6172SOL    HW219416   2.607   5.604   2.323
 6173SOL     OW19417   1.202   5.942   2.430
 6173SOL    HW119418   1.156   5.891   2.357
 6173SOL    HW219419   1.133   5.980   2.492
 6174SOL     OW19420   6.219   4.781   2.252
 6174SOL    HW119421   6.256   4.690   2.273
 6174SOL    HW219422   6.131   4.792   2.297
 6175SOL     OW19423   5.003   0.345   3.411
 6175SOL    HW119424   5.081   0.311   3.359
 6175SOL    HW219425   4.930   0.373   3.349
 6176SOL     OW19426   5.291   3.147   6.515
 6176SOL    HW119427   5.198   3.135   6.548
 6176SOL    HW219428   5.320   3.064   6.467
 6177SOL     OW19429   6.830   3.213   1.564
 6177SOL    HW119430   6.772   3.267   1.625
 6177SOL    HW219431   6.923   3.209   1.601
 6178SOL     OW19432   5.727   3.493   1.914
 6178SOL    HW119433   5.680   3.436   1.847
 6178SOL    HW219434   5.688   3.586   1.912
 6179SOL     OW19435   0.200   2.698   5.293
 6179SOL    HW119436   0.293   2.662   5.296
 6179SOL    HW219437   0.165   2.707   5.386
 6180SOL     OW19438   3.235   0.091   5.826
 6180SOL    HW119439   3.262   0.176   5.871
 6180SOL    HW219440   3.175   0.111   5.749
 6181SOL     OW19441   4.562   5.752   0.377
 6181SOL    HW119442   4.591   5.817   0.307
 6181SOL    HW219443   4.633   5.683   0.390
 6182SOL     OW19444   4.818   6.627   6.475
 6182SOL    HW119445   4.853   6.633   6.568
 6182SOL    HW219446   4.893   6.609   6.412
 6183SOL     OW19447   3.002   0.877   2.872
 6183SOL    HW119448   3.050   0.914   2.793
 6183SOL    HW219449   2.938   0.946   2.908
 6184SOL     OW19450   6.115   0.661   6.660
 6184SOL    HW119451   6.192   0.601   6.681
 6184SOL    HW219452   6.033   0.629   6.708
 6185SOL     OW19453   1.055   3.640   5.862
 6185SOL    HW119454   1.075   3.655   5.765
 6185SOL    HW219455   0.984   3.704   5.892
 6186SOL     OW19456   5.446   7.001   5.074
 6186SOL    HW119457   5.494   0.016   4.997
 6186SOL    HW219458   5.350   0.005   5.072
 6187SOL     OW19459   2.994   4.912   4.466
 6187SOL    HW119460   3.030   4.907   4.559
 6187SOL    HW219461   3.069   4.929   4.402
 6188SOL     OW19462   2.822   0.285   1.709
 6188SOL    HW119463   2.735   0.319   1.745
 6188SOL    HW219464   2.818   0.283   1.610
 6189SOL     OW19465   5.356   4.677   3.370
 6189SOL    HW119466   5.409   4.662   3.453
 6189SOL    HW219467   5.265   4.713   3.394
 6190SOL     OW19468   5.120   2.716   5.894
 6190SOL    HW119469   5.025   2.736   5.872
 6190SOL    HW219470   5.180   2.772   5.836
 6191SOL     OW19471   6.974   2.637   6.817
 6191SOL    HW119472   7.015   2.567   6.876
 6191SOL    HW219473   6.919   2.699   6.873
 6192SOL     OW19474   2.904   2.255   0.378
 6192SOL    HW119475   2.967   2.180   0.401
 6192SOL    HW219476   2.875   2.301   0.461
 6193SOL     OW19477   5.979   0.324   1.016
 6193SOL    HW119478   5.944   0.402   1.069
 6193SOL    HW219479   5.963   0.240   1.067
 6194SOL     OW19480   2.066   0.899   0.715
 6194SOL    HW119481   2.000   0.825   0.702
 6194SOL    HW219482   2.018   0.982   0.743
 6195SOL     OW19483   2.585   6.377   6.302
 6195SOL    HW119484   2.531   6.431   6.368
 6195SOL    HW219485   2.637   6.308   6.351
 6196SOL     OW19486   0.317   1.375   6.047
 6196SOL    HW119487   0.284   1.369   6.141
 6196SOL    HW219488   0.360   1.464   6.032
 6197SOL     OW19489   2.529   2.995   0.271
 6197SOL    HW119490   2.586   3.005   0.353
 6197SOL    HW219491   2.586   2.965   0.195
 6198SOL     OW19492   4.361   4.813   2.176
 6198SOL    HW119493   4.269   4.853   2.182
 6198SOL    HW219494   4.406   4.821   2.265
 6199SOL     OW19495   1.045   0.710   6.481
 6199SOL    HW119496   1.017   0.701   6.577
 6199SOL    HW219497   0.969   0.750   6.429
 6200SOL     OW19498   3.462   0.674   5.932
 6200SOL    HW119499   3.435   0.710   6.022
 6200SOL    HW219500   3.477   0.576   5.939
 6201SOL     OW19501   2.351   4.257   3.608
 6201SOL    HW119502   2.436   4.308   3.621
 6201SOL    HW219503   2.300   4.296   3.531
 6202SOL     OW19504   3.196   2.561   1.333
 6202SOL    HW119505   3.119   2.502   1.353
 6202SOL    HW219506   3.223   2.610   1.416
 6203SOL     OW19507   5.276   2.257   5.338
 6203SOL    HW119508   5.363   2.223   5.301
 6203SOL    HW219509   5.265   2.223   5.432
 6204SOL     OW19510   1.642   6.588   5.906
 6204SOL    HW119511   1.689   6.529   5.970
 6204SOL    HW219512   1.554   6.617   5.944
 6205SOL     OW19513   5.401   5.816   0.262
 6205SOL    HW119514   5.494   5.851   0.251
 6205SOL    HW219515   5.400   5.718   0.240
 6206SOL     OW19516   5.315   6.985   3.137
 6206SOL    HW119517   5.357   6.895   3.124
 6206SOL    HW219518   5.344   0.020   3.063
 6207SOL     OW19519   1.916   4.074   4.011
 6207SOL    HW119520   1.975   3.994   4.003
 6207SOL    HW219521   1.872   4.092   3.923
 6208SOL     OW19522   5.235   6.031   6.416
 6208SOL    HW119523   5.302   6.020   6.489
 6208SOL    HW219524   5.275   6.085   6.342
 6209SOL     OW19525   2.944   5.698   1.096
 6209SOL    HW119526   3.026   5.740   1.135
 6209SOL    HW219527   2.886   5.664   1.171
 6210SOL     OW19528   6.705   5.075   3.345
 6210SOL    HW119529   6.791   5.076   3.397
 6210SOL    HW219530   6.652   4.995   3.371
 6211SOL     OW19531   2.294   0.524   4.876
 6211SOL    HW119532   2.247   0.598   4.828
 6211SOL    HW219533   2.366   0.487   4.818
 6212SOL     OW19534   6.849   6.442   3.870
 6212SOL    HW119535   6.861   6.534   3.907
 6212SOL    HW219536   6.926   6.419   3.810
 6213SOL     OW19537   6.630   6.961   6.392
 6213SOL    HW119538   6.630   6.946   6.491
 6213SOL    HW219539   6.653   6.876   6.345
 6214SOL     OW19540   6.297   5.123   2.435
 6214SOL    HW119541   6.213   5.106   2.383
 6214SOL    HW219542   6.298   5.217   2.468
 6215SOL     OW19543   2.605   4.728   1.446
 6215SOL    HW119544   2.661   4.788   1.504
 6215SOL    HW219545   2.547   4.671   1.504
 6216SOL     OW19546   6.219   1.664   2.688
 6216SOL    HW119547   6.148   1.595   2.672
 6216SOL    HW219548   6.239   1.711   2.602
 6217SOL     OW19549   5.639   3.126   2.229
 6217SOL    HW119550   5.560   3.086   2.275
 6217SOL    HW219551   5.619   3.133   2.131
 6218SOL     OW19552   3.704   4.965   4.460
 6218SOL    HW119553   3.605   4.977   4.456
 6218SOL    HW219554   3.744   4.993   4.372
 6219SOL     OW19555   1.321   1.523   4.210
 6219SOL    HW119556   1.302   1.619   4.190
 6219SOL    HW219557   1.310   1.508   4.309
 6220SOL     OW19558   1.605   3.943   5.313
 6220SOL    HW119559   1.535   3.988   5.370
 6220SOL    HW219560   1.594   3.844   5.318
 6221SOL     OW19561   4.518   4.944   4.425
 6221SOL    HW119562   4.596   5.003   4.445
 6221SOL    HW219563   4.485   4.964   4.332
 6222SOL     OW19564   0.183   1.711   0.873
 6222SOL    HW119565   0.187   1.681   0.969
 6222SOL    HW219566   0.121   1.789   0.865
 6223SOL     OW19567   5.309   3.825   4.731
 6223SOL    HW119568   5.344   3.797   4.642
 6223SOL    HW219569   5.238   3.762   4.761
 6224SOL     OW19570   2.856   0.520   4.730
 6224SOL    HW119571   2.794   0.587   4.771
 6224SOL    HW219572   2.805   0.438   4.704
 6225SOL     OW19573   4.382   2.581   6.756
 6225SOL    HW119574   4.450   2.548   6.821
 6225SOL    HW219575   4.392   2.533   6.669
 6226SOL     OW19576   6.576   6.786   4.411
 6226SOL    HW119577   6.556   6.797   4.314
 6226SOL    HW219578   6.669   6.751   4.422
 6227SOL     OW19579   2.868   4.145   6.951
 6227SOL    HW119580   2.912   4.077   7.011
 6227SOL    HW219581   2.938   4.204   6.911
 6228SOL     OW19582   7.021   0.934   2.304
 6228SOL    HW119583   0.087   0.969   2.324
 6228SOL    HW219584   6.957   0.965   2.374
 6229SOL     OW19585   1.644   2.612   1.846
 6229SOL    HW119586   1.593   2.688   1.806
 6229SOL    HW219587   1.723   2.648   1.897
 6230SOL     OW19588   1.984   2.317   3.242
 6230SOL    HW119589   1.948   2.275   3.325
 6230SOL    HW219590   1.963   2.415   3.244
 6231SOL     OW19591   6.739   5.355   1.163
 6231SOL    HW119592   6.742   5.256   1.180
 6231SOL    HW219593   6.812   5.400   1.213
 6232SOL     OW19594   0.800   1.779   6.931
 6232SOL    HW119595   0.802   1.833   6.847
 6232SOL    HW219596   0.723   1.716   6.928
 6233SOL     OW19597   4.219   2.007   6.884
 6233SOL    HW119598   4.202   2.096   6.842
 6233SOL    HW219599   4.233   2.019   6.982
 6234SOL     OW19600   1.960   2.606   3.287
 6234SOL    HW119601   1.872   2.651   3.276
 6234SOL    HW219602   2.033   2.675   3.289
 6235SOL     OW19603   2.390   5.927   3.350
 6235SOL    HW119604   2.369   5.836   3.317
 6235SOL    HW219605   2.441   5.921   3.436
 6236SOL     OW19606   6.878   3.930   6.959
 6236SOL    HW119607   6.779   3.939   6.970
 6236SOL    HW219608   6.908   3.842   6.997
 6237SOL     OW19609   4.182   6.613   0.385
 6237SOL    HW119610   4.174   6.537   0.450
 6237SOL    HW219611   4.278   6.634   0.370
 6238SOL     OW19612   4.617   4.099   1.149
 6238SOL    HW119613   4.691   4.047   1.191
 6238SOL    HW219614   4.566   4.040   1.086
 6239SOL     OW19615   2.337   1.073   3.607
 6239SOL    HW119616   2.433   1.079   3.636
 6239SOL    HW219617   2.324   0.989   3.554
 6240SOL     OW19618   2.472   3.600   0.386
 6240SOL    HW119619   2.490   3.698   0.375
 6240SOL    HW219620   2.555   3.549   0.363
 6241SOL     OW19621   4.429   0.083   2.058
 6241SOL    HW119622   4.476   7.022   2.069
 6241SOL    HW219623   4.427   0.132   2.145
 6242SOL     OW19624   3.524   2.001   3.708
 6242SOL    HW119625   3.584   1.923   3.690
 6242SOL    HW219626   3.492   2.040   3.622
 6243SOL     OW19627   5.497   5.287   3.650
 6243SOL    HW119628   5.409   5.266   3.692
 6243SOL    HW219629   5.484   5.306   3.553
 6244SOL     OW19630   1.871   2.308   2.133
 6244SOL    HW119631   1.900   2.213   2.119
 6244SOL    HW219632   1.900   2.364   2.055
 6245SOL     OW19633   2.017   3.809   0.322
 6245SOL    HW119634   1.958   3.734   0.352
 6245SOL    HW219635   2.080   3.775   0.251
 6246SOL     OW19636   3.674   1.408   6.502
 6246SOL    HW119637   3.594   1.397   6.444
 6246SOL    HW219638   3.736   1.330   6.490
 6247SOL     OW19639   6.627   6.215   3.059
 6247SOL    HW119640   6.646   6.127   3.102
 6247SOL    HW219641   6.528   6.228   3.053
 6248SOL     OW19642   0.975   4.953   1.080
 6248SOL    HW119643   0.953   4.856   1.093
 6248SOL    HW219644   0.974   5.000   1.168
 6249SOL     OW19645   5.490   4.228   6.311
 6249SOL    HW119646   5.437   4.309   6.336
 6249SOL    HW219647   5.436   4.173   6.246
 6250SOL     OW19648   6.030   5.588   6.055
 6250SOL    HW119649   5.995   5.526   5.984
 6250SOL    HW219650   6.036   5.680   6.018
 6251SOL     OW19651   4.693   1.606   1.176
 6251SOL    HW119652   4.790   1.587   1.162
 6251SOL    HW219653   4.648   1.616   1.087
 6252SOL     OW19654   1.870   6.281   5.106
 6252SOL    HW119655   1.811   6.274   5.026
 6252SOL    HW219656   1.829   6.342   5.173
 6253SOL     OW19657   1.763   3.906   1.178
 6253SOL    HW119658   1.821   3.839   1.132
 6253SOL    HW219659   1.820   3.980   1.215
 6254SOL     OW19660   5.144   0.680   0.582
 6254SOL    HW119661   5.104   0.753   0.527
 6254SOL    HW219662   5.141   0.594   0.530
 6255SOL     OW19663   0.128   1.874   2.432
 6255SOL    HW119664   0.120   1.777   2.455
 6255SOL    HW219665   0.057   1.926   2.479
 6256SOL     OW19666   3.482   5.019   3.345
 6256SOL    HW119667   3.527   4.955   3.407
 6256SOL    HW219668   3.510   5.113   3.369
 6257SOL     OW19669   4.465   2.724   0.276
 6257SOL    HW119670   4.437   2.774   0.194
 6257SOL    HW219671   4.497   2.788   0.345
 6258SOL     OW19672   5.047   2.396   2.680
 6258SOL    HW119673   4.948   2.398   2.695
 6258SOL    HW219674   5.089   2.332   2.745
 6259SOL     OW19675   2.956   2.361   1.634
 6259SOL    HW119676   2.962   2.432   1.704
 6259SOL    HW219677   2.903   2.284   1.670
 6260SOL     OW19678   3.560   3.511   0.556
 6260SOL    HW119679   3.652   3.509   0.518
 6260SOL    HW219680   3.539   3.604   0.587
 6261SOL     OW19681   4.672   0.585   6.708
 6261SOL    HW119682   4.594   0.592   6.771
 6261SOL    HW219683   4.662   0.652   6.635
 6262SOL     OW19684   0.481   6.181   5.508
 6262SOL    HW119685   0.528   6.258   5.552
 6262SOL    HW219686   0.503   6.096   5.556
 6263SOL     OW19687   6.496   1.096   0.898
 6263SOL    HW119688   6.451   1.155   0.831
 6263SOL    HW219689   6.562   1.150   0.950
 6264SOL     OW19690   1.888   1.069   6.663
 6264SOL    HW119691   1.885   1.104   6.569
 6264SOL    HW219692   1.959   1.117   6.714
 6265SOL     OW19693   4.637   3.376   1.324
 6265SOL    HW119694   4.567   3.338   1.384
 6265SOL    HW219695   4.651   3.473   1.346
 6266SOL     OW19696   2.307   6.846   2.031
 6266SOL    HW119697   2.377   6.780   2.056
 6266SOL    HW219698   2.342   6.907   1.959
 6267SOL     OW19699   2.556   6.805   0.025
 6267SOL    HW119700   2.483   6.826   6.985
 6267SOL    HW219701   2.571   6.885   0.084
 6268SOL     OW19702   2.899   4.981   2.605
 6268SOL    HW119703   2.803   4.978   2.577
 6268SOL    HW219704   2.932   5.075   2.601
 6269SOL     OW19705   5.924   4.742   0.397
 6269SOL    HW119706   5.999   4.803   0.370
 6269SOL    HW219707   5.943   4.705   0.488
 6270SOL     OW19708   0.732   1.657   4.388
 6270SOL    HW119709   0.766   1.568   4.417
 6270SOL    HW219710   0.687   1.649   4.299
 6271SOL     OW19711   6.111   1.770   0.887
 6271SOL    HW119712   6.140   1.695   0.946
 6271SOL    HW219713   6.175   1.778   0.810
 6272SOL     OW19714   1.889   2.239   3.500
 6272SOL    HW119715   1.902   2.334   3.528
 6272SOL    HW219716   1.938   2.179   3.563
 6273SOL     OW19717   3.888   0.378   1.992
 6273SOL    HW119718   3.975   0.387   2.039
 6273SOL    HW219719   3.892   0.303   1.927
 6274SOL     OW19720   3.255   6.336   6.424
 6274SOL    HW119721   3.250   6.354   6.522
 6274SOL    HW219722   3.283   6.241   6.410
 6275SOL     OW19723   2.497   0.549   4.399
 6275SOL    HW119724   2.514   0.457   4.364
 6275SOL    HW219725   2.464   0.607   4.324
 6276SOL     OW19726   1.439   5.198   4.162
 6276SOL    HW119727   1.398   5.128   4.104
 6276SOL    HW219728   1.462   5.159   4.251
 6277SOL     OW19729   5.610   3.060   3.815
 6277SOL    HW119730   5.659   2.980   3.780
 6277SOL    HW219731   5.654   3.093   3.898
 6278SOL     OW19732   5.384   0.539   4.109
 6278SOL    HW119733   5.328   0.478   4.052
 6278SOL    HW219734   5.333   0.622   4.130
 6279SOL     OW19735   4.868   1.700   6.937
 6279SOL    HW119736   4.780   1.721   6.980
 6279SOL    HW219737   4.856   1.625   6.871
 6280SOL     OW19738   0.810   5.301   6.124
 6280SOL    HW119739   0.782   5.231   6.059
 6280SOL    HW219740   0.865   5.370   6.077
 6281SOL     OW19741   2.836   6.639   5.109
 6281SOL    HW119742   2.756   6.588   5.140
 6281SOL    HW219743   2.817   6.680   5.020
 6282SOL     OW19744   1.870   7.019   3.467
 6282SOL    HW119745   1.785   6.995   3.420
 6282SOL    HW219746   1.863   0.087   3.501
 6283SOL     OW19747   0.332   3.183   4.977
 6283SOL    HW119748   0.331   3.233   4.890
 6283SOL    HW219749   0.419   3.200   5.024
 6284SOL     OW19750   1.978   4.513   6.554
 6284SOL    HW119751   1.950   4.423   6.588
 6284SOL    HW219752   1.941   4.527   6.463
 6285SOL     OW19753   1.743   4.732   2.662
 6285SOL    HW119754   1.647   4.758   2.655
 6285SOL    HW219755   1.785   4.735   2.571
 6286SOL     OW19756   5.661   0.101   4.935
 6286SOL    HW119757   5.642   0.198   4.919
 6286SOL    HW219758   5.751   0.079   4.898
 6287SOL     OW19759   4.447   4.572   2.007
 6287SOL    HW119760   4.391   4.620   2.074
 6287SOL    HW219761   4.519   4.522   2.054
 6288SOL     OW19762   5.200   4.141   1.500
 6288SOL    HW119763   5.151   4.205   1.440
 6288SOL    HW219764   5.298   4.156   1.492
 6289SOL     OW19765   1.428   0.448   2.661
 6289SOL    HW119766   1.379   0.418   2.579
 6289SOL    HW219767   1.481   0.530   2.640
 6290SOL     OW19768   5.811   3.178   3.170
 6290SOL    HW119769   5.742   3.233   3.122
 6290SOL    HW219770   5.768   3.096   3.207
 6291SOL     OW19771   3.957   3.819   3.120
 6291SOL    HW119772   3.996   3.811   3.212
 6291SOL    HW219773   3.864   3.783   3.121
 6292SOL     OW19774   6.773   1.778   1.900
 6292SOL    HW119775   6.842   1.708   1.921
 6292SOL    HW219776   6.795   1.862   1.949
 6293SOL     OW19777   4.886   5.433   0.607
 6293SOL    HW119778   4.968   5.419   0.663
 6293SOL    HW219779   4.805   5.408   0.659
 6294SOL     OW19780   3.858   5.103   2.507
 6294SOL    HW119781   3.796   5.173   2.471
 6294SOL    HW219782   3.804   5.030   2.550
 6295SOL     OW19783   6.535   6.320   5.967
 6295SOL    HW119784   6.551   6.324   5.868
 6295SOL    HW219785   6.509   6.227   5.993
 6296SOL     OW19786   6.575   0.949   2.328
 6296SOL    HW119787   6.616   0.861   2.305
 6296SOL    HW219788   6.476   0.938   2.338
 6297SOL     OW19789   5.569   0.708   5.982
 6297SOL    HW119790   5.477   0.741   5.961
 6297SOL    HW219791   5.566   0.646   6.060
 6298SOL     OW19792   0.405   1.937   4.150
 6298SOL    HW119793   0.409   1.892   4.239
 6298SOL    HW219794   0.363   2.027   4.161
 6299SOL     OW19795   6.232   3.388   0.287
 6299SOL    HW119796   6.259   3.481   0.311
 6299SOL    HW219797   6.133   3.377   0.301
 6300SOL     OW19798   5.001   1.528   3.917
 6300SOL    HW119799   5.017   1.624   3.893
 6300SOL    HW219800   4.966   1.522   4.011
 6301SOL     OW19801   3.267   0.650   0.786
 6301SOL    HW119802   3.350   0.595   0.792
 6301SOL    HW219803   3.190   0.599   0.825
 6302SOL     OW19804   0.266   0.791   2.968
 6302SOL    HW119805   0.312   0.722   2.912
 6302SOL    HW219806   0.183   0.753   3.008
 6303SOL     OW19807   2.199   6.000   5.111
 6303SOL    HW119808   2.226   6.095   5.093
 6303SOL    HW219809   2.124   5.998   5.177
 6304SOL     OW19810   3.819   1.052   5.507
 6304SOL    HW119811   3.736   1.108   5.513
 6304SOL    HW219812   3.796   0.957   5.528
 6305SOL     OW19813   5.758   1.198   2.237
 6305SOL    HW119814   5.816   1.134   2.186
 6305SOL    HW219815   5.730   1.273   2.178
 6306SOL     OW19816   6.023   2.983   4.627
 6306SOL    HW119817   5.974   3.027   4.703
 6306SOL    HW219818   5.957   2.936   4.568
 6307SOL     OW19819   2.674   4.196   0.482
 6307SOL    HW119820   2.649   4.122   0.420
 6307SOL    HW219821   2.648   4.172   0.576
 6308SOL     OW19822   3.187   2.094   5.557
 6308SOL    HW119823   3.214   2.108   5.462
 6308SOL    HW219824   3.267   2.068   5.611
 6309SOL     OW19825   5.560   1.989   4.970
 6309SOL    HW119826   5.476   1.943   4.943
 6309SOL    HW219827   5.597   2.041   4.893
 6310SOL     OW19828   0.852   4.894   4.739
 6310SOL    HW119829   0.906   4.849   4.668
 6310SOL    HW219830   0.755   4.887   4.716
 6311SOL     OW19831   6.376   6.217   4.315
 6311SOL    HW119832   6.291   6.204   4.365
 6311SOL    HW219833   6.423   6.129   4.305
 6312SOL     OW19834   5.116   4.866   6.026
 6312SOL    HW119835   5.123   4.790   5.962
 6312SOL    HW219836   5.205   4.885   6.066
 6313SOL     OW19837   2.594   4.960   3.377
 6313SOL    HW119838   2.546   5.044   3.403
 6313SOL    HW219839   2.596   4.953   3.277
 6314SOL     OW19840   2.380   6.776   3.936
 6314SOL    HW119841   2.318   6.836   3.987
 6314SOL    HW219842   2.359   6.783   3.839
 6315SOL     OW19843   2.619   3.819   0.452
 6315SOL    HW119844   2.635   3.874   0.370
 6315SOL    HW219845   2.694   3.754   0.464
 6316SOL     OW19846   4.904   1.599   6.026
 6316SOL    HW119847   4.975   1.544   5.983
 6316SOL    HW219848   4.937   1.693   6.036
 6317SOL     OW19849   6.215   5.865   4.384
 6317SOL    HW119850   6.210   5.870   4.284
 6317SOL    HW219851   6.245   5.773   4.411
 6318SOL     OW19852   2.191   1.801   4.660
 6318SOL    HW119853   2.197   1.880   4.721
 6318SOL    HW219854   2.098   1.792   4.626
 6319SOL     OW19855   0.555   1.769   2.782
 6319SOL    HW119856   0.654   1.776   2.771
 6319SOL    HW219857   0.534   1.695   2.846
 6320SOL     OW19858   6.844   1.662   3.388
 6320SOL    HW119859   6.792   1.610   3.320
 6320SOL    HW219860   6.942   1.652   3.370
 6321SOL     OW19861   2.295   3.967   6.015
 6321SOL    HW119862   2.322   3.890   5.957
 6321SOL    HW219863   2.376   4.017   6.045
 6322SOL     OW19864   1.143   0.688   0.082
 6322SOL    HW119865   1.051   0.723   0.064
 6322SOL    HW219866   1.138   0.617   0.152
 6323SOL     OW19867   4.510   1.486   1.325
 6323SOL    HW119868   4.498   1.480   1.424
 6323SOL    HW219869   4.583   1.551   1.305
 6324SOL     OW19870   4.645   1.940   6.691
 6324SOL    HW119871   4.603   1.993   6.618
 6324SOL    HW219872   4.575   1.883   6.735
 6325SOL     OW19873   1.287   2.456   2.448
 6325SOL    HW119874   1.283   2.459   2.348
 6325SOL    HW219875   1.291   2.549   2.484
 6326SOL     OW19876   4.376   6.487   1.363
 6326SOL    HW119877   4.374   6.493   1.463
 6326SOL    HW219878   4.469   6.464   1.333
 6327SOL     OW19879   3.637   5.429   5.861
 6327SOL    HW119880   3.559   5.444   5.922
 6327SOL    HW219881   3.605   5.423   5.766
 6328SOL     OW19882   3.100   4.323   6.923
 6328SOL    HW119883   3.129   4.419   6.923
 6328SOL    HW219884   3.138   4.276   7.002
 6329SOL     OW19885   1.498   1.465   2.380
 6329SOL    HW119886   1.522   1.480   2.284
 6329SOL    HW219887   1.504   1.551   2.430
 6330SOL     OW19888   3.526   0.730   0.346
 6330SOL    HW119889   3.470   0.649   0.324
 6330SOL    HW219890   3.503   0.804   0.283
 6331SOL     OW19891   5.775   2.928   2.573
 6331SOL    HW119892   5.773   3.028   2.584
 6331SOL    HW219893   5.820   2.905   2.487
 6332SOL     OW19894   4.710   6.382   2.458
 6332SOL    HW119895   4.795   6.434   2.454
 6332SOL    HW219896   4.725   6.298   2.510
 6333SOL     OW19897   2.510   5.208   3.045
 6333SOL    HW119898   2.440   5.141   3.020
 6333SOL    HW219899   2.600   5.174   3.020
 6334SOL     OW19900   2.620   1.840   2.394
 6334SOL    HW119901   2.560   1.785   2.336
 6334SOL    HW219902   2.637   1.929   2.350
 6335SOL     OW19903   0.200   1.617   6.989
 6335SOL    HW119904   0.268   1.672   0.012
 6335SOL    HW219905   0.110   1.661   6.996
 6336SOL     OW19906   0.815   2.930   4.960
 6336SOL    HW119907   0.832   2.950   5.057
 6336SOL    HW219908   0.890   2.966   4.906
 6337SOL     OW19909   6.928   4.773   5.069
 6337SOL    HW119910   6.881   4.854   5.034
 6337SOL    HW219911   6.899   4.757   5.164
 6338SOL     OW19912   3.517   1.113   4.192
 6338SOL    HW119913   3.573   1.180   4.240
 6338SOL    HW219914   3.499   1.145   4.099
 6339SOL     OW19915   0.585   2.896   4.759
 6339SOL    HW119916   0.519   2.824   4.782
 6339SOL    HW219917   0.666   2.885   4.817
 6340SOL     OW19918   2.492   5.509   4.009
 6340SOL    HW119919   2.434   5.428   3.994
 6340SOL    HW219920   2.479   5.573   3.933
 6341SOL     OW19921   6.518   5.011   2.370
 6341SOL    HW119922   6.424   5.044   2.380
 6341SOL    HW219923   6.519   4.928   2.315
 6342SOL     OW19924   1.427   3.601   1.021
 6342SOL    HW119925   1.500   3.542   0.986
 6342SOL    HW219926   1.464   3.661   1.092
 6343SOL     OW19927   4.228   0.911   0.269
 6343SOL    HW119928   4.324   0.904   0.296
 6343SOL    HW219929   4.169   0.904   0.350
 6344SOL     OW19930   6.989   4.925   4.407
 6344SOL    HW119931   6.920   4.932   4.479
 6344SOL    HW219932   0.014   4.839   4.417
 6345SOL     OW19933   2.698   2.312   2.153
 6345SOL    HW119934   2.732   2.331   2.245
 6345SOL    HW219935   2.764   2.345   2.085
 6346SOL     OW19936   0.890   5.400   4.331
 6346SOL    HW119937   0.861   5.381   4.425
 6346SOL    HW219938   0.856   5.328   4.270
 6347SOL     OW19939   2.763   0.318   1.007
 6347SOL    HW119940   2.688   0.252   1.004
 6347SOL    HW219941   2.821   0.299   1.086
 6348SOL     OW19942   0.923   2.477   4.852
 6348SOL    HW119943   1.023   2.475   4.853
 6348SOL    HW219944   0.888   2.389   4.883
 6349SOL     OW19945   2.044   0.832   0.385
 6349SOL    HW119946   2.017   0.736   0.387
 6349SOL    HW219947   2.031   0.872   0.476
 6350SOL     OW19948   0.951   5.962   2.956
 6350SOL    HW119949   0.921   5.866   2.949
 6350SOL    HW219950   0.871   6.021   2.963
 6351SOL     OW19951   6.871   1.176   3.271
 6351SOL    HW119952   6.922   1.224   3.342
 6351SOL    HW219953   6.790   1.230   3.246
 6352SOL     OW19954   7.008   5.765   2.376
 6352SOL    HW119955   6.950   5.826   2.323
 6352SOL    HW219956   7.023   5.803   2.467
 6353SOL     OW19957   0.269   6.665   2.038
 6353SOL    HW119958   0.263   6.737   2.108
 6353SOL    HW219959   0.238   6.579   2.078
 6354SOL     OW19960   0.066   6.813   4.319
 6354SOL    HW119961   0.105   6.751   4.251
 6354SOL    HW219962   0.098   6.788   4.410
 6355SOL     OW19963   0.939   2.525   2.225
 6355SOL    HW119964   0.918   2.548   2.130
 6355SOL    HW219965   0.923   2.427   2.240
 6356SOL     OW19966   3.231   2.392   0.631
 6356SOL    HW119967   3.322   2.422   0.604
 6356SOL    HW219968   3.162   2.441   0.579
 6357SOL     OW19969   4.913   2.076   0.607
 6357SOL    HW119970   4.907   2.103   0.511
 6357SOL    HW219971   4.900   1.977   0.614
 6358SOL     OW19972   0.851   3.050   3.835
 6358SOL    HW119973   0.806   3.136   3.858
 6358SOL    HW219974   0.892   3.057   3.744
 6359SOL     OW19975   0.090   1.438   6.820
 6359SOL    HW119976   0.151   1.484   6.883
 6359SOL    HW219977   0.091   1.340   6.838
 6360SOL     OW19978   3.393   5.506   4.126
 6360SOL    HW119979   3.451   5.507   4.207
 6360SOL    HW219980   3.300   5.479   4.151
 6361SOL     OW19981   3.336   6.714   6.087
 6361SOL    HW119982   3.275   6.639   6.111
 6361SOL    HW219983   3.283   6.792   6.055
 6362SOL     OW19984   6.515   5.399   6.226
 6362SOL    HW119985   6.446   5.379   6.156
 6362SOL    HW219986   6.523   5.498   6.238
 6363SOL     OW19987   1.041   5.875   4.272
 6363SOL    HW119988   1.139   5.889   4.287
 6363SOL    HW219989   1.025   5.779   4.249
 6364SOL     OW19990   1.924   2.564   6.357
 6364SOL    HW119991   1.952   2.468   6.363
 6364SOL    HW219992   1.945   2.610   6.443
 6365SOL     OW19993   5.018   5.448   3.000
 6365SOL    HW119994   4.949   5.377   3.010
 6365SOL    HW219995   5.051   5.450   2.906
 6366SOL     OW19996   0.319   4.659   5.307
 6366SOL    HW119997   0.317   4.572   5.257
 6366SOL    HW219998   0.288   4.733   5.248
 6367SOL     OW19999   6.188   6.078   2.661
 6367SOL    HW120000   6.151   6.094   2.752
 6367SOL    HW220001   6.174   5.983   2.635
 6368SOL     OW20002   3.613   0.484   3.311
 6368SOL    HW120003   3.517   0.460   3.297
 6368SOL    HW220004   3.627   0.580   3.289
 6369SOL     OW20005   1.905   5.087   5.640
 6369SOL    HW120006   1.999   5.120   5.654
 6369SOL    HW220007   1.902   5.030   5.558
 6370SOL     OW20008   5.691   2.565   2.043
 6370SOL    HW120009   5.757   2.629   2.081
 6370SOL    HW220010   5.628   2.614   1.982
 6371SOL     OW20011   4.377   1.526   3.940
 6371SOL    HW120012   4.358   1.432   3.969
 6371SOL    HW220013   4.476   1.539   3.931
 6372SOL     OW20014   2.855   6.256   2.389
 6372SOL    HW120015   2.854   6.224   2.294
 6372SOL    HW220016   2.950   6.268   2.418
 6373SOL     OW20017   3.594   4.821   0.579
 6373SOL    HW120018   3.518   4.805   0.516
 6373SOL    HW220019   3.680   4.821   0.528
 6374SOL     OW20020   2.893   3.283   2.449
 6374SOL    HW120021   2.956   3.208   2.432
 6374SOL    HW220022   2.804   3.247   2.478
 6375SOL     OW20023   1.456   6.035   2.548
 6375SOL    HW120024   1.369   6.003   2.511
 6375SOL    HW220025   1.481   5.980   2.628
 6376SOL     OW20026   0.478   2.598   5.287
 6376SOL    HW120027   0.490   2.538   5.208
 6376SOL    HW220028   0.444   2.545   5.365
 6377SOL     OW20029   0.701   1.887   4.102
 6377SOL    HW120030   0.633   1.814   4.113
 6377SOL    HW220031   0.702   1.944   4.184
 6378SOL     OW20032   4.730   4.802   3.549
 6378SOL    HW120033   4.639   4.843   3.561
 6378SOL    HW220034   4.769   4.782   3.638
 6379SOL     OW20035   2.292   4.878   1.954
 6379SOL    HW120036   2.281   4.800   1.892
 6379SOL    HW220037   2.292   4.963   1.902
 6380SOL     OW20038   1.034   0.899   5.919
 6380SOL    HW120039   0.953   0.901   5.977
 6380SOL    HW220040   1.096   0.828   5.951
 6381SOL     OW20041   2.848   3.433   2.044
 6381SOL    HW120042   2.893   3.398   1.962
 6381SOL    HW220043   2.758   3.391   2.054
 6382SOL     OW20044   1.288   4.543   5.126
 6382SOL    HW120045   1.341   4.593   5.195
 6382SOL    HW220046   1.238   4.469   5.170
 6383SOL     OW20047   4.098   1.508   3.906
 6383SOL    HW120048   4.067   1.491   3.812
 6383SOL    HW220049   4.190   1.546   3.904
 6384SOL     OW20050   6.754   4.425   2.579
 6384SOL    HW120051   6.655   4.413   2.571
 6384SOL    HW220052   6.776   4.521   2.598
 6385SOL     OW20053   0.573   5.840   4.797
 6385SOL    HW120054   0.561   5.795   4.708
 6385SOL    HW220055   0.552   5.774   4.870
 6386SOL     OW20056   2.624   5.576   1.640
 6386SOL    HW120057   2.717   5.612   1.631
 6386SOL    HW220058   2.588   5.556   1.549
 6387SOL     OW20059   6.880   1.593   5.200
 6387SOL    HW120060   6.959   1.577   5.259
 6387SOL    HW220061   6.865   1.513   5.142
 6388SOL     OW20062   2.444   4.760   2.735
 6388SOL    HW120063   2.471   4.687   2.673
 6388SOL    HW220064   2.385   4.722   2.807
 6389SOL     OW20065   0.935   4.955   1.608
 6389SOL    HW120066   1.006   5.019   1.637
 6389SOL    HW220067   0.968   4.901   1.531
 6390SOL     OW20068   0.729   2.914   4.141
 6390SOL    HW120069   0.652   2.881   4.195
 6390SOL    HW220070   0.696   2.961   4.059
 6391SOL     OW20071   3.536   0.870   6.929
 6391SOL    HW120072   3.517   0.929   6.850
 6391SOL    HW220073   3.501   0.914   7.012
 6392SOL     OW20074   1.496   6.322   4.392
 6392SOL    HW120075   1.467   6.414   4.415
 6392SOL    HW220076   1.416   6.265   4.373
 6393SOL     OW20077   5.482   1.116   0.972
 6393SOL    HW120078   5.520   1.060   1.045
 6393SOL    HW220079   5.458   1.206   1.008
 6394SOL     OW20080   3.241   4.877   1.906
 6394SOL    HW120081   3.245   4.818   1.826
 6394SOL    HW220082   3.151   4.871   1.947
 6395SOL     OW20083   6.226   1.788   0.634
 6395SOL    HW120084   6.152   1.829   0.581
 6395SOL    HW220085   6.266   1.713   0.581
 6396SOL     OW20086   6.122   3.800   5.270
 6396SOL    HW120087   6.065   3.869   5.314
 6396SOL    HW220088   6.160   3.739   5.340
 6397SOL     OW20089   6.565   1.231   7.015
 6397SOL    HW120090   6.641   1.213   0.052
 6397SOL    HW220091   6.599   1.231   6.921
 6398SOL     OW20092   4.107   0.858   1.606
 6398SOL    HW120093   4.153   0.946   1.615
 6398SOL    HW220094   4.065   0.851   1.515
 6399SOL     OW20095   2.593   6.086   6.545
 6399SOL    HW120096   2.582   6.037   6.631
 6399SOL    HW220097   2.580   6.023   6.468
 6400SOL     OW20098   2.924   5.206   4.285
 6400SOL    HW120099   2.868   5.129   4.318
 6400SOL    HW220100   2.886   5.292   4.321
 6401SOL     OW20101   1.474   4.379   4.884
 6401SOL    HW120102   1.477   4.450   4.954
 6401SOL    HW220103   1.495   4.419   4.795
 6402SOL     OW20104   1.916   2.513   2.873
 6402SOL    HW120105   1.887   2.546   2.783
 6402SOL    HW220106   1.965   2.586   2.920
 6403SOL     OW20107   1.032   6.326   1.582
 6403SOL    HW120108   1.097   6.371   1.521
 6403SOL    HW220109   1.032   6.372   1.671
 6404SOL     OW20110   4.893   0.956   3.328
 6404SOL    HW120111   4.948   1.039   3.313
 6404SOL    HW220112   4.839   0.967   3.411
 6405SOL     OW20113   3.241   1.049   1.274
 6405SOL    HW120114   3.225   1.034   1.372
 6405SOL    HW220115   3.156   1.080   1.231
 6406SOL     OW20116   2.686   1.934   3.350
 6406SOL    HW120117   2.694   2.026   3.389
 6406SOL    HW220118   2.605   1.929   3.291
 6407SOL     OW20119   4.543   5.800   6.240
 6407SOL    HW120120   4.626   5.851   6.217
 6407SOL    HW220121   4.545   5.775   6.336
 6408SOL     OW20122   6.079   2.096   0.381
 6408SOL    HW120123   6.131   2.079   0.297
 6408SOL    HW220124   6.041   2.010   0.415
 6409SOL     OW20125   1.273   4.706   2.079
 6409SOL    HW120126   1.208   4.781   2.088
 6409SOL    HW220127   1.342   4.712   2.150
 6410SOL     OW20128   1.214   0.997   1.998
 6410SOL    HW120129   1.294   1.042   2.038
 6410SOL    HW220130   1.148   0.977   2.071
 6411SOL     OW20131   1.880   0.814   3.537
 6411SOL    HW120132   1.924   0.815   3.627
 6411SOL    HW220133   1.780   0.813   3.550
 6412SOL     OW20134   6.695   2.665   4.329
 6412SOL    HW120135   6.629   2.610   4.379
 6412SOL    HW220136   6.787   2.628   4.341
 6413SOL     OW20137   0.333   4.543   0.480
 6413SOL    HW120138   0.243   4.503   0.464
 6413SOL    HW220139   0.397   4.508   0.411
 6414SOL     OW20140   6.187   6.725   2.793
 6414SOL    HW120141   6.101   6.711   2.743
 6414SOL    HW220142   6.168   6.746   2.888
 6415SOL     OW20143   1.456   1.687   2.120
 6415SOL    HW120144   1.517   1.766   2.120
 6415SOL    HW220145   1.365   1.715   2.090
 6416SOL     OW20146   2.270   6.425   6.188
 6416SOL    HW120147   2.301   6.517   6.167
 6416SOL    HW220148   2.305   6.362   6.119
 6417SOL     OW20149   0.431   6.705   3.479
 6417SOL    HW120150   0.507   6.644   3.498
 6417SOL    HW220151   0.459   6.774   3.412
 6418SOL     OW20152   6.661   5.727   2.656
 6418SOL    HW120153   6.758   5.742   2.675
 6418SOL    HW220154   6.643   5.629   2.647
 6419SOL     OW20155   2.476   3.409   1.045
 6419SOL    HW120156   2.465   3.312   1.064
 6419SOL    HW220157   2.571   3.427   1.017
 6420SOL     OW20158   1.070   3.196   6.639
 6420SOL    HW120159   1.024   3.279   6.609
 6420SOL    HW220160   1.051   3.121   6.575
 6421SOL     OW20161   6.023   2.355   0.611
 6421SOL    HW120162   6.033   2.429   0.545
 6421SOL    HW220163   6.103   2.353   0.671
 6422SOL     OW20164   6.035   2.284   3.516
 6422SOL    HW120165   6.023   2.237   3.428
 6422SOL    HW220166   5.989   2.232   3.588
 6423SOL     OW20167   4.587   4.277   0.872
 6423SOL    HW120168   4.630   4.189   0.852
 6423SOL    HW220169   4.657   4.349   0.873
 6424SOL     OW20170   6.559   4.710   5.160
 6424SOL    HW120171   6.602   4.620   5.163
 6424SOL    HW220172   6.616   4.777   5.208
 6425SOL     OW20173   0.662   5.177   1.413
 6425SOL    HW120174   0.687   5.121   1.334
 6425SOL    HW220175   0.608   5.121   1.476
 6426SOL     OW20176   6.855   2.763   3.223
 6426SOL    HW120177   6.876   2.760   3.321
 6426SOL    HW220178   6.781   2.699   3.203
 6427SOL     OW20179   1.125   2.945   6.133
 6427SOL    HW120180   1.066   2.868   6.157
 6427SOL    HW220181   1.086   2.993   6.054
 6428SOL     OW20182   6.889   3.101   4.002
 6428SOL    HW120183   6.789   3.107   3.997
 6428SOL    HW220184   6.916   3.031   4.068
 6429SOL     OW20185   0.737   1.417   4.687
 6429SOL    HW120186   0.779   1.439   4.599
 6429SOL    HW220187   0.803   1.433   4.761
 6430SOL     OW20188   6.380   3.468   6.908
 6430SOL    HW120189   6.476   3.442   6.901
 6430SOL    HW220190   6.326   3.389   6.937
 6431SOL     OW20191   5.441   1.083   3.344
 6431SOL    HW120192   5.392   0.997   3.333
 6431SOL    HW220193   5.482   1.110   3.257
 6432SOL     OW20194   5.868   3.173   0.406
 6432SOL    HW120195   5.811   3.106   0.359
 6432SOL    HW220196   5.900   3.242   0.340
 6433SOL     OW20197   2.537   3.619   1.570
 6433SOL    HW120198   2.499   3.673   1.494
 6433SOL    HW220199   2.615   3.668   1.609
 6434SOL     OW20200   1.871   5.217   6.986
 6434SOL    HW120201   1.873   5.138   6.925
 6434SOL    HW220202   1.958   5.223   0.009
 6435SOL     OW20203   4.471   3.876   0.670
 6435SOL    HW120204   4.538   3.925   0.727
 6435SOL    HW220205   4.507   3.866   0.577
 6436SOL     OW20206   1.631   2.282   2.294
 6436SOL    HW120207   1.543   2.299   2.251
 6436SOL    HW220208   1.704   2.322   2.238
 6437SOL     OW20209   0.287   0.727   6.780
 6437SOL    HW120210   0.346   0.692   6.708
 6437SOL    HW220211   0.216   0.660   6.800
 6438SOL     OW20212   0.864   3.739   3.914
 6438SOL    HW120213   0.873   3.643   3.885
 6438SOL    HW220214   0.768   3.760   3.930
 6439SOL     OW20215   0.327   6.080   2.063
 6439SOL    HW120216   0.392   6.150   2.094
 6439SOL    HW220217   0.376   6.012   2.008
 6440SOL     OW20218   0.458   0.808   1.746
 6440SOL    HW120219   0.449   0.889   1.689
 6440SOL    HW220220   0.409   0.822   1.832
 6441SOL     OW20221   3.959   1.966   3.258
 6441SOL    HW120222   3.940   1.881   3.306
 6441SOL    HW220223   3.977   2.039   3.325
 6442SOL     OW20224   3.585   0.172   3.081
 6442SOL    HW120225   3.669   0.224   3.098
 6442SOL    HW220226   3.580   0.095   3.144
 6443SOL     OW20227   2.253   0.883   0.208
 6443SOL    HW120228   2.322   0.945   0.244
 6443SOL    HW220229   2.187   0.861   0.281
 6444SOL     OW20230   0.394   0.808   3.232
 6444SOL    HW120231   0.385   0.856   3.319
 6444SOL    HW220232   0.432   0.871   3.164
 6445SOL     OW20233   3.576   3.928   5.644
 6445SOL    HW120234   3.627   3.869   5.706
 6445SOL    HW220235   3.595   4.024   5.664
 6446SOL     OW20236   6.775   2.023   0.899
 6446SOL    HW120237   6.709   2.042   0.826
 6446SOL    HW220238   6.811   2.109   0.935
 6447SOL     OW20239   1.623   0.057   3.054
 6447SOL    HW120240   1.537   0.095   3.089
 6447SOL    HW220241   1.620   0.054   2.954
 6448SOL     OW20242   6.727   2.288   2.268
 6448SOL    HW120243   6.690   2.368   2.221
 6448SOL    HW220244   6.688   2.283   2.360
 6449SOL     OW20245   3.727   2.816   1.057
 6449SOL    HW120246   3.712   2.786   1.151
 6449SOL    HW220247   3.697   2.745   0.994
 6450SOL     OW20248   0.065   3.289   6.518
 6450SOL    HW120249   7.024   3.215   6.506
 6450SOL    HW220250   0.018   3.377   6.513
 6451SOL     OW20251   2.604   6.280   3.970
 6451SOL    HW120252   2.612   6.379   3.958
 6451SOL    HW220253   2.558   6.240   3.891
 6452SOL     OW20254   4.212   6.151   3.780
 6452SOL    HW120255   4.227   6.131   3.684
 6452SOL    HW220256   4.114   6.151   3.800
 6453SOL     OW20257   2.242   4.528   6.533
 6453SOL    HW120258   2.148   4.534   6.566
 6453SOL    HW220259   2.265   4.432   6.515
 6454SOL     OW20260   3.681   1.056   4.735
 6454SOL    HW120261   3.655   1.131   4.674
 6454SOL    HW220262   3.624   0.976   4.716
 6455SOL     OW20263   5.979   3.051   5.677
 6455SOL    HW120264   5.971   2.952   5.677
 6455SOL    HW220265   6.019   3.082   5.591
 6456SOL     OW20266   6.789   1.016   5.094
 6456SOL    HW120267   6.696   1.003   5.062
 6456SOL    HW220268   6.852   1.016   5.016
 6457SOL     OW20269   6.225   2.830   2.653
 6457SOL    HW120270   6.286   2.775   2.597
 6457SOL    HW220271   6.254   2.926   2.652
 6458SOL     OW20272   1.412   6.397   3.127
 6458SOL    HW120273   1.357   6.320   3.161
 6458SOL    HW220274   1.494   6.361   3.082
 6459SOL     OW20275   5.039   4.998   0.856
 6459SOL    HW120276   5.052   5.083   0.907
 6459SOL    HW220277   5.116   4.936   0.873
 6460SOL     OW20278   2.945   4.786   0.954
 6460SOL    HW120279   2.947   4.741   0.865
 6460SOL    HW220280   2.941   4.885   0.942
 6461SOL     OW20281   3.076   5.757   5.404
 6461SOL    HW120282   3.107   5.726   5.314
 6461SOL    HW220283   3.085   5.856   5.410
 6462SOL     OW20284   2.050   3.058   3.435
 6462SOL    HW120285   2.065   3.089   3.341
 6462SOL    HW220286   2.065   3.135   3.498
 6463SOL     OW20287   1.269   4.357   5.379
 6463SOL    HW120288   1.173   4.337   5.359
 6463SOL    HW220289   1.275   4.444   5.428
 6464SOL     OW20290   1.144   5.670   2.761
 6464SOL    HW120291   1.232   5.657   2.807
 6464SOL    HW220292   1.138   5.764   2.728
 6465SOL     OW20293   6.238   0.782   3.057
 6465SOL    HW120294   6.187   0.776   3.143
 6465SOL    HW220295   6.336   0.779   3.076
 6466SOL     OW20296   0.361   2.984   5.271
 6466SOL    HW120297   0.387   3.055   5.204
 6466SOL    HW220298   0.265   2.960   5.258
 6467SOL     OW20299   2.890   0.653   5.773
 6467SOL    HW120300   2.830   0.694   5.842
 6467SOL    HW220301   2.917   0.723   5.707
 6468SOL     OW20302   4.950   4.686   1.540
 6468SOL    HW120303   5.032   4.701   1.595
 6468SOL    HW220304   4.905   4.602   1.570
 6469SOL     OW20305   6.630   0.964   5.813
 6469SOL    HW120306   6.622   1.013   5.900
 6469SOL    HW220307   6.722   0.975   5.776
 6470SOL     OW20308   6.507   5.951   4.923
 6470SOL    HW120309   6.432   5.904   4.875
 6470SOL    HW220310   6.537   5.895   5.001
 6471SOL     OW20311   5.504   5.763   5.706
 6471SOL    HW120312   5.432   5.705   5.669
 6471SOL    HW220313   5.500   5.763   5.806
 6472SOL     OW20314   1.341   6.175   1.295
 6472SOL    HW120315   1.415   6.108   1.290
 6472SOL    HW220316   1.306   6.193   1.203
 6473SOL     OW20317   2.586   0.751   5.285
 6473SOL    HW120318   2.555   0.768   5.192
 6473SOL    HW220319   2.649   0.824   5.313
 6474SOL     OW20320   2.580   3.512   5.773
 6474SOL    HW120321   2.663   3.463   5.747
 6474SOL    HW220322   2.563   3.586   5.708
 6475SOL     OW20323   4.610   5.756   4.174
 6475SOL    HW120324   4.672   5.681   4.195
 6475SOL    HW220325   4.577   5.747   4.080
 6476SOL     OW20326   5.255   4.764   2.326
 6476SOL    HW120327   5.253   4.831   2.400
 6476SOL    HW220328   5.223   4.807   2.242
 6477SOL     OW20329   6.854   6.519   0.543
 6477SOL    HW120330   6.934   6.577   0.553
 6477SOL    HW220331   6.772   6.576   0.534
 6478SOL     OW20332   5.366   6.218   1.390
 6478SOL    HW120333   5.311   6.300   1.404
 6478SOL    HW220334   5.454   6.228   1.438
 6479SOL     OW20335   4.129   6.020   2.918
 6479SOL    HW120336   4.116   5.935   2.866
 6479SOL    HW220337   4.052   6.081   2.904
 6480SOL     OW20338   2.462   1.307   0.950
 6480SOL    HW120339   2.424   1.222   0.988
 6480SOL    HW220340   2.529   1.286   0.880
 6481SOL     OW20341   4.771   0.786   1.274
 6481SOL    HW120342   4.868   0.797   1.252
 6481SOL    HW220343   4.760   0.775   1.373
 6482SOL     OW20344   0.183   0.574   6.527
 6482SOL    HW120345   0.156   0.500   6.465
 6482SOL    HW220346   0.103   0.632   6.545
 6483SOL     OW20347   1.874   5.304   1.827
 6483SOL    HW120348   1.917   5.214   1.822
 6483SOL    HW220349   1.922   5.360   1.895
 6484SOL     OW20350   5.465   6.230   3.696
 6484SOL    HW120351   5.551   6.258   3.654
 6484SOL    HW220352   5.406   6.189   3.626
 6485SOL     OW20353   1.152   2.843   3.273
 6485SOL    HW120354   1.079   2.839   3.342
 6485SOL    HW220355   1.119   2.806   3.186
 6486SOL     OW20356   1.626   3.113   3.227
 6486SOL    HW120357   1.560   3.137   3.299
 6486SOL    HW220358   1.648   3.195   3.174
 6487SOL     OW20359   5.957   5.360   3.239
 6487SOL    HW120360   5.910   5.289   3.187
 6487SOL    HW220361   5.952   5.339   3.337
 6488SOL     OW20362   3.170   4.926   5.271
 6488SOL    HW120363   3.097   4.969   5.324
 6488SOL    HW220364   3.129   4.874   5.196
 6489SOL     OW20365   2.453   1.930   5.606
 6489SOL    HW120366   2.489   1.906   5.696
 6489SOL    HW220367   2.528   1.961   5.547
 6490SOL     OW20368   4.784   1.535   0.671
 6490SOL    HW120369   4.703   1.477   0.679
 6490SOL    HW220370   4.834   1.534   0.757
 6491SOL     OW20371   4.251   1.032   6.528
 6491SOL    HW120372   4.173   1.024   6.590
 6491SOL    HW220373   4.236   1.108   6.465
 6492SOL     OW20374   5.860   5.931   6.456
 6492SOL    HW120375   5.762   5.949   6.462
 6492SOL    HW220376   5.911   6.007   6.494
 6493SOL     OW20377   1.066   6.447   5.414
 6493SOL    HW120378   1.058   6.384   5.337
 6493SOL    HW220379   1.031   6.404   5.497
 6494SOL     OW20380   1.367   0.072   3.368
 6494SOL    HW120381   1.281   0.085   3.417
 6494SOL    HW220382   1.443   0.105   3.424
 6495SOL     OW20383   5.538   5.297   2.187
 6495SOL    HW120384   5.556   5.383   2.234
 6495SOL    HW220385   5.480   5.239   2.244
 6496SOL     OW20386   0.752   6.688   2.951
 6496SOL    HW120387   0.831   6.634   2.981
 6496SOL    HW220388   0.668   6.635   2.968
 6497SOL     OW20389   0.333   5.396   0.347
 6497SOL    HW120390   0.321   5.336   0.427
 6497SOL    HW220391   0.304   5.348   0.264
 6498SOL     OW20392   1.403   4.344   3.873
 6498SOL    HW120393   1.491   4.376   3.907
 6498SOL    HW220394   1.352   4.301   3.948
 6499SOL     OW20395   5.881   0.775   4.135
 6499SOL    HW120396   5.782   0.787   4.124
 6499SOL    HW220397   5.916   0.843   4.199
 6500SOL     OW20398   5.668   5.130   3.325
 6500SOL    HW120399   5.623   5.169   3.245
 6500SOL    HW220400   5.612   5.057   3.364
 6501SOL     OW20401   0.078   3.504   0.928
 6501SOL    HW120402   0.062   3.405   0.923
 6501SOL    HW220403   0.153   3.522   0.992
 6502SOL     OW20404   1.075   4.963   2.443
 6502SOL    HW120405   1.018   5.026   2.495
 6502SOL    HW220406   1.083   4.877   2.492
 6503SOL     OW20407   4.592   0.196   4.380
 6503SOL    HW120408   4.685   0.198   4.417
 6503SOL    HW220409   4.553   0.104   4.394
 6504SOL     OW20410   1.718   0.823   0.254
 6504SOL    HW120411   1.732   0.744   0.314
 6504SOL    HW220412   1.720   0.907   0.309
 6505SOL     OW20413   5.557   5.272   0.858
 6505SOL    HW120414   5.588   5.185   0.821
 6505SOL    HW220415   5.562   5.270   0.957
 6506SOL     OW20416   1.828   1.753   0.680
 6506SOL    HW120417   1.778   1.706   0.753
 6506SOL    HW220418   1.763   1.797   0.618
 6507SOL     OW20419   2.916   0.562   1.778
 6507SOL    HW120420   2.871   0.481   1.741
 6507SOL    HW220421   2.984   0.533   1.846
 6508SOL     OW20422   2.331   1.580   1.704
 6508SOL    HW120423   2.411   1.640   1.710
 6508SOL    HW220424   2.353   1.490   1.741
 6509SOL     OW20425   1.163   2.599   3.992
 6509SOL    HW120426   1.116   2.683   3.966
 6509SOL    HW220427   1.119   2.521   3.947
 6510SOL     OW20428   5.592   5.269   6.603
 6510SOL    HW120429   5.539   5.324   6.539
 6510SOL    HW220430   5.628   5.328   6.676
 6511SOL     OW20431   6.648   5.914   5.567
 6511SOL    HW120432   6.622   5.821   5.542
 6511SOL    HW220433   6.579   5.978   5.532
 6512SOL     OW20434   4.961   6.111   3.907
 6512SOL    HW120435   5.039   6.157   3.948
 6512SOL    HW220436   4.937   6.155   3.820
 6513SOL     OW20437   2.169   6.728   3.305
 6513SOL    HW120438   2.164   6.686   3.396
 6513SOL    HW220439   2.146   6.661   3.235
 6514SOL     OW20440   3.379   0.346   3.891
 6514SOL    HW120441   3.362   0.357   3.989
 6514SOL    HW220442   3.474   0.318   3.877
 6515SOL     OW20443   0.752   0.771   3.728
 6515SOL    HW120444   0.844   0.786   3.692
 6515SOL    HW220445   0.756   0.714   3.809
 6516SOL     OW20446   1.713   1.687   5.848
 6516SOL    HW120447   1.703   1.589   5.866
 6516SOL    HW220448   1.670   1.709   5.760
 6517SOL     OW20449   1.498   2.080   0.550
 6517SOL    HW120450   1.440   2.000   0.542
 6517SOL    HW220451   1.593   2.051   0.563
 6518SOL     OW20452   5.772   5.895   0.557
 6518SOL    HW120453   5.822   5.816   0.593
 6518SOL    HW220454   5.837   5.959   0.516
 6519SOL     OW20455   1.441   2.128   3.247
 6519SOL    HW120456   1.532   2.137   3.288
 6519SOL    HW220457   1.389   2.212   3.260
 6520SOL     OW20458   5.920   5.563   1.941
 6520SOL    HW120459   5.888   5.652   1.907
 6520SOL    HW220460   5.842   5.512   1.978
 6521SOL     OW20461   1.676   2.457   5.248
 6521SOL    HW120462   1.628   2.387   5.194
 6521SOL    HW220463   1.763   2.419   5.280
 6522SOL     OW20464   2.728   5.336   4.722
 6522SOL    HW120465   2.814   5.285   4.718
 6522SOL    HW220466   2.705   5.356   4.817
 6523SOL     OW20467   1.794   2.700   6.991
 6523SOL    HW120468   1.891   2.679   7.006
 6523SOL    HW220469   1.743   2.684   0.050
 6524SOL     OW20470   4.019   3.928   4.697
 6524SOL    HW120471   4.111   3.897   4.671
 6524SOL    HW220472   3.965   3.849   4.727
 6525SOL     OW20473   0.414   2.528   4.215
 6525SOL    HW120474   0.336   2.552   4.157
 6525SOL    HW220475   0.454   2.442   4.184
 6526SOL     OW20476   1.850   5.363   4.174
 6526SOL    HW120477   1.756   5.377   4.204
 6526SOL    HW220478   1.857   5.378   4.075
 6527SOL     OW20479   2.420   0.969   4.033
 6527SOL    HW120480   2.483   0.974   4.111
 6527SOL    HW220481   2.350   0.900   4.052
 6528SOL     OW20482   0.120   6.847   3.372
 6528SOL    HW120483   0.148   6.757   3.340
 6528SOL    HW220484   0.199   6.896   3.409
 6529SOL     OW20485   6.527   2.539   1.652
 6529SOL    HW120486   6.511   2.508   1.559
 6529SOL    HW220487   6.525   2.639   1.655
 6530SOL     OW20488   0.311   2.060   0.121
 6530SOL    HW120489   0.212   2.066   0.138
 6530SOL    HW220490   0.352   1.999   0.188
 6531SOL     OW20491   5.372   2.712   4.624
 6531SOL    HW120492   5.341   2.804   4.648
 6531SOL    HW220493   5.365   2.653   4.705
 6532SOL     OW20494   1.263   2.513   0.074
 6532SOL    HW120495   1.351   2.477   0.104
 6532SOL    HW220496   1.191   2.484   0.137
 6533SOL     OW20497   4.139   0.837   1.087
 6533SOL    HW120498   4.239   0.833   1.083
 6533SOL    HW220499   4.111   0.903   1.157
 6534SOL     OW20500   1.791   3.249   0.084
 6534SOL    HW120501   1.815   3.187   0.158
 6534SOL    HW220502   1.803   3.344   0.115
 6535SOL     OW20503   2.121   3.493   5.384
 6535SOL    HW120504   2.144   3.585   5.415
 6535SOL    HW220505   2.022   3.486   5.370
 6536SOL     OW20506   6.986   2.294   6.774
 6536SOL    HW120507   0.037   2.311   6.835
 6536SOL    HW220508   6.906   2.266   6.828
 6537SOL     OW20509   0.765   0.135   0.350
 6537SOL    HW120510   0.710   0.155   0.431
 6537SOL    HW220511   0.821   0.054   0.367
 6538SOL     OW20512   1.679   3.024   6.326
 6538SOL    HW120513   1.623   2.955   6.281
 6538SOL    HW220514   1.706   3.093   6.260
 6539SOL     OW20515   2.823   1.531   6.075
 6539SOL    HW120516   2.746   1.491   6.026
 6539SOL    HW220517   2.801   1.538   6.172
 6540SOL     OW20518   3.293   2.073   3.893
 6540SOL    HW120519   3.282   2.109   3.985
 6540SOL    HW220520   3.371   2.009   3.891
 6541SOL     OW20521   2.802   2.652   5.355
 6541SOL    HW120522   2.880   2.592   5.340
 6541SOL    HW220523   2.834   2.746   5.365
 6542SOL     OW20524   6.419   4.532   3.384
 6542SOL    HW120525   6.346   4.597   3.402
 6542SOL    HW220526   6.381   4.449   3.342
 6543SOL     OW20527   0.749   5.446   6.350
 6543SOL    HW120528   0.786   5.381   6.284
 6543SOL    HW220529   0.652   5.426   6.367
 6544SOL     OW20530   6.890   6.367   3.052
 6544SOL    HW120531   6.926   6.399   3.140
 6544SOL    HW220532   6.797   6.334   3.064
 6545SOL     OW20533   5.628   3.203   6.134
 6545SOL    HW120534   5.661   3.134   6.069
 6545SOL    HW220535   5.583   3.158   6.211
 6546SOL     OW20536   3.331   4.820   5.855
 6546SOL    HW120537   3.373   4.910   5.872
 6546SOL    HW220538   3.232   4.828   5.862
 6547SOL     OW20539   5.142   0.888   0.131
 6547SOL    HW120540   5.087   0.962   0.092
 6547SOL    HW220541   5.234   0.890   0.092
 6548SOL     OW20542   6.095   4.256   4.997
 6548SOL    HW120543   6.160   4.180   5.008
 6548SOL    HW220544   6.054   4.278   5.086
 6549SOL     OW20545   2.940   1.600   2.413
 6549SOL    HW120546   3.024   1.608   2.360
 6549SOL    HW220547   2.912   1.690   2.446
 6550SOL     OW20548   0.766   5.262   3.305
 6550SOL    HW120549   0.681   5.210   3.302
 6550SOL    HW220550   0.789   5.284   3.399
 6551SOL     OW20551   2.633   4.732   1.877
 6551SOL    HW120552   2.630   4.829   1.902
 6551SOL    HW220553   2.711   4.689   1.921
 6552SOL     OW20554   4.714   5.295   6.518
 6552SOL    HW120555   4.659   5.378   6.509
 6552SOL    HW220556   4.679   5.240   6.594
 6553SOL     OW20557   6.491   3.248   2.752
 6553SOL    HW120558   6.548   3.313   2.803
 6553SOL    HW220559   6.403   3.238   2.798
 6554SOL     OW20560   0.022   3.684   4.785
 6554SOL    HW120561   0.070   3.639   4.710
 6554SOL    HW220562   6.949   3.669   4.776
 6555SOL     OW20563   0.651   1.070   2.124
 6555SOL    HW120564   0.675   0.995   2.062
 6555SOL    HW220565   0.621   1.148   2.070
 6556SOL     OW20566   3.323   0.643   3.907
 6556SOL    HW120567   3.284   0.662   3.997
 6556SOL    HW220568   3.299   0.549   3.879
 6557SOL     OW20569   5.378   6.358   0.706
 6557SOL    HW120570   5.455   6.381   0.648
 6557SOL    HW220571   5.299   6.334   0.650
 6558SOL     OW20572   6.724   6.340   6.197
 6558SOL    HW120573   6.701   6.314   6.103
 6558SOL    HW220574   6.652   6.398   6.234
 6559SOL     OW20575   3.347   3.167   1.245
 6559SOL    HW120576   3.331   3.079   1.200
 6559SOL    HW220577   3.333   3.241   1.179
 6560SOL     OW20578   3.595   1.795   0.739
 6560SOL    HW120579   3.515   1.788   0.680
 6560SOL    HW220580   3.667   1.734   0.705
 6561SOL     OW20581   3.659   3.855   4.314
 6561SOL    HW120582   3.697   3.782   4.256
 6561SOL    HW220583   3.717   3.936   4.307
 6562SOL     OW20584   6.435   3.823   5.403
 6562SOL    HW120585   6.359   3.767   5.435
 6562SOL    HW220586   6.519   3.795   5.449
 6563SOL     OW20587   0.696   5.388   2.783
 6563SOL    HW120588   0.678   5.395   2.882
 6563SOL    HW220589   0.788   5.422   2.763
 6564SOL     OW20590   1.326   6.072   3.065
 6564SOL    HW120591   1.259   6.139   3.097
 6564SOL    HW220592   1.336   5.999   3.134
 6565SOL     OW20593   6.572   3.404   5.171
 6565SOL    HW120594   6.580   3.308   5.145
 6565SOL    HW220595   6.654   3.453   5.142
 6566SOL     OW20596   3.553   6.993   0.725
 6566SOL    HW120597   3.536   6.941   0.808
 6566SOL    HW220598   3.504   0.054   0.728
 6567SOL     OW20599   6.095   3.220   1.414
 6567SOL    HW120600   6.071   3.124   1.427
 6567SOL    HW220601   6.089   3.243   1.317
 6568SOL     OW20602   4.277   3.904   1.431
 6568SOL    HW120603   4.334   3.982   1.457
 6568SOL    HW220604   4.228   3.925   1.346
 6569SOL     OW20605   0.755   4.851   6.421
 6569SOL    HW120606   0.793   4.943   6.433
 6569SOL    HW220607   0.657   4.853   6.442
 6570SOL     OW20608   6.043   3.428   1.592
 6570SOL    HW120609   6.072   3.367   1.519
 6570SOL    HW220610   6.123   3.469   1.636
 6571SOL     OW20611   2.866   6.371   3.767
 6571SOL    HW120612   2.868   6.362   3.866
 6571SOL    HW220613   2.787   6.322   3.730
 6572SOL     OW20614   1.323   4.440   6.218
 6572SOL    HW120615   1.367   4.429   6.307
 6572SOL    HW220616   1.325   4.536   6.191
 6573SOL     OW20617   1.571   1.933   2.100
 6573SOL    HW120618   1.573   1.968   2.194
 6573SOL    HW220619   1.538   2.005   2.039
 6574SOL     OW20620   1.591   4.661   4.049
 6574SOL    HW120621   1.643   4.582   4.017
 6574SOL    HW220622   1.645   4.744   4.033
 6575SOL     OW20623   2.122   1.117   2.430
 6575SOL    HW120624   2.135   1.146   2.524
 6575SOL    HW220625   2.211   1.107   2.385
 6576SOL     OW20626   1.237   6.267   4.071
 6576SOL    HW120627   1.248   6.187   4.130
 6576SOL    HW220628   1.213   6.238   3.978
 6577SOL     OW20629   6.706   3.179   5.058
 6577SOL    HW120630   6.652   3.103   5.024
 6577SOL    HW220631   6.724   3.243   4.983
 6578SOL     OW20632   7.006   5.392   3.527
 6578SOL    HW120633   0.075   5.423   3.540
 6578SOL    HW220634   6.963   5.378   3.616
 6579SOL     OW20635   1.138   3.863   3.109
 6579SOL    HW120636   1.139   3.835   3.013
 6579SOL    HW220637   1.227   3.902   3.132
 6580SOL     OW20638   5.497   2.533   1.430
 6580SOL    HW120639   5.513   2.594   1.352
 6580SOL    HW220640   5.525   2.440   1.405
 6581SOL     OW20641   2.442   2.632   5.546
 6581SOL    HW120642   2.439   2.732   5.548
 6581SOL    HW220643   2.474   2.601   5.457
 6582SOL     OW20644   6.645   0.535   2.115
 6582SOL    HW120645   6.563   0.552   2.060
 6582SOL    HW220646   6.654   0.607   2.185
 6583SOL     OW20647   5.575   2.143   5.794
 6583SOL    HW120648   5.634   2.222   5.781
 6583SOL    HW220649   5.631   2.060   5.803
 6584SOL     OW20650   5.714   2.486   6.868
 6584SOL    HW120651   5.762   2.405   6.900
 6584SOL    HW220652   5.635   2.504   6.927
 6585SOL     OW20653   2.497   1.129   1.422
 6585SOL    HW120654   2.430   1.176   1.364
 6585SOL    HW220655   2.560   1.195   1.461
 6586SOL     OW20656   6.816   1.440   6.702
 6586SOL    HW120657   6.911   1.413   6.716
 6586SOL    HW220658   6.794   1.518   6.760
 6587SOL     OW20659   1.942   6.634   2.734
 6587SOL    HW120660   1.914   6.658   2.826
 6587SOL    HW220661   1.871   6.660   2.669
 6588SOL     OW20662   2.679   2.814   6.761
 6588SOL    HW120663   2.606   2.871   6.723
 6588SOL    HW220664   2.680   2.726   6.714
 6589SOL     OW20665   5.306   1.700   5.625
 6589SOL    HW120666   5.403   1.722   5.614
 6589SOL    HW220667   5.279   1.635   5.553
 6590SOL     OW20668   6.391   1.175   5.627
 6590SOL    HW120669   6.362   1.130   5.711
 6590SOL    HW220670   6.471   1.127   5.590
 6591SOL     OW20671   5.382   0.635   2.791
 6591SOL    HW120672   5.415   0.716   2.840
 6591SOL    HW220673   5.417   0.637   2.697
 6592SOL     OW20674   5.513   5.924   4.683
 6592SOL    HW120675   5.573   5.848   4.657
 6592SOL    HW220676   5.561   5.985   4.746
 6593SOL     OW20677   4.313   0.883   2.278
 6593SOL    HW120678   4.362   0.961   2.316
 6593SOL    HW220679   4.307   0.893   2.179
 6594SOL     OW20680   5.617   1.122   6.750
 6594SOL    HW120681   5.622   1.060   6.672
 6594SOL    HW220682   5.703   1.171   6.760
 6595SOL     OW20683   1.757   3.753   0.037
 6595SOL    HW120684   1.731   3.760   6.966
 6595SOL    HW220685   1.782   3.843   0.072
 6596SOL     OW20686   3.182   6.489   5.721
 6596SOL    HW120687   3.265   6.510   5.773
 6596SOL    HW220688   3.161   6.566   5.660
 6597SOL     OW20689   6.577   4.210   6.647
 6597SOL    HW120690   6.552   4.213   6.550
 6597SOL    HW220691   6.676   4.209   6.656
 6598SOL     OW20692   2.492   5.612   4.844
 6598SOL    HW120693   2.559   5.555   4.892
 6598SOL    HW220694   2.455   5.681   4.907
 6599SOL     OW20695   4.380   3.178   5.665
 6599SOL    HW120696   4.422   3.243   5.601
 6599SOL    HW220697   4.350   3.226   5.747
 6600SOL     OW20698   4.265   5.326   4.339
 6600SOL    HW120699   4.316   5.396   4.288
 6600SOL    HW220700   4.210   5.371   4.409
 6601SOL     OW20701   0.870   0.340   1.140
 6601SOL    HW120702   0.841   0.423   1.188
 6601SOL    HW220703   0.912   0.276   1.205
 6602SOL     OW20704   6.396   1.338   1.803
 6602SOL    HW120705   6.463   1.412   1.813
 6602SOL    HW220706   6.439   1.261   1.755
 6603SOL     OW20707   2.590   2.057   2.180
 6603SOL    HW120708   2.514   2.038   2.118
 6603SOL    HW220709   2.619   2.152   2.168
 6604SOL     OW20710   4.042   5.646   3.640
 6604SOL    HW120711   4.026   5.732   3.688
 6604SOL    HW220712   4.136   5.644   3.605
 6605SOL     OW20713   5.647   6.224   0.306
 6605SOL    HW120714   5.692   6.311   0.327
 6605SOL    HW220715   5.631   6.218   0.207
 6606SOL     OW20716   6.359   1.057   3.183
 6606SOL    HW120717   6.349   1.055   3.083
 6606SOL    HW220718   6.306   0.983   3.223
 6607SOL     OW20719   0.908   1.776   3.256
 6607SOL    HW120720   0.869   1.833   3.184
 6607SOL    HW220721   0.866   1.686   3.255
 6608SOL     OW20722   5.580   4.649   4.876
 6608SOL    HW120723   5.595   4.649   4.777
 6608SOL    HW220724   5.565   4.555   4.907
 6609SOL     OW20725   5.728   1.559   6.917
 6609SOL    HW120726   5.807   1.502   6.940
 6609SOL    HW220727   5.700   1.542   6.823
 6610SOL     OW20728   3.006   1.030   0.577
 6610SOL    HW120729   3.055   1.100   0.629
 6610SOL    HW220730   3.067   0.991   0.508
 6611SOL     OW20731   5.291   3.072   3.280
 6611SOL    HW120732   5.294   3.003   3.208
 6611SOL    HW220733   5.383   3.103   3.301
 6612SOL     OW20734   1.034   6.113   6.716
 6612SOL    HW120735   0.990   6.164   6.642
 6612SOL    HW220736   1.127   6.087   6.688
 6613SOL     OW20737   4.946   4.996   1.182
 6613SOL    HW120738   4.884   5.036   1.249
 6613SOL    HW220739   5.030   4.966   1.228
 6614SOL     OW20740   5.432   5.351   5.766
 6614SOL    HW120741   5.404   5.262   5.728
 6614SOL    HW220742   5.368   5.422   5.733
 6615SOL     OW20743   0.836   4.195   5.422
 6615SOL    HW120744   0.890   4.247   5.355
 6615SOL    HW220745   0.771   4.137   5.374
 6616SOL     OW20746   5.299   1.167   4.527
 6616SOL    HW120747   5.211   1.125   4.551
 6616SOL    HW220748   5.359   1.097   4.486
 6617SOL     OW20749   4.453   0.154   5.099
 6617SOL    HW120750   4.431   0.181   5.193
 6617SOL    HW220751   4.500   0.066   5.099
 6618SOL     OW20752   0.491   4.934   1.156
 6618SOL    HW120753   0.427   4.993   1.108
 6618SOL    HW220754   0.566   4.909   1.095
 6619SOL     OW20755   0.040   6.356   1.653
 6619SOL    HW120756   0.136   6.369   1.680
 6619SOL    HW220757   0.006   6.272   1.695
 6620SOL     OW20758   4.003   3.332   5.805
 6620SOL    HW120759   3.992   3.254   5.867
 6620SOL    HW220760   4.054   3.304   5.724
 6621SOL     OW20761   2.836   3.809   0.232
 6621SOL    HW120762   2.758   3.770   0.183
 6621SOL    HW220763   2.852   3.755   0.315
 6622SOL     OW20764   6.204   6.319   0.769
 6622SOL    HW120765   6.134   6.341   0.837
 6622SOL    HW220766   6.292   6.306   0.814
 6623SOL     OW20767   3.553   3.814   2.533
 6623SOL    HW120768   3.599   3.726   2.522
 6623SOL    HW220769   3.604   3.870   2.599
 6624SOL     OW20770   4.377   5.256   3.929
 6624SOL    HW120771   4.302   5.212   3.979
 6624SOL    HW220772   4.446   5.286   3.995
 6625SOL     OW20773   5.716   0.002   0.242
 6625SOL    HW120774   5.661   0.049   0.310
 6625SOL    HW220775   5.791   6.980   0.287
 6626SOL     OW20776   2.918   5.460   3.325
 6626SOL    HW120777   2.928   5.549   3.371
 6626SOL    HW220778   2.927   5.387   3.392
 6627SOL     OW20779   1.857   5.747   1.949
 6627SOL    HW120780   1.895   5.785   1.865
 6627SOL    HW220781   1.772   5.795   1.972
 6628SOL     OW20782   3.729   6.222   3.562
 6628SOL    HW120783   3.747   6.195   3.468
 6628SOL    HW220784   3.676   6.307   3.563
 6629SOL     OW20785   3.592   3.781   0.233
 6629SOL    HW120786   3.640   3.845   0.292
 6629SOL    HW220787   3.562   3.702   0.287
 6630SOL     OW20788   3.075   1.890   6.074
 6630SOL    HW120789   3.048   1.890   6.170
 6630SOL    HW220790   3.059   1.800   6.034
 6631SOL     OW20791   4.338   0.707   1.971
 6631SOL    HW120792   4.276   0.778   2.005
 6631SOL    HW220793   4.285   0.638   1.920
 6632SOL     OW20794   6.706   2.778   2.809
 6632SOL    HW120795   6.658   2.700   2.849
 6632SOL    HW220796   6.641   2.851   2.791
 6633SOL     OW20797   0.464   0.207   1.542
 6633SOL    HW120798   0.543   0.157   1.578
 6633SOL    HW220799   0.381   0.179   1.591
 6634SOL     OW20800   6.834   2.677   5.643
 6634SOL    HW120801   6.867   2.768   5.666
 6634SOL    HW220802   6.907   2.625   5.598
 6635SOL     OW20803   4.475   4.540   2.952
 6635SOL    HW120804   4.550   4.473   2.953
 6635SOL    HW220805   4.438   4.547   2.860
 6636SOL     OW20806   1.780   3.126   3.892
 6636SOL    HW120807   1.876   3.108   3.915
 6636SOL    HW220808   1.740   3.184   3.962
 6637SOL     OW20809   6.379   1.952   1.586
 6637SOL    HW120810   6.353   1.856   1.599
 6637SOL    HW220811   6.458   1.957   1.524
 6638SOL     OW20812   2.349   6.262   6.602
 6638SOL    HW120813   2.392   6.188   6.550
 6638SOL    HW220814   2.252   6.268   6.578
 6639SOL     OW20815   5.036   5.527   6.275
 6639SOL    HW120816   5.036   5.502   6.178
 6639SOL    HW220817   5.071   5.451   6.329
 6640SOL     OW20818   6.131   2.728   3.662
 6640SOL    HW120819   6.070   2.745   3.739
 6640SOL    HW220820   6.121   2.802   3.595
 6641SOL     OW20821   2.056   4.745   6.877
 6641SOL    HW120822   1.993   4.685   6.927
 6641SOL    HW220823   2.024   4.755   6.782
 6642SOL     OW20824   6.224   6.574   0.207
 6642SOL    HW120825   6.170   6.505   0.256
 6642SOL    HW220826   6.303   6.599   0.262
 6643SOL     OW20827   3.798   5.730   0.447
 6643SOL    HW120828   3.832   5.639   0.422
 6643SOL    HW220829   3.871   5.783   0.489
 6644SOL     OW20830   2.393   4.314   1.980
 6644SOL    HW120831   2.330   4.328   1.904
 6644SOL    HW220832   2.437   4.401   2.002
 6645SOL     OW20833   6.155   5.005   5.240
 6645SOL    HW120834   6.167   5.009   5.339
 6645SOL    HW220835   6.093   4.930   5.216
 6646SOL     OW20836   1.531   6.169   3.661
 6646SOL    HW120837   1.488   6.119   3.586
 6646SOL    HW220838   1.630   6.152   3.659
 6647SOL     OW20839   4.217   1.887   2.137
 6647SOL    HW120840   4.125   1.867   2.171
 6647SOL    HW220841   4.219   1.873   2.038
 6648SOL     OW20842   4.466   5.643   1.965
 6648SOL    HW120843   4.450   5.609   2.057
 6648SOL    HW220844   4.419   5.730   1.952
 6649SOL     OW20845   4.205   2.278   6.678
 6649SOL    HW120846   4.237   2.352   6.618
 6649SOL    HW220847   4.175   2.316   6.765
 6650SOL     OW20848   2.933   1.586   3.555
 6650SOL    HW120849   2.931   1.669   3.612
 6650SOL    HW220850   3.028   1.566   3.529
 6651SOL     OW20851   1.458   2.390   0.208
 6651SOL    HW120852   1.428   2.327   0.280
 6651SOL    HW220853   1.558   2.383   0.199
 6652SOL     OW20854   1.012   5.861   3.336
 6652SOL    HW120855   1.045   5.766   3.339
 6652SOL    HW220856   0.949   5.876   3.413
 6653SOL     OW20857   3.180   3.405   3.760
 6653SOL    HW120858   3.191   3.449   3.671
 6653SOL    HW220859   3.083   3.406   3.785
 6654SOL     OW20860   1.959   3.490   1.958
 6654SOL    HW120861   1.931   3.394   1.964
 6654SOL    HW220862   2.059   3.496   1.954
 6655SOL     OW20863   2.047   0.278   0.620
 6655SOL    HW120864   1.958   0.272   0.664
 6655SOL    HW220865   2.077   0.187   0.591
 6656SOL     OW20866   6.750   2.678   1.402
 6656SOL    HW120867   6.670   2.618   1.392
 6656SOL    HW220868   6.739   2.734   1.484
 6657SOL     OW20869   2.626   4.688   6.008
 6657SOL    HW120870   2.669   4.707   6.097
 6657SOL    HW220871   2.693   4.701   5.935
 6658SOL     OW20872   5.573   0.088   5.541
 6658SOL    HW120873   5.485   0.099   5.586
 6658SOL    HW220874   5.562   0.032   5.458
 6659SOL     OW20875   1.777   2.889   6.562
 6659SOL    HW120876   1.770   2.920   6.467
 6659SOL    HW220877   1.797   2.967   6.621
 6660SOL     OW20878   0.617   6.912   2.197
 6660SOL    HW120879   0.696   6.972   2.188
 6660SOL    HW220880   0.573   6.900   2.108
 6661SOL     OW20881   0.139   5.733   3.518
 6661SOL    HW120882   0.216   5.748   3.456
 6661SOL    HW220883   0.160   5.657   3.580
 6662SOL     OW20884   1.247   3.622   5.427
 6662SOL    HW120885   1.303   3.681   5.368
 6662SOL    HW220886   1.210   3.676   5.502
 6663SOL     OW20887   0.508   4.904   2.434
 6663SOL    HW120888   0.574   4.929   2.363
 6663SOL    HW220889   0.550   4.839   2.498
 6664SOL     OW20890   0.794   1.672   3.599
 6664SOL    HW120891   0.810   1.681   3.698
 6664SOL    HW220892   0.738   1.748   3.568
 6665SOL     OW20893   2.747   6.500   2.749
 6665SOL    HW120894   2.831   6.553   2.743
 6665SOL    HW220895   2.672   6.552   2.707
 6666SOL     OW20896   6.242   0.438   0.440
 6666SOL    HW120897   6.279   0.494   0.366
 6666SOL    HW220898   6.309   0.433   0.514
 6667SOL     OW20899   6.594   4.769   4.622
 6667SOL    HW120900   6.613   4.724   4.710
 6667SOL    HW220901   6.547   4.705   4.562
 6668SOL     OW20902   0.474   6.816   1.347
 6668SOL    HW120903   0.541   6.869   1.295
 6668SOL    HW220904   0.513   6.728   1.372
 6669SOL     OW20905   1.383   5.379   2.976
 6669SOL    HW120906   1.303   5.426   3.013
 6669SOL    HW220907   1.420   5.317   3.045
 6670SOL     OW20908   3.470   4.895   1.039
 6670SOL    HW120909   3.372   4.913   1.053
 6670SOL    HW220910   3.510   4.972   0.990
 6671SOL     OW20911   0.562   2.852   5.396
 6671SOL    HW120912   0.575   2.754   5.379
 6671SOL    HW220913   0.494   2.888   5.332
 6672SOL     OW20914   0.301   0.890   5.418
 6672SOL    HW120915   0.209   0.855   5.434
 6672SOL    HW220916   0.361   0.815   5.390
 6673SOL     OW20917   5.024   5.645   1.900
 6673SOL    HW120918   5.030   5.724   1.839
 6673SOL    HW220919   4.998   5.564   1.848
 6674SOL     OW20920   0.706   6.915   4.739
 6674SOL    HW120921   0.632   6.966   4.783
 6674SOL    HW220922   0.668   6.857   4.667
 6675SOL     OW20923   0.110   6.069   0.464
 6675SOL    HW120924   0.123   6.147   0.404
 6675SOL    HW220925   0.029   6.018   0.435
 6676SOL     OW20926   1.219   1.881   0.257
 6676SOL    HW120927   1.293   1.888   0.190
 6676SOL    HW220928   1.140   1.935   0.226
 6677SOL     OW20929   6.288   3.900   6.893
 6677SOL    HW120930   6.347   3.938   6.821
 6677SOL    HW220931   6.280   3.966   6.968
 6678SOL     OW20932   0.922   2.795   4.308
 6678SOL    HW120933   0.858   2.841   4.246
 6678SOL    HW220934   1.003   2.852   4.321
 6679SOL     OW20935   1.542   0.872   4.101
 6679SOL    HW120936   1.583   0.898   4.188
 6679SOL    HW220937   1.448   0.841   4.116
 6680SOL     OW20938   2.424   6.987   6.030
 6680SOL    HW120939   2.445   6.984   6.127
 6680SOL    HW220940   2.493   6.936   5.979
 6681SOL     OW20941   5.466   5.083   0.418
 6681SOL    HW120942   5.533   5.093   0.491
 6681SOL    HW220943   5.491   5.006   0.359
 6682SOL     OW20944   6.945   5.301   2.598
 6682SOL    HW120945   6.990   5.388   2.578
 6682SOL    HW220946   6.922   5.256   2.511
 6683SOL     OW20947   5.159   2.023   4.246
 6683SOL    HW120948   5.221   2.090   4.204
 6683SOL    HW220949   5.203   1.983   4.326
 6684SOL     OW20950   2.147   0.533   2.274
 6684SOL    HW120951   2.165   0.466   2.203
 6684SOL    HW220952   2.092   0.608   2.236
 6685SOL     OW20953   5.425   3.350   6.387
 6685SOL    HW120954   5.378   3.289   6.451
 6685SOL    HW220955   5.468   3.295   6.315
 6686SOL     OW20956   5.626   3.346   4.010
 6686SOL    HW120957   5.695   3.275   3.993
 6686SOL    HW220958   5.617   3.360   4.109
 6687SOL     OW20959   0.973   1.308   0.043
 6687SOL    HW120960   1.058   1.360   0.050
 6687SOL    HW220961   0.899   1.357   0.089
 6688SOL     OW20962   0.619   5.049   2.904
 6688SOL    HW120963   0.645   5.114   2.832
 6688SOL    HW220964   0.689   4.977   2.910
 6689SOL     OW20965   4.303   4.540   0.602
 6689SOL    HW120966   4.300   4.639   0.592
 6689SOL    HW220967   4.330   4.517   0.696
 6690SOL     OW20968   1.369   1.801   0.491
 6690SOL    HW120969   1.464   1.794   0.460
 6690SOL    HW220970   1.315   1.851   0.422
 6691SOL     OW20971   1.502   5.171   0.808
 6691SOL    HW120972   1.417   5.148   0.854
 6691SOL    HW220973   1.552   5.239   0.863
 6692SOL     OW20974   3.443   4.374   6.055
 6692SOL    HW120975   3.408   4.467   6.052
 6692SOL    HW220976   3.531   4.372   6.102
 6693SOL     OW20977   4.138   3.693   5.169
 6693SOL    HW120978   4.097   3.618   5.117
 6693SOL    HW220979   4.067   3.760   5.191
 6694SOL     OW20980   2.944   6.162   0.278
 6694SOL    HW120981   2.931   6.221   0.358
 6694SOL    HW220982   2.862   6.106   0.264
 6695SOL     OW20983   1.504   1.627   6.549
 6695SOL    HW120984   1.572   1.593   6.614
 6695SOL    HW220985   1.460   1.709   6.586
 6696SOL     OW20986   1.981   3.255   1.631
 6696SOL    HW120987   2.044   3.250   1.708
 6696SOL    HW220988   1.894   3.215   1.656
 6697SOL     OW20989   5.174   2.513   4.002
 6697SOL    HW120990   5.138   2.564   3.924
 6697SOL    HW220991   5.225   2.574   4.062
 6698SOL     OW20992   3.436   4.345   0.477
 6698SOL    HW120993   3.457   4.346   0.574
 6698SOL    HW220994   3.397   4.433   0.450
 6699SOL     OW20995   1.710   3.348   6.794
 6699SOL    HW120996   1.650   3.343   6.874
 6699SOL    HW220997   1.749   3.440   6.788
 6700SOL     OW20998   6.761   6.963   5.994
 6700SOL    HW120999   6.780   0.001   5.919
 6700SOL    HW221000   6.847   6.923   6.026
 6701SOL     OW21001   0.513   2.408   1.040
 6701SOL    HW121002   0.531   2.310   1.055
 6701SOL    HW221003   0.501   2.453   1.128
 6702SOL     OW21004   1.535   3.206   1.044
 6702SOL    HW121005   1.462   3.266   1.077
 6702SOL    HW221006   1.509   3.166   0.956
 6703SOL     OW21007   0.449   2.226   6.697
 6703SOL    HW121008   0.416   2.225   6.791
 6703SOL    HW221009   0.544   2.259   6.695
 6704SOL     OW21010   5.092   2.215   3.063
 6704SOL    HW121011   5.021   2.283   3.076
 6704SOL    HW221012   5.132   2.192   3.152
 6705SOL     OW21013   6.193   0.920   0.771
 6705SOL    HW121014   6.150   0.996   0.722
 6705SOL    HW221015   6.229   0.854   0.705
 6706SOL     OW21016   0.553   5.565   0.156
 6706SOL    HW121017   0.525   5.543   0.249
 6706SOL    HW221018   0.493   5.517   0.091
 6707SOL     OW21019   1.029   5.645   2.446
 6707SOL    HW121020   1.077   5.635   2.359
 6707SOL    HW221021   1.093   5.635   2.522
 6708SOL     OW21022   2.207   5.907   1.656
 6708SOL    HW121023   2.278   5.837   1.666
 6708SOL    HW221024   2.179   5.939   1.746
 6709SOL     OW21025   5.132   1.608   3.108
 6709SOL    HW121026   5.070   1.552   3.162
 6709SOL    HW221027   5.083   1.648   3.030
 6710SOL     OW21028   2.033   1.982   0.423
 6710SOL    HW121029   2.027   1.967   0.522
 6710SOL    HW221030   2.041   1.894   0.376
 6711SOL     OW21031   4.868   3.666   0.175
 6711SOL    HW121032   4.785   3.716   0.150
 6711SOL    HW221033   4.906   3.621   0.094
 6712SOL     OW21034   3.370   6.166   1.384
 6712SOL    HW121035   3.429   6.244   1.408
 6712SOL    HW221036   3.359   6.162   1.285
 6713SOL     OW21037   1.731   1.463   2.663
 6713SOL    HW121038   1.634   1.444   2.680
 6713SOL    HW221039   1.742   1.503   2.572
 6714SOL     OW21040   6.579   0.208   4.513
 6714SOL    HW121041   6.575   0.256   4.600
 6714SOL    HW221042   6.593   0.274   4.439
 6715SOL     OW21043   0.122   1.985   0.858
 6715SOL    HW121044   0.181   2.041   0.917
 6715SOL    HW221045   0.048   2.042   0.821
 6716SOL     OW21046   2.885   5.557   0.375
 6716SOL    HW121047   2.840   5.473   0.346
 6716SOL    HW221048   2.941   5.592   0.300
 6717SOL     OW21049   3.981   1.723   6.527
 6717SOL    HW121050   4.034   1.796   6.570
 6717SOL    HW221051   3.886   1.728   6.560
 6718SOL     OW21052   3.113   7.009   0.270
 6718SOL    HW121053   3.159   6.954   0.340
 6718SOL    HW221054   3.049   6.952   0.220
 6719SOL     OW21055   0.675   0.820   5.537
 6719SOL    HW121056   0.751   0.825   5.602
 6719SOL    HW221057   0.619   0.903   5.545
 6720SOL     OW21058   1.873   4.603   1.419
 6720SOL    HW121059   1.785   4.645   1.398
 6720SOL    HW221060   1.946   4.654   1.373
 6721SOL     OW21061   6.461   6.078   3.431
 6721SOL    HW121062   6.559   6.069   3.411
 6721SOL    HW221063   6.445   6.162   3.482
 6722SOL     OW21064   5.007   4.697   6.857
 6722SOL    HW121065   4.945   4.769   6.828
 6722SOL    HW221066   5.090   4.738   6.896
 6723SOL     OW21067   4.540   0.892   2.857
 6723SOL    HW121068   4.592   0.831   2.917
 6723SOL    HW221069   4.584   0.896   2.767
 6724SOL     OW21070   3.390   4.764   5.297
 6724SOL    HW121071   3.306   4.815   5.277
 6724SOL    HW221072   3.375   4.704   5.376
 6725SOL     OW21073   6.879   4.998   1.774
 6725SOL    HW121074   6.969   5.042   1.773
 6725SOL    HW221075   6.875   4.930   1.702
 6726SOL     OW21076   2.326   2.802   1.810
 6726SOL    HW121077   2.274   2.776   1.728
 6726SOL    HW221078   2.264   2.811   1.887
 6727SOL     OW21079   3.460   3.997   0.125
 6727SOL    HW121080   3.489   4.078   0.176
 6727SOL    HW221081   3.474   3.916   0.182
 6728SOL     OW21082   4.659   1.347   4.829
 6728SOL    HW121083   4.697   1.423   4.776
 6728SOL    HW221084   4.561   1.341   4.811
 6729SOL     OW21085   5.661   6.194   3.516
 6729SOL    HW121086   5.596   6.179   3.441
 6729SOL    HW221087   5.752   6.164   3.487
 6730SOL     OW21088   1.289   0.420   2.430
 6730SOL    HW121089   1.367   0.403   2.369
 6730SOL    HW221090   1.251   0.510   2.411
 6731SOL     OW21091   2.201   4.311   1.778
 6731SOL    HW121092   2.172   4.381   1.712
 6731SOL    HW221093   2.171   4.221   1.746
 6732SOL     OW21094   2.277   4.855   0.982
 6732SOL    HW121095   2.190   4.829   0.940
 6732SOL    HW221096   2.331   4.908   0.916
 6733SOL     OW21097   5.898   6.056   4.917
 6733SOL    HW121098   5.973   6.120   4.898
 6733SOL    HW221099   5.936   5.973   4.959
 6734SOL     OW21100   2.920   3.832   5.506
 6734SOL    HW121101   2.853   3.872   5.569
 6734SOL    HW221102   2.986   3.902   5.478
 6735SOL     OW21103   0.583   5.522   6.820
 6735SOL    HW121104   0.499   5.575   6.810
 6735SOL    HW221105   0.658   5.571   6.774
 6736SOL     OW21106   2.114   4.133   2.256
 6736SOL    HW121107   2.048   4.188   2.309
 6736SOL    HW221108   2.206   4.169   2.271
 6737SOL     OW21109   2.021   0.322   1.201
 6737SOL    HW121110   1.927   0.333   1.233
 6737SOL    HW221111   2.085   0.347   1.274
 6738SOL     OW21112   4.385   1.113   1.469
 6738SOL    HW121113   4.467   1.140   1.418
 6738SOL    HW221114   4.304   1.154   1.427
 6739SOL     OW21115   4.585   0.512   4.653
 6739SOL    HW121116   4.489   0.524   4.627
 6739SOL    HW221117   4.593   0.435   4.717
 6740SOL     OW21118   5.904   3.408   5.433
 6740SOL    HW121119   5.845   3.337   5.395
 6740SOL    HW221120   5.862   3.448   5.514
 6741SOL     OW21121   0.077   6.968   5.901
 6741SOL    HW121122   0.126   6.901   5.845
 6741SOL    HW221123   0.068   6.932   5.994
 6742SOL     OW21124   6.115   5.904   5.047
 6742SOL    HW121125   6.060   5.835   5.095
 6742SOL    HW221126   6.144   5.974   5.111
 6743SOL     OW21127   5.566   2.651   1.192
 6743SOL    HW121128   5.646   2.710   1.178
 6743SOL    HW221129   5.484   2.708   1.202
 6744SOL     OW21130   5.185   5.214   4.666
 6744SOL    HW121131   5.114   5.194   4.734
 6744SOL    HW221132   5.159   5.294   4.612
 6745SOL     OW21133   0.793   3.583   2.919
 6745SOL    HW121134   0.806   3.550   2.825
 6745SOL    HW221135   0.701   3.620   2.928
 6746SOL     OW21136   0.140   0.938   1.081
 6746SOL    HW121137   0.129   0.845   1.115
 6746SOL    HW221138   0.055   0.969   1.039
 6747SOL     OW21139   4.606   6.322   6.842
 6747SOL    HW121140   4.631   6.419   6.842
 6747SOL    HW221141   4.539   6.305   6.769
 6748SOL     OW21142   0.293   6.415   1.747
 6748SOL    HW121143   0.383   6.396   1.710
 6748SOL    HW221144   0.283   6.514   1.762
 6749SOL     OW21145   3.375   5.679   0.876
 6749SOL    HW121146   3.304   5.744   0.849
 6749SOL    HW221147   3.396   5.619   0.800
 6750SOL     OW21148   2.236   2.987   5.295
 6750SOL    HW121149   2.147   2.954   5.263
 6750SOL    HW221150   2.301   2.987   5.219
 6751SOL     OW21151   3.449   1.767   6.179
 6751SOL    HW121152   3.445   1.866   6.167
 6751SOL    HW221153   3.493   1.745   6.267
 6752SOL     OW21154   6.530   2.183   0.429
 6752SOL    HW121155   6.443   2.229   0.412
 6752SOL    HW221156   6.528   2.092   0.389
 6753SOL     OW21157   5.831   1.339   6.621
 6753SOL    HW121158   5.793   1.430   6.602
 6753SOL    HW221159   5.924   1.334   6.586
 6754SOL     OW21160   4.980   1.337   6.895
 6754SOL    HW121161   5.072   1.376   6.902
 6754SOL    HW221162   4.921   1.400   6.844
 6755SOL     OW21163   5.008   2.310   3.859
 6755SOL    HW121164   5.050   2.375   3.922
 6755SOL    HW221165   4.920   2.279   3.896
 6756SOL     OW21166   4.836   3.988   3.476
 6756SOL    HW121167   4.810   4.079   3.442
 6756SOL    HW221168   4.796   3.973   3.567
 6757SOL     OW21169   6.117   4.914   1.731
 6757SOL    HW121170   6.124   4.931   1.830
 6757SOL    HW221171   6.141   4.997   1.681
 6758SOL     OW21172   5.796   1.483   3.235
 6758SOL    HW121173   5.796   1.388   3.265
 6758SOL    HW221174   5.784   1.486   3.135
 6759SOL     OW21175   0.772   4.712   3.354
 6759SOL    HW121176   0.785   4.779   3.281
 6759SOL    HW221177   0.814   4.625   3.328
 6760SOL     OW21178   0.492   4.302   5.509
 6760SOL    HW121179   0.504   4.319   5.606
 6760SOL    HW221180   0.560   4.354   5.457
 6761SOL     OW21181   6.117   3.515   6.436
 6761SOL    HW121182   6.075   3.428   6.461
 6761SOL    HW221183   6.046   3.585   6.428
 6762SOL     OW21184   6.708   3.914   3.285
 6762SOL    HW121185   6.696   3.844   3.355
 6762SOL    HW221186   6.740   3.871   3.201
 6763SOL     OW21187   6.550   6.721   5.186
 6763SOL    HW121188   6.492   6.737   5.107
 6763SOL    HW221189   6.621   6.654   5.163
 6764SOL     OW21190   2.034   3.218   6.558
 6764SOL    HW121191   2.080   3.147   6.504
 6764SOL    HW221192   1.979   3.174   6.629
 6765SOL     OW21193   5.326   5.200   2.622
 6765SOL    HW121194   5.348   5.258   2.701
 6765SOL    HW221195   5.309   5.257   2.542
 6766SOL     OW21196   1.930   1.754   5.692
 6766SOL    HW121197   1.860   1.758   5.763
 6766SOL    HW221198   2.012   1.708   5.727
 6767SOL     OW21199   0.591   2.512   6.063
 6767SOL    HW121200   0.646   2.596   6.068
 6767SOL    HW221201   0.651   2.434   6.046
 6768SOL     OW21202   6.229   1.502   5.779
 6768SOL    HW121203   6.133   1.510   5.807
 6768SOL    HW221204   6.283   1.464   5.854
 6769SOL     OW21205   0.944   2.494   6.710
 6769SOL    HW121206   0.976   2.570   6.766
 6769SOL    HW221207   0.994   2.411   6.734
 6770SOL     OW21208   6.787   1.526   4.484
 6770SOL    HW121209   6.757   1.447   4.430
 6770SOL    HW221210   6.718   1.598   4.478
 6771SOL     OW21211   5.853   1.475   2.188
 6771SOL    HW121212   5.850   1.534   2.108
 6771SOL    HW221213   5.881   1.529   2.268
 6772SOL     OW21214   1.468   0.788   2.125
 6772SOL    HW121215   1.467   0.833   2.214
 6772SOL    HW221216   1.413   0.704   2.130
 6773SOL     OW21217   1.713   0.518   2.517
 6773SOL    HW121218   1.789   0.507   2.581
 6773SOL    HW221219   1.696   0.432   2.469
 6774SOL     OW21220   3.600   1.200   5.547
 6774SOL    HW121221   3.606   1.285   5.496
 6774SOL    HW221222   3.601   1.219   5.645
 6775SOL     OW21223   1.155   2.673   4.578
 6775SOL    HW121224   1.175   2.761   4.620
 6775SOL    HW221225   1.239   2.636   4.536
 6776SOL     OW21226   2.993   3.778   3.937
 6776SOL    HW121227   2.993   3.851   4.006
 6776SOL    HW221228   3.073   3.719   3.951
 6777SOL     OW21229   0.470   6.788   6.176
 6777SOL    HW121230   0.529   6.708   6.170
 6777SOL    HW221231   0.506   6.860   6.115
 6778SOL     OW21232   6.946   6.122   2.633
 6778SOL    HW121233   6.871   6.142   2.570
 6778SOL    HW221234   6.915   6.135   2.727
 6779SOL     OW21235   4.612   4.840   6.921
 6779SOL    HW121236   4.560   4.776   6.865
 6779SOL    HW221237   4.555   4.920   6.942
 6780SOL     OW21238   4.598   0.287   3.084
 6780SOL    HW121239   4.630   0.338   3.004
 6780SOL    HW221240   4.674   0.277   3.149
 6781SOL     OW21241   6.402   3.271   3.132
 6781SOL    HW121242   6.458   3.353   3.122
 6781SOL    HW221243   6.327   3.289   3.196
 6782SOL     OW21244   0.737   1.066   3.834
 6782SOL    HW121245   0.743   0.984   3.777
 6782SOL    HW221246   0.705   1.040   3.925
 6783SOL     OW21247   0.302   6.227   6.484
 6783SOL    HW121248   0.386   6.185   6.519
 6783SOL    HW221249   0.326   6.304   6.425
 6784SOL     OW21250   1.468   4.799   0.312
 6784SOL    HW121251   1.447   4.784   0.408
 6784SOL    HW221252   1.537   4.733   0.281
 6785SOL     OW21253   5.336   4.856   2.034
 6785SOL    HW121254   5.400   4.779   2.030
 6785SOL    HW221255   5.245   4.822   2.057
 6786SOL     OW21256   6.176   1.786   5.548
 6786SOL    HW121257   6.156   1.877   5.512
 6786SOL    HW221258   6.265   1.788   5.594
 6787SOL     OW21259   3.383   1.894   0.841
 6787SOL    HW121260   3.471   1.865   0.801
 6787SOL    HW221261   3.372   1.992   0.830
 6788SOL     OW21262   1.040   4.120   1.617
 6788SOL    HW121263   1.045   4.132   1.518
 6788SOL    HW221264   1.035   4.209   1.662
 6789SOL     OW21265   5.586   3.740   2.668
 6789SOL    HW121266   5.628   3.808   2.728
 6789SOL    HW221267   5.510   3.696   2.714
 6790SOL     OW21268   0.562   5.658   0.788
 6790SOL    HW121269   0.548   5.747   0.743
 6790SOL    HW221270   0.646   5.617   0.754
 6791SOL     OW21271   2.877   6.396   4.037
 6791SOL    HW121272   2.953   6.382   4.101
 6791SOL    HW221273   2.794   6.355   4.076
 6792SOL     OW21274   3.363   5.944   6.669
 6792SOL    HW121275   3.288   5.933   6.603
 6792SOL    HW221276   3.326   5.943   6.762
 6793SOL     OW21277   2.868   4.202   6.553
 6793SOL    HW121278   2.959   4.190   6.593
 6793SOL    HW221279   2.826   4.113   6.537
 6794SOL     OW21280   5.069   2.647   4.469
 6794SOL    HW121281   5.132   2.616   4.541
 6794SOL    HW221282   5.117   2.709   4.408
 6795SOL     OW21283   0.806   0.904   1.924
 6795SOL    HW121284   0.828   0.812   1.956
 6795SOL    HW221285   0.781   0.900   1.828
 6796SOL     OW21286   6.747   2.627   2.555
 6796SOL    HW121287   6.777   2.708   2.505
 6796SOL    HW221288   6.710   2.654   2.644
 6797SOL     OW21289   1.925   3.676   1.117
 6797SOL    HW121290   1.941   3.726   1.032
 6797SOL    HW221291   1.882   3.588   1.096
 6798SOL     OW21292   4.609   0.778   1.981
 6798SOL    HW121293   4.517   0.739   1.971
 6798SOL    HW221294   4.609   0.846   2.054
 6799SOL     OW21295   5.808   6.691   2.896
 6799SOL    HW121296   5.855   6.643   2.821
 6799SOL    HW221297   5.759   6.770   2.859
 6800SOL     OW21298   6.797   2.862   2.361
 6800SOL    HW121299   6.890   2.900   2.358
 6800SOL    HW221300   6.731   2.936   2.376
 6801SOL     OW21301   1.711   5.189   5.176
 6801SOL    HW121302   1.726   5.105   5.123
 6801SOL    HW221303   1.692   5.265   5.114
 6802SOL     OW21304   2.666   4.365   1.687
 6802SOL    HW121305   2.671   4.265   1.697
 6802SOL    HW221306   2.718   4.408   1.761
 6803SOL     OW21307   5.693   5.383   6.838
 6803SOL    HW121308   5.719   5.479   6.831
 6803SOL    HW221309   5.700   5.353   6.934
 6804SOL     OW21310   3.172   5.268   2.135
 6804SOL    HW121311   3.269   5.254   2.152
 6804SOL    HW221312   3.157   5.359   2.097
 6805SOL     OW21313   0.441   4.886   3.555
 6805SOL    HW121314   0.350   4.920   3.579
 6805SOL    HW221315   0.485   4.849   3.637
 6806SOL     OW21316   5.881   3.818   2.282
 6806SOL    HW121317   5.838   3.731   2.307
 6806SOL    HW221318   5.839   3.892   2.334
 6807SOL     OW21319   3.013   3.490   2.694
 6807SOL    HW121320   3.000   3.411   2.755
 6807SOL    HW221321   3.004   3.460   2.599
 6808SOL     OW21322   3.508   6.956   3.225
 6808SOL    HW121323   3.433   6.896   3.199
 6808SOL    HW221324   3.474   0.004   3.283
 6809SOL     OW21325   5.905   2.525   0.968
 6809SOL    HW121326   5.940   2.440   0.929
 6809SOL    HW221327   5.979   2.572   1.016
 6810SOL     OW21328   2.912   0.249   4.324
 6810SOL    HW121329   2.905   0.266   4.225
 6810SOL    HW221330   2.820   0.240   4.362
 6811SOL     OW21331   6.696   1.222   1.017
 6811SOL    HW121332   6.696   1.256   0.923
 6811SOL    HW221333   6.733   1.293   1.078
 6812SOL     OW21334   3.226   4.368   5.453
 6812SOL    HW121335   3.235   4.342   5.357
 6812SOL    HW221336   3.280   4.451   5.470
 6813SOL     OW21337   0.403   3.824   1.881
 6813SOL    HW121338   0.447   3.738   1.905
 6813SOL    HW221339   0.382   3.826   1.783
 6814SOL     OW21340   4.900   1.878   1.781
 6814SOL    HW121341   4.821   1.916   1.828
 6814SOL    HW221342   4.872   1.797   1.730
 6815SOL     OW21343   0.487   6.255   0.032
 6815SOL    HW121344   0.480   6.179   6.994
 6815SOL    HW221345   0.486   6.221   0.126
 6816SOL     OW21346   6.494   0.064   4.137
 6816SOL    HW121347   6.522   6.995   4.151
 6816SOL    HW221348   6.563   0.125   4.176
 6817SOL     OW21349   5.128   1.057   1.823
 6817SOL    HW121350   5.218   1.092   1.796
 6817SOL    HW221351   5.113   1.075   1.921
 6818SOL     OW21352   0.306   0.458   5.413
 6818SOL    HW121353   0.280   0.493   5.503
 6818SOL    HW221354   0.383   0.394   5.424
 6819SOL     OW21355   5.341   4.087   1.048
 6819SOL    HW121356   5.421   4.058   1.100
 6819SOL    HW221357   5.315   4.180   1.075
 6820SOL     OW21358   2.448   4.098   1.280
 6820SOL    HW121359   2.457   4.111   1.181
 6820SOL    HW221360   2.527   4.137   1.326
 6821SOL     OW21361   3.186   2.882   5.907
 6821SOL    HW121362   3.103   2.837   5.875
 6821SOL    HW221363   3.265   2.843   5.860
 6822SOL     OW21364   6.577   3.845   5.183
 6822SOL    HW121365   6.527   3.834   5.269
 6822SOL    HW221366   6.577   3.942   5.157
 6823SOL     OW21367   6.500   3.087   5.649
 6823SOL    HW121368   6.489   3.172   5.598
 6823SOL    HW221369   6.567   3.029   5.603
 6824SOL     OW21370   1.021   0.837   3.933
 6824SOL    HW121371   1.005   0.849   3.835
 6824SOL    HW221372   0.960   0.766   3.968
 6825SOL     OW21373   4.618   4.388   1.160
 6825SOL    HW121374   4.582   4.296   1.142
 6825SOL    HW221375   4.587   4.451   1.088
 6826SOL     OW21376   5.727   0.991   3.713
 6826SOL    HW121377   5.657   0.923   3.689
 6826SOL    HW221378   5.694   1.082   3.687
 6827SOL     OW21379   5.097   5.789   5.756
 6827SOL    HW121380   5.119   5.879   5.718
 6827SOL    HW221381   5.028   5.744   5.700
 6828SOL     OW21382   2.765   2.328   2.446
 6828SOL    HW121383   2.731   2.245   2.491
 6828SOL    HW221384   2.830   2.374   2.507
 6829SOL     OW21385   5.479   6.361   4.299
 6829SOL    HW121386   5.484   6.262   4.315
 6829SOL    HW221387   5.395   6.382   4.248
 6830SOL     OW21388   4.164   6.038   2.281
 6830SOL    HW121389   4.205   5.953   2.312
 6830SOL    HW221390   4.235   6.097   2.243
 6831SOL     OW21391   1.761   0.964   6.885
 6831SOL    HW121392   1.811   0.994   6.804
 6831SOL    HW221393   1.788   1.022   6.963
 6832SOL     OW21394   2.841   3.277   0.033
 6832SOL    HW121395   2.886   3.365   0.053
 6832SOL    HW221396   2.852   3.216   0.111
 6833SOL     OW21397   4.616   5.171   6.744
 6833SOL    HW121398   4.517   5.185   6.750
 6833SOL    HW221399   4.635   5.078   6.713
 6834SOL     OW21400   5.659   5.818   5.357
 6834SOL    HW121401   5.676   5.890   5.290
 6834SOL    HW221402   5.713   5.836   5.439
 6835SOL     OW21403   3.810   0.399   3.120
 6835SOL    HW121404   3.888   0.359   3.167
 6835SOL    HW221405   3.743   0.431   3.187
 6836SOL     OW21406   0.582   4.245   6.904
 6836SOL    HW121407   0.521   4.167   6.888
 6836SOL    HW221408   0.637   4.228   6.986
 6837SOL     OW21409   6.295   1.686   1.557
 6837SOL    HW121410   6.228   1.711   1.487
 6837SOL    HW221411   6.378   1.652   1.514
 6838SOL     OW21412   2.812   4.116   5.753
 6838SOL    HW121413   2.748   4.116   5.829
 6838SOL    HW221414   2.905   4.110   5.787
 6839SOL     OW21415   5.970   2.763   5.617
 6839SOL    HW121416   5.899   2.755   5.548
 6839SOL    HW221417   6.059   2.742   5.577
 6840SOL     OW21418   3.648   6.628   4.622
 6840SOL    HW121419   3.745   6.623   4.645
 6840SOL    HW221420   3.595   6.573   4.687
 6841SOL     OW21421   4.379   6.942   0.367
 6841SOL    HW121422   4.389   7.024   0.423
 6841SOL    HW221423   4.340   6.868   0.422
 6842SOL     OW21424   0.883   3.199   3.214
 6842SOL    HW121425   0.810   3.249   3.168
 6842SOL    HW221426   0.939   3.262   3.268
 6843SOL     OW21427   4.817   2.899   2.233
 6843SOL    HW121428   4.813   2.954   2.150
 6843SOL    HW221429   4.739   2.836   2.236
 6844SOL     OW21430   3.741   6.953   4.961
 6844SOL    HW121431   3.777   6.953   4.867
 6844SOL    HW221432   3.641   6.944   4.958
 6845SOL     OW21433   4.117   3.994   6.991
 6845SOL    HW121434   4.087   3.983   0.061
 6845SOL    HW221435   4.068   4.071   6.950
 6846SOL     OW21436   4.076   3.770   3.382
 6846SOL    HW121437   4.040   3.861   3.405
 6846SOL    HW221438   4.060   3.708   3.459
 6847SOL     OW21439   5.863   2.688   2.348
 6847SOL    HW121440   5.902   2.671   2.438
 6847SOL    HW221441   5.867   2.786   2.328
 6848SOL     OW21442   0.966   6.091   4.887
 6848SOL    HW121443   0.921   6.177   4.862
 6848SOL    HW221444   1.038   6.072   4.820
 6849SOL     OW21445   3.243   0.497   5.139
 6849SOL    HW121446   3.212   0.479   5.233
 6849SOL    HW221447   3.163   0.516   5.081
 6850SOL     OW21448   6.380   3.676   1.451
 6850SOL    HW121449   6.477   3.685   1.474
 6850SOL    HW221450   6.338   3.766   1.443
 6851SOL     OW21451   1.194   5.972   6.390
 6851SOL    HW121452   1.230   6.039   6.456
 6851SOL    HW221453   1.257   5.894   6.386
 6852SOL     OW21454   6.404   5.153   2.057
 6852SOL    HW121455   6.317   5.168   2.010
 6852SOL    HW221456   6.416   5.055   2.074
 6853SOL     OW21457   6.065   4.492   4.447
 6853SOL    HW121458   6.080   4.573   4.504
 6853SOL    HW221459   5.972   4.494   4.410
 6854SOL     OW21460   6.479   1.857   6.665
 6854SOL    HW121461   6.444   1.827   6.754
 6854SOL    HW221462   6.489   1.778   6.605
 6855SOL     OW21463   3.166   6.433   2.589
 6855SOL    HW121464   3.150   6.414   2.492
 6855SOL    HW221465   3.198   6.349   2.634
 6856SOL     OW21466   0.596   5.534   5.589
 6856SOL    HW121467   0.614   5.454   5.532
 6856SOL    HW221468   0.602   5.508   5.685
 6857SOL     OW21469   4.690   1.365   0.031
 6857SOL    HW121470   4.634   1.440   7.021
 6857SOL    HW221471   4.732   1.316   6.981
 6858SOL     OW21472   3.677   3.239   6.686
 6858SOL    HW121473   3.580   3.222   6.669
 6858SOL    HW221474   3.732   3.181   6.625
 6859SOL     OW21475   3.677   0.803   0.583
 6859SOL    HW121476   3.610   0.829   0.653
 6859SOL    HW221477   3.629   0.767   0.503
 6860SOL     OW21478   4.670   3.797   0.069
 6860SOL    HW121479   4.661   3.891   0.036
 6860SOL    HW221480   4.591   3.773   0.125
 6861SOL     OW21481   5.720   3.799   0.822
 6861SOL    HW121482   5.803   3.795   0.878
 6861SOL    HW221483   5.683   3.892   0.823
 6862SOL     OW21484   3.067   5.396   4.142
 6862SOL    HW121485   3.051   5.481   4.194
 6862SOL    HW221486   3.041   5.318   4.198
 6863SOL     OW21487   1.300   3.064   3.316
 6863SOL    HW121488   1.257   2.973   3.316
 6863SOL    HW221489   1.248   3.125   3.255
 6864SOL     OW21490   3.793   5.693   6.629
 6864SOL    HW121491   3.824   5.707   6.723
 6864SOL    HW221492   3.865   5.721   6.565
 6865SOL     OW21493   0.093   3.590   4.494
 6865SOL    HW121494   0.040   3.506   4.486
 6865SOL    HW221495   0.080   3.646   4.412
 6866SOL     OW21496   1.079   3.283   2.377
 6866SOL    HW121497   1.163   3.319   2.336
 6866SOL    HW221498   1.036   3.354   2.433
 6867SOL     OW21499   2.329   5.045   2.904
 6867SOL    HW121500   2.263   4.976   2.934
 6867SOL    HW221501   2.388   5.006   2.833
 6868SOL     OW21502   2.244   5.506   4.686
 6868SOL    HW121503   2.197   5.559   4.757
 6868SOL    HW221504   2.249   5.561   4.602
 6869SOL     OW21505   0.048   3.480   5.296
 6869SOL    HW121506   0.123   3.417   5.277
 6869SOL    HW221507   6.988   3.429   5.299
 6870SOL     OW21508   5.948   3.549   2.523
 6870SOL    HW121509   6.009   3.614   2.476
 6870SOL    HW221510   5.905   3.489   2.455
 6871SOL     OW21511   4.918   6.205   1.725
 6871SOL    HW121512   4.912   6.190   1.824
 6871SOL    HW221513   4.995   6.152   1.688
 6872SOL     OW21514   3.660   4.002   0.380
 6872SOL    HW121515   3.650   4.090   0.332
 6872SOL    HW221516   3.685   4.018   0.475
 6873SOL     OW21517   5.716   4.658   4.628
 6873SOL    HW121518   5.804   4.651   4.674
 6873SOL    HW221519   5.720   4.609   4.541
 6874SOL     OW21520   0.955   2.004   5.778
 6874SOL    HW121521   0.982   2.065   5.703
 6874SOL    HW221522   1.037   1.966   5.820
 6875SOL     OW21523   4.283   1.411   4.251
 6875SOL    HW121524   4.311   1.353   4.175
 6875SOL    HW221525   4.193   1.451   4.231
 6876SOL     OW21526   3.428   5.970   4.771
 6876SOL    HW121527   3.511   5.936   4.815
 6876SOL    HW221528   3.404   5.910   4.694
 6877SOL     OW21529   1.727   3.533   5.837
 6877SOL    HW121530   1.785   3.614   5.827
 6877SOL    HW221531   1.776   3.462   5.886
 6878SOL     OW21532   1.369   1.808   4.235
 6878SOL    HW121533   1.444   1.820   4.170
 6878SOL    HW221534   1.338   1.897   4.267
 6879SOL     OW21535   0.109   1.048   5.698
 6879SOL    HW121536   0.180   1.117   5.716
 6879SOL    HW221537   0.152   0.961   5.675
 6880SOL     OW21538   2.062   3.796   4.333
 6880SOL    HW121539   2.108   3.882   4.314
 6880SOL    HW221540   2.032   3.795   4.429
 6881SOL     OW21541   5.816   6.102   1.452
 6881SOL    HW121542   5.751   6.036   1.414
 6881SOL    HW221543   5.863   6.060   1.531
 6882SOL     OW21544   2.391   6.126   5.382
 6882SOL    HW121545   2.328   6.185   5.432
 6882SOL    HW221546   2.383   6.143   5.284
 6883SOL     OW21547   3.069   6.094   1.995
 6883SOL    HW121548   3.124   6.012   1.982
 6883SOL    HW221549   3.088   6.159   1.921
 6884SOL     OW21550   2.162   5.095   2.615
 6884SOL    HW121551   2.118   5.141   2.538
 6884SOL    HW221552   2.189   5.003   2.587
 6885SOL     OW21553   4.065   5.328   4.690
 6885SOL    HW121554   4.164   5.328   4.704
 6885SOL    HW221555   4.033   5.233   4.682
 6886SOL     OW21556   5.258   1.198   2.392
 6886SOL    HW121557   5.240   1.135   2.467
 6886SOL    HW221558   5.318   1.154   2.325
 6887SOL     OW21559   5.467   0.739   5.488
 6887SOL    HW121560   5.543   0.743   5.423
 6887SOL    HW221561   5.501   0.708   5.577
 6888SOL     OW21562   6.229   6.795   4.503
 6888SOL    HW121563   6.264   6.703   4.486
 6888SOL    HW221564   6.217   6.842   4.416
 6889SOL     OW21565   1.590   4.717   5.701
 6889SOL    HW121566   1.538   4.662   5.766
 6889SOL    HW221567   1.647   4.783   5.750
 6890SOL     OW21568   2.016   0.476   0.977
 6890SOL    HW121569   1.928   0.465   0.932
 6890SOL    HW221570   2.017   0.424   1.062
 6891SOL     OW21571   3.112   5.214   5.492
 6891SOL    HW121572   3.072   5.192   5.403
 6891SOL    HW221573   3.194   5.157   5.506
 6892SOL     OW21574   3.348   1.269   4.691
 6892SOL    HW121575   3.438   1.286   4.652
 6892SOL    HW221576   3.291   1.222   4.624
 6893SOL     OW21577   5.571   0.757   1.648
 6893SOL    HW121578   5.548   0.699   1.570
 6893SOL    HW221579   5.528   0.846   1.637
 6894SOL     OW21580   6.004   4.798   6.608
 6894SOL    HW121581   6.032   4.865   6.540
 6894SOL    HW221582   5.904   4.797   6.616
 6895SOL     OW21583   3.994   5.820   6.475
 6895SOL    HW121584   3.986   5.916   6.448
 6895SOL    HW221585   4.090   5.793   6.474
 6896SOL     OW21586   4.681   0.905   2.595
 6896SOL    HW121587   4.703   0.809   2.581
 6896SOL    HW221588   4.745   0.945   2.660
 6897SOL     OW21589   3.729   0.660   0.957
 6897SOL    HW121590   3.632   0.652   0.932
 6897SOL    HW221591   3.785   0.642   0.876
 6898SOL     OW21592   3.806   1.139   2.679
 6898SOL    HW121593   3.872   1.213   2.687
 6898SOL    HW221594   3.784   1.102   2.769
 6899SOL     OW21595   6.005   6.153   6.545
 6899SOL    HW121596   6.090   6.124   6.590
 6899SOL    HW221597   6.026   6.216   6.471
 6900SOL     OW21598   4.535   1.566   6.649
 6900SOL    HW121599   4.493   1.478   6.629
 6900SOL    HW221600   4.463   1.635   6.663
 6901SOL     OW21601   1.511   0.991   0.177
 6901SOL    HW121602   1.573   0.918   0.206
 6901SOL    HW221603   1.417   0.958   0.183
 6902SOL     OW21604   6.346   5.867   2.418
 6902SOL    HW121605   6.431   5.818   2.440
 6902SOL    HW221606   6.363   5.930   2.342
 6903SOL     OW21607   4.754   4.576   0.299
 6903SOL    HW121608   4.726   4.488   0.336
 6903SOL    HW221609   4.842   4.603   0.340
 6904SOL     OW21610   0.617   1.283   2.873
 6904SOL    HW121611   0.655   1.246   2.958
 6904SOL    HW221612   0.575   1.209   2.820
 6905SOL     OW21613   3.920   5.676   1.350
 6905SOL    HW121614   3.954   5.733   1.275
 6905SOL    HW221615   3.922   5.728   1.435
 6906SOL     OW21616   6.197   6.532   3.230
 6906SOL    HW121617   6.143   6.490   3.157
 6906SOL    HW221618   6.136   6.558   3.305
 6907SOL     OW21619   3.503   0.877   1.505
 6907SOL    HW121620   3.472   0.798   1.557
 6907SOL    HW221621   3.474   0.961   1.551
 6908SOL     OW21622   5.941   6.999   6.821
 6908SOL    HW121623   5.871   6.932   6.799
 6908SOL    HW221624   6.012   6.998   6.751
 6909SOL     OW21625   2.373   2.635   6.812
 6909SOL    HW121626   2.465   2.643   6.772
 6909SOL    HW221627   2.370   2.554   6.871
 6910SOL     OW21628   5.426   1.019   1.672
 6910SOL    HW121629   5.402   0.971   1.757
 6910SOL    HW221630   5.362   1.094   1.658
 6911SOL     OW21631   4.215   0.704   5.056
 6911SOL    HW121632   4.308   0.734   5.037
 6911SOL    HW221633   4.184   0.744   5.142
 6912SOL     OW21634   4.361   4.696   1.796
 6912SOL    HW121635   4.408   4.662   1.878
 6912SOL    HW221636   4.290   4.632   1.769
 6913SOL     OW21637   4.684   5.731   5.605
 6913SOL    HW121638   4.768   5.678   5.621
 6913SOL    HW221639   4.633   5.738   5.690
 6914SOL     OW21640   6.012   5.263   6.998
 6914SOL    HW121641   6.037   5.187   6.938
 6914SOL    HW221642   6.025   5.349   6.950
 6915SOL     OW21643   0.952   5.548   0.923
 6915SOL    HW121644   0.914   5.546   1.015
 6915SOL    HW221645   0.894   5.605   0.864
 6916SOL     OW21646   6.177   0.340   5.758
 6916SOL    HW121647   6.123   0.288   5.692
 6916SOL    HW221648   6.200   0.429   5.719
 6917SOL     OW21649   4.546   0.222   6.857
 6917SOL    HW121650   4.628   0.275   6.880
 6917SOL    HW221651   4.545   0.204   6.758
 6918SOL     OW21652   2.214   2.996   3.744
 6918SOL    HW121653   2.258   2.998   3.654
 6918SOL    HW221654   2.137   3.061   3.745
 6919SOL     OW21655   0.646   6.390   3.828
 6919SOL    HW121656   0.572   6.417   3.889
 6919SOL    HW221657   0.646   6.291   3.817
 6920SOL     OW21658   5.108   5.974   4.448
 6920SOL    HW121659   5.090   6.006   4.355
 6920SOL    HW221660   5.191   6.017   4.483
 6921SOL     OW21661   1.134   5.955   3.953
 6921SOL    HW121662   1.139   5.883   4.022
 6921SOL    HW221663   1.226   5.978   3.922
 6922SOL     OW21664   1.833   6.600   0.734
 6922SOL    HW121665   1.745   6.634   0.702
 6922SOL    HW221666   1.818   6.541   0.814
 6923SOL     OW21667   5.106   6.023   4.182
 6923SOL    HW121668   5.180   5.985   4.127
 6923SOL    HW221669   5.092   6.119   4.158
 6924SOL     OW21670   6.799   5.959   1.516
 6924SOL    HW121671   6.868   5.993   1.580
 6924SOL    HW221672   6.829   5.872   1.478
 6925SOL     OW21673   5.834   5.640   2.923
 6925SOL    HW121674   5.902   5.623   2.995
 6925SOL    HW221675   5.878   5.636   2.834
 6926SOL     OW21676   2.654   4.515   5.498
 6926SOL    HW121677   2.706   4.585   5.449
 6926SOL    HW221678   2.706   4.484   5.577
 6927SOL     OW21679   4.283   3.638   0.965
 6927SOL    HW121680   4.226   3.562   0.995
 6927SOL    HW221681   4.335   3.674   1.042
 6928SOL     OW21682   6.732   0.483   6.294
 6928SOL    HW121683   6.640   0.462   6.263
 6928SOL    HW221684   6.765   0.409   6.353
 6929SOL     OW21685   2.841   4.887   1.562
 6929SOL    HW121686   2.873   4.825   1.634
 6929SOL    HW221687   2.909   4.958   1.546
 6930SOL     OW21688   0.937   0.523   2.964
 6930SOL    HW121689   0.926   0.439   3.017
 6930SOL    HW221690   1.018   0.515   2.906
 6931SOL     OW21691   2.023   0.209   0.286
 6931SOL    HW121692   2.056   0.163   0.368
 6931SOL    HW221693   2.095   0.210   0.217
 6932SOL     OW21694   2.428   2.470   0.023
 6932SOL    HW121695   2.498   2.407   0.057
 6932SOL    HW221696   2.422   2.549   0.084
 6933SOL     OW21697   2.434   5.846   5.750
 6933SOL    HW121698   2.513   5.908   5.753
 6933SOL    HW221699   2.404   5.835   5.656
 6934SOL     OW21700   5.705   5.127   6.378
 6934SOL    HW121701   5.672   5.160   6.467
 6934SOL    HW221702   5.736   5.205   6.324
 6935SOL     OW21703   4.314   5.674   3.567
 6935SOL    HW121704   4.385   5.636   3.625
 6935SOL    HW221705   4.339   5.767   3.541
 6936SOL     OW21706   0.881   4.659   0.781
 6936SOL    HW121707   0.788   4.694   0.770
 6936SOL    HW221708   0.882   4.589   0.854
 6937SOL     OW21709   4.354   6.331   5.473
 6937SOL    HW121710   4.307   6.291   5.551
 6937SOL    HW221711   4.440   6.283   5.456
 6938SOL     OW21712   5.641   2.418   5.199
 6938SOL    HW121713   5.662   2.403   5.295
 6938SOL    HW221714   5.687   2.501   5.167
 6939SOL     OW21715   0.096   4.665   1.798
 6939SOL    HW121716   0.004   4.635   1.820
 6939SOL    HW221717   0.163   4.607   1.845
 6940SOL     OW21718   4.286   0.385   4.758
 6940SOL    HW121719   4.299   0.423   4.667
 6940SOL    HW221720   4.371   0.343   4.790
 6941SOL     OW21721   4.123   3.495   4.440
 6941SOL    HW121722   4.133   3.454   4.530
 6941SOL    HW221723   4.051   3.447   4.389
 6942SOL     OW21724   6.441   1.737   6.921
 6942SOL    HW121725   6.509   1.664   6.919
 6942SOL    HW221726   6.444   1.783   7.010
 6943SOL     OW21727   6.486   5.936   0.028
 6943SOL    HW121728   6.471   6.034   0.039
 6943SOL    HW221729   6.503   5.916   6.957
 6944SOL     OW21730   1.476   6.315   6.937
 6944SOL    HW121731   1.466   6.325   0.011
 6944SOL    HW221732   1.478   6.218   6.914
 6945SOL     OW21733   4.615   2.050   5.727
 6945SOL    HW121734   4.634   2.147   5.739
 6945SOL    HW221735   4.666   1.997   5.794
 6946SOL     OW21736   5.843   3.473   3.542
 6946SOL    HW121737   5.871   3.447   3.450
 6946SOL    HW221738   5.840   3.391   3.600
 6947SOL     OW21739   3.342   6.966   1.728
 6947SOL    HW121740   3.434   6.991   1.756
 6947SOL    HW221741   3.320   6.875   1.761
 6948SOL     OW21742   3.863   2.278   5.387
 6948SOL    HW121743   3.823   2.253   5.299
 6948SOL    HW221744   3.880   2.376   5.389
 6949SOL     OW21745   4.500   1.016   2.412
 6949SOL    HW121746   4.585   0.983   2.453
 6949SOL    HW221747   4.493   1.115   2.424
 6950SOL     OW21748   2.941   1.854   3.621
 6950SOL    HW121749   2.991   1.884   3.702
 6950SOL    HW221750   2.971   1.907   3.542
 6951SOL     OW21751   4.809   5.103   5.163
 6951SOL    HW121752   4.732   5.081   5.102
 6951SOL    HW221753   4.870   5.024   5.168
 6952SOL     OW21754   0.236   5.075   5.138
 6952SOL    HW121755   0.214   4.977   5.147
 6952SOL    HW221756   0.195   5.110   5.054
 6953SOL     OW21757   5.346   2.726   5.293
 6953SOL    HW121758   5.300   2.698   5.377
 6953SOL    HW221759   5.368   2.645   5.238
 6954SOL     OW21760   0.687   4.464   2.301
 6954SOL    HW121761   0.598   4.509   2.300
 6954SOL    HW221762   0.735   4.485   2.387
 6955SOL     OW21763   6.922   7.006   2.909
 6955SOL    HW121764   6.835   6.960   2.926
 6955SOL    HW221765   6.904   0.064   2.857
 6956SOL     OW21766   2.400   4.402   1.070
 6956SOL    HW121767   2.415   4.499   1.048
 6956SOL    HW221768   2.487   4.354   1.070
 6957SOL     OW21769   0.960   3.769   6.657
 6957SOL    HW121770   1.030   3.704   6.686
 6957SOL    HW221771   0.969   3.853   6.711
 6958SOL     OW21772   2.453   3.509   6.336
 6958SOL    HW121773   2.356   3.531   6.342
 6958SOL    HW221774   2.504   3.592   6.314
 6959SOL     OW21775   3.717   1.320   3.631
 6959SOL    HW121776   3.773   1.248   3.590
 6959SOL    HW221777   3.644   1.345   3.568
 6960SOL     OW21778   0.697   4.623   0.114
 6960SOL    HW121779   0.703   4.723   0.111
 6960SOL    HW221780   0.676   4.588   0.023
 6961SOL     OW21781   6.626   1.294   3.152
 6961SOL    HW121782   6.681   1.271   3.071
 6961SOL    HW221783   6.534   1.256   3.141
 6962SOL     OW21784   3.956   3.521   0.934
 6962SOL    HW121785   3.857   3.506   0.939
 6962SOL    HW221786   3.975   3.619   0.936
 6963SOL     OW21787   6.276   6.189   2.443
 6963SOL    HW121788   6.201   6.204   2.378
 6963SOL    HW221789   6.240   6.149   2.527
 6964SOL     OW21790   3.428   5.598   5.441
 6964SOL    HW121791   3.446   5.568   5.348
 6964SOL    HW221792   3.431   5.698   5.445
 6965SOL     OW21793   6.262   2.050   5.815
 6965SOL    HW121794   6.302   1.958   5.813
 6965SOL    HW221795   6.191   2.057   5.745
 6966SOL     OW21796   5.330   2.733   4.122
 6966SOL    HW121797   5.299   2.796   4.194
 6966SOL    HW221798   5.383   2.784   4.054
 6967SOL     OW21799   2.452   2.135   6.057
 6967SOL    HW121800   2.541   2.178   6.042
 6967SOL    HW221801   2.380   2.199   6.033
 6968SOL     OW21802   4.254   0.049   3.810
 6968SOL    HW121803   4.163   0.018   3.782
 6968SOL    HW221804   4.306   0.075   3.728
 6969SOL     OW21805   2.895   2.580   0.995
 6969SOL    HW121806   2.974   2.537   0.952
 6969SOL    HW221807   2.834   2.617   0.924
 6970SOL     OW21808   4.585   4.368   0.571
 6970SOL    HW121809   4.514   4.391   0.637
 6970SOL    HW221810   4.675   4.385   0.612
 6971SOL     OW21811   5.893   1.178   1.909
 6971SOL    HW121812   5.964   1.229   1.957
 6971SOL    HW221813   5.873   1.094   1.958
 6972SOL     OW21814   5.699   5.279   4.554
 6972SOL    HW121815   5.685   5.279   4.455
 6972SOL    HW221816   5.635   5.215   4.597
 6973SOL     OW21817   1.986   4.011   3.149
 6973SOL    HW121818   2.059   3.992   3.215
 6973SOL    HW221819   1.901   3.970   3.181
 6974SOL     OW21820   3.344   4.053   4.926
 6974SOL    HW121821   3.309   4.129   4.871
 6974SOL    HW221822   3.285   3.973   4.913
 6975SOL     OW21823   2.898   0.409   5.625
 6975SOL    HW121824   2.907   0.497   5.672
 6975SOL    HW221825   2.979   0.353   5.644
 6976SOL     OW21826   1.273   6.560   0.439
 6976SOL    HW121827   1.207   6.538   0.368
 6976SOL    HW221828   1.225   6.586   0.523
 6977SOL     OW21829   4.881   2.739   2.436
 6977SOL    HW121830   4.877   2.796   2.355
 6977SOL    HW221831   4.922   2.791   2.511
 6978SOL     OW21832   4.564   1.586   3.069
 6978SOL    HW121833   4.485   1.647   3.072
 6978SOL    HW221834   4.539   1.501   3.023
 6979SOL     OW21835   0.199   4.857   3.794
 6979SOL    HW121836   0.145   4.778   3.766
 6979SOL    HW221837   0.141   4.921   3.844
 6980SOL     OW21838   4.431   0.920   4.521
 6980SOL    HW121839   4.406   0.866   4.602
 6980SOL    HW221840   4.528   0.907   4.502
 6981SOL     OW21841   3.225   4.129   0.113
 6981SOL    HW121842   3.141   4.076   0.123
 6981SOL    HW221843   3.300   4.067   0.088
 6982SOL     OW21844   0.800   0.110   4.527
 6982SOL    HW121845   0.767   0.164   4.604
 6982SOL    HW221846   0.821   0.017   4.557
 6983SOL     OW21847   6.879   0.346   2.979
 6983SOL    HW121848   6.960   0.379   3.029
 6983SOL    HW221849   6.906   0.320   2.886
 6984SOL     OW21850   2.140   0.891   5.559
 6984SOL    HW121851   2.043   0.896   5.585
 6984SOL    HW221852   2.148   0.854   5.467
 6985SOL     OW21853   5.430   6.817   3.766
 6985SOL    HW121854   5.438   6.755   3.844
 6985SOL    HW221855   5.342   6.865   3.770
 6986SOL     OW21856   1.597   0.064   4.967
 6986SOL    HW121857   1.617   6.997   4.997
 6986SOL    HW221858   1.680   0.120   4.976
 6987SOL     OW21859   6.395   3.448   6.347
 6987SOL    HW121860   6.304   3.472   6.382
 6987SOL    HW221861   6.426   3.364   6.390
 6988SOL     OW21862   5.502   1.381   5.957
 6988SOL    HW121863   5.451   1.462   5.930
 6988SOL    HW221864   5.440   1.305   5.971
 6989SOL     OW21865   2.102   3.269   3.611
 6989SOL    HW121866   2.058   3.307   3.692
 6989SOL    HW221867   2.142   3.342   3.556
 6990SOL     OW21868   4.125   3.443   1.130
 6990SOL    HW121869   4.067   3.442   1.048
 6990SOL    HW221870   4.193   3.370   1.124
 6991SOL     OW21871   4.588   4.654   5.343
 6991SOL    HW121872   4.557   4.749   5.352
 6991SOL    HW221873   4.552   4.601   5.419
 6992SOL     OW21874   6.440   6.689   4.767
 6992SOL    HW121875   6.359   6.633   4.753
 6992SOL    HW221876   6.463   6.737   4.682
 6993SOL     OW21877   0.046   6.425   3.662
 6993SOL    HW121878   0.000   6.336   3.663
 6993SOL    HW221879   0.106   6.431   3.582
 6994SOL     OW21880   1.048   3.113   0.389
 6994SOL    HW121881   1.131   3.131   0.337
 6994SOL    HW221882   1.002   3.032   0.353
 6995SOL     OW21883   1.440   5.383   3.724
 6995SOL    HW121884   1.517   5.427   3.678
 6995SOL    HW221885   1.410   5.303   3.671
 6996SOL     OW21886   1.890   0.041   6.379
 6996SOL    HW121887   1.854   0.059   6.287
 6996SOL    HW221888   1.868   6.973   6.405
 6997SOL     OW21889   4.666   6.203   4.237
 6997SOL    HW121890   4.755   6.248   4.232
 6997SOL    HW221891   4.677   6.109   4.270
 6998SOL     OW21892   2.515   1.834   3.142
 6998SOL    HW121893   2.558   1.852   3.054
 6998SOL    HW221894   2.478   1.741   3.143
 6999SOL     OW21895   5.324   2.254   0.072
 6999SOL    HW121896   5.365   2.168   0.042
 6999SOL    HW221897   5.266   2.237   0.152
 7000SOL     OW21898   6.752   0.385   1.480
 7000SOL    HW121899   6.820   0.431   1.423
 7000SOL    HW221900   6.772   0.403   1.577
 7001SOL     OW21901   2.630   1.458   5.613
 7001SOL    HW121902   2.597   1.373   5.573
 7001SOL    HW221903   2.567   1.533   5.590
 7002SOL     OW21904   2.037   4.253   2.046
 7002SOL    HW121905   2.110   4.253   1.977
 7002SOL    HW221906   2.062   4.191   2.120
 7003SOL     OW21907   1.690   6.216   5.892
 7003SOL    HW121908   1.725   6.124   5.874
 7003SOL    HW221909   1.590   6.214   5.894
 7004SOL     OW21910   1.236   4.197   6.711
 7004SOL    HW121911   1.138   4.192   6.692
 7004SOL    HW221912   1.268   4.291   6.700
 7005SOL     OW21913   6.218   6.933   6.047
 7005SOL    HW121914   6.242   7.014   6.101
 7005SOL    HW221915   6.197   6.961   5.953
 7006SOL     OW21916   4.554   4.848   4.021
 7006SOL    HW121917   4.552   4.802   4.110
 7006SOL    HW221918   4.471   4.826   3.969
 7007SOL     OW21919   4.954   5.021   2.760
 7007SOL    HW121920   4.902   4.958   2.817
 7007SOL    HW221921   4.963   4.983   2.668
 7008SOL     OW21922   1.139   4.683   4.955
 7008SOL    HW121923   1.104   4.620   4.886
 7008SOL    HW221924   1.199   4.634   5.018
 7009SOL     OW21925   0.554   4.250   2.765
 7009SOL    HW121926   0.575   4.153   2.765
 7009SOL    HW221927   0.473   4.267   2.709
 7010SOL     OW21928   4.724   4.716   6.678
 7010SOL    HW121929   4.745   4.804   6.633
 7010SOL    HW221930   4.768   4.642   6.627
 7011SOL     OW21931   1.168   1.228   5.617
 7011SOL    HW121932   1.106   1.191   5.547
 7011SOL    HW221933   1.135   1.204   5.708
 7012SOL     OW21934   1.399   1.845   1.617
 7012SOL    HW121935   1.482   1.826   1.670
 7012SOL    HW221936   1.352   1.924   1.656
 7013SOL     OW21937   0.024   1.545   1.334
 7013SOL    HW121938   0.100   1.494   1.373
 7013SOL    HW221939   7.022   1.617   1.397
 7014SOL     OW21940   2.168   5.026   0.614
 7014SOL    HW121941   2.134   4.941   0.575
 7014SOL    HW221942   2.095   5.069   0.668
 7015SOL     OW21943   5.206   1.765   2.659
 7015SOL    HW121944   5.166   1.697   2.597
 7015SOL    HW221945   5.244   1.841   2.606
 7016SOL     OW21946   4.146   4.544   1.675
 7016SOL    HW121947   4.110   4.453   1.697
 7016SOL    HW221948   4.129   4.564   1.579
 7017SOL     OW21949   4.689   2.133   4.724
 7017SOL    HW121950   4.591   2.138   4.702
 7017SOL    HW221951   4.741   2.115   4.640
 7018SOL     OW21952   0.466   3.381   3.256
 7018SOL    HW121953   0.461   3.373   3.156
 7018SOL    HW221954   0.475   3.290   3.296
 7019SOL     OW21955   1.170   5.687   1.022
 7019SOL    HW121956   1.178   5.691   1.122
 7019SOL    HW221957   1.109   5.612   0.997
 7020SOL     OW21958   0.016   6.286   6.532
 7020SOL    HW121959   0.106   6.243   6.532
 7020SOL    HW221960   6.972   6.218   6.554
 7021SOL     OW21961   3.879   0.022   5.988
 7021SOL    HW121962   3.974   0.041   5.964
 7021SOL    HW221963   3.872   0.002   6.086
 7022SOL     OW21964   4.414   5.511   6.378
 7022SOL    HW121965   4.435   5.444   6.307
 7022SOL    HW221966   4.325   5.552   6.360
 7023SOL     OW21967   5.578   4.106   2.348
 7023SOL    HW121968   5.668   4.080   2.384
 7023SOL    HW221969   5.513   4.032   2.362
 7024SOL     OW21970   6.473   6.289   1.320
 7024SOL    HW121971   6.538   6.262   1.249
 7024SOL    HW221972   6.521   6.301   1.407
 7025SOL     OW21973   2.413   0.404   6.948
 7025SOL    HW121974   2.315   0.410   6.967
 7025SOL    HW221975   2.464   0.423   0.006
 7026SOL     OW21976   3.776   1.215   1.412
 7026SOL    HW121977   3.720   1.287   1.371
 7026SOL    HW221978   3.864   1.253   1.440
 7027SOL     OW21979   4.837   5.924   4.044
 7027SOL    HW121980   4.913   5.873   4.084
 7027SOL    HW221981   4.872   6.007   3.999
 7028SOL     OW21982   3.206   0.170   4.396
 7028SOL    HW121983   3.216   0.070   4.400
 7028SOL    HW221984   3.121   0.193   4.350
 7029SOL     OW21985   4.272   1.327   5.061
 7029SOL    HW121986   4.327   1.345   4.979
 7029SOL    HW221987   4.268   1.228   5.077
 7030SOL     OW21988   2.065   3.087   3.963
 7030SOL    HW121989   2.061   3.054   4.058
 7030SOL    HW221990   2.142   3.043   3.917
 7031SOL     OW21991   1.545   0.878   4.801
 7031SOL    HW121992   1.489   0.801   4.769
 7031SOL    HW221993   1.529   0.957   4.742
 7032SOL     OW21994   5.783   1.898   3.927
 7032SOL    HW121995   5.815   1.889   3.833
 7032SOL    HW221996   5.824   1.980   3.968
 7033SOL     OW21997   0.430   0.133   4.454
 7033SOL    HW121998   0.383   0.130   4.542
 7033SOL    HW221999   0.409   0.220   4.408
 7034SOL     OW22000   0.193   4.841   3.023
 7034SOL    HW122001   0.266   4.775   3.009
 7034SOL    HW222002   0.113   4.794   3.062
 7035SOL     OW22003   6.753   4.845   2.142
 7035SOL    HW122004   6.820   4.914   2.115
 7035SOL    HW222005   6.665   4.865   2.097
 7036SOL     OW22006   6.398   4.739   0.749
 7036SOL    HW122007   6.443   4.785   0.673
 7036SOL    HW222008   6.367   4.807   0.815
 7037SOL     OW22009   0.963   0.746   6.748
 7037SOL    HW122010   1.037   0.809   6.775
 7037SOL    HW222011   0.875   0.795   6.752
 7038SOL     OW22012   2.129   3.360   4.246
 7038SOL    HW122013   2.153   3.361   4.343
 7038SOL    HW222014   2.092   3.270   4.221
 7039SOL     OW22015   3.642   2.538   6.473
 7039SOL    HW122016   3.633   2.543   6.573
 7039SOL    HW222017   3.556   2.567   6.431
 7040SOL     OW22018   5.109   2.770   0.143
 7040SOL    HW122019   5.155   2.858   0.147
 7040SOL    HW222020   5.169   2.699   0.178
 7041SOL     OW22021   1.986   1.342   3.265
 7041SOL    HW122022   2.026   1.372   3.179
 7041SOL    HW222023   1.950   1.249   3.255
 7042SOL     OW22024   1.232   0.595   6.298
 7042SOL    HW122025   1.149   0.610   6.352
 7042SOL    HW222026   1.269   0.683   6.270
 7043SOL     OW22027   1.466   2.260   2.512
 7043SOL    HW122028   1.542   2.267   2.448
 7043SOL    HW222029   1.402   2.335   2.495
 7044SOL     OW22030   5.657   6.486   1.966
 7044SOL    HW122031   5.694   6.528   2.048
 7044SOL    HW222032   5.586   6.545   1.927
 7045SOL     OW22033   6.451   4.899   7.007
 7045SOL    HW122034   6.510   4.973   6.976
 7045SOL    HW222035   6.417   4.848   6.928
 7046SOL     OW22036   2.670   1.322   3.875
 7046SOL    HW122037   2.755   1.323   3.823
 7046SOL    HW222038   2.691   1.309   3.972
 7047SOL     OW22039   1.163   0.874   2.808
 7047SOL    HW122040   1.204   0.862   2.718
 7047SOL    HW222041   1.184   0.965   2.843
 7048SOL     OW22042   6.928   5.742   0.368
 7048SOL    HW122043   6.882   5.708   0.450
 7048SOL    HW222044   6.902   5.837   0.352
 7049SOL     OW22045   1.864   0.781   6.621
 7049SOL    HW122046   1.832   0.876   6.618
 7049SOL    HW222047   1.793   0.723   6.661
 7050SOL     OW22048   3.843   4.094   4.557
 7050SOL    HW122049   3.895   4.043   4.625
 7050SOL    HW222050   3.806   4.177   4.598
 7051SOL     OW22051   6.370   6.374   3.354
 7051SOL    HW122052   6.327   6.442   3.295
 7051SOL    HW222053   6.458   6.408   3.387
 7052SOL     OW22054   0.208   0.867   4.381
 7052SOL    HW122055   0.224   0.934   4.454
 7052SOL    HW222056   0.176   0.914   4.299
 7053SOL     OW22057   6.539   4.549   5.983
 7053SOL    HW122058   6.613   4.569   5.918
 7053SOL    HW222059   6.494   4.634   6.009
 7054SOL     OW22060   6.382   1.294   1.151
 7054SOL    HW122061   6.404   1.217   1.092
 7054SOL    HW222062   6.382   1.265   1.247
 7055SOL     OW22063   4.476   1.356   4.504
 7055SOL    HW122064   4.565   1.391   4.475
 7055SOL    HW222065   4.461   1.265   4.465
 7056SOL     OW22066   4.102   5.017   3.644
 7056SOL    HW122067   4.072   5.063   3.561
 7056SOL    HW222068   4.197   5.041   3.664
 7057SOL     OW22069   6.667   5.932   2.852
 7057SOL    HW122070   6.662   6.020   2.804
 7057SOL    HW222071   6.669   5.858   2.785
 7058SOL     OW22072   0.235   4.363   4.648
 7058SOL    HW122073   0.221   4.305   4.568
 7058SOL    HW222074   0.168   4.339   4.719
 7059SOL     OW22075   2.143   0.295   2.099
 7059SOL    HW122076   2.215   0.228   2.117
 7059SOL    HW222077   2.063   0.274   2.156
 7060SOL     OW22078   2.884   6.684   0.892
 7060SOL    HW122079   2.941   6.719   0.817
 7060SOL    HW222080   2.943   6.652   0.966
 7061SOL     OW22081   0.042   0.695   3.064
 7061SOL    HW122082   6.975   0.671   3.037
 7061SOL    HW222083   0.038   0.758   3.142
 7062SOL     OW22084   0.143   1.143   5.348
 7062SOL    HW122085   0.228   1.091   5.351
 7062SOL    HW222086   0.088   1.122   5.429
 7063SOL     OW22087   2.171   6.812   2.293
 7063SOL    HW122088   2.213   6.724   2.315
 7063SOL    HW222089   2.212   6.848   2.208
 7064SOL     OW22090   4.147   2.796   0.863
 7064SOL    HW122091   4.173   2.787   0.767
 7064SOL    HW222092   4.093   2.717   0.890
 7065SOL     OW22093   3.617   3.410   2.157
 7065SOL    HW122094   3.668   3.481   2.206
 7065SOL    HW222095   3.681   3.342   2.122
 7066SOL     OW22096   2.461   5.594   1.436
 7066SOL    HW122097   2.361   5.595   1.435
 7066SOL    HW222098   2.495   5.652   1.361
 7067SOL     OW22099   0.407   3.975   4.069
 7067SOL    HW122100   0.443   3.974   3.975
 7067SOL    HW222101   0.400   3.882   4.103
 7068SOL     OW22102   1.182   0.276   3.006
 7068SOL    HW122103   1.150   0.304   2.916
 7068SOL    HW222104   1.105   0.277   3.071
 7069SOL     OW22105   1.409   4.690   5.333
 7069SOL    HW122106   1.330   4.674   5.392
 7069SOL    HW222107   1.493   4.666   5.382
 7070SOL     OW22108   5.161   5.567   3.940
 7070SOL    HW122109   5.086   5.632   3.926
 7070SOL    HW222110   5.123   5.478   3.967
 7071SOL     OW22111   1.074   0.460   5.320
 7071SOL    HW122112   1.088   0.546   5.369
 7071SOL    HW222113   1.032   0.479   5.231
 7072SOL     OW22114   0.244   7.001   0.182
 7072SOL    HW122115   0.230   6.939   0.106
 7072SOL    HW222116   0.157   7.020   0.227
 7073SOL     OW22117   1.418   1.824   6.163
 7073SOL    HW122118   1.416   1.778   6.252
 7073SOL    HW222119   1.429   1.755   6.091
 7074SOL     OW22120   3.173   1.169   0.072
 7074SOL    HW122121   3.075   1.185   0.079
 7074SOL    HW222122   3.220   1.256   0.054
 7075SOL     OW22123   0.827   5.693   2.968
 7075SOL    HW122124   0.880   5.631   2.910
 7075SOL    HW222125   0.745   5.722   2.918
 7076SOL     OW22126   3.707   1.776   6.523
 7076SOL    HW122127   3.609   1.788   6.539
 7076SOL    HW222128   3.721   1.731   6.435
 7077SOL     OW22129   1.770   5.018   6.491
 7077SOL    HW122130   1.681   5.014   6.537
 7077SOL    HW222131   1.822   5.096   6.525
 7078SOL     OW22132   6.603   0.740   2.751
 7078SOL    HW122133   6.680   0.768   2.808
 7078SOL    HW222134   6.547   0.673   2.801
 7079SOL     OW22135   5.323   6.058   5.926
 7079SOL    HW122136   5.243   6.061   5.866
 7079SOL    HW222137   5.295   6.075   6.020
 7080SOL     OW22138   5.746   6.958   4.400
 7080SOL    HW122139   5.648   6.941   4.391
 7080SOL    HW222140   5.792   6.932   4.316
 7081SOL     OW22141   4.392   1.399   5.620
 7081SOL    HW122142   4.310   1.442   5.581
 7081SOL    HW222143   4.474   1.438   5.577
 7082SOL     OW22144   5.225   1.210   6.495
 7082SOL    HW122145   5.205   1.150   6.572
 7082SOL    HW222146   5.318   1.246   6.503
 7083SOL     OW22147   3.307   0.361   5.851
 7083SOL    HW122148   3.285   0.428   5.780
 7083SOL    HW222149   3.401   0.329   5.838
 7084SOL     OW22150   6.439   6.193   0.396
 7084SOL    HW122151   6.527   6.234   0.418
 7084SOL    HW222152   6.402   6.147   0.476
 7085SOL     OW22153   3.527   1.558   0.937
 7085SOL    HW122154   3.540   1.552   0.838
 7085SOL    HW222155   3.530   1.654   0.966
 7086SOL     OW22156   0.824   1.526   6.065
 7086SOL    HW122157   0.921   1.551   6.063
 7086SOL    HW222158   0.777   1.581   6.134
 7087SOL     OW22159   2.350   2.794   4.694
 7087SOL    HW122160   2.434   2.816   4.743
 7087SOL    HW222161   2.273   2.844   4.734
 7088SOL     OW22162   0.454   2.163   5.128
 7088SOL    HW122163   0.509   2.212   5.195
 7088SOL    HW222164   0.503   2.081   5.099
 7089SOL     OW22165   2.894   1.637   1.303
 7089SOL    HW122166   2.919   1.728   1.269
 7089SOL    HW222167   2.976   1.589   1.332
 7090SOL     OW22168   2.695   2.404   4.410
 7090SOL    HW122169   2.632   2.452   4.472
 7090SOL    HW222170   2.652   2.396   4.320
 7091SOL     OW22171   6.952   6.571   1.122
 7091SOL    HW122172   7.022   6.541   1.187
 7091SOL    HW222173   6.890   6.495   1.102
 7092SOL     OW22174   2.876   2.913   0.102
 7092SOL    HW122175   2.931   2.951   0.027
 7092SOL    HW222176   2.779   2.928   0.083
 7093SOL     OW22177   4.239   3.467   6.158
 7093SOL    HW122178   4.309   3.499   6.094
 7093SOL    HW222179   4.160   3.434   6.107
 7094SOL     OW22180   6.939   0.959   6.192
 7094SOL    HW122181   6.982   0.936   6.104
 7094SOL    HW222182   6.939   1.058   6.204
 7095SOL     OW22183   0.616   4.337   6.633
 7095SOL    HW122184   0.555   4.293   6.699
 7095SOL    HW222185   0.597   4.435   6.631
 7096SOL     OW22186   4.814   0.646   2.593
 7096SOL    HW122187   4.902   0.674   2.554
 7096SOL    HW222188   4.823   0.637   2.692
 7097SOL     OW22189   1.826   1.036   1.838
 7097SOL    HW122190   1.738   1.012   1.880
 7097SOL    HW222191   1.809   1.077   1.749
 7098SOL     OW22192   1.380   0.132   6.034
 7098SOL    HW122193   1.386   0.035   6.009
 7098SOL    HW222194   1.346   0.185   5.957
 7099SOL     OW22195   0.363   1.362   5.507
 7099SOL    HW122196   0.324   1.434   5.449
 7099SOL    HW222197   0.459   1.348   5.484
 7100SOL     OW22198   5.591   2.155   1.009
 7100SOL    HW122199   5.634   2.155   0.918
 7100SOL    HW222200   5.618   2.237   1.059
 7101SOL     OW22201   1.296   0.743   4.198
 7101SOL    HW122202   1.319   0.655   4.157
 7101SOL    HW222203   1.198   0.759   4.192
 7102SOL     OW22204   5.355   3.338   1.001
 7102SOL    HW122205   5.375   3.402   1.075
 7102SOL    HW222206   5.256   3.328   0.991
 7103SOL     OW22207   2.785   6.870   5.854
 7103SOL    HW122208   2.817   6.854   5.761
 7103SOL    HW222209   2.810   6.963   5.882
 7104SOL     OW22210   0.529   2.220   1.376
 7104SOL    HW122211   0.545   2.125   1.350
 7104SOL    HW222212   0.467   2.262   1.309
 7105SOL     OW22213   2.252   4.186   5.355
 7105SOL    HW122214   2.317   4.217   5.424
 7105SOL    HW222215   2.300   4.130   5.287
 7106SOL     OW22216   3.232   2.558   5.306
 7106SOL    HW122217   3.239   2.642   5.252
 7106SOL    HW222218   3.195   2.485   5.250
 7107SOL     OW22219   2.334   0.731   6.988
 7107SOL    HW122220   2.303   0.789   0.037
 7107SOL    HW222221   2.319   0.635   7.012
 7108SOL     OW22222   4.288   6.431   2.031
 7108SOL    HW122223   4.364   6.494   2.014
 7108SOL    HW222224   4.240   6.459   2.114
 7109SOL     OW22225   3.668   6.365   6.135
 7109SOL    HW122226   3.570   6.359   6.156
 7109SOL    HW222227   3.708   6.442   6.184
 7110SOL     OW22228   3.302   4.934   3.135
 7110SOL    HW122229   3.362   4.963   3.210
 7110SOL    HW222230   3.359   4.903   3.058
 7111SOL     OW22231   1.925   2.480   3.636
 7111SOL    HW122232   1.926   2.577   3.660
 7111SOL    HW222233   1.981   2.429   3.701
 7112SOL     OW22234   1.457   6.322   2.223
 7112SOL    HW122235   1.549   6.305   2.258
 7112SOL    HW222236   1.390   6.278   2.284
 7113SOL     OW22237   3.829   4.007   4.936
 7113SOL    HW122238   3.921   4.003   4.898
 7113SOL    HW222239   3.763   3.986   4.864
 7114SOL     OW22240   4.195   6.883   0.652
 7114SOL    HW122241   4.265   6.932   0.704
 7114SOL    HW222242   4.126   6.846   0.715
 7115SOL     OW22243   4.648   1.658   1.660
 7115SOL    HW122244   4.735   1.631   1.620
 7115SOL    HW222245   4.577   1.592   1.635
 7116SOL     OW22246   6.461   3.534   2.674
 7116SOL    HW122247   6.383   3.474   2.656
 7116SOL    HW222248   6.508   3.503   2.757
 7117SOL     OW22249   6.057   6.473   2.394
 7117SOL    HW122250   6.026   6.567   2.385
 7117SOL    HW222251   6.151   6.472   2.427
 7118SOL     OW22252   6.460   2.725   2.499
 7118SOL    HW122253   6.394   2.666   2.452
 7118SOL    HW222254   6.543   2.673   2.519
 7119SOL     OW22255   0.992   2.096   2.985
 7119SOL    HW122256   1.089   2.095   3.009
 7119SOL    HW222257   0.982   2.106   2.886
 7120SOL     OW22258   4.897   6.134   3.623
 7120SOL    HW122259   4.912   6.038   3.599
 7120SOL    HW222260   4.896   6.190   3.540
 7121SOL     OW22261   3.129   6.789   1.994
 7121SOL    HW122262   3.036   6.795   1.957
 7121SOL    HW222263   3.125   6.753   2.087
 7122SOL     OW22264   6.641   6.533   0.230
 7122SOL    HW122265   6.728   6.582   0.227
 7122SOL    HW222266   6.567   6.597   0.251
 7123SOL     OW22267   2.106   5.218   0.143
 7123SOL    HW122268   2.097   5.120   0.123
 7123SOL    HW222269   2.100   5.232   0.242
 7124SOL     OW22270   0.532   5.759   1.050
 7124SOL    HW122271   0.544   5.721   0.959
 7124SOL    HW222272   0.542   5.687   1.118
 7125SOL     OW22273   0.163   6.652   2.746
 7125SOL    HW122274   0.078   6.651   2.799
 7125SOL    HW222275   0.240   6.668   2.807
 7126SOL     OW22276   1.566   4.870   0.759
 7126SOL    HW122277   1.616   4.946   0.717
 7126SOL    HW222278   1.513   4.823   0.688
 7127SOL     OW22279   2.983   0.487   4.471
 7127SOL    HW122280   2.926   0.494   4.553
 7127SOL    HW222281   2.953   0.408   4.417
 7128SOL     OW22282   3.466   4.423   1.664
 7128SOL    HW122283   3.506   4.491   1.724
 7128SOL    HW222284   3.428   4.467   1.583
 7129SOL     OW22285   2.427   1.813   1.306
 7129SOL    HW122286   2.505   1.753   1.292
 7129SOL    HW222287   2.453   1.908   1.289
 7130SOL     OW22288   2.850   6.854   2.193
 7130SOL    HW122289   2.804   6.768   2.216
 7130SOL    HW222290   2.848   6.867   2.094
 7131SOL     OW22291   2.647   1.481   3.557
 7131SOL    HW122292   2.605   1.539   3.627
 7131SOL    HW222293   2.746   1.490   3.561
 7132SOL     OW22294   3.610   3.856   2.858
 7132SOL    HW122295   3.624   3.950   2.889
 7132SOL    HW222296   3.515   3.830   2.876
 7133SOL     OW22297   6.058   4.426   1.974
 7133SOL    HW122298   6.138   4.486   1.971
 7133SOL    HW222299   6.083   4.335   1.941
 7134SOL     OW22300   5.505   4.824   3.149
 7134SOL    HW122301   5.568   4.799   3.076
 7134SOL    HW222302   5.429   4.759   3.152
 7135SOL     OW22303   1.113   2.425   5.749
 7135SOL    HW122304   1.191   2.417   5.810
 7135SOL    HW222305   1.061   2.507   5.771
 7136SOL     OW22306   2.553   1.920   6.812
 7136SOL    HW122307   2.485   1.889   6.745
 7136SOL    HW222308   2.631   1.857   6.811
 7137SOL     OW22309   4.221   1.041   5.177
 7137SOL    HW122310   4.313   1.029   5.214
 7137SOL    HW222311   4.153   1.026   5.250
 7138SOL     OW22312   2.219   3.687   6.422
 7138SOL    HW122313   2.163   3.604   6.410
 7138SOL    HW222314   2.249   3.693   6.517
 7139SOL     OW22315   2.987   1.925   6.844
 7139SOL    HW122316   3.032   1.949   6.758
 7139SOL    HW222317   3.040   1.855   6.891
 7140SOL     OW22318   7.017   4.089   5.365
 7140SOL    HW122319   6.951   4.088   5.289
 7140SOL    HW222320   0.063   4.021   5.347
 7141SOL     OW22321   1.605   6.897   1.914
 7141SOL    HW122322   1.660   6.854   1.843
 7141SOL    HW222323   1.626   6.995   1.918
 7142SOL     OW22324   4.008   6.972   3.747
 7142SOL    HW122325   4.001   6.873   3.761
 7142SOL    HW222326   3.995   6.993   3.650
 7143SOL     OW22327   2.447   2.048   3.959
 7143SOL    HW122328   2.451   2.014   4.053
 7143SOL    HW222329   2.379   1.994   3.907
 7144SOL     OW22330   1.039   3.079   3.568
 7144SOL    HW122331   1.020   3.000   3.509
 7144SOL    HW222332   1.092   3.147   3.517
 7145SOL     OW22333   4.421   6.734   6.170
 7145SOL    HW122334   4.467   6.756   6.256
 7145SOL    HW222335   4.342   6.676   6.188
 7146SOL     OW22336   2.672   5.029   1.906
 7146SOL    HW122337   2.760   5.075   1.892
 7146SOL    HW222338   2.609   5.055   1.832
 7147SOL     OW22339   0.785   1.123   3.433
 7147SOL    HW122340   0.788   1.216   3.469
 7147SOL    HW222341   0.870   1.103   3.384
 7148SOL     OW22342   0.135   1.241   0.178
 7148SOL    HW122343   0.128   1.305   0.254
 7148SOL    HW222344   0.076   1.162   0.195
 7149SOL     OW22345   6.711   0.620   4.154
 7149SOL    HW122346   6.755   0.611   4.244
 7149SOL    HW222347   6.767   0.574   4.085
 7150SOL     OW22348   6.119   4.274   6.614
 7150SOL    HW122349   6.217   4.255   6.623
 7150SOL    HW222350   6.070   4.232   6.691
 7151SOL     OW22351   1.781   6.405   1.228
 7151SOL    HW122352   1.802   6.430   1.323
 7151SOL    HW222353   1.772   6.306   1.221
 7152SOL     OW22354   1.357   2.698   3.604
 7152SOL    HW122355   1.446   2.708   3.560
 7152SOL    HW222356   1.319   2.789   3.622
 7153SOL     OW22357   3.256   2.155   2.956
 7153SOL    HW122358   3.325   2.177   3.026
 7153SOL    HW222359   3.186   2.096   2.996
 7154SOL     OW22360   4.231   5.903   4.472
 7154SOL    HW122361   4.270   5.954   4.548
 7154SOL    HW222362   4.305   5.862   4.418
 7155SOL     OW22363   2.059   0.911   3.025
 7155SOL    HW122364   2.150   0.904   3.065
 7155SOL    HW222365   2.003   0.834   3.056
 7156SOL     OW22366   1.409   5.723   4.807
 7156SOL    HW122367   1.387   5.648   4.870
 7156SOL    HW222368   1.500   5.759   4.829
 7157SOL     OW22369   4.938   4.318   1.108
 7157SOL    HW122370   4.946   4.272   1.020
 7157SOL    HW222371   4.843   4.319   1.137
 7158SOL     OW22372   4.800   6.973   4.209
 7158SOL    HW122373   4.883   6.933   4.171
 7158SOL    HW222374   4.742   6.901   4.248
 7159SOL     OW22375   1.052   5.480   0.243
 7159SOL    HW122376   1.071   5.384   0.264
 7159SOL    HW222377   0.973   5.511   0.296
 7160SOL     OW22378   6.643   1.410   2.089
 7160SOL    HW122379   6.716   1.418   2.021
 7160SOL    HW222380   6.625   1.313   2.108
 7161SOL     OW22381   3.399   4.035   4.102
 7161SOL    HW122382   3.490   4.073   4.118
 7161SOL    HW222383   3.401   3.976   4.022
 7162SOL     OW22384   3.576   4.924   3.656
 7162SOL    HW122385   3.603   5.007   3.704
 7162SOL    HW222386   3.633   4.912   3.575
 7163SOL     OW22387   1.998   6.230   3.133
 7163SOL    HW122388   2.096   6.226   3.150
 7163SOL    HW222389   1.953   6.155   3.181
 7164SOL     OW22390   2.737   1.654   4.259
 7164SOL    HW122391   2.818   1.678   4.205
 7164SOL    HW222392   2.660   1.636   4.198
 7165SOL     OW22393   5.208   6.871   2.446
 7165SOL    HW122394   5.199   6.839   2.540
 7165SOL    HW222395   5.294   6.837   2.408
 7166SOL     OW22396   5.316   5.634   2.304
 7166SOL    HW122397   5.392   5.617   2.242
 7166SOL    HW222398   5.230   5.638   2.252
 7167SOL     OW22399   4.849   3.059   5.616
 7167SOL    HW122400   4.900   3.125   5.670
 7167SOL    HW222401   4.794   3.001   5.676
 7168SOL     OW22402   0.948   1.831   4.397
 7168SOL    HW122403   0.877   1.761   4.396
 7168SOL    HW222404   1.038   1.788   4.391
 7169SOL     OW22405   1.703   2.544   6.792
 7169SOL    HW122406   1.738   2.602   6.866
 7169SOL    HW222407   1.718   2.448   6.816
 7170SOL     OW22408   6.032   4.741   3.745
 7170SOL    HW122409   5.964   4.743   3.672
 7170SOL    HW222410   6.076   4.652   3.748
 7171SOL     OW22411   4.405   2.879   6.139
 7171SOL    HW122412   4.335   2.811   6.162
 7171SOL    HW222413   4.396   2.907   6.044
 7172SOL     OW22414   0.634   0.509   1.496
 7172SOL    HW122415   0.604   0.513   1.592
 7172SOL    HW222416   0.573   0.448   1.445
 7173SOL     OW22417   6.103   6.310   5.683
 7173SOL    HW122418   6.144   6.371   5.616
 7173SOL    HW222419   6.119   6.215   5.658
 7174SOL     OW22420   0.677   5.641   6.554
 7174SOL    HW122421   0.774   5.656   6.576
 7174SOL    HW222422   0.669   5.573   6.480
 7175SOL     OW22423   6.137   3.087   5.446
 7175SOL    HW122424   6.216   3.044   5.489
 7175SOL    HW222425   6.155   3.184   5.431
 7176SOL     OW22426   6.976   3.510   1.376
 7176SOL    HW122427   7.002   3.459   1.458
 7176SOL    HW222428   7.020   3.600   1.377
 7177SOL     OW22429   0.828   5.564   2.297
 7177SOL    HW122430   0.748   5.540   2.351
 7177SOL    HW222431   0.892   5.616   2.353
 7178SOL     OW22432   0.245   2.035   6.240
 7178SOL    HW122433   0.251   2.042   6.141
 7178SOL    HW222434   0.151   2.053   6.270
 7179SOL     OW22435   1.792   4.638   6.066
 7179SOL    HW122436   1.819   4.572   5.996
 7179SOL    HW222437   1.839   4.725   6.048
 7180SOL     OW22438   0.509   6.865   2.823
 7180SOL    HW122439   0.451   6.796   2.868
 7180SOL    HW222440   0.532   6.937   2.888
 7181SOL     OW22441   5.589   6.289   2.819
 7181SOL    HW122442   5.629   6.217   2.875
 7181SOL    HW222443   5.492   6.269   2.803
 7182SOL     OW22444   3.710   3.522   5.866
 7182SOL    HW122445   3.718   3.424   5.849
 7182SOL    HW222446   3.616   3.552   5.849
 7183SOL     OW22447   1.660   4.029   3.499
 7183SOL    HW122448   1.652   3.930   3.510
 7183SOL    HW222449   1.754   4.053   3.476
 7184SOL     OW22450   2.660   5.651   2.638
 7184SOL    HW122451   2.630   5.588   2.710
 7184SOL    HW222452   2.733   5.709   2.673
 7185SOL     OW22453   4.575   3.133   6.928
 7185SOL    HW122454   4.497   3.175   6.972
 7185SOL    HW222455   4.554   3.116   6.831
 7186SOL     OW22456   0.388   0.142   3.896
 7186SOL    HW122457   0.481   0.111   3.880
 7186SOL    HW222458   0.334   0.068   3.937
 7187SOL     OW22459   1.678   5.140   1.199
 7187SOL    HW122460   1.629   5.126   1.285
 7187SOL    HW222461   1.734   5.060   1.179
 7188SOL     OW22462   5.066   0.115   1.549
 7188SOL    HW122463   5.085   0.025   1.589
 7188SOL    HW222464   5.064   0.184   1.622
 7189SOL     OW22465   6.782   0.630   5.212
 7189SOL    HW122466   6.855   0.562   5.213
 7189SOL    HW222467   6.704   0.595   5.160
 7190SOL     OW22468   4.622   4.707   2.760
 7190SOL    HW122469   4.635   4.644   2.684
 7190SOL    HW222470   4.526   4.706   2.789
 7191SOL     OW22471   0.684   3.497   1.747
 7191SOL    HW122472   0.711   3.459   1.836
 7191SOL    HW222473   0.707   3.432   1.675
 7192SOL     OW22474   3.608   5.225   6.689
 7192SOL    HW122475   3.543   5.267   6.627
 7192SOL    HW222476   3.561   5.153   6.742
 7193SOL     OW22477   5.051   1.797   3.880
 7193SOL    HW122478   5.141   1.799   3.924
 7193SOL    HW222479   5.058   1.836   3.788
 7194SOL     OW22480   3.375   1.370   1.713
 7194SOL    HW122481   3.434   1.390   1.635
 7194SOL    HW222482   3.400   1.430   1.789
 7195SOL     OW22483   0.411   5.909   1.573
 7195SOL    HW122484   0.455   5.961   1.500
 7195SOL    HW222485   0.312   5.918   1.565
 7196SOL     OW22486   3.817   2.509   1.712
 7196SOL    HW122487   3.749   2.456   1.764
 7196SOL    HW222488   3.884   2.446   1.671
 7197SOL     OW22489   1.203   1.427   3.985
 7197SOL    HW122490   1.268   1.372   3.933
 7197SOL    HW222491   1.240   1.445   4.076
 7198SOL     OW22492   0.151   6.594   6.379
 7198SOL    HW122493   0.105   6.638   6.301
 7198SOL    HW222494   0.134   6.647   6.462
 7199SOL     OW22495   5.638   7.005   3.162
 7199SOL    HW122496   5.626   6.982   3.065
 7199SOL    HW222497   5.655   6.922   3.215
 7200SOL     OW22498   1.971   2.049   1.899
 7200SOL    HW122499   2.039   2.047   1.826
 7200SOL    HW222500   2.017   2.053   1.988
 7201SOL     OW22501   2.689   4.897   3.021
 7201SOL    HW122502   2.694   4.814   3.076
 7201SOL    HW222503   2.710   4.876   2.926
 7202SOL     OW22504   3.801   6.855   5.531
 7202SOL    HW122505   3.806   6.819   5.624
 7202SOL    HW222506   3.893   6.864   5.493
 7203SOL     OW22507   5.804   0.225   6.816
 7203SOL    HW122508   5.801   0.213   6.717
 7203SOL    HW222509   5.858   0.152   6.857
 7204SOL     OW22510   5.923   1.573   2.948
 7204SOL    HW122511   5.861   1.648   2.922
 7204SOL    HW222512   6.005   1.611   2.991
 7205SOL     OW22513   1.456   4.244   1.701
 7205SOL    HW122514   1.382   4.306   1.674
 7205SOL    HW222515   1.539   4.297   1.718
 7206SOL     OW22516   5.270   1.931   1.224
 7206SOL    HW122517   5.244   1.835   1.232
 7206SOL    HW222518   5.216   1.985   1.289
 7207SOL     OW22519   4.300   6.796   2.438
 7207SOL    HW122520   4.251   6.716   2.403
 7207SOL    HW222521   4.287   6.873   2.375
 7208SOL     OW22522   3.151   0.165   4.992
 7208SOL    HW122523   3.074   0.227   5.009
 7208SOL    HW222524   3.128   0.074   5.028
 7209SOL     OW22525   3.289   3.070   4.324
 7209SOL    HW122526   3.288   3.022   4.412
 7209SOL    HW222527   3.195   3.090   4.296
 7210SOL     OW22528   4.701   0.185   4.115
 7210SOL    HW122529   4.625   0.212   4.175
 7210SOL    HW222530   4.755   0.113   4.159
 7211SOL     OW22531   1.468   5.547   2.483
 7211SOL    HW122532   1.544   5.483   2.470
 7211SOL    HW222533   1.415   5.520   2.564
 7212SOL     OW22534   4.751   0.179   3.607
 7212SOL    HW122535   4.703   0.241   3.545
 7212SOL    HW222536   4.761   0.223   3.697
 7213SOL     OW22537   5.310   6.728   5.275
 7213SOL    HW122538   5.229   6.682   5.313
 7213SOL    HW222539   5.282   6.814   5.233
 7214SOL     OW22540   0.423   5.197   5.669
 7214SOL    HW122541   0.395   5.291   5.689
 7214SOL    HW222542   0.513   5.197   5.625
 7215SOL     OW22543   0.787   3.254   2.481
 7215SOL    HW122544   0.692   3.251   2.450
 7215SOL    HW222545   0.817   3.162   2.504
 7216SOL     OW22546   2.375   1.345   1.840
 7216SOL    HW122547   2.321   1.345   1.923
 7216SOL    HW222548   2.358   1.261   1.789
 7217SOL     OW22549   0.935   2.613   2.474
 7217SOL    HW122550   0.933   2.581   2.380
 7217SOL    HW222551   0.881   2.697   2.482
 7218SOL     OW22552   6.426   2.682   5.718
 7218SOL    HW122553   6.456   2.649   5.628
 7218SOL    HW222554   6.363   2.758   5.706
 7219SOL     OW22555   3.254   0.736   1.058
 7219SOL    HW122556   3.277   0.716   0.963
 7219SOL    HW222557   3.178   0.678   1.087
 7220SOL     OW22558   6.914   0.941   3.139
 7220SOL    HW122559   6.862   1.016   3.179
 7220SOL    HW222560   6.897   0.857   3.191
 7221SOL     OW22561   5.877   4.610   5.433
 7221SOL    HW122562   5.846   4.638   5.342
 7221SOL    HW222563   5.831   4.525   5.459
 7222SOL     OW22564   6.101   6.872   3.503
 7222SOL    HW122565   6.177   6.924   3.466
 7222SOL    HW222566   6.020   6.883   3.445
 7223SOL     OW22567   4.571   0.707   5.364
 7223SOL    HW122568   4.605   0.749   5.280
 7223SOL    HW222569   4.646   0.662   5.411
 7224SOL     OW22570   5.621   1.238   4.272
 7224SOL    HW122571   5.676   1.253   4.189
 7224SOL    HW222572   5.534   1.197   4.246
 7225SOL     OW22573   2.383   0.638   1.468
 7225SOL    HW122574   2.296   0.655   1.513
 7225SOL    HW222575   2.407   0.716   1.410
 7226SOL     OW22576   5.810   6.499   5.858
 7226SOL    HW122577   5.825   6.584   5.806
 7226SOL    HW222578   5.722   6.504   5.905
 7227SOL     OW22579   6.932   2.249   6.114
 7227SOL    HW122580   7.009   2.283   6.060
 7227SOL    HW222581   6.961   2.240   6.210
 7228SOL     OW22582   2.377   0.526   3.050
 7228SOL    HW122583   2.380   0.530   2.951
 7228SOL    HW222584   2.290   0.486   3.080
 7229SOL     OW22585   6.685   6.985   3.484
 7229SOL    HW122586   6.765   6.962   3.540
 7229SOL    HW222587   6.608   6.928   3.512
 7230SOL     OW22588   6.274   5.496   1.288
 7230SOL    HW122589   6.219   5.429   1.238
 7230SOL    HW222590   6.301   5.569   1.225
 7231SOL     OW22591   5.917   0.978   6.734
 7231SOL    HW122592   5.924   1.019   6.643
 7231SOL    HW222593   5.873   0.889   6.728
 7232SOL     OW22594   3.627   3.773   0.652
 7232SOL    HW122595   3.600   3.776   0.748
 7232SOL    HW222596   3.726   3.790   0.645
 7233SOL     OW22597   0.343   2.394   5.444
 7233SOL    HW122598   0.254   2.387   5.400
 7233SOL    HW222599   0.367   2.307   5.486
 7234SOL     OW22600   4.727   1.959   2.921
 7234SOL    HW122601   4.803   1.974   2.985
 7234SOL    HW222602   4.642   1.992   2.963
 7235SOL     OW22603   6.112   3.058   4.366
 7235SOL    HW122604   6.109   3.031   4.462
 7235SOL    HW222605   6.206   3.080   4.340
 7236SOL     OW22606   1.896   1.476   2.907
 7236SOL    HW122607   1.831   1.484   2.832
 7236SOL    HW222608   1.888   1.385   2.948
 7237SOL     OW22609   5.850   5.228   4.776
 7237SOL    HW122610   5.810   5.260   4.690
 7237SOL    HW222611   5.777   5.216   4.843
 7238SOL     OW22612   1.490   1.006   1.477
 7238SOL    HW122613   1.533   0.918   1.457
 7238SOL    HW222614   1.394   0.992   1.499
 7239SOL     OW22615   4.469   1.422   1.624
 7239SOL    HW122616   4.498   1.344   1.680
 7239SOL    HW222617   4.369   1.426   1.623
 7240SOL     OW22618   2.948   3.347   1.814
 7240SOL    HW122619   2.984   3.406   1.742
 7240SOL    HW222620   3.023   3.297   1.857
 7241SOL     OW22621   4.786   6.992   4.493
 7241SOL    HW122622   4.769   7.003   4.395
 7241SOL    HW222623   4.824   6.901   4.511
 7242SOL     OW22624   5.684   4.981   0.834
 7242SOL    HW122625   5.751   4.912   0.860
 7242SOL    HW222626   5.600   4.936   0.803
 7243SOL     OW22627   0.558   5.501   0.502
 7243SOL    HW122628   0.468   5.470   0.472
 7243SOL    HW222629   0.567   5.600   0.489
 7244SOL     OW22630   5.569   1.746   0.685
 7244SOL    HW122631   5.599   1.779   0.774
 7244SOL    HW222632   5.470   1.739   0.684
 7245SOL     OW22633   6.341   2.261   4.265
 7245SOL    HW122634   6.411   2.215   4.211
 7245SOL    HW222635   6.347   2.232   4.360
 7246SOL     OW22636   1.290   5.721   5.352
 7246SOL    HW122637   1.192   5.730   5.366
 7246SOL    HW222638   1.329   5.661   5.422
 7247SOL     OW22639   3.719   5.740   4.325
 7247SOL    HW122640   3.620   5.742   4.336
 7247SOL    HW222641   3.747   5.649   4.293
 7248SOL     OW22642   3.454   0.849   4.179
 7248SOL    HW122643   3.475   0.827   4.083
 7248SOL    HW222644   3.455   0.948   4.191
 7249SOL     OW22645   5.162   3.463   5.736
 7249SOL    HW122646   5.150   3.546   5.681
 7249SOL    HW222647   5.087   3.400   5.718
 7250SOL     OW22648   2.856   3.663   6.957
 7250SOL    HW122649   2.783   3.598   6.935
 7250SOL    HW222650   2.833   3.753   6.923
 7251SOL     OW22651   5.445   1.215   5.255
 7251SOL    HW122652   5.434   1.315   5.257
 7251SOL    HW222653   5.384   1.174   5.322
 7252SOL     OW22654   4.345   3.513   5.223
 7252SOL    HW122655   4.409   3.587   5.244
 7252SOL    HW222656   4.253   3.551   5.214
 7253SOL     OW22657   5.240   4.749   1.252
 7253SOL    HW122658   5.338   4.734   1.237
 7253SOL    HW222659   5.225   4.846   1.275
 7254SOL     OW22660   5.775   6.530   4.913
 7254SOL    HW122661   5.776   6.629   4.925
 7254SOL    HW222662   5.858   6.490   4.952
 7255SOL     OW22663   4.132   3.247   2.930
 7255SOL    HW122664   4.131   3.153   2.894
 7255SOL    HW222665   4.129   3.311   2.853
 7256SOL     OW22666   3.223   5.336   3.636
 7256SOL    HW122667   3.184   5.276   3.566
 7256SOL    HW222668   3.318   5.310   3.654
 7257SOL     OW22669   6.102   4.326   2.902
 7257SOL    HW122670   6.149   4.399   2.853
 7257SOL    HW222671   6.004   4.348   2.908
 7258SOL     OW22672   2.607   0.158   5.633
 7258SOL    HW122673   2.595   0.253   5.662
 7258SOL    HW222674   2.702   0.145   5.603
 7259SOL     OW22675   2.953   4.834   6.510
 7259SOL    HW122676   2.990   4.904   6.449
 7259SOL    HW222677   2.863   4.862   6.543
 7260SOL     OW22678   4.394   1.812   2.603
 7260SOL    HW122679   4.392   1.896   2.657
 7260SOL    HW222680   4.457   1.823   2.526
 7261SOL     OW22681   1.444   4.919   1.046
 7261SOL    HW122682   1.468   4.845   0.984
 7261SOL    HW222683   1.510   4.993   1.037
 7262SOL     OW22684   6.070   0.732   5.287
 7262SOL    HW122685   6.097   0.676   5.208
 7262SOL    HW222686   6.068   0.828   5.261
 7263SOL     OW22687   5.043   6.466   1.685
 7263SOL    HW122688   4.991   6.389   1.722
 7263SOL    HW222689   5.115   6.492   1.750
 7264SOL     OW22690   1.230   6.524   4.184
 7264SOL    HW122691   1.265   6.438   4.148
 7264SOL    HW222692   1.249   6.529   4.282
 7265SOL     OW22693   4.574   3.792   6.229
 7265SOL    HW122694   4.508   3.744   6.287
 7265SOL    HW222695   4.620   3.862   6.282
 7266SOL     OW22696   3.687   1.740   2.069
 7266SOL    HW122697   3.649   1.666   2.015
 7266SOL    HW222698   3.653   1.828   2.035
 7267SOL     OW22699   5.978   3.270   4.539
 7267SOL    HW122700   5.964   3.174   4.562
 7267SOL    HW222701   6.073   3.284   4.513
 7268SOL     OW22702   3.876   0.679   0.469
 7268SOL    HW122703   3.844   0.587   0.492
 7268SOL    HW222704   3.816   0.746   0.512
 7269SOL     OW22705   1.255   0.365   1.956
 7269SOL    HW122706   1.247   0.423   2.037
 7269SOL    HW222707   1.219   0.274   1.977
 7270SOL     OW22708   3.375   1.676   2.184
 7270SOL    HW122709   3.457   1.669   2.241
 7270SOL    HW222710   3.307   1.734   2.229
 7271SOL     OW22711   6.192   5.255   3.782
 7271SOL    HW122712   6.130   5.179   3.763
 7271SOL    HW222713   6.233   5.287   3.697
 7272SOL     OW22714   6.546   2.303   1.026
 7272SOL    HW122715   6.624   2.242   1.013
 7272SOL    HW222716   6.570   2.395   0.996
 7273SOL     OW22717   5.749   5.855   5.622
 7273SOL    HW122718   5.658   5.820   5.643
 7273SOL    HW222719   5.814   5.779   5.619
 7274SOL     OW22720   5.736   4.551   4.385
 7274SOL    HW122721   5.659   4.493   4.413
 7274SOL    HW222722   5.741   4.553   4.285
 7275SOL     OW22723   5.448   6.575   1.159
 7275SOL    HW122724   5.442   6.479   1.131
 7275SOL    HW222725   5.370   6.599   1.216
 7276SOL     OW22726   2.922   2.209   3.780
 7276SOL    HW122727   2.896   2.294   3.826
 7276SOL    HW222728   2.861   2.135   3.809
 7277SOL     OW22729   6.367   1.479   4.267
 7277SOL    HW122730   6.424   1.542   4.215
 7277SOL    HW222731   6.404   1.469   4.360
 7278SOL     OW22732   3.205   2.130   4.160
 7278SOL    HW122733   3.215   2.118   4.259
 7278SOL    HW222734   3.110   2.150   4.137
 7279SOL     OW22735   4.376   3.556   1.454
 7279SOL    HW122736   4.301   3.604   1.409
 7279SOL    HW222737   4.339   3.485   1.515
 7280SOL     OW22738   6.899   1.881   5.106
 7280SOL    HW122739   6.874   1.805   5.165
 7280SOL    HW222740   6.928   1.959   5.161
 7281SOL     OW22741   3.493   6.267   2.674
 7281SOL    HW122742   3.533   6.175   2.677
 7281SOL    HW222743   3.512   6.309   2.585
 7282SOL     OW22744   0.305   3.557   1.407
 7282SOL    HW122745   0.288   3.590   1.314
 7282SOL    HW222746   0.237   3.596   1.469
 7283SOL     OW22747   3.750   5.918   2.869
 7283SOL    HW122748   3.814   5.863   2.921
 7283SOL    HW222749   3.790   6.008   2.852
 7284SOL     OW22750   0.550   1.014   2.802
 7284SOL    HW122751   0.459   0.979   2.778
 7284SOL    HW222752   0.620   0.955   2.762
 7285SOL     OW22753   5.086   3.076   2.193
 7285SOL    HW122754   5.038   3.038   2.114
 7285SOL    HW222755   5.021   3.094   2.267
 7286SOL     OW22756   6.099   1.472   4.226
 7286SOL    HW122757   6.194   1.478   4.257
 7286SOL    HW222758   6.095   1.419   4.141
 7287SOL     OW22759   3.243   1.125   3.985
 7287SOL    HW122760   3.176   1.150   3.915
 7287SOL    HW222761   3.202   1.134   4.076
 7288SOL     OW22762   3.026   1.785   1.822
 7288SOL    HW122763   3.034   1.743   1.912
 7288SOL    HW222764   3.094   1.858   1.813
 7289SOL     OW22765   6.154   2.710   1.933
 7289SOL    HW122766   6.226   2.724   2.001
 7289SOL    HW222767   6.182   2.637   1.870
 7290SOL     OW22768   3.759   1.620   5.121
 7290SOL    HW122769   3.748   1.677   5.039
 7290SOL    HW222770   3.677   1.628   5.178
 7291SOL     OW22771   1.448   1.104   0.479
 7291SOL    HW122772   1.383   1.045   0.526
 7291SOL    HW222773   1.413   1.127   0.388
 7292SOL     OW22774   3.204   0.991   2.713
 7292SOL    HW122775   3.281   0.962   2.771
 7292SOL    HW222776   3.240   1.027   2.627
 7293SOL     OW22777   6.484   1.162   4.446
 7293SOL    HW122778   6.547   1.108   4.390
 7293SOL    HW222779   6.390   1.145   4.416
 7294SOL     OW22780   4.056   0.187   2.941
 7294SOL    HW122781   3.961   0.180   2.912
 7294SOL    HW222782   4.060   0.214   3.037
 7295SOL     OW22783   5.140   3.962   1.717
 7295SOL    HW122784   5.159   4.031   1.647
 7295SOL    HW222785   5.072   3.898   1.682
 7296SOL     OW22786   3.349   6.130   2.374
 7296SOL    HW122787   3.389   6.214   2.411
 7296SOL    HW222788   3.265   6.108   2.424
 7297SOL     OW22789   3.608   6.915   0.430
 7297SOL    HW122790   3.625   6.919   0.529
 7297SOL    HW222791   3.609   7.007   0.393
 7298SOL     OW22792   4.159   5.297   1.278
 7298SOL    HW122793   4.108   5.212   1.289
 7298SOL    HW222794   4.144   5.355   1.359
 7299SOL     OW22795   0.226   3.673   6.107
 7299SOL    HW122796   0.323   3.682   6.085
 7299SOL    HW222797   0.203   3.734   6.183
 7300SOL     OW22798   0.719   3.997   2.086
 7300SOL    HW122799   0.720   4.056   2.167
 7300SOL    HW222800   0.812   3.968   2.065
 7301SOL     OW22801   4.294   2.322   0.311
 7301SOL    HW122802   4.339   2.243   0.352
 7301SOL    HW222803   4.205   2.336   0.355
 7302SOL     OW22804   5.403   1.885   6.238
 7302SOL    HW122805   5.365   1.885   6.331
 7302SOL    HW222806   5.503   1.894   6.243
 7303SOL     OW22807   2.631   2.129   1.544
 7303SOL    HW122808   2.680   2.057   1.495
 7303SOL    HW222809   2.688   2.165   1.617
 7304SOL     OW22810   2.242   6.922   0.658
 7304SOL    HW122811   2.153   6.896   0.694
 7304SOL    HW222812   2.307   6.847   0.671
 7305SOL     OW22813   6.050   0.660   6.401
 7305SOL    HW122814   5.979   0.592   6.418
 7305SOL    HW222815   6.085   0.693   6.489
 7306SOL     OW22816   1.234   3.304   1.598
 7306SOL    HW122817   1.217   3.222   1.544
 7306SOL    HW222818   1.148   3.339   1.634
 7307SOL     OW22819   3.114   0.095   1.953
 7307SOL    HW122820   3.204   0.138   1.960
 7307SOL    HW222821   3.101   0.058   1.861
 7308SOL     OW22822   3.580   1.442   3.025
 7308SOL    HW122823   3.613   1.497   2.948
 7308SOL    HW222824   3.486   1.412   3.006
 7309SOL     OW22825   2.278   5.152   3.616
 7309SOL    HW122826   2.300   5.139   3.520
 7309SOL    HW222827   2.276   5.250   3.637
 7310SOL     OW22828   2.623   2.909   0.017
 7310SOL    HW122829   2.654   2.843   6.975
 7310SOL    HW222830   2.561   2.975   6.999
 7311SOL     OW22831   0.300   6.610   6.087
 7311SOL    HW122832   0.345   6.695   6.117
 7311SOL    HW222833   0.319   6.538   6.153
 7312SOL     OW22834   6.196   2.004   4.701
 7312SOL    HW122835   6.107   2.042   4.728
 7312SOL    HW222836   6.183   1.911   4.668
 7313SOL     OW22837   3.183   1.099   2.448
 7313SOL    HW122838   3.106   1.038   2.467
 7313SOL    HW222839   3.165   1.152   2.365
 7314SOL     OW22840   1.955   5.244   5.276
 7314SOL    HW122841   1.983   5.321   5.334
 7314SOL    HW222842   1.870   5.268   5.228
 7315SOL     OW22843   3.158   5.159   3.176
 7315SOL    HW122844   3.211   5.086   3.132
 7315SOL    HW222845   3.111   5.121   3.256
 7316SOL     OW22846   4.014   1.333   1.476
 7316SOL    HW122847   4.036   1.285   1.561
 7316SOL    HW222848   3.998   1.430   1.496
 7317SOL     OW22849   5.402   2.054   0.672
 7317SOL    HW122850   5.366   2.088   0.585
 7317SOL    HW222851   5.379   1.958   0.682
 7318SOL     OW22852   4.870   6.702   1.218
 7318SOL    HW122853   4.959   6.679   1.179
 7318SOL    HW222854   4.857   6.801   1.216
 7319SOL     OW22855   5.082   6.062   6.860
 7319SOL    HW122856   5.118   6.105   6.943
 7319SOL    HW222857   4.984   6.048   6.869
 7320SOL     OW22858   0.683   3.176   6.981
 7320SOL    HW122859   0.760   3.123   7.017
 7320SOL    HW222860   0.675   3.159   6.882
 7321SOL     OW22861   2.043   2.183   5.499
 7321SOL    HW122862   2.115   2.157   5.435
 7321SOL    HW222863   2.083   2.232   5.576
 7322SOL     OW22864   1.669   2.249   3.753
 7322SOL    HW122865   1.694   2.302   3.672
 7322SOL    HW222866   1.618   2.306   3.817
 7323SOL     OW22867   1.458   1.949   0.994
 7323SOL    HW122868   1.469   2.024   0.929
 7323SOL    HW222869   1.413   1.982   1.076
 7324SOL     OW22870   4.886   3.766   4.613
 7324SOL    HW122871   4.797   3.729   4.585
 7324SOL    HW222872   4.883   3.791   4.709
 7325SOL     OW22873   3.907   1.615   6.198
 7325SOL    HW122874   3.966   1.671   6.139
 7325SOL    HW222875   3.945   1.523   6.204
 7326SOL     OW22876   3.943   6.614   0.540
 7326SOL    HW122877   3.980   6.676   0.471
 7326SOL    HW222878   4.018   6.568   0.588
 7327SOL     OW22879   1.553   4.665   3.506
 7327SOL    HW122880   1.642   4.623   3.527
 7327SOL    HW222881   1.510   4.696   3.591
 7328SOL     OW22882   5.026   5.436   5.944
 7328SOL    HW122883   5.060   5.530   5.944
 7328SOL    HW222884   4.929   5.435   5.920
 7329SOL     OW22885   2.426   3.117   1.020
 7329SOL    HW122886   2.349   3.053   1.014
 7329SOL    HW222887   2.490   3.098   0.946
 7330SOL     OW22888   2.871   3.242   0.947
 7330SOL    HW122889   2.870   3.175   1.021
 7330SOL    HW222890   2.953   3.228   0.890
 7331SOL     OW22891   5.125   1.680   2.408
 7331SOL    HW122892   5.107   1.594   2.360
 7331SOL    HW222893   5.158   1.748   2.343
 7332SOL     OW22894   2.813   6.832   5.302
 7332SOL    HW122895   2.852   6.753   5.257
 7332SOL    HW222896   2.714   6.835   5.286
 7333SOL     OW22897   6.236   1.008   1.271
 7333SOL    HW122898   6.210   1.097   1.308
 7333SOL    HW222899   6.192   0.936   1.325
 7334SOL     OW22900   1.709   4.497   5.131
 7334SOL    HW122901   1.768   4.490   5.212
 7334SOL    HW222902   1.733   4.425   5.066
 7335SOL     OW22903   1.069   3.534   2.537
 7335SOL    HW122904   1.033   3.602   2.472
 7335SOL    HW222905   1.154   3.568   2.576
 7336SOL     OW22906   2.534   0.160   0.987
 7336SOL    HW122907   2.450   0.149   1.041
 7336SOL    HW222908   2.514   0.139   0.891
 7337SOL     OW22909   3.359   1.333   3.641
 7337SOL    HW122910   3.394   1.384   3.563
 7337SOL    HW222911   3.328   1.243   3.612
 7338SOL     OW22912   5.032   4.335   1.386
 7338SOL    HW122913   4.984   4.364   1.469
 7338SOL    HW222914   4.974   4.353   1.306
 7339SOL     OW22915   0.193   6.546   4.769
 7339SOL    HW122916   0.282   6.557   4.726
 7339SOL    HW222917   0.187   6.456   4.811
 7340SOL     OW22918   2.554   6.119   7.000
 7340SOL    HW122919   2.483   6.167   6.949
 7340SOL    HW222920   2.522   6.100   0.067
 7341SOL     OW22921   6.276   5.379   3.531
 7341SOL    HW122922   6.279   5.479   3.538
 7341SOL    HW222923   6.367   5.345   3.505
 7342SOL     OW22924   0.838   5.159   0.402
 7342SOL    HW122925   0.934   5.176   0.382
 7342SOL    HW222926   0.817   5.062   0.387
 7343SOL     OW22927   6.607   2.361   3.304
 7343SOL    HW122928   6.530   2.300   3.284
 7343SOL    HW222929   6.651   2.332   3.389
 7344SOL     OW22930   2.160   0.909   6.422
 7344SOL    HW122931   2.146   0.822   6.470
 7344SOL    HW222932   2.256   0.918   6.397
 7345SOL     OW22933   2.276   6.736   6.630
 7345SOL    HW122934   2.180   6.709   6.644
 7345SOL    HW222935   2.290   6.829   6.663
 7346SOL     OW22936   3.739   4.973   2.835
 7346SOL    HW122937   3.672   5.020   2.778
 7346SOL    HW222938   3.704   4.966   2.929
 7347SOL     OW22939   6.380   2.881   2.928
 7347SOL    HW122940   6.428   2.930   2.855
 7347SOL    HW222941   6.283   2.873   2.905
 7348SOL     OW22942   6.377   1.402   5.983
 7348SOL    HW122943   6.441   1.338   5.940
 7348SOL    HW222944   6.404   1.416   6.078
 7349SOL     OW22945   4.032   1.634   1.471
 7349SOL    HW122946   4.056   1.632   1.374
 7349SOL    HW222947   3.939   1.668   1.482
 7350SOL     OW22948   2.794   0.999   3.069
 7350SOL    HW122949   2.801   1.089   3.026
 7350SOL    HW222950   2.709   0.993   3.121
 7351SOL     OW22951   4.384   4.486   0.859
 7351SOL    HW122952   4.416   4.569   0.905
 7351SOL    HW222953   4.443   4.409   0.883
 7352SOL     OW22954   6.680   0.678   3.270
 7352SOL    HW122955   6.774   0.709   3.288
 7352SOL    HW222956   6.632   0.667   3.357
 7353SOL     OW22957   5.482   1.320   5.577
 7353SOL    HW122958   5.437   1.251   5.521
 7353SOL    HW222959   5.551   1.276   5.635
 7354SOL     OW22960   5.901   4.880   4.875
 7354SOL    HW122961   5.899   4.965   4.823
 7354SOL    HW222962   5.958   4.893   4.957
 7355SOL     OW22963   0.261   5.799   1.137
 7355SOL    HW122964   0.354   5.791   1.104
 7355SOL    HW222965   0.260   5.793   1.237
 7356SOL     OW22966   0.258   2.205   5.745
 7356SOL    HW122967   0.179   2.215   5.684
 7356SOL    HW222968   0.339   2.184   5.690
 7357SOL     OW22969   0.799   1.439   0.240
 7357SOL    HW122970   0.716   1.395   0.274
 7357SOL    HW222971   0.851   1.476   0.317
 7358SOL     OW22972   3.531   0.876   3.916
 7358SOL    HW122973   3.497   0.837   3.830
 7358SOL    HW222974   3.564   0.969   3.900
 7359SOL     OW22975   3.280   2.930   3.549
 7359SOL    HW122976   3.372   2.890   3.542
 7359SOL    HW222977   3.270   3.004   3.483
 7360SOL     OW22978   0.453   3.943   6.358
 7360SOL    HW122979   0.500   3.871   6.307
 7360SOL    HW222980   0.354   3.933   6.347
 7361SOL     OW22981   4.507   6.748   1.573
 7361SOL    HW122982   4.483   6.777   1.481
 7361SOL    HW222983   4.526   6.649   1.574
 7362SOL     OW22984   1.972   6.083   6.144
 7362SOL    HW122985   1.894   6.047   6.092
 7362SOL    HW222986   2.025   6.007   6.182
 7363SOL     OW22987   4.849   2.664   6.553
 7363SOL    HW122988   4.848   2.568   6.582
 7363SOL    HW222989   4.818   2.721   6.629
 7364SOL     OW22990   4.490   0.223   1.368
 7364SOL    HW122991   4.506   0.311   1.412
 7364SOL    HW222992   4.522   0.149   1.427
 7365SOL     OW22993   4.578   0.059   1.583
 7365SOL    HW122994   4.669   0.072   1.546
 7365SOL    HW222995   4.569   0.107   1.671
 7366SOL     OW22996   1.438   6.920   0.339
 7366SOL    HW122997   1.459   6.823   0.354
 7366SOL    HW222998   1.395   6.931   0.249
 7367SOL     OW22999   4.709   2.689   0.050
 7367SOL    HW123000   4.634   2.752   0.029
 7367SOL    HW223001   4.745   2.710   0.141
 7368SOL     OW23002   3.428   2.943   4.083
 7368SOL    HW123003   3.431   3.035   4.123
 7368SOL    HW223004   3.347   2.895   4.118
 7369SOL     OW23005   5.500   0.833   6.331
 7369SOL    HW123006   5.430   0.870   6.269
 7369SOL    HW223007   5.542   0.752   6.289
 7370SOL     OW23008   0.845   5.744   0.781
 7370SOL    HW123009   0.806   5.831   0.813
 7370SOL    HW223010   0.883   5.756   0.690
 7371SOL     OW23011   1.709   4.656   4.565
 7371SOL    HW123012   1.732   4.663   4.468
 7371SOL    HW223013   1.753   4.730   4.616
 7372SOL     OW23014   3.004   0.474   4.984
 7372SOL    HW123015   2.962   0.489   4.895
 7372SOL    HW223016   2.934   0.479   5.055
 7373SOL     OW23017   3.790   0.346   1.194
 7373SOL    HW123018   3.843   0.277   1.243
 7373SOL    HW223019   3.773   0.424   1.255
 7374SOL     OW23020   2.381   3.234   6.643
 7374SOL    HW123021   2.322   3.212   6.721
 7374SOL    HW223022   2.358   3.174   6.566
 7375SOL     OW23023   2.905   6.396   2.992
 7375SOL    HW123024   2.825   6.359   3.038
 7375SOL    HW223025   2.901   6.375   2.895
 7376SOL     OW23026   2.892   3.870   6.226
 7376SOL    HW123027   2.945   3.900   6.147
 7376SOL    HW223028   2.868   3.773   6.215
 7377SOL     OW23029   6.048   6.058   1.637
 7377SOL    HW123030   6.099   6.127   1.586
 7377SOL    HW223031   6.085   5.967   1.617
 7378SOL     OW23032   0.140   2.700   5.543
 7378SOL    HW123033   0.162   2.797   5.558
 7378SOL    HW223034   0.156   2.649   5.628
 7379SOL     OW23035   4.369   0.617   0.457
 7379SOL    HW123036   4.430   0.615   0.537
 7379SOL    HW223037   4.409   0.677   0.387
 7380SOL     OW23038   0.004   2.877   6.132
 7380SOL    HW123039   6.965   2.943   6.092
 7380SOL    HW223040   6.983   2.826   6.205
 7381SOL     OW23041   4.936   2.179   0.352
 7381SOL    HW123042   4.924   2.095   0.299
 7381SOL    HW223043   5.020   2.224   0.324
 7382SOL     OW23044   0.930   5.819   3.803
 7382SOL    HW123045   0.995   5.895   3.810
 7382SOL    HW223046   0.952   5.763   3.723
 7383SOL     OW23047   1.241   4.729   3.093
 7383SOL    HW123048   1.184   4.649   3.110
 7383SOL    HW223049   1.272   4.767   3.180
 7384SOL     OW23050   6.359   2.088   0.985
 7384SOL    HW123051   6.416   2.043   0.916
 7384SOL    HW223052   6.402   2.173   1.014
 7385SOL     OW23053   4.844   0.657   1.953
 7385SOL    HW123054   4.834   0.573   1.900
 7385SOL    HW223055   4.763   0.714   1.939
 7386SOL     OW23056   0.127   2.305   5.977
 7386SOL    HW123057   0.204   2.362   6.008
 7386SOL    HW223058   0.163   2.229   5.923
 7387SOL     OW23059   5.293   6.433   3.703
 7387SOL    HW123060   5.332   6.495   3.635
 7387SOL    HW223061   5.345   6.347   3.705
 7388SOL     OW23062   5.287   4.084   5.003
 7388SOL    HW123063   5.235   4.054   4.922
 7388SOL    HW223064   5.373   4.033   5.008
 7389SOL     OW23065   0.651   3.398   4.474
 7389SOL    HW123066   0.585   3.327   4.450
 7389SOL    HW223067   0.710   3.364   4.547
 7390SOL     OW23068   3.490   0.692   6.239
 7390SOL    HW123069   3.588   0.672   6.241
 7390SOL    HW223070   3.438   0.611   6.265
 7391SOL     OW23071   6.899   4.950   6.973
 7391SOL    HW123072   6.933   4.874   0.003
 7391SOL    HW223073   6.948   5.034   6.998
 7392SOL     OW23074   2.085   4.468   2.202
 7392SOL    HW123075   2.051   4.402   2.135
 7392SOL    HW223076   2.161   4.427   2.253
 7393SOL     OW23077   1.160   4.057   0.185
 7393SOL    HW123078   1.075   4.088   0.142
 7393SOL    HW223079   1.161   3.957   0.190
 7394SOL     OW23080   2.413   2.647   5.811
 7394SOL    HW123081   2.430   2.640   5.713
 7394SOL    HW223082   2.319   2.680   5.826
 7395SOL     OW23083   2.238   0.159   0.048
 7395SOL    HW123084   2.243   0.246   0.097
 7395SOL    HW223085   2.222   0.176   6.977
 7396SOL     OW23086   6.638   6.872   1.627
 7396SOL    HW123087   6.541   6.877   1.651
 7396SOL    HW223088   6.649   6.889   1.529
 7397SOL     OW23089   6.391   4.176   4.369
 7397SOL    HW123090   6.465   4.238   4.345
 7397SOL    HW223091   6.413   4.084   4.337
 7398SOL     OW23092   4.751   6.512   3.279
 7398SOL    HW123093   4.652   6.495   3.283
 7398SOL    HW223094   4.784   6.499   3.186
 7399SOL     OW23095   5.319   4.241   4.716
 7399SOL    HW123096   5.347   4.210   4.625
 7399SOL    HW223097   5.356   4.178   4.785
 7400SOL     OW23098   3.134   3.801   0.490
 7400SOL    HW123099   3.233   3.814   0.500
 7400SOL    HW223100   3.087   3.842   0.568
 7401SOL     OW23101   5.896   2.202   5.128
 7401SOL    HW123102   5.833   2.198   5.206
 7401SOL    HW223103   5.958   2.280   5.139
 7402SOL     OW23104   2.818   6.202   4.252
 7402SOL    HW123105   2.917   6.215   4.253
 7402SOL    HW223106   2.796   6.110   4.222
 7403SOL     OW23107   2.881   2.942   1.396
 7403SOL    HW123108   2.849   2.860   1.349
 7403SOL    HW223109   2.803   3.000   1.418
 7404SOL     OW23110   0.813   1.827   2.697
 7404SOL    HW123111   0.835   1.768   2.619
 7404SOL    HW223112   0.875   1.906   2.697
 7405SOL     OW23113   3.822   4.947   6.263
 7405SOL    HW123114   3.805   4.989   6.352
 7405SOL    HW223115   3.823   4.847   6.273
 7406SOL     OW23116   0.250   6.377   2.144
 7406SOL    HW123117   0.268   6.364   2.242
 7406SOL    HW223118   0.334   6.359   2.092
 7407SOL     OW23119   2.699   0.559   6.191
 7407SOL    HW123120   2.689   0.482   6.128
 7407SOL    HW223121   2.757   0.532   6.268
 7408SOL     OW23122   1.009   3.728   5.019
 7408SOL    HW123123   0.981   3.808   4.966
 7408SOL    HW223124   1.045   3.758   5.107
 7409SOL     OW23125   2.479   6.915   5.334
 7409SOL    HW123126   2.468   7.008   5.299
 7409SOL    HW223127   2.432   6.907   5.422
 7410SOL     OW23128   4.596   5.547   6.581
 7410SOL    HW123129   4.548   5.550   6.493
 7410SOL    HW223130   4.668   5.616   6.582
 7411SOL     OW23131   5.136   4.772   5.782
 7411SOL    HW123132   5.095   4.862   5.776
 7411SOL    HW223133   5.084   4.707   5.727
 7412SOL     OW23134   1.462   1.377   6.454
 7412SOL    HW123135   1.460   1.476   6.468
 7412SOL    HW223136   1.409   1.354   6.372
 7413SOL     OW23137   6.713   3.611   3.923
 7413SOL    HW123138   6.719   3.529   3.866
 7413SOL    HW223139   6.792   3.670   3.905
 7414SOL     OW23140   0.686   4.880   1.713
 7414SOL    HW123141   0.777   4.876   1.672
 7414SOL    HW223142   0.654   4.787   1.732
 7415SOL     OW23143   3.312   1.837   3.355
 7415SOL    HW123144   3.386   1.800   3.299
 7415SOL    HW223145   3.225   1.802   3.322
 7416SOL     OW23146   6.325   7.017   3.387
 7416SOL    HW123147   6.383   6.967   3.322
 7416SOL    HW223148   6.351   0.088   3.387
 7417SOL     OW23149   0.797   5.276   0.931
 7417SOL    HW123150   0.853   5.344   0.884
 7417SOL    HW223151   0.794   5.192   0.877
 7418SOL     OW23152   1.025   3.530   0.447
 7418SOL    HW123153   1.108   3.507   0.498
 7418SOL    HW223154   0.987   3.616   0.482
 7419SOL     OW23155   5.791   1.853   5.262
 7419SOL    HW123156   5.832   1.909   5.334
 7419SOL    HW223157   5.697   1.882   5.247
 7420SOL     OW23158   7.019   5.438   2.218
 7420SOL    HW123159   0.091   5.458   2.226
 7420SOL    HW223160   6.975   5.452   2.307
 7421SOL     OW23161   4.388   2.040   1.196
 7421SOL    HW123162   4.481   2.016   1.224
 7421SOL    HW223163   4.333   1.958   1.187
 7422SOL     OW23164   0.920   1.474   0.486
 7422SOL    HW123165   0.969   1.556   0.457
 7422SOL    HW223166   0.897   1.482   0.583
 7423SOL     OW23167   2.243   4.316   0.278
 7423SOL    HW123168   2.291   4.390   0.229
 7423SOL    HW223169   2.278   4.311   0.371
 7424SOL     OW23170   5.243   0.123   4.889
 7424SOL    HW123171   5.277   0.130   4.795
 7424SOL    HW223172   5.188   0.204   4.911
 7425SOL     OW23173   3.626   0.215   4.895
 7425SOL    HW123174   3.672   0.279   4.957
 7425SOL    HW223175   3.647   0.121   4.921
 7426SOL     OW23176   0.033   1.589   6.439
 7426SOL    HW123177   0.030   1.500   6.484
 7426SOL    HW223178   6.973   1.638   6.454
 7427SOL     OW23179   5.205   5.693   5.075
 7427SOL    HW123180   5.264   5.693   5.156
 7427SOL    HW223181   5.248   5.745   5.002
 7428SOL     OW23182   4.334   1.339   5.906
 7428SOL    HW123183   4.372   1.376   5.821
 7428SOL    HW223184   4.391   1.368   5.984
 7429SOL     OW23185   6.384   6.408   4.144
 7429SOL    HW123186   6.308   6.471   4.156
 7429SOL    HW223187   6.385   6.342   4.220
 7430SOL     OW23188   0.529   4.189   4.392
 7430SOL    HW123189   0.570   4.155   4.307
 7430SOL    HW223190   0.500   4.111   4.448
 7431SOL     OW23191   0.653   3.994   2.722
 7431SOL    HW123192   0.604   3.946   2.649
 7431SOL    HW223193   0.746   4.014   2.692
 7432SOL     OW23194   1.647   6.779   5.007
 7432SOL    HW123195   1.644   6.773   5.106
 7432SOL    HW223196   1.568   6.732   4.968
 7433SOL     OW23197   0.442   6.328   1.228
 7433SOL    HW123198   0.443   6.234   1.193
 7433SOL    HW223199   0.362   6.375   1.194
 7434SOL     OW23200   3.832   6.799   0.301
 7434SOL    HW123201   3.752   6.853   0.329
 7434SOL    HW223202   3.914   6.836   0.344
 7435SOL     OW23203   1.810   6.185   6.936
 7435SOL    HW123204   1.760   6.161   6.853
 7435SOL    HW223205   1.789   6.117   7.008
 7436SOL     OW23206   4.185   3.473   6.934
 7436SOL    HW123207   4.246   3.548   6.910
 7436SOL    HW223208   4.118   3.505   7.001
 7437SOL     OW23209   6.913   6.464   5.594
 7437SOL    HW123210   6.882   6.442   5.687
 7437SOL    HW223211   6.955   6.555   5.594
 7438SOL     OW23212   5.462   4.239   1.497
 7438SOL    HW123213   5.540   4.287   1.459
 7438SOL    HW223214   5.451   4.264   1.593
 7439SOL     OW23215   1.138   6.277   3.099
 7439SOL    HW123216   1.047   6.243   3.123
 7439SOL    HW223217   1.133   6.326   3.012
 7440SOL     OW23218   0.598   1.309   3.806
 7440SOL    HW123219   0.656   1.228   3.813
 7440SOL    HW223220   0.614   1.354   3.718
 7441SOL     OW23221   6.184   0.454   3.626
 7441SOL    HW123222   6.220   0.542   3.658
 7441SOL    HW223223   6.242   0.380   3.661
 7442SOL     OW23224   1.808   0.620   5.993
 7442SOL    HW123225   1.828   0.618   5.895
 7442SOL    HW223226   1.891   0.647   6.043
 7443SOL     OW23227   6.550   2.137   1.980
 7443SOL    HW123228   6.585   2.213   1.925
 7443SOL    HW223229   6.451   2.147   1.991
 7444SOL     OW23230   0.385   2.706   4.795
 7444SOL    HW123231   0.308   2.700   4.859
 7444SOL    HW223232   0.397   2.618   4.749
 7445SOL     OW23233   6.038   3.013   1.718
 7445SOL    HW123234   5.966   2.945   1.731
 7445SOL    HW223235   6.000   3.105   1.728
 7446SOL     OW23236   6.081   3.455   2.970
 7446SOL    HW123237   5.988   3.459   3.005
 7446SOL    HW223238   6.104   3.361   2.947
 7447SOL     OW23239   6.995   4.070   6.228
 7447SOL    HW123240   7.014   4.154   6.279
 7447SOL    HW223241   6.898   4.046   6.239
 7448SOL     OW23242   0.225   7.007   6.209
 7448SOL    HW123243   0.266   0.054   6.265
 7448SOL    HW223244   0.182   6.940   6.269
 7449SOL     OW23245   4.135   0.043   1.486
 7449SOL    HW123246   4.187   7.003   1.542
 7449SOL    HW223247   4.141   0.134   1.527
 7450SOL     OW23248   3.843   0.762   2.009
 7450SOL    HW123249   3.835   0.712   2.096
 7450SOL    HW223250   3.835   0.697   1.933
 7451SOL     OW23251   1.444   0.366   2.907
 7451SOL    HW123252   1.437   0.379   2.809
 7451SOL    HW223253   1.357   0.332   2.943
 7452SOL     OW23254   1.660   6.400   3.347
 7452SOL    HW123255   1.691   6.310   3.378
 7452SOL    HW223256   1.620   6.393   3.256
 7453SOL     OW23257   5.894   5.045   5.878
 7453SOL    HW123258   5.920   4.953   5.849
 7453SOL    HW223259   5.814   5.041   5.937
 7454SOL     OW23260   0.922   3.422   6.579
 7454SOL    HW123261   0.827   3.443   6.604
 7454SOL    HW223262   0.983   3.479   6.634
 7455SOL     OW23263   5.225   0.863   1.072
 7455SOL    HW123264   5.320   0.848   1.102
 7455SOL    HW223265   5.215   0.831   0.977
 7456SOL     OW23266   1.076   3.784   5.593
 7456SOL    HW123267   1.080   3.884   5.585
 7456SOL    HW223268   0.998   3.750   5.540
 7457SOL     OW23269   6.400   0.153   5.767
 7457SOL    HW123270   6.341   0.233   5.778
 7457SOL    HW223271   6.494   0.178   5.790
 7458SOL     OW23272   2.281   0.386   1.287
 7458SOL    HW123273   2.266   0.457   1.219
 7458SOL    HW223274   2.310   0.427   1.373
 7459SOL     OW23275   4.376   6.870   4.704
 7459SOL    HW123276   4.300   6.916   4.659
 7459SOL    HW223277   4.382   6.900   4.799
 7460SOL     OW23278   1.142   5.859   0.055
 7460SOL    HW123279   1.051   5.883   0.089
 7460SOL    HW223280   1.189   5.942   0.026
 7461SOL     OW23281   4.329   1.088   4.343
 7461SOL    HW123282   4.239   1.112   4.377
 7461SOL    HW223283   4.364   1.008   4.391
 7462SOL     OW23284   1.784   1.002   2.924
 7462SOL    HW123285   1.851   0.933   2.952
 7462SOL    HW223286   1.695   0.980   2.962
 7463SOL     OW23287   3.660   3.680   1.996
 7463SOL    HW123288   3.707   3.741   2.060
 7463SOL    HW223289   3.721   3.605   1.970
 7464SOL     OW23290   4.726   6.739   0.002
 7464SOL    HW123291   4.812   6.789   7.015
 7464SOL    HW223292   4.649   6.797   7.002
 7465SOL     OW23293   3.644   0.580   2.639
 7465SOL    HW123294   3.658   0.520   2.718
 7465SOL    HW223295   3.705   0.659   2.647
 7466SOL     OW23296   6.484   0.036   0.068
 7466SOL    HW123297   6.499   0.110   0.134
 7466SOL    HW223298   6.399   7.015   0.089
 7467SOL     OW23299   4.962   1.676   0.885
 7467SOL    HW123300   5.044   1.715   0.926
 7467SOL    HW223301   4.890   1.746   0.883
 7468SOL     OW23302   6.159   3.800   4.200
 7468SOL    HW123303   6.092   3.733   4.171
 7468SOL    HW223304   6.117   3.891   4.201
 7469SOL     OW23305   5.589   0.905   2.091
 7469SOL    HW123306   5.676   0.940   2.059
 7469SOL    HW223307   5.601   0.812   2.128
 7470SOL     OW23308   6.844   3.405   2.835
 7470SOL    HW123309   6.924   3.434   2.888
 7470SOL    HW223310   6.874   3.365   2.749
 7471SOL     OW23311   6.217   4.748   5.699
 7471SOL    HW123312   6.125   4.724   5.730
 7471SOL    HW223313   6.217   4.840   5.660
 7472SOL     OW23314   4.138   5.047   3.051
 7472SOL    HW123315   4.219   5.016   3.101
 7472SOL    HW223316   4.061   4.987   3.071
 7473SOL     OW23317   0.587   3.165   5.044
 7473SOL    HW123318   0.659   3.170   5.113
 7473SOL    HW223319   0.618   3.111   4.966
 7474SOL     OW23320   3.108   2.011   3.147
 7474SOL    HW123321   3.101   2.017   3.247
 7474SOL    HW223322   3.017   1.991   3.109
 7475SOL     OW23323   4.633   1.113   6.897
 7475SOL    HW123324   4.665   1.048   6.967
 7475SOL    HW223325   4.542   1.146   6.923
 7476SOL     OW23326   2.567   6.982   4.962
 7476SOL    HW123327   2.468   6.981   4.976
 7476SOL    HW223328   2.595   6.895   4.921
 7477SOL     OW23329   4.987   3.613   3.986
 7477SOL    HW123330   4.939   3.526   3.998
 7477SOL    HW223331   4.985   3.663   4.072
 7478SOL     OW23332   1.183   4.617   1.802
 7478SOL    HW123333   1.221   4.660   1.720
 7478SOL    HW223334   1.240   4.640   1.881
 7479SOL     OW23335   4.343   0.334   5.332
 7479SOL    HW123336   4.323   0.416   5.386
 7479SOL    HW223337   4.343   0.357   5.235
 7480SOL     OW23338   6.395   5.567   0.608
 7480SOL    HW123339   6.428   5.615   0.527
 7480SOL    HW223340   6.317   5.509   0.584
 7481SOL     OW23341   5.903   6.135   0.345
 7481SOL    HW123342   5.910   6.139   0.445
 7481SOL    HW223343   5.809   6.159   0.318
 7482SOL     OW23344   5.392   6.774   4.182
 7482SOL    HW123345   5.403   6.832   4.263
 7482SOL    HW223346   5.405   6.830   4.100
 7483SOL     OW23347   3.186   0.643   5.798
 7483SOL    HW123348   3.105   0.680   5.755
 7483SOL    HW223349   3.174   0.642   5.898
 7484SOL     OW23350   3.684   0.532   2.039
 7484SOL    HW123351   3.766   0.475   2.047
 7484SOL    HW223352   3.660   0.569   2.128
 7485SOL     OW23353   1.105   0.377   4.963
 7485SOL    HW123354   1.165   0.425   4.900
 7485SOL    HW223355   1.026   0.435   4.985
 7486SOL     OW23356   1.118   1.703   5.257
 7486SOL    HW123357   1.144   1.656   5.173
 7486SOL    HW223358   1.101   1.800   5.237
 7487SOL     OW23359   3.588   5.257   3.435
 7487SOL    HW123360   3.683   5.246   3.466
 7487SOL    HW223361   3.580   5.341   3.382
 7488SOL     OW23362   4.329   0.591   5.410
 7488SOL    HW123363   4.253   0.641   5.370
 7488SOL    HW223364   4.414   0.642   5.396
 7489SOL     OW23365   6.693   3.754   3.521
 7489SOL    HW123366   6.695   3.840   3.572
 7489SOL    HW223367   6.763   3.692   3.558
 7490SOL     OW23368   5.630   1.134   3.127
 7490SOL    HW123369   5.594   1.206   3.068
 7490SOL    HW223370   5.692   1.173   3.195
 7491SOL     OW23371   0.632   6.882   0.157
 7491SOL    HW123372   0.541   6.841   0.154
 7491SOL    HW223373   0.701   6.809   0.160
 7492SOL     OW23374   2.390   2.115   3.457
 7492SOL    HW123375   2.366   2.044   3.390
 7492SOL    HW223376   2.432   2.192   3.410
 7493SOL     OW23377   5.229   5.261   6.757
 7493SOL    HW123378   5.137   5.237   6.789
 7493SOL    HW223379   5.223   5.315   6.674
 7494SOL     OW23380   4.962   2.090   1.345
 7494SOL    HW123381   4.944   2.105   1.248
 7494SOL    HW223382   4.984   2.178   1.388
 7495SOL     OW23383   0.989   1.892   2.223
 7495SOL    HW123384   0.928   1.963   2.258
 7495SOL    HW223385   1.082   1.928   2.215
 7496SOL     OW23386   0.239   5.404   5.742
 7496SOL    HW123387   0.169   5.333   5.745
 7496SOL    HW223388   0.265   5.430   5.835
 7497SOL     OW23389   1.841   4.723   1.962
 7497SOL    HW123390   1.917   4.733   2.027
 7497SOL    HW223391   1.858   4.645   1.903
 7498SOL     OW23392   5.329   2.192   4.598
 7498SOL    HW123393   5.342   2.095   4.578
 7498SOL    HW223394   5.236   2.219   4.571
 7499SOL     OW23395   3.960   4.816   4.048
 7499SOL    HW123396   3.998   4.815   4.140
 7499SOL    HW223397   3.861   4.800   4.053
 7500SOL     OW23398   4.735   4.341   1.839
 7500SOL    HW123399   4.739   4.439   1.859
 7500SOL    HW223400   4.647   4.305   1.869
 7501SOL     OW23401   0.370   4.960   3.988
 7501SOL    HW123402   0.322   4.917   3.912
 7501SOL    HW223403   0.468   4.940   3.981
 7502SOL     OW23404   1.870   2.210   4.149
 7502SOL    HW123405   1.868   2.222   4.249
 7502SOL    HW223406   1.780   2.182   4.117
 7503SOL     OW23407   2.452   2.899   6.675
 7503SOL    HW123408   2.442   2.950   6.590
 7503SOL    HW223409   2.365   2.855   6.698
 7504SOL     OW23410   4.035   5.100   3.387
 7504SOL    HW123411   4.041   5.002   3.371
 7504SOL    HW223412   3.966   5.140   3.327
 7505SOL     OW23413   1.311   1.245   4.427
 7505SOL    HW123414   1.319   1.181   4.350
 7505SOL    HW223415   1.244   1.316   4.403
 7506SOL     OW23416   3.501   1.457   3.378
 7506SOL    HW123417   3.582   1.506   3.347
 7506SOL    HW223418   3.440   1.440   3.300
 7507SOL     OW23419   1.925   6.261   5.537
 7507SOL    HW123420   1.918   6.267   5.636
 7507SOL    HW223421   1.857   6.197   5.502
 7508SOL     OW23422   5.038   5.336   4.059
 7508SOL    HW123423   4.946   5.370   4.080
 7508SOL    HW223424   5.075   5.290   4.139
 7509SOL     OW23425   4.152   3.748   6.528
 7509SOL    HW123426   4.184   3.805   6.604
 7509SOL    HW223427   4.216   3.672   6.515
 7510SOL     OW23428   3.583   3.969   4.799
 7510SOL    HW123429   3.524   3.980   4.879
 7510SOL    HW223430   3.540   4.011   4.719
 7511SOL     OW23431   0.861   0.689   2.089
 7511SOL    HW123432   0.902   0.777   2.116
 7511SOL    HW223433   0.906   0.615   2.138
 7512SOL     OW23434   1.885   2.896   1.742
 7512SOL    HW123435   1.872   2.916   1.840
 7512SOL    HW223436   1.972   2.848   1.730
 7513SOL     OW23437   1.608   3.434   6.215
 7513SOL    HW123438   1.527   3.391   6.255
 7513SOL    HW223439   1.588   3.530   6.195
 7514SOL     OW23440   3.317   5.629   3.713
 7514SOL    HW123441   3.359   5.595   3.629
 7514SOL    HW223442   3.234   5.577   3.733
 7515SOL     OW23443   0.309   4.919   2.742
 7515SOL    HW123444   0.304   4.914   2.642
 7515SOL    HW223445   0.400   4.889   2.772
 7516SOL     OW23446   1.160   1.987   1.663
 7516SOL    HW123447   1.104   1.913   1.627
 7516SOL    HW223448   1.178   1.973   1.760
 7517SOL     OW23449   0.898   4.699   1.094
 7517SOL    HW123450   0.810   4.708   1.046
 7517SOL    HW223451   0.898   4.615   1.147
 7518SOL     OW23452   5.035   4.595   3.631
 7518SOL    HW123453   5.114   4.580   3.690
 7518SOL    HW223454   5.058   4.665   3.563
 7519SOL     OW23455   1.511   0.399   4.351
 7519SOL    HW123456   1.507   0.314   4.404
 7519SOL    HW223457   1.602   0.410   4.311
 7520SOL     OW23458   2.690   0.201   4.103
 7520SOL    HW123459   2.600   0.157   4.104
 7520SOL    HW223460   2.679   0.299   4.086
 7521SOL     OW23461   4.155   3.297   5.510
 7521SOL    HW123462   4.119   3.389   5.496
 7521SOL    HW223463   4.255   3.301   5.517
 7522SOL     OW23464   1.717   0.258   2.403
 7522SOL    HW123465   1.805   0.245   2.357
 7522SOL    HW223466   1.681   0.169   2.431
 7523SOL     OW23467   5.871   6.815   6.252
 7523SOL    HW123468   5.815   6.847   6.175
 7523SOL    HW223469   5.907   6.725   6.231
 7524SOL     OW23470   5.973   1.235   4.779
 7524SOL    HW123471   5.904   1.282   4.723
 7524SOL    HW223472   5.951   1.137   4.782
 7525SOL     OW23473   0.735   6.892   0.637
 7525SOL    HW123474   0.703   6.870   0.729
 7525SOL    HW223475   0.659   6.885   0.573
 7526SOL     OW23476   3.643   3.204   4.750
 7526SOL    HW123477   3.659   3.299   4.775
 7526SOL    HW223478   3.730   3.159   4.734
 7527SOL     OW23479   4.662   5.767   2.313
 7527SOL    HW123480   4.693   5.797   2.403
 7527SOL    HW223481   4.710   5.683   2.287
 7528SOL     OW23482   5.818   3.460   6.758
 7528SOL    HW123483   5.764   3.427   6.836
 7528SOL    HW223484   5.849   3.553   6.776
 7529SOL     OW23485   2.823   0.084   5.036
 7529SOL    HW123486   2.866   0.102   4.947
 7529SOL    HW223487   2.742   0.027   5.022
 7530SOL     OW23488   6.799   2.969   3.046
 7530SOL    HW123489   6.706   2.997   3.071
 7530SOL    HW223490   6.815   2.875   3.074
 7531SOL     OW23491   2.808   1.386   4.718
 7531SOL    HW123492   2.788   1.484   4.717
 7531SOL    HW223493   2.875   1.366   4.790
 7532SOL     OW23494   4.917   4.954   2.504
 7532SOL    HW123495   4.858   5.006   2.443
 7532SOL    HW223496   4.919   4.858   2.474
 7533SOL     OW23497   3.590   0.574   4.830
 7533SOL    HW123498   3.673   0.547   4.783
 7533SOL    HW223499   3.606   0.658   4.881
 7534SOL     OW23500   5.613   6.599   4.394
 7534SOL    HW123501   5.563   6.514   4.377
 7534SOL    HW223502   5.674   6.587   4.473
 7535SOL     OW23503   3.321   4.695   0.758
 7535SOL    HW123504   3.379   4.635   0.814
 7535SOL    HW223505   3.294   4.775   0.811
 7536SOL     OW23506   3.391   5.869   5.187
 7536SOL    HW123507   3.368   5.856   5.283
 7536SOL    HW223508   3.327   5.819   5.130
 7537SOL     OW23509   2.230   4.677   5.595
 7537SOL    HW123510   2.200   4.694   5.689
 7537SOL    HW223511   2.199   4.752   5.537
 7538SOL     OW23512   2.914   3.392   3.826
 7538SOL    HW123513   2.869   3.312   3.788
 7538SOL    HW223514   2.916   3.385   3.926
 7539SOL     OW23515   1.418   2.292   4.468
 7539SOL    HW123516   1.372   2.207   4.493
 7539SOL    HW223517   1.361   2.370   4.492
 7540SOL     OW23518   2.211   0.945   6.741
 7540SOL    HW123519   2.270   0.864   6.739
 7540SOL    HW223520   2.135   0.932   6.677
 7541SOL     OW23521   6.631   2.742   5.222
 7541SOL    HW123522   6.704   2.675   5.208
 7541SOL    HW223523   6.602   2.779   5.134
 7542SOL     OW23524   1.553   0.282   6.198
 7542SOL    HW123525   1.484   0.248   6.135
 7542SOL    HW223526   1.633   0.314   6.145
 7543SOL     OW23527   3.483   2.236   0.317
 7543SOL    HW123528   3.461   2.161   0.379
 7543SOL    HW223529   3.540   2.203   0.242
 7544SOL     OW23530   1.074   2.128   2.378
 7544SOL    HW123531   1.129   2.045   2.389
 7544SOL    HW223532   1.066   2.175   2.466
 7545SOL     OW23533   4.208   0.533   3.886
 7545SOL    HW123534   4.180   0.595   3.960
 7545SOL    HW223535   4.175   0.568   3.799
 7546SOL     OW23536   5.511   6.898   5.746
 7546SOL    HW123537   5.565   6.982   5.759
 7546SOL    HW223538   5.501   6.879   5.649
 7547SOL     OW23539   2.911   0.216   6.933
 7547SOL    HW123540   2.980   0.288   6.932
 7547SOL    HW223541   2.820   0.257   6.921
 7548SOL     OW23542   0.959   3.340   1.665
 7548SOL    HW123543   0.954   3.437   1.642
 7548SOL    HW223544   0.875   3.295   1.635
 7549SOL     OW23545   5.562   1.596   2.730
 7549SOL    HW123546   5.605   1.678   2.769
 7549SOL    HW223547   5.631   1.543   2.680
 7550SOL     OW23548   1.278   5.404   1.086
 7550SOL    HW123549   1.258   5.320   1.036
 7550SOL    HW223550   1.277   5.481   1.022
 7551SOL     OW23551   5.089   4.422   6.630
 7551SOL    HW123552   5.133   4.340   6.593
 7551SOL    HW223553   5.142   4.457   6.707
 7552SOL     OW23554   3.507   5.658   3.904
 7552SOL    HW123555   3.443   5.667   3.827
 7552SOL    HW223556   3.463   5.608   3.978
 7553SOL     OW23557   4.320   4.245   5.889
 7553SOL    HW123558   4.290   4.316   5.825
 7553SOL    HW223559   4.404   4.275   5.935
 7554SOL     OW23560   0.008   1.425   0.875
 7554SOL    HW123561   6.985   1.436   0.962
 7554SOL    HW223562   0.057   1.509   0.853
 7555SOL     OW23563   1.413   6.198   5.912
 7555SOL    HW123564   1.335   6.141   5.936
 7555SOL    HW223565   1.385   6.267   5.845
 7556SOL     OW23566   6.508   3.581   3.403
 7556SOL    HW123567   6.455   3.548   3.481
 7556SOL    HW223568   6.582   3.640   3.436
 7557SOL     OW23569   3.892   3.826   0.647
 7557SOL    HW123570   3.898   3.737   0.601
 7557SOL    HW223571   3.945   3.894   0.596
 7558SOL     OW23572   1.758   2.330   3.031
 7558SOL    HW123573   1.816   2.374   2.962
 7558SOL    HW223574   1.816   2.281   3.096
 7559SOL     OW23575   1.440   4.963   0.075
 7559SOL    HW123576   1.453   4.896   0.148
 7559SOL    HW223577   1.347   4.955   0.038
 7560SOL     OW23578   4.645   0.075   5.332
 7560SOL    HW123579   4.643   0.174   5.342
 7560SOL    HW223580   4.716   0.050   5.265
 7561SOL     OW23581   6.892   3.747   0.176
 7561SOL    HW123582   6.861   3.821   0.236
 7561SOL    HW223583   6.970   3.701   0.217
 7562SOL     OW23584   4.572   6.320   4.936
 7562SOL    HW123585   4.520   6.241   4.967
 7562SOL    HW223586   4.634   6.350   5.008
 7563SOL     OW23587   2.623   1.424   3.134
 7563SOL    HW123588   2.541   1.419   3.078
 7563SOL    HW223589   2.599   1.401   3.229
 7564SOL     OW23590   5.478   5.754   4.170
 7564SOL    HW123591   5.508   5.659   4.177
 7564SOL    HW223592   5.552   5.809   4.130
 7565SOL     OW23593   4.951   5.174   6.737
 7565SOL    HW123594   4.979   5.206   6.647
 7565SOL    HW223595   4.918   5.251   6.792
 7566SOL     OW23596   1.750   6.060   4.749
 7566SOL    HW123597   1.836   6.107   4.729
 7566SOL    HW223598   1.687   6.072   4.672
 7567SOL     OW23599   3.020   2.957   0.375
 7567SOL    HW123600   3.117   2.935   0.386
 7567SOL    HW223601   2.998   2.965   0.278
 7568SOL     OW23602   4.398   4.586   2.682
 7568SOL    HW123603   4.434   4.506   2.635
 7568SOL    HW223604   4.360   4.650   2.614
 7569SOL     OW23605   3.955   0.200   1.339
 7569SOL    HW123606   3.964   0.150   1.426
 7569SOL    HW223607   4.025   0.271   1.335
 7570SOL     OW23608   6.156   5.495   5.018
 7570SOL    HW123609   6.133   5.500   4.920
 7570SOL    HW223610   6.171   5.399   5.043
 7571SOL     OW23611   5.598   4.364   1.270
 7571SOL    HW123612   5.665   4.366   1.196
 7571SOL    HW223613   5.506   4.362   1.230
 7572SOL     OW23614   0.508   1.109   3.293
 7572SOL    HW123615   0.553   1.094   3.381
 7572SOL    HW223616   0.561   1.064   3.220
 7573SOL     OW23617   2.704   5.405   5.364
 7573SOL    HW123618   2.776   5.460   5.408
 7573SOL    HW223619   2.746   5.336   5.306
 7574SOL     OW23620   4.813   6.156   2.309
 7574SOL    HW123621   4.750   6.127   2.381
 7574SOL    HW223622   4.830   6.254   2.317
 7575SOL     OW23623   4.890   2.651   4.762
 7575SOL    HW123624   4.933   2.575   4.714
 7575SOL    HW223625   4.792   2.634   4.772
 7576SOL     OW23626   6.644   3.696   1.515
 7576SOL    HW123627   6.651   3.610   1.465
 7576SOL    HW223628   6.661   3.679   1.612
 7577SOL     OW23629   4.484   0.722   4.963
 7577SOL    HW123630   4.583   0.730   4.971
 7577SOL    HW223631   4.461   0.632   4.926
 7578SOL     OW23632   2.506   5.194   4.643
 7578SOL    HW123633   2.520   5.103   4.604
 7578SOL    HW223634   2.594   5.241   4.650
 7579SOL     OW23635   4.507   2.396   3.525
 7579SOL    HW123636   4.551   2.311   3.555
 7579SOL    HW223637   4.576   2.468   3.516
 7580SOL     OW23638   2.144   3.466   2.246
 7580SOL    HW123639   2.184   3.482   2.156
 7580SOL    HW223640   2.205   3.502   2.316
 7581SOL     OW23641   5.448   0.839   1.246
 7581SOL    HW123642   5.388   0.910   1.284
 7581SOL    HW223643   5.528   0.882   1.204
 7582SOL     OW23644   3.240   2.230   1.038
 7582SOL    HW123645   3.306   2.222   0.964
 7582SOL    HW223646   3.253   2.155   1.103
 7583SOL     OW23647   6.956   3.783   2.875
 7583SOL    HW123648   0.007   3.748   2.930
 7583SOL    HW223649   6.992   3.839   2.800
 7584SOL     OW23650   1.965   1.867   1.357
 7584SOL    HW123651   1.940   1.775   1.326
 7584SOL    HW223652   2.048   1.896   1.310
 7585SOL     OW23653   1.395   5.058   6.344
 7585SOL    HW123654   1.428   5.039   6.436
 7585SOL    HW223655   1.341   4.981   6.311
 7586SOL     OW23656   2.223   1.438   2.590
 7586SOL    HW123657   2.318   1.409   2.581
 7586SOL    HW223658   2.196   1.490   2.509
 7587SOL     OW23659   1.778   0.899   6.190
 7587SOL    HW123660   1.781   0.996   6.168
 7587SOL    HW223661   1.864   0.856   6.165
 7588SOL     OW23662   1.144   4.253   2.050
 7588SOL    HW123663   1.164   4.160   2.080
 7588SOL    HW223664   1.228   4.308   2.052
 7589SOL     OW23665   5.278   6.245   6.667
 7589SOL    HW123666   5.350   6.254   6.736
 7589SOL    HW223667   5.216   6.171   6.694
 7590SOL     OW23668   1.608   0.128   6.617
 7590SOL    HW123669   1.558   0.135   6.703
 7590SOL    HW223670   1.595   0.212   6.564
 7591SOL     OW23671   6.294   5.576   6.786
 7591SOL    HW123672   6.308   5.571   6.687
 7591SOL    HW223673   6.339   5.657   6.822
 7592SOL     OW23674   5.221   5.315   6.215
 7592SOL    HW123675   5.152   5.302   6.144
 7592SOL    HW223676   5.301   5.257   6.194
 7593SOL     OW23677   6.032   3.945   0.557
 7593SOL    HW123678   6.023   3.952   0.657
 7593SOL    HW223679   6.055   3.851   0.533
 7594SOL     OW23680   0.798   6.627   3.718
 7594SOL    HW123681   0.789   6.566   3.796
 7594SOL    HW223682   0.892   6.625   3.684
 7595SOL     OW23683   6.571   2.633   6.858
 7595SOL    HW123684   6.598   2.650   6.953
 7595SOL    HW223685   6.485   2.681   6.839
 7596SOL     OW23686   4.593   4.898   2.057
 7596SOL    HW123687   4.617   4.876   1.962
 7596SOL    HW223688   4.509   4.850   2.082
 7597SOL     OW23689   2.891   5.899   1.754
 7597SOL    HW123690   2.792   5.888   1.757
 7597SOL    HW223691   2.915   5.974   1.693
 7598SOL     OW23692   6.861   1.129   2.096
 7598SOL    HW123693   6.900   1.041   2.124
 7598SOL    HW223694   6.761   1.123   2.099
 7599SOL     OW23695   6.352   2.669   2.161
 7599SOL    HW123696   6.294   2.620   2.226
 7599SOL    HW223697   6.392   2.603   2.097
 7600SOL     OW23698   2.113   1.614   2.387
 7600SOL    HW123699   2.041   1.635   2.320
 7600SOL    HW223700   2.146   1.699   2.427
 7601SOL     OW23701   1.643   0.444   4.979
 7601SOL    HW123702   1.699   0.476   4.902
 7601SOL    HW223703   1.564   0.393   4.944
 7602SOL     OW23704   2.297   3.249   5.308
 7602SOL    HW123705   2.234   3.304   5.362
 7602SOL    HW223706   2.265   3.155   5.304
 7603SOL     OW23707   6.979   1.604   1.956
 7603SOL    HW123708   0.009   1.534   2.001
 7603SOL    HW223709   7.025   1.693   1.964
 7604SOL     OW23710   5.219   5.495   0.001
 7604SOL    HW123711   5.177   5.405   0.005
 7604SOL    HW223712   5.219   5.528   6.932
 7605SOL     OW23713   5.635   3.796   6.099
 7605SOL    HW123714   5.600   3.821   6.008
 7605SOL    HW223715   5.621   3.699   6.114
 7606SOL     OW23716   5.821   1.598   3.750
 7606SOL    HW123717   5.824   1.616   3.652
 7606SOL    HW223718   5.908   1.623   3.792
 7607SOL     OW23719   5.042   0.014   6.020
 7607SOL    HW123720   5.088   0.070   6.089
 7607SOL    HW223721   5.033   0.066   5.935
 7608SOL     OW23722   4.032   3.326   4.173
 7608SOL    HW123723   3.933   3.313   4.170
 7608SOL    HW223724   4.066   3.305   4.264
 7609SOL     OW23725   2.176   2.513   3.795
 7609SOL    HW123726   2.131   2.476   3.877
 7609SOL    HW223727   2.216   2.602   3.816
 7610SOL     OW23728   5.390   1.027   2.239
 7610SOL    HW123729   5.409   0.945   2.293
 7610SOL    HW223730   5.460   1.037   2.169
 7611SOL     OW23731   1.977   1.812   1.630
 7611SOL    HW123732   1.885   1.798   1.665
 7611SOL    HW223733   1.974   1.823   1.531
 7612SOL     OW23734   4.253   1.569   2.681
 7612SOL    HW123735   4.288   1.662   2.674
 7612SOL    HW223736   4.203   1.545   2.597
 7613SOL     OW23737   5.255   0.842   3.293
 7613SOL    HW123738   5.249   0.873   3.198
 7613SOL    HW223739   5.170   0.796   3.318
 7614SOL     OW23740   4.203   1.268   0.363
 7614SOL    HW123741   4.119   1.239   0.407
 7614SOL    HW223742   4.261   1.188   0.346
 7615SOL     OW23743   4.036   4.766   5.666
 7615SOL    HW123744   4.096   4.705   5.717
 7615SOL    HW223745   4.035   4.856   5.710
 7616SOL     OW23746   6.806   4.523   3.182
 7616SOL    HW123747   6.733   4.466   3.143
 7616SOL    HW223748   6.871   4.465   3.232
 7617SOL     OW23749   3.251   6.205   2.771
 7617SOL    HW123750   3.235   6.215   2.869
 7617SOL    HW223751   3.337   6.249   2.746
 7618SOL     OW23752   2.049   2.254   0.439
 7618SOL    HW123753   2.060   2.155   0.453
 7618SOL    HW223754   2.021   2.297   0.525
 7619SOL     OW23755   5.675   3.573   5.824
 7619SOL    HW123756   5.763   3.544   5.784
 7619SOL    HW223757   5.618   3.613   5.752
 7620SOL     OW23758   2.686   6.484   1.657
 7620SOL    HW123759   2.668   6.441   1.745
 7620SOL    HW223760   2.680   6.416   1.584
 7621SOL     OW23761   2.247   2.354   1.001
 7621SOL    HW123762   2.293   2.442   1.013
 7621SOL    HW223763   2.258   2.300   1.085
 7622SOL     OW23764   5.282   1.645   1.003
 7622SOL    HW123765   5.345   1.567   0.999
 7622SOL    HW223766   5.279   1.681   1.096
 7623SOL     OW23767   5.854   0.148   5.155
 7623SOL    HW123768   5.832   0.179   5.247
 7623SOL    HW223769   5.771   0.114   5.110
 7624SOL     OW23770   6.594   1.065   4.673
 7624SOL    HW123771   6.681   1.043   4.629
 7624SOL    HW223772   6.535   1.112   4.608
 7625SOL     OW23773   3.639   6.254   0.952
 7625SOL    HW123774   3.572   6.195   0.997
 7625SOL    HW223775   3.601   6.290   0.867
 7626SOL     OW23776   2.429   4.433   4.492
 7626SOL    HW123777   2.379   4.403   4.572
 7626SOL    HW223778   2.466   4.525   4.508
 7627SOL     OW23779   6.582   1.524   6.964
 7627SOL    HW123780   6.561   1.437   7.010
 7627SOL    HW223781   6.681   1.539   6.965
 7628SOL     OW23782   4.462   1.459   1.040
 7628SOL    HW123783   4.423   1.368   1.050
 7628SOL    HW223784   4.499   1.489   1.128
 7629SOL     OW23785   6.600   5.587   3.524
 7629SOL    HW123786   6.608   5.495   3.486
 7629SOL    HW223787   6.507   5.602   3.556
 7630SOL     OW23788   6.520   1.588   2.306
 7630SOL    HW123789   6.555   1.681   2.291
 7630SOL    HW223790   6.547   1.529   2.229
 7631SOL     OW23791   1.611   0.851   3.556
 7631SOL    HW123792   1.560   0.864   3.471
 7631SOL    HW223793   1.554   0.875   3.634
 7632SOL     OW23794   4.366   0.849   6.371
 7632SOL    HW123795   4.285   0.899   6.401
 7632SOL    HW223796   4.444   0.911   6.363
 7633SOL     OW23797   5.467   5.208   6.182
 7633SOL    HW123798   5.491   5.271   6.255
 7633SOL    HW223799   5.501   5.116   6.203
 7634SOL     OW23800   0.741   2.702   1.949
 7634SOL    HW123801   0.747   2.657   1.860
 7634SOL    HW223802   0.683   2.648   2.010
 7635SOL     OW23803   2.514   5.082   6.185
 7635SOL    HW123804   2.590   5.018   6.187
 7635SOL    HW223805   2.515   5.133   6.099
 7636SOL     OW23806   2.466   0.048   4.007
 7636SOL    HW123807   2.389   0.090   4.055
 7636SOL    HW223808   2.443   0.038   3.910
 7637SOL     OW23809   2.340   6.415   4.207
 7637SOL    HW123810   2.342   6.316   4.199
 7637SOL    HW223811   2.280   6.452   4.136
 7638SOL     OW23812   4.088   4.254   1.577
 7638SOL    HW123813   4.119   4.185   1.643
 7638SOL    HW223814   4.153   4.260   1.502
 7639SOL     OW23815   6.978   2.600   4.254
 7639SOL    HW123816   7.013   2.511   4.226
 7639SOL    HW223817   0.021   2.646   4.312
 7640SOL     OW23818   2.670   2.902   5.402
 7640SOL    HW123819   2.695   2.988   5.447
 7640SOL    HW223820   2.615   2.923   5.321
 7641SOL     OW23821   6.184   2.475   3.312
 7641SOL    HW123822   6.169   2.376   3.322
 7641SOL    HW223823   6.237   2.509   3.390
 7642SOL     OW23824   1.664   1.185   2.765
 7642SOL    HW123825   1.725   1.115   2.803
 7642SOL    HW223826   1.713   1.272   2.759
 7643SOL     OW23827   5.680   2.621   3.210
 7643SOL    HW123828   5.772   2.616   3.251
 7643SOL    HW223829   5.689   2.624   3.111
 7644SOL     OW23830   6.217   4.033   3.641
 7644SOL    HW123831   6.272   3.951   3.631
 7644SOL    HW223832   6.263   4.110   3.596
 7645SOL     OW23833   3.936   3.065   0.117
 7645SOL    HW123834   3.869   3.129   0.077
 7645SOL    HW223835   3.994   3.029   0.045
 7646SOL     OW23836   0.563   1.270   1.956
 7646SOL    HW123837   0.633   1.278   1.885
 7646SOL    HW223838   0.474   1.254   1.914
 7647SOL     OW23839   2.488   4.914   0.792
 7647SOL    HW123840   2.529   4.916   0.883
 7647SOL    HW223841   2.521   4.992   0.739
 7648SOL     OW23842   3.697   0.511   4.124
 7648SOL    HW123843   3.718   0.489   4.220
 7648SOL    HW223844   3.603   0.483   4.104
 7649SOL     OW23845   3.046   1.273   1.476
 7649SOL    HW123846   3.105   1.346   1.444
 7649SOL    HW223847   3.046   1.271   1.576
 7650SOL     OW23848   5.908   4.310   0.864
 7650SOL    HW123849   5.869   4.327   0.773
 7650SOL    HW223850   6.007   4.304   0.858
 7651SOL     OW23851   4.777   2.430   6.709
 7651SOL    HW123852   4.864   2.404   6.752
 7651SOL    HW223853   4.707   2.442   6.779
 7652SOL     OW23854   1.515   3.312   3.055
 7652SOL    HW123855   1.575   3.340   2.981
 7652SOL    HW223856   1.421   3.341   3.035
 7653SOL     OW23857   4.074   2.070   1.480
 7653SOL    HW123858   4.065   2.129   1.560
 7653SOL    HW223859   3.989   2.020   1.465
 7654SOL     OW23860   5.207   3.400   4.131
 7654SOL    HW123861   5.115   3.383   4.094
 7654SOL    HW223862   5.272   3.406   4.056
 7655SOL     OW23863   4.724   5.885   5.371
 7655SOL    HW123864   4.711   5.810   5.435
 7655SOL    HW223865   4.636   5.912   5.332
 7656SOL     OW23866   1.375   6.710   4.053
 7656SOL    HW123867   1.352   6.618   4.085
 7656SOL    HW223868   1.425   6.704   3.966
 7657SOL     OW23869   4.513   1.807   4.275
 7657SOL    HW123870   4.441   1.804   4.205
 7657SOL    HW223871   4.486   1.750   4.353
 7658SOL     OW23872   4.505   0.271   6.584
 7658SOL    HW123873   4.431   0.332   6.558
 7658SOL    HW223874   4.591   0.306   6.547
 7659SOL     OW23875   5.151   6.196   0.065
 7659SOL    HW123876   5.083   6.198   0.139
 7659SOL    HW223877   5.239   6.165   0.102
 7660SOL     OW23878   5.778   4.886   4.433
 7660SOL    HW123879   5.722   4.911   4.511
 7660SOL    HW223880   5.778   4.787   4.421
 7661SOL     OW23881   6.088   3.071   3.722
 7661SOL    HW123882   6.109   2.985   3.769
 7661SOL    HW223883   6.122   3.148   3.776
 7662SOL     OW23884   6.661   5.523   2.972
 7662SOL    HW123885   6.670   5.491   2.877
 7662SOL    HW223886   6.739   5.581   2.996
 7663SOL     OW23887   6.850   5.766   7.009
 7663SOL    HW123888   6.913   5.842   0.003
 7663SOL    HW223889   6.877   5.686   0.036
 7664SOL     OW23890   2.661   5.472   5.040
 7664SOL    HW123891   2.751   5.432   5.061
 7664SOL    HW223892   2.635   5.536   5.112
 7665SOL     OW23893   2.524   5.655   4.282
 7665SOL    HW123894   2.535   5.577   4.219
 7665SOL    HW223895   2.484   5.623   4.368
 7666SOL     OW23896   2.364   1.288   1.232
 7666SOL    HW123897   2.345   1.247   1.142
 7666SOL    HW223898   2.299   1.362   1.249
 7667SOL     OW23899   4.768   5.945   6.148
 7667SOL    HW123900   4.774   6.033   6.195
 7667SOL    HW223901   4.712   5.955   6.066
 7668SOL     OW23902   2.876   3.901   1.330
 7668SOL    HW123903   2.811   3.931   1.400
 7668SOL    HW223904   2.957   3.861   1.375
 7669SOL     OW23905   4.382   6.523   4.914
 7669SOL    HW123906   4.464   6.465   4.912
 7669SOL    HW223907   4.313   6.485   4.852
 7670SOL     OW23908   1.364   5.904   1.091
 7670SOL    HW123909   1.354   5.987   1.037
 7670SOL    HW223910   1.320   5.828   1.045
 7671SOL     OW23911   5.552   2.321   4.956
 7671SOL    HW123912   5.629   2.313   4.893
 7671SOL    HW223913   5.585   2.334   5.049
 7672SOL     OW23914   5.994   0.194   2.100
 7672SOL    HW123915   5.925   0.267   2.099
 7672SOL    HW223916   6.083   0.232   2.125
 7673SOL     OW23917   0.312   4.313   6.601
 7673SOL    HW123918   0.294   4.215   6.597
 7673SOL    HW223919   0.283   4.348   6.690
 7674SOL     OW23920   6.004   1.111   5.377
 7674SOL    HW123921   6.008   1.051   5.456
 7674SOL    HW223922   5.980   1.203   5.406
 7675SOL     OW23923   5.102   0.021   3.324
 7675SOL    HW123924   5.146   0.093   3.377
 7675SOL    HW223925   5.160   7.023   3.246
 7676SOL     OW23926   1.200   0.487   1.674
 7676SOL    HW123927   1.176   0.485   1.772
 7676SOL    HW223928   1.230   0.579   1.649
 7677SOL     OW23929   1.983   2.116   2.717
 7677SOL    HW123930   1.894   2.152   2.686
 7677SOL    HW223931   2.016   2.170   2.794
 7678SOL     OW23932   5.395   6.702   5.909
 7678SOL    HW123933   5.427   6.774   5.847
 7678SOL    HW223934   5.371   6.621   5.856
 7679SOL     OW23935   1.090   5.102   4.791
 7679SOL    HW123936   1.173   5.047   4.786
 7679SOL    HW223937   1.010   5.042   4.792
 7680SOL     OW23938   5.011   1.125   6.721
 7680SOL    HW123939   4.996   1.215   6.762
 7680SOL    HW223940   5.096   1.086   6.757
 7681SOL     OW23941   2.845   1.900   5.842
 7681SOL    HW123942   2.919   1.965   5.858
 7681SOL    HW223943   2.884   1.808   5.834
 7682SOL     OW23944   2.514   6.989   1.454
 7682SOL    HW123945   2.526   0.052   1.410
 7682SOL    HW223946   2.487   7.001   1.549
 7683SOL     OW23947   6.220   1.633   2.957
 7683SOL    HW123948   6.222   1.719   3.008
 7683SOL    HW223949   6.221   1.653   2.859
 7684SOL     OW23950   4.545   2.497   6.540
 7684SOL    HW123951   4.612   2.447   6.595
 7684SOL    HW223952   4.561   2.479   6.443
 7685SOL     OW23953   4.290   4.041   1.188
 7685SOL    HW123954   4.220   3.995   1.134
 7685SOL    HW223955   4.291   4.138   1.167
 7686SOL     OW23956   3.200   0.868   3.840
 7686SOL    HW123957   3.236   0.776   3.856
 7686SOL    HW223958   3.274   0.935   3.850
 7687SOL     OW23959   4.511   5.063   6.235
 7687SOL    HW123960   4.458   5.050   6.319
 7687SOL    HW223961   4.536   4.973   6.198
 7688SOL     OW23962   6.382   0.269   3.383
 7688SOL    HW123963   6.481   0.264   3.398
 7688SOL    HW223964   6.358   0.357   3.343
 7689SOL     OW23965   3.249   6.349   4.868
 7689SOL    HW123966   3.227   6.264   4.917
 7689SOL    HW223967   3.268   6.328   4.772
 7690SOL     OW23968   0.604   5.282   2.537
 7690SOL    HW123969   0.638   5.324   2.622
 7690SOL    HW223970   0.592   5.353   2.467
 7691SOL     OW23971   5.773   3.847   5.629
 7691SOL    HW123972   5.692   3.788   5.626
 7691SOL    HW223973   5.855   3.791   5.621
 7692SOL     OW23974   1.516   6.555   1.501
 7692SOL    HW123975   1.479   6.470   1.539
 7692SOL    HW223976   1.615   6.554   1.506
 7693SOL     OW23977   5.571   1.008   0.578
 7693SOL    HW123978   5.631   1.026   0.655
 7693SOL    HW223979   5.556   0.909   0.570
 7694SOL     OW23980   5.987   4.993   4.094
 7694SOL    HW123981   6.043   5.050   4.154
 7694SOL    HW223982   5.941   5.051   4.027
 7695SOL     OW23983   4.324   0.472   6.527
 7695SOL    HW123984   4.278   0.554   6.559
 7695SOL    HW223985   4.398   0.497   6.465
 7696SOL     OW23986   1.352   4.101   5.687
 7696SOL    HW123987   1.258   4.094   5.720
 7696SOL    HW223988   1.413   4.054   5.750
 7697SOL     OW23989   4.493   2.129   2.045
 7697SOL    HW123990   4.401   2.099   2.022
 7697SOL    HW223991   4.488   2.218   2.090
 7698SOL     OW23992   0.190   2.953   5.655
 7698SOL    HW123993   0.229   2.943   5.747
 7698SOL    HW223994   0.192   3.049   5.628
 7699SOL     OW23995   2.770   4.463   0.484
 7699SOL    HW123996   2.727   4.373   0.493
 7699SOL    HW223997   2.869   4.452   0.475
 7700SOL     OW23998   5.362   6.673   4.672
 7700SOL    HW123999   5.314   6.757   4.696
 7700SOL    HW224000   5.397   6.630   4.756
 7701SOL     OW24001   6.413   2.004   5.254
 7701SOL    HW124002   6.503   1.993   5.297
 7701SOL    HW224003   6.424   2.045   5.164
 7702SOL     OW24004   2.303   6.182   5.940
 7702SOL    HW124005   2.309   6.090   5.980
 7702SOL    HW224006   2.227   6.184   5.875
 7703SOL     OW24007   0.569   2.306   5.328
 7703SOL    HW124008   0.513   2.336   5.405
 7703SOL    HW224009   0.660   2.347   5.335
 7704SOL     OW24010   2.912   4.356   0.799
 7704SOL    HW124011   2.954   4.325   0.714
 7704SOL    HW224012   2.936   4.294   0.873
 7705SOL     OW24013   3.817   4.451   5.355
 7705SOL    HW124014   3.828   4.464   5.454
 7705SOL    HW224015   3.779   4.535   5.315
 7706SOL     OW24016   6.521   0.594   5.125
 7706SOL    HW124017   6.516   0.506   5.173
 7706SOL    HW224018   6.480   0.665   5.182
 7707SOL     OW24019   0.279   5.507   6.378
 7707SOL    HW124020   0.347   5.438   6.404
 7707SOL    HW224021   0.235   5.480   6.292
 7708SOL     OW24022   4.835   1.158   4.585
 7708SOL    HW124023   4.863   1.144   4.680
 7708SOL    HW224024   4.770   1.234   4.581
 7709SOL     OW24025   3.769   2.166   1.647
 7709SOL    HW124026   3.744   2.223   1.725
 7709SOL    HW224027   3.737   2.208   1.562
 7710SOL     OW24028   3.217   2.338   6.021
 7710SOL    HW124029   3.158   2.261   6.047
 7710SOL    HW224030   3.184   2.378   5.935
 7711SOL     OW24031   4.721   6.406   5.140
 7711SOL    HW124032   4.785   6.351   5.194
 7711SOL    HW224033   4.651   6.444   5.199
 7712SOL     OW24034   4.868   4.891   0.395
 7712SOL    HW124035   4.797   4.958   0.417
 7712SOL    HW224036   4.924   4.925   0.319
 7713SOL     OW24037   1.040   5.443   6.346
 7713SOL    HW124038   0.941   5.449   6.362
 7713SOL    HW224039   1.067   5.510   6.278
 7714SOL     OW24040   5.193   3.643   4.280
 7714SOL    HW124041   5.229   3.558   4.243
 7714SOL    HW224042   5.114   3.672   4.227
 7715SOL     OW24043   4.116   2.328   1.677
 7715SOL    HW124044   4.212   2.350   1.689
 7715SOL    HW224045   4.078   2.293   1.763
 7716SOL     OW24046   4.664   2.633   3.547
 7716SOL    HW124047   4.630   2.720   3.583
 7716SOL    HW224048   4.708   2.582   3.620
 7717SOL     OW24049   3.080   0.220   6.664
 7717SOL    HW124050   3.127   0.209   6.577
 7717SOL    HW224051   3.001   0.159   6.668
 7718SOL     OW24052   3.087   6.276   4.205
 7718SOL    HW124053   3.153   6.265   4.131
 7718SOL    HW224054   3.127   6.330   4.278
 7719SOL     OW24055   6.319   2.887   5.228
 7719SOL    HW124056   6.406   2.874   5.274
 7719SOL    HW224057   6.245   2.857   5.288
 7720SOL     OW24058   5.445   6.288   1.839
 7720SOL    HW124059   5.420   6.222   1.910
 7720SOL    HW224060   5.509   6.355   1.877
 7721SOL     OW24061   0.914   4.856   2.863
 7721SOL    HW124062   0.972   4.774   2.856
 7721SOL    HW224063   0.843   4.840   2.931
 7722SOL     OW24064   0.591   6.230   4.191
 7722SOL    HW124065   0.504   6.239   4.143
 7722SOL    HW224066   0.655   6.176   4.136
 7723SOL     OW24067   6.948   2.374   0.550
 7723SOL    HW124068   6.851   2.389   0.565
 7723SOL    HW224069   6.978   2.294   0.602
 7724SOL     OW24070   1.757   5.924   0.554
 7724SOL    HW124071   1.781   5.845   0.496
 7724SOL    HW224072   1.833   5.942   0.618
 7725SOL     OW24073   5.064   3.577   4.506
 7725SOL    HW124074   4.996   3.641   4.540
 7725SOL    HW224075   5.123   3.622   4.439
 7726SOL     OW24076   5.536   4.066   3.600
 7726SOL    HW124077   5.546   4.160   3.567
 7726SOL    HW224078   5.441   4.037   3.590
 7727SOL     OW24079   5.671   3.402   2.182
 7727SOL    HW124080   5.692   3.304   2.188
 7727SOL    HW224081   5.703   3.438   2.094
 7728SOL     OW24082   2.437   2.434   2.161
 7728SOL    HW124083   2.528   2.401   2.186
 7728SOL    HW224084   2.443   2.490   2.078
 7729SOL     OW24085   5.008   2.535   0.366
 7729SOL    HW124086   4.934   2.571   0.308
 7729SOL    HW224087   4.997   2.569   0.459
 7730SOL     OW24088   4.666   0.218   2.375
 7730SOL    HW124089   4.719   0.301   2.393
 7730SOL    HW224090   4.689   0.184   2.284
 7731SOL     OW24091   0.021   1.923   4.619
 7731SOL    HW124092   7.005   1.883   4.701
 7731SOL    HW224093   0.113   1.956   4.641
 7732SOL     OW24094   4.136   4.924   0.811
 7732SOL    HW124095   4.056   4.942   0.754
 7732SOL    HW224096   4.219   4.939   0.757
 7733SOL     OW24097   2.676   6.586   0.749
 7733SOL    HW124098   2.707   6.496   0.720
 7733SOL    HW224099   2.746   6.630   0.806
 7734SOL     OW24100   1.635   2.392   2.689
 7734SOL    HW124101   1.646   2.489   2.708
 7734SOL    HW224102   1.564   2.379   2.620
 7735SOL     OW24103   5.193   4.568   0.772
 7735SOL    HW124104   5.177   4.564   0.871
 7735SOL    HW224105   5.116   4.614   0.728
 7736SOL     OW24106   5.573   4.347   6.021
 7736SOL    HW124107   5.642   4.280   6.047
 7736SOL    HW224108   5.592   4.434   6.066
 7737SOL     OW24109   5.013   2.566   0.895
 7737SOL    HW124110   5.084   2.556   0.826
 7737SOL    HW224111   4.923   2.564   0.852
 7738SOL     OW24112   2.103   4.941   0.048
 7738SOL    HW124113   2.039   4.922   7.000
 7738SOL    HW224114   2.133   4.854   0.089
 7739SOL     OW24115   5.658   3.670   2.407
 7739SOL    HW124116   5.579   3.693   2.351
 7739SOL    HW224117   5.643   3.700   2.501
 7740SOL     OW24118   0.492   6.038   3.880
 7740SOL    HW124119   0.405   6.086   3.866
 7740SOL    HW224120   0.474   5.943   3.905
 7741SOL     OW24121   3.330   5.758   4.575
 7741SOL    HW124122   3.422   5.722   4.584
 7741SOL    HW224123   3.301   5.751   4.479
 7742SOL     OW24124   6.630   1.391   4.077
 7742SOL    HW124125   6.546   1.336   4.067
 7742SOL    HW224126   6.691   1.347   4.142
 7743SOL     OW24127   5.029   2.907   2.626
 7743SOL    HW124128   5.065   2.817   2.653
 7743SOL    HW224129   5.100   2.976   2.641
 7744SOL     OW24130   0.460   7.019   4.893
 7744SOL    HW124131   0.503   0.076   4.929
 7744SOL    HW224132   0.421   6.966   4.969
 7745SOL     OW24133   4.738   3.334   5.294
 7745SOL    HW124134   4.682   3.396   5.240
 7745SOL    HW224135   4.806   3.290   5.235
 7746SOL     OW24136   1.270   0.230   6.894
 7746SOL    HW124137   1.227   0.314   6.861
 7746SOL    HW224138   1.363   0.251   6.926
 7747SOL     OW24139   5.114   5.292   1.013
 7747SOL    HW124140   5.131   5.361   1.083
 7747SOL    HW224141   5.199   5.243   0.992
 7748SOL     OW24142   2.627   3.919   6.140
 7748SOL    HW124143   2.720   3.908   6.175
 7748SOL    HW224144   2.623   3.889   6.045
 7749SOL     OW24145   5.614   4.016   5.898
 7749SOL    HW124146   5.537   4.055   5.846
 7749SOL    HW224147   5.602   4.036   5.995
 7750SOL     OW24148   5.488   5.251   3.060
 7750SOL    HW124149   5.411   5.214   3.112
 7750SOL    HW224150   5.454   5.289   2.974
 7751SOL     OW24151   0.143   2.620   1.183
 7751SOL    HW124152   0.155   2.712   1.222
 7751SOL    HW224153   0.232   2.579   1.167
 7752SOL     OW24154   4.024   1.581   3.363
 7752SOL    HW124155   4.094   1.648   3.384
 7752SOL    HW224156   3.987   1.543   3.448
 7753SOL     OW24157   3.434   1.931   5.398
 7753SOL    HW124158   3.514   1.985   5.422
 7753SOL    HW224159   3.371   1.987   5.345
 7754SOL     OW24160   5.507   5.441   1.636
 7754SOL    HW124161   5.601   5.409   1.646
 7754SOL    HW224162   5.493   5.522   1.692
 7755SOL     OW24163   0.771   5.249   4.929
 7755SOL    HW124164   0.733   5.269   4.839
 7755SOL    HW224165   0.758   5.152   4.950
 7756SOL     OW24166   2.107   4.736   2.157
 7756SOL    HW124167   2.108   4.641   2.190
 7756SOL    HW224168   2.199   4.764   2.133
 7757SOL     OW24169   6.824   4.190   1.291
 7757SOL    HW124170   6.814   4.167   1.195
 7757SOL    HW224171   6.918   4.174   1.320
 7758SOL     OW24172   1.210   2.435   4.771
 7758SOL    HW124173   1.180   2.431   4.676
 7758SOL    HW224174   1.266   2.517   4.785
 7759SOL     OW24175   3.740   1.378   2.188
 7759SOL    HW124176   3.756   1.466   2.233
 7759SOL    HW224177   3.759   1.304   2.253
 7760SOL     OW24178   5.103   3.387   0.206
 7760SOL    HW124179   5.063   3.309   0.254
 7760SOL    HW224180   5.069   3.388   0.111
 7761SOL     OW24181   4.820   4.991   3.114
 7761SOL    HW124182   4.823   4.918   3.046
 7761SOL    HW224183   4.735   4.984   3.166
 7762SOL     OW24184   5.444   1.900   1.582
 7762SOL    HW124185   5.367   1.850   1.620
 7762SOL    HW224186   5.411   1.982   1.534
 7763SOL     OW24187   2.349   0.103   3.736
 7763SOL    HW124188   2.258   0.064   3.727
 7763SOL    HW224189   2.344   0.202   3.737
 7764SOL     OW24190   3.325   4.336   5.770
 7764SOL    HW124191   3.227   4.338   5.755
 7764SOL    HW224192   3.344   4.337   5.869
 7765SOL     OW24193   5.395   4.147   4.456
 7765SOL    HW124194   5.449   4.076   4.410
 7765SOL    HW224195   5.315   4.168   4.400
 7766SOL     OW24196   6.895   2.801   6.378
 7766SOL    HW124197   6.798   2.779   6.380
 7766SOL    HW224198   6.942   2.756   6.453
 7767SOL     OW24199   4.428   0.348   3.710
 7767SOL    HW124200   4.397   0.443   3.713
 7767SOL    HW224201   4.458   0.321   3.801
 7768SOL     OW24202   3.977   5.598   4.667
 7768SOL    HW124203   4.027   5.613   4.583
 7768SOL    HW224204   3.984   5.501   4.694
 7769SOL     OW24205   3.648   2.933   6.856
 7769SOL    HW124206   3.709   2.862   6.818
 7769SOL    HW224207   3.584   2.890   6.919
 7770SOL     OW24208   1.371   3.676   3.803
 7770SOL    HW124209   1.436   3.675   3.727
 7770SOL    HW224210   1.384   3.759   3.857
 7771SOL     OW24211   1.562   3.674   5.321
 7771SOL    HW124212   1.496   3.709   5.255
 7771SOL    HW224213   1.513   3.626   5.394
 7772SOL     OW24214   5.522   6.468   2.294
 7772SOL    HW124215   5.510   6.395   2.362
 7772SOL    HW224216   5.618   6.473   2.267
 7773SOL     OW24217   2.592   6.969   6.561
 7773SOL    HW124218   2.651   6.892   6.538
 7773SOL    HW224219   2.619   7.007   6.650
 7774SOL     OW24220   4.960   1.095   2.327
 7774SOL    HW124221   5.019   1.021   2.361
 7774SOL    HW224222   4.896   1.123   2.399
 7775SOL     OW24223   3.242   1.807   1.376
 7775SOL    HW124224   3.239   1.858   1.289
 7775SOL    HW224225   3.311   1.848   1.436
 7776SOL     OW24226   2.921   1.162   4.178
 7776SOL    HW124227   2.823   1.181   4.169
 7776SOL    HW224228   2.953   1.192   4.267
 7777SOL     OW24229   6.039   5.571   3.116
 7777SOL    HW124230   5.986   5.645   3.157
 7777SOL    HW224231   6.023   5.486   3.168
 7778SOL     OW24232   0.718   4.478   2.781
 7778SOL    HW124233   0.662   4.395   2.783
 7778SOL    HW224234   0.761   4.491   2.870
 7779SOL     OW24235   3.242   6.241   2.138
 7779SOL    HW124236   3.308   6.183   2.187
 7779SOL    HW224237   3.166   6.184   2.105
 7780SOL     OW24238   6.493   5.394   4.443
 7780SOL    HW124239   6.591   5.408   4.458
 7780SOL    HW224240   6.466   5.304   4.476
 7781SOL     OW24241   2.590   3.312   0.517
 7781SOL    HW124242   2.588   3.398   0.567
 7781SOL    HW224243   2.522   3.313   0.444
 7782SOL     OW24244   5.800   3.948   4.775
 7782SOL    HW124245   5.795   4.048   4.775
 7782SOL    HW224246   5.862   3.918   4.702
 7783SOL     OW24247   1.813   6.478   3.951
 7783SOL    HW124248   1.787   6.402   4.011
 7783SOL    HW224249   1.853   6.551   4.006
 7784SOL     OW24250   1.774   1.727   2.348
 7784SOL    HW124251   1.827   1.802   2.388
 7784SOL    HW224252   1.690   1.715   2.400
 7785SOL     OW24253   6.684   5.950   3.120
 7785SOL    HW124254   6.681   5.858   3.159
 7785SOL    HW224255   6.679   5.945   3.020
 7786SOL     OW24256   5.024   1.024   6.255
 7786SOL    HW124257   4.928   1.050   6.243
 7786SOL    HW224258   5.030   0.926   6.271
 7787SOL     OW24259   1.922   2.759   1.190
 7787SOL    HW124260   1.857   2.687   1.165
 7787SOL    HW224261   1.871   2.839   1.223
 7788SOL     OW24262   1.008   3.707   1.952
 7788SOL    HW124263   0.976   3.615   1.975
 7788SOL    HW224264   1.071   3.703   1.874
 7789SOL     OW24265   3.587   0.965   6.132
 7789SOL    HW124266   3.591   0.978   6.033
 7789SOL    HW224267   3.671   1.000   6.174
 7790SOL     OW24268   3.945   5.096   3.884
 7790SOL    HW124269   3.998   5.120   3.802
 7790SOL    HW224270   3.859   5.147   3.884
 7791SOL     OW24271   2.998   5.513   1.973
 7791SOL    HW124272   3.030   5.500   1.879
 7791SOL    HW224273   2.960   5.605   1.983
 7792SOL     OW24274   0.945   1.318   2.616
 7792SOL    HW124275   0.925   1.414   2.636
 7792SOL    HW224276   1.021   1.312   2.551
 7793SOL     OW24277   5.158   1.272   0.863
 7793SOL    HW124278   5.069   1.249   0.903
 7793SOL    HW224279   5.199   1.190   0.822
 7794SOL     OW24280   1.635   0.185   3.372
 7794SOL    HW124281   1.617   0.114   3.304
 7794SOL    HW224282   1.573   0.262   3.358
 7795SOL     OW24283   4.028   4.041   1.414
 7795SOL    HW124284   4.052   4.133   1.444
 7795SOL    HW224285   4.070   3.974   1.476
 7796SOL     OW24286   3.126   1.323   0.569
 7796SOL    HW124287   3.142   1.268   0.651
 7796SOL    HW224288   3.161   1.275   0.489
 7797SOL     OW24289   1.269   5.686   3.139
 7797SOL    HW124290   1.357   5.678   3.093
 7797SOL    HW224291   1.210   5.609   3.113
 7798SOL     OW24292   2.012   3.285   0.707
 7798SOL    HW124293   2.028   3.382   0.725
 7798SOL    HW224294   2.015   3.234   0.793
 7799SOL     OW24295   3.097   6.352   4.491
 7799SOL    HW124296   3.001   6.363   4.515
 7799SOL    HW224297   3.115   6.255   4.472
 7800SOL     OW24298   1.819   1.037   2.556
 7800SOL    HW124299   1.745   1.090   2.597
 7800SOL    HW224300   1.872   1.095   2.495
 7801SOL     OW24301   1.737   2.629   0.648
 7801SOL    HW124302   1.645   2.649   0.617
 7801SOL    HW224303   1.797   2.706   0.628
 7802SOL     OW24304   6.338   4.509   3.835
 7802SOL    HW124305   6.413   4.574   3.816
 7802SOL    HW224306   6.305   4.470   3.749
 7803SOL     OW24307   3.208   2.581   5.567
 7803SOL    HW124308   3.200   2.553   5.471
 7803SOL    HW224309   3.301   2.563   5.599
 7804SOL     OW24310   2.933   1.572   5.327
 7804SOL    HW124311   2.976   1.662   5.336
 7804SOL    HW224312   2.888   1.548   5.413
 7805SOL     OW24313   5.729   3.262   6.565
 7805SOL    HW124314   5.706   3.322   6.489
 7805SOL    HW224315   5.739   3.317   6.648
 7806SOL     OW24316   5.861   1.586   5.284
 7806SOL    HW124317   5.835   1.535   5.203
 7806SOL    HW224318   5.843   1.683   5.271
 7807SOL     OW24319   1.646   5.611   5.264
 7807SOL    HW124320   1.583   5.654   5.200
 7807SOL    HW224321   1.739   5.644   5.246
 7808SOL     OW24322   6.387   3.780   3.682
 7808SOL    HW124323   6.398   3.686   3.649
 7808SOL    HW224324   6.436   3.791   3.768
 7809SOL     OW24325   4.461   6.389   2.341
 7809SOL    HW124326   4.453   6.447   2.260
 7809SOL    HW224327   4.552   6.399   2.381
 7810SOL     OW24328   1.761   6.753   5.734
 7810SOL    HW124329   1.740   6.680   5.799
 7810SOL    HW224330   1.834   6.811   5.771
 7811SOL     OW24331   1.376   6.239   2.804
 7811SOL    HW124332   1.335   6.174   2.869
 7811SOL    HW224333   1.324   6.324   2.805
 7812SOL     OW24334   2.992   1.217   5.596
 7812SOL    HW124335   2.916   1.173   5.550
 7812SOL    HW224336   2.967   1.238   5.691
 7813SOL     OW24337   5.691   0.756   0.948
 7813SOL    HW124338   5.780   0.718   0.923
 7813SOL    HW224339   5.624   0.735   0.876
 7814SOL     OW24340   5.605   2.284   1.785
 7814SOL    HW124341   5.508   2.283   1.760
 7814SOL    HW224342   5.659   2.315   1.706
 7815SOL     OW24343   4.749   5.307   3.635
 7815SOL    HW124344   4.801   5.235   3.680
 7815SOL    HW224345   4.805   5.351   3.566
 7816SOL     OW24346   1.058   1.342   5.230
 7816SOL    HW124347   1.129   1.406   5.260
 7816SOL    HW224348   1.096   1.280   5.162
 7817SOL     OW24349   4.615   1.960   0.048
 7817SOL    HW124350   4.532   1.921   0.007
 7817SOL    HW224351   4.623   2.056   0.022
 7818SOL     OW24352   6.184   0.879   3.311
 7818SOL    HW124353   6.095   0.923   3.297
 7818SOL    HW224354   6.204   0.873   3.408
 7819SOL     OW24355   1.622   3.080   5.340
 7819SOL    HW124356   1.570   2.996   5.356
 7819SOL    HW224357   1.565   3.145   5.290
 7820SOL     OW24358   1.358   1.272   5.402
 7820SOL    HW124359   1.307   1.275   5.488
 7820SOL    HW224360   1.450   1.235   5.419
 7821SOL     OW24361   3.604   5.607   6.939
 7821SOL    HW124362   3.678   5.614   7.006
 7821SOL    HW224363   3.599   5.693   6.887
 7822SOL     OW24364   0.561   1.348   4.902
 7822SOL    HW124365   0.638   1.346   4.837
 7822SOL    HW224366   0.521   1.439   4.903
 7823SOL     OW24367   2.765   3.125   6.023
 7823SOL    HW124368   2.678   3.077   6.032
 7823SOL    HW224369   2.840   3.059   6.014
 7824SOL     OW24370   6.069   3.815   3.253
 7824SOL    HW124371   6.085   3.907   3.219
 7824SOL    HW224372   6.058   3.818   3.353
 7825SOL     OW24373   3.789   3.300   2.743
 7825SOL    HW124374   3.767   3.386   2.697
 7825SOL    HW224375   3.886   3.278   2.729
 7826SOL     OW24376   6.721   0.181   0.854
 7826SOL    HW124377   6.651   0.252   0.857
 7826SOL    HW224378   6.782   0.191   0.932
 7827SOL     OW24379   4.223   3.543   0.498
 7827SOL    HW124380   4.318   3.517   0.479
 7827SOL    HW224381   4.182   3.476   0.560
 7828SOL     OW24382   1.264   6.385   1.443
 7828SOL    HW124383   1.333   6.453   1.421
 7828SOL    HW224384   1.262   6.314   1.373
 7829SOL     OW24385   3.698   3.766   3.148
 7829SOL    HW124386   3.685   3.752   3.247
 7829SOL    HW224387   3.610   3.756   3.102
 7830SOL     OW24388   6.447   4.297   0.265
 7830SOL    HW124389   6.438   4.220   0.328
 7830SOL    HW224390   6.391   4.373   0.297
 7831SOL     OW24391   1.849   2.829   0.527
 7831SOL    HW124392   1.786   2.898   0.563
 7831SOL    HW224393   1.902   2.868   0.451
 7832SOL     OW24394   3.467   2.528   5.673
 7832SOL    HW124395   3.480   2.431   5.696
 7832SOL    HW224396   3.549   2.563   5.629
 7833SOL     OW24397   6.641   6.366   1.602
 7833SOL    HW124398   6.650   6.279   1.651
 7833SOL    HW224399   6.564   6.417   1.639
 7834SOL     OW24400   5.866   0.877   1.424
 7834SOL    HW124401   5.825   0.794   1.460
 7834SOL    HW224402   5.801   0.953   1.433
 7835SOL     OW24403   1.859   1.737   4.033
 7835SOL    HW124404   1.948   1.779   4.012
 7835SOL    HW224405   1.790   1.809   4.041
 7836SOL     OW24406   1.988   0.540   0.241
 7836SOL    HW124407   1.949   0.470   0.182
 7836SOL    HW224408   2.043   0.497   0.313
 7837SOL     OW24409   5.490   6.003   2.703
 7837SOL    HW124410   5.456   6.089   2.665
 7837SOL    HW224411   5.509   6.015   2.800
 7838SOL     OW24412   4.244   6.322   3.997
 7838SOL    HW124413   4.325   6.358   4.044
 7838SOL    HW224414   4.273   6.262   3.922
 7839SOL     OW24415   0.216   4.644   3.597
 7839SOL    HW124416   0.288   4.582   3.565
 7839SOL    HW224417   0.175   4.691   3.519
 7840SOL     OW24418   5.057   3.483   6.188
 7840SOL    HW124419   5.130   3.462   6.123
 7840SOL    HW224420   4.996   3.552   6.148
 7841SOL     OW24421   1.134   1.983   6.400
 7841SOL    HW124422   1.215   1.933   6.429
 7841SOL    HW224423   1.142   2.008   6.304
 7842SOL     OW24424   2.768   6.960   2.431
 7842SOL    HW124425   2.673   6.958   2.464
 7842SOL    HW224426   2.769   6.952   2.331
 7843SOL     OW24427   0.433   2.728   2.220
 7843SOL    HW124428   0.387   2.709   2.307
 7843SOL    HW224429   0.482   2.647   2.190
 7844SOL     OW24430   3.896   2.033   3.696
 7844SOL    HW124431   3.827   2.084   3.645
 7844SOL    HW224432   3.876   2.038   3.794
 7845SOL     OW24433   0.985   1.164   3.807
 7845SOL    HW124434   1.017   1.255   3.780
 7845SOL    HW224435   0.885   1.162   3.808
 7846SOL     OW24436   4.532   6.597   2.695
 7846SOL    HW124437   4.507   6.694   2.703
 7846SOL    HW224438   4.461   6.541   2.736
 7847SOL     OW24439   0.149   0.210   6.921
 7847SOL    HW124440   0.162   0.190   6.824
 7847SOL    HW224441   0.104   0.133   6.965
 7848SOL     OW24442   3.703   4.138   1.375
 7848SOL    HW124443   3.615   4.174   1.345
 7848SOL    HW224444   3.729   4.180   1.462
 7849SOL     OW24445   5.259   4.354   4.999
 7849SOL    HW124446   5.273   4.256   5.015
 7849SOL    HW224447   5.248   4.371   4.901
 7850SOL     OW24448   0.885   2.673   4.658
 7850SOL    HW124449   0.981   2.685   4.631
 7850SOL    HW224450   0.872   2.580   4.694
 7851SOL     OW24451   3.899   6.342   1.408
 7851SOL    HW124452   3.995   6.337   1.382
 7851SOL    HW224453   3.845   6.283   1.348
 7852SOL     OW24454   2.375   6.592   0.490
 7852SOL    HW124455   2.427   6.657   0.435
 7852SOL    HW224456   2.386   6.614   0.587
 7853SOL     OW24457   2.043   2.636   0.061
 7853SOL    HW124458   2.048   2.573   0.138
 7853SOL    HW224459   2.103   2.715   0.079
 7854SOL     OW24460   3.605   4.084   3.668
 7854SOL    HW124461   3.652   4.103   3.755
 7854SOL    HW224462   3.610   4.165   3.609
 7855SOL     OW24463   3.513   0.119   5.145
 7855SOL    HW124464   3.483   0.024   5.154
 7855SOL    HW224465   3.587   0.137   5.210
 7856SOL     OW24466   3.072   3.454   6.807
 7856SOL    HW124467   2.979   3.422   6.825
 7856SOL    HW224468   3.081   3.550   6.835
 7857SOL     OW24469   0.491   2.932   5.661
 7857SOL    HW124470   0.483   2.914   5.563
 7857SOL    HW224471   0.549   3.012   5.675
 7858SOL     OW24472   6.273   3.681   2.943
 7858SOL    HW124473   6.198   3.615   2.938
 7858SOL    HW224474   6.360   3.634   2.934
 7859SOL     OW24475   0.790   6.639   0.367
 7859SOL    HW124476   0.763   6.580   0.290
 7859SOL    HW224477   0.858   6.705   0.335
 7860SOL     OW24478   4.068   6.584   1.596
 7860SOL    HW124479   3.993   6.539   1.644
 7860SOL    HW224480   4.131   6.625   1.661
 7861SOL     OW24481   5.351   3.586   0.642
 7861SOL    HW124482   5.316   3.659   0.701
 7861SOL    HW224483   5.447   3.567   0.665
 7862SOL     OW24484   2.947   4.798   1.802
 7862SOL    HW124485   2.886   4.751   1.866
 7862SOL    HW224486   3.022   4.738   1.777
 7863SOL     OW24487   5.092   5.750   2.708
 7863SOL    HW124488   5.169   5.749   2.644
 7863SOL    HW224489   5.034   5.671   2.690
 7864SOL     OW24490   1.183   5.890   4.751
 7864SOL    HW124491   1.250   5.816   4.740
 7864SOL    HW224492   1.093   5.850   4.769
 7865SOL     OW24493   4.297   0.921   3.323
 7865SOL    HW124494   4.335   0.927   3.231
 7865SOL    HW224495   4.306   1.010   3.368
 7866SOL     OW24496   2.462   2.016   5.163
 7866SOL    HW124497   2.552   2.027   5.122
 7866SOL    HW224498   2.394   2.061   5.105
 7867SOL     OW24499   5.883   3.931   1.430
 7867SOL    HW124500   5.786   3.954   1.426
 7867SOL    HW224501   5.917   3.919   1.337
 7868SOL     OW24502   4.930   0.482   0.713
 7868SOL    HW124503   4.974   0.516   0.630
 7868SOL    HW224504   4.975   0.521   0.793
 7869SOL     OW24505   6.179   1.919   4.391
 7869SOL    HW124506   6.218   1.910   4.299
 7869SOL    HW224507   6.218   1.850   4.451
 7870SOL     OW24508   6.476   6.894   3.170
 7870SOL    HW124509   6.515   6.971   3.120
 7870SOL    HW224510   6.523   6.810   3.144
 7871SOL     OW24511   6.350   3.066   4.225
 7871SOL    HW124512   6.348   2.970   4.198
 7871SOL    HW224513   6.340   3.124   4.143
 7872SOL     OW24514   0.202   4.267   4.385
 7872SOL    HW124515   0.169   4.220   4.303
 7872SOL    HW224516   0.301   4.282   4.377
 7873SOL     OW24517   6.970   5.712   4.917
 7873SOL    HW124518   0.044   5.711   4.921
 7873SOL    HW224519   6.934   5.747   5.004
 7874SOL     OW24520   6.395   0.375   0.678
 7874SOL    HW124521   6.327   0.392   0.750
 7874SOL    HW224522   6.487   0.392   0.714
 7875SOL     OW24523   5.039   3.151   0.370
 7875SOL    HW124524   5.070   3.205   0.448
 7875SOL    HW224525   5.103   3.076   0.354
 7876SOL     OW24526   6.866   1.291   5.097
 7876SOL    HW124527   6.860   1.272   4.999
 7876SOL    HW224528   6.826   1.215   5.149
 7877SOL     OW24529   5.976   2.674   2.600
 7877SOL    HW124530   5.911   2.720   2.660
 7877SOL    HW224531   6.068   2.708   2.618
 7878SOL     OW24532   4.031   3.788   1.557
 7878SOL    HW124533   3.980   3.711   1.519
 7878SOL    HW224534   4.116   3.800   1.505
 7879SOL     OW24535   6.302   1.119   4.976
 7879SOL    HW124536   6.320   1.110   5.074
 7879SOL    HW224537   6.281   1.215   4.955
 7880SOL     OW24538   1.755   6.410   6.077
 7880SOL    HW124539   1.843   6.373   6.109
 7880SOL    HW224540   1.695   6.334   6.051
 7881SOL     OW24541   1.192   5.443   4.307
 7881SOL    HW124542   1.093   5.450   4.294
 7881SOL    HW224543   1.218   5.499   4.386
 7882SOL     OW24544   1.610   4.753   1.668
 7882SOL    HW124545   1.586   4.837   1.715
 7882SOL    HW224546   1.559   4.746   1.583
 7883SOL     OW24547   3.597   1.596   2.791
 7883SOL    HW124548   3.635   1.688   2.800
 7883SOL    HW224549   3.667   1.534   2.754
 7884SOL     OW24550   0.491   3.222   4.321
 7884SOL    HW124551   0.462   3.257   4.232
 7884SOL    HW224552   0.438   3.141   4.345
 7885SOL     OW24553   6.252   5.379   2.506
 7885SOL    HW124554   6.171   5.431   2.532
 7885SOL    HW224555   6.303   5.429   2.435
 7886SOL     OW24556   4.822   3.913   2.750
 7886SOL    HW124557   4.909   3.960   2.737
 7886SOL    HW224558   4.833   3.842   2.820
 7887SOL     OW24559   0.952   3.007   1.396
 7887SOL    HW124560   1.000   2.957   1.325
 7887SOL    HW224561   1.017   3.058   1.451
 7888SOL     OW24562   6.223   1.363   4.883
 7888SOL    HW124563   6.143   1.328   4.834
 7888SOL    HW224564   6.194   1.434   4.947
 7889SOL     OW24565   5.340   5.119   1.068
 7889SOL    HW124566   5.390   5.038   1.037
 7889SOL    HW224567   5.405   5.189   1.098
 7890SOL     OW24568   2.246   2.879   3.439
 7890SOL    HW124569   2.166   2.938   3.447
 7890SOL    HW224570   2.226   2.790   3.479
 7891SOL     OW24571   6.287   1.746   4.581
 7891SOL    HW124572   6.383   1.769   4.591
 7891SOL    HW224573   6.272   1.650   4.605
 7892SOL     OW24574   1.057   1.903   4.969
 7892SOL    HW124575   1.128   1.932   4.905
 7892SOL    HW224576   1.004   1.983   4.998
 7893SOL     OW24577   5.842   6.767   0.891
 7893SOL    HW124578   5.934   6.787   0.924
 7893SOL    HW224579   5.791   6.718   0.962
 7894SOL     OW24580   3.164   0.905   0.086
 7894SOL    HW124581   3.174   1.005   0.085
 7894SOL    HW224582   3.116   0.876   0.003
 7895SOL     OW24583   6.611   6.417   2.866
 7895SOL    HW124584   6.636   6.408   2.769
 7895SOL    HW224585   6.641   6.336   2.916
 7896SOL     OW24586   2.575   1.437   0.345
 7896SOL    HW124587   2.528   1.435   0.256
 7896SOL    HW224588   2.561   1.526   0.388
 7897SOL     OW24589   3.883   1.904   0.750
 7897SOL    HW124590   3.954   1.925   0.682
 7897SOL    HW224591   3.926   1.870   0.833
 7898SOL     OW24592   5.370   6.687   3.344
 7898SOL    HW124593   5.303   6.750   3.381
 7898SOL    HW224594   5.421   6.644   3.419
 7899SOL     OW24595   6.002   4.195   3.708
 7899SOL    HW124596   6.019   4.209   3.806
 7899SOL    HW224597   6.059   4.121   3.675
 7900SOL     OW24598   0.526   3.541   0.225
 7900SOL    HW124599   0.622   3.544   0.198
 7900SOL    HW224600   0.515   3.476   0.301
 7901SOL     OW24601   0.529   2.237   0.263
 7901SOL    HW124602   0.462   2.212   0.193
 7901SOL    HW224603   0.537   2.337   0.267
 7902SOL     OW24604   1.902   6.319   1.587
 7902SOL    HW124605   1.834   6.245   1.587
 7902SOL    HW224606   1.994   6.279   1.593
 7903SOL     OW24607   2.709   2.227   5.646
 7903SOL    HW124608   2.785   2.280   5.609
 7903SOL    HW224609   2.624   2.276   5.631
 7904SOL     OW24610   4.617   2.261   2.715
 7904SOL    HW124611   4.712   2.257   2.744
 7904SOL    HW224612   4.582   2.354   2.729
 7905SOL     OW24613   6.157   2.298   0.851
 7905SOL    HW124614   6.208   2.212   0.857
 7905SOL    HW224615   6.077   2.294   0.911
 7906SOL     OW24616   1.003   5.285   6.903
 7906SOL    HW124617   1.077   5.352   6.901
 7906SOL    HW224618   1.011   5.225   6.823
 7907SOL     OW24619   6.114   6.329   2.763
 7907SOL    HW124620   6.105   6.255   2.696
 7907SOL    HW224621   6.198   6.380   2.745
 7908SOL     OW24622   1.844   6.796   6.460
 7908SOL    HW124623   1.748   6.801   6.487
 7908SOL    HW224624   1.851   6.778   6.362
 7909SOL     OW24625   6.359   3.692   1.054
 7909SOL    HW124626   6.359   3.595   1.078
 7909SOL    HW224627   6.437   3.737   1.096
 7910SOL     OW24628   1.476   4.172   5.448
 7910SOL    HW124629   1.406   4.225   5.400
 7910SOL    HW224630   1.441   4.145   5.538
 7911SOL     OW24631   5.567   4.431   5.753
 7911SOL    HW124632   5.596   4.382   5.835
 7911SOL    HW224633   5.484   4.483   5.773
 7912SOL     OW24634   5.553   5.667   0.775
 7912SOL    HW124635   5.623   5.738   0.780
 7912SOL    HW224636   5.508   5.671   0.685
 7913SOL     OW24637   1.328   4.793   6.759
 7913SOL    HW124638   1.273   4.745   6.827
 7913SOL    HW224639   1.291   4.775   6.668
 7914SOL     OW24640   0.874   6.705   4.868
 7914SOL    HW124641   0.838   6.795   4.844
 7914SOL    HW224642   0.948   6.682   4.805
 7915SOL     OW24643   2.652   5.084   2.502
 7915SOL    HW124644   2.639   5.048   2.410
 7915SOL    HW224645   2.623   5.179   2.506
 7916SOL     OW24646   1.382   0.042   3.897
 7916SOL    HW124647   1.438   0.065   3.977
 7916SOL    HW224648   1.328   6.986   3.917
 7917SOL     OW24649   4.919   2.196   1.950
 7917SOL    HW124650   4.854   2.257   1.996
 7917SOL    HW224651   4.906   2.201   1.851
 7918SOL     OW24652   2.309   2.811   3.149
 7918SOL    HW124653   2.310   2.856   3.239
 7918SOL    HW224654   2.311   2.880   3.077
 7919SOL     OW24655   1.061   6.656   4.696
 7919SOL    HW124656   1.144   6.711   4.693
 7919SOL    HW224657   1.003   6.678   4.618
 7920SOL     OW24658   4.587   0.593   1.212
 7920SOL    HW124659   4.685   0.607   1.199
 7920SOL    HW224660   4.568   0.569   1.307
 7921SOL     OW24661   5.372   2.408   1.015
 7921SOL    HW124662   5.354   2.501   1.045
 7921SOL    HW224663   5.416   2.409   0.925
 7922SOL     OW24664   2.894   0.175   2.455
 7922SOL    HW124665   2.878   0.078   2.434
 7922SOL    HW224666   2.865   0.231   2.379
 7923SOL     OW24667   3.919   1.050   0.067
 7923SOL    HW124668   3.923   1.016   6.998
 7923SOL    HW224669   3.942   0.975   0.130
 7924SOL     OW24670   5.790   5.655   0.312
 7924SOL    HW124671   5.836   5.676   0.398
 7924SOL    HW224672   5.725   5.581   0.326
 7925SOL     OW24673   1.452   5.605   6.446
 7925SOL    HW124674   1.548   5.633   6.440
 7925SOL    HW224675   1.443   5.531   6.513
 7926SOL     OW24676   5.583   6.022   6.130
 7926SOL    HW124677   5.486   6.013   6.107
 7926SOL    HW224678   5.638   5.973   6.062
 7927SOL     OW24679   4.208   0.042   3.314
 7927SOL    HW124680   4.271   0.113   3.285
 7927SOL    HW224681   4.210   6.992   3.249
 7928SOL     OW24682   5.621   1.761   3.526
 7928SOL    HW124683   5.541   1.732   3.579
 7928SOL    HW224684   5.691   1.690   3.528
 7929SOL     OW24685   4.887   4.455   5.801
 7929SOL    HW124686   4.923   4.467   5.894
 7929SOL    HW224687   4.924   4.526   5.741
 7930SOL     OW24688   4.310   6.499   6.286
 7930SOL    HW124689   4.241   6.454   6.229
 7930SOL    HW224690   4.400   6.457   6.268
 7931SOL     OW24691   4.229   1.281   1.325
 7931SOL    HW124692   4.283   1.355   1.286
 7931SOL    HW224693   4.153   1.320   1.378
 7932SOL     OW24694   1.503   3.796   1.846
 7932SOL    HW124695   1.431   3.727   1.853
 7932SOL    HW224696   1.499   3.857   1.926
 7933SOL     OW24697   1.033   1.720   0.049
 7933SOL    HW124698   0.948   1.741   0.000
 7933SOL    HW224699   1.090   1.801   0.054
 7934SOL     OW24700   0.570   5.304   1.082
 7934SOL    HW124701   0.509   5.225   1.073
 7934SOL    HW224702   0.651   5.290   1.024
 7935SOL     OW24703   6.523   3.022   3.115
 7935SOL    HW124704   6.476   2.974   3.042
 7935SOL    HW224705   6.479   3.110   3.131
 7936SOL     OW24706   2.087   5.585   3.111
 7936SOL    HW124707   2.084   5.489   3.139
 7936SOL    HW224708   2.057   5.593   3.016
 7937SOL     OW24709   4.226   1.034   0.846
 7937SOL    HW124710   4.167   0.975   0.791
 7937SOL    HW224711   4.172   1.108   0.885
 7938SOL     OW24712   2.542   0.063   3.299
 7938SOL    HW124713   2.577   0.152   3.269
 7938SOL    HW224714   2.611   7.019   3.282
 7939SOL     OW24715   0.581   0.722   2.635
 7939SOL    HW124716   0.667   0.676   2.660
 7939SOL    HW224717   0.511   0.700   2.703
 7940SOL     OW24718   5.771   1.771   4.663
 7940SOL    HW124719   5.750   1.709   4.587
 7940SOL    HW224720   5.725   1.740   4.745
 7941SOL     OW24721   3.480   6.886   0.971
 7941SOL    HW124722   3.520   6.936   1.048
 7941SOL    HW224723   3.382   6.873   0.986
 7942SOL     OW24724   1.419   4.186   0.859
 7942SOL    HW124725   1.454   4.134   0.938
 7942SOL    HW224726   1.430   4.132   0.776
 7943SOL     OW24727   1.494   6.242   6.185
 7943SOL    HW124728   1.470   6.334   6.215
 7943SOL    HW224729   1.461   6.229   6.091
 7944SOL     OW24730   1.037   2.166   1.370
 7944SOL    HW124731   1.103   2.197   1.438
 7944SOL    HW224732   0.956   2.225   1.372
 7945SOL     OW24733   6.374   3.769   2.550
 7945SOL    HW124734   6.305   3.749   2.480
 7945SOL    HW224735   6.409   3.683   2.588
 7946SOL     OW24736   4.842   2.131   6.745
 7946SOL    HW124737   4.758   2.076   6.749
 7946SOL    HW224738   4.846   2.191   6.824
 7947SOL     OW24739   6.898   3.823   5.881
 7947SOL    HW124740   6.987   3.868   5.894
 7947SOL    HW224741   6.876   3.821   5.784
 7948SOL     OW24742   1.149   5.715   1.296
 7948SOL    HW124743   1.231   5.702   1.351
 7948SOL    HW224744   1.129   5.813   1.289
 7949SOL     OW24745   2.494   5.482   5.758
 7949SOL    HW124746   2.511   5.535   5.841
 7949SOL    HW224747   2.405   5.437   5.764
 7950SOL     OW24748   6.705   4.661   5.813
 7950SOL    HW124749   6.790   4.620   5.780
 7950SOL    HW224750   6.642   4.673   5.736
 7951SOL     OW24751   4.198   6.900   3.074
 7951SOL    HW124752   4.297   6.916   3.075
 7951SOL    HW224753   4.162   6.922   2.983
 7952SOL     OW24754   6.844   3.979   5.176
 7952SOL    HW124755   6.890   3.944   5.095
 7952SOL    HW224756   6.787   3.907   5.216
 7953SOL     OW24757   1.739   0.167   6.960
 7953SOL    HW124758   1.678   0.093   6.987
 7953SOL    HW224759   1.828   0.129   6.933
 7954SOL     OW24760   3.841   3.453   7.021
 7954SOL    HW124761   3.824   3.551   7.024
 7954SOL    HW224762   3.873   3.428   6.929
 7955SOL     OW24763   0.863   1.350   6.311
 7955SOL    HW124764   0.906   1.271   6.266
 7955SOL    HW224765   0.809   1.400   6.244
 7956SOL     OW24766   0.583   6.534   0.538
 7956SOL    HW124767   0.500   6.565   0.492
 7956SOL    HW224768   0.663   6.573   0.492
 7957SOL     OW24769   5.375   1.626   5.872
 7957SOL    HW124770   5.343   1.662   5.784
 7957SOL    HW224771   5.321   1.666   5.946
 7958SOL     OW24772   4.255   2.355   0.018
 7958SOL    HW124773   4.251   2.332   0.115
 7958SOL    HW224774   4.201   2.437   0.001
 7959SOL     OW24775   5.638   2.500   0.197
 7959SOL    HW124776   5.664   2.411   0.232
 7959SOL    HW224777   5.576   2.489   0.119
 7960SOL     OW24778   0.910   1.513   5.069
 7960SOL    HW124779   0.818   1.534   5.100
 7960SOL    HW224780   0.963   1.473   5.144
 7961SOL     OW24781   5.936   7.018   0.526
 7961SOL    HW124782   5.969   0.085   0.511
 7961SOL    HW224783   5.901   7.010   0.619
 7962SOL     OW24784   5.959   6.897   5.003
 7962SOL    HW124785   6.034   6.943   5.050
 7962SOL    HW224786   5.996   6.833   4.935
 7963SOL     OW24787   6.116   5.989   3.559
 7963SOL    HW124788   6.154   6.079   3.580
 7963SOL    HW224789   6.098   5.982   3.461
 7964SOL     OW24790   6.170   3.631   1.287
 7964SOL    HW124791   6.209   3.663   1.201
 7964SOL    HW224792   6.236   3.644   1.360
 7965SOL     OW24793   5.127   2.065   6.095
 7965SOL    HW124794   5.097   2.086   6.188
 7965SOL    HW224795   5.226   2.078   6.089
 7966SOL     OW24796   5.492   3.498   5.105
 7966SOL    HW124797   5.413   3.556   5.086
 7966SOL    HW224798   5.572   3.555   5.121
 7967SOL     OW24799   1.259   4.539   0.212
 7967SOL    HW124800   1.264   4.461   0.150
 7967SOL    HW224801   1.214   4.616   0.166
 7968SOL     OW24802   1.949   2.356   3.937
 7968SOL    HW124803   1.877   2.332   3.872
 7968SOL    HW224804   1.950   2.290   4.012
 7969SOL     OW24805   3.465   4.424   6.736
 7969SOL    HW124806   3.539   4.490   6.750
 7969SOL    HW224807   3.500   4.346   6.684
 7970SOL     OW24808   5.945   2.618   4.234
 7970SOL    HW124809   5.949   2.588   4.139
 7970SOL    HW224810   6.027   2.671   4.256
 7971SOL     OW24811   2.891   1.201   6.827
 7971SOL    HW124812   2.890   1.190   6.926
 7971SOL    HW224813   2.981   1.235   6.798
 7972SOL     OW24814   3.358   4.177   4.315
 7972SOL    HW124815   3.263   4.207   4.316
 7972SOL    HW224816   3.372   4.114   4.239
 7973SOL     OW24817   6.137   4.930   2.022
 7973SOL    HW124818   6.117   5.028   2.023
 7973SOL    HW224819   6.183   4.904   2.108
 7974SOL     OW24820   0.796   3.048   4.522
 7974SOL    HW124821   0.732   3.094   4.584
 7974SOL    HW224822   0.769   2.953   4.511
 7975SOL     OW24823   4.619   0.469   0.354
 7975SOL    HW124824   4.617   0.489   0.452
 7975SOL    HW224825   4.692   0.520   0.311
 7976SOL     OW24826   0.739   0.412   0.292
 7976SOL    HW124827   0.747   0.313   0.306
 7976SOL    HW224828   0.644   0.440   0.308
 7977SOL     OW24829   5.422   5.372   3.397
 7977SOL    HW124830   5.476   5.432   3.337
 7977SOL    HW224831   5.354   5.324   3.342
 7978SOL     OW24832   0.390   3.910   1.580
 7978SOL    HW124833   0.426   3.820   1.604
 7978SOL    HW224834   0.383   3.918   1.481
 7979SOL     OW24835   2.689   2.346   5.164
 7979SOL    HW124836   2.757   2.408   5.204
 7979SOL    HW224837   2.599   2.388   5.169
 7980SOL     OW24838   3.644   5.438   1.618
 7980SOL    HW124839   3.563   5.446   1.675
 7980SOL    HW224840   3.617   5.420   1.523
 7981SOL     OW24841   1.700   3.801   4.381
 7981SOL    HW124842   1.750   3.816   4.466
 7981SOL    HW224843   1.736   3.863   4.311
 7982SOL     OW24844   6.881   1.237   5.941
 7982SOL    HW124845   6.906   1.234   6.037
 7982SOL    HW224846   6.937   1.305   5.894
 7983SOL     OW24847   3.850   0.600   1.785
 7983SOL    HW124848   3.803   0.548   1.856
 7983SOL    HW224849   3.793   0.678   1.757
 7984SOL     OW24850   6.538   2.965   2.717
 7984SOL    HW124851   6.534   3.065   2.713
 7984SOL    HW224852   6.483   2.927   2.643
 7985SOL     OW24853   3.044   2.868   5.283
 7985SOL    HW124854   3.132   2.883   5.238
 7985SOL    HW224855   2.972   2.917   5.234
 7986SOL     OW24856   3.894   0.967   3.914
 7986SOL    HW124857   3.952   1.048   3.898
 7986SOL    HW224858   3.861   0.933   3.826
 7987SOL     OW24859   1.174   3.464   6.405
 7987SOL    HW124860   1.205   3.559   6.411
 7987SOL    HW224861   1.098   3.449   6.469
 7988SOL     OW24862   6.698   0.731   1.064
 7988SOL    HW124863   6.706   0.713   0.966
 7988SOL    HW224864   6.636   0.807   1.079
 7989SOL     OW24865   0.766   4.440   0.904
 7989SOL    HW124866   0.779   4.355   0.854
 7989SOL    HW224867   0.690   4.492   0.864
 7990SOL     OW24868   4.822   5.339   4.913
 7990SOL    HW124869   4.869   5.254   4.891
 7990SOL    HW224870   4.832   5.404   4.838
 7991SOL     OW24871   5.689   1.037   4.588
 7991SOL    HW124872   5.688   1.113   4.653
 7991SOL    HW224873   5.725   1.069   4.500
 7992SOL     OW24874   2.122   0.169   6.815
 7992SOL    HW124875   2.055   0.097   6.828
 7992SOL    HW224876   2.080   0.246   6.766
 7993SOL     OW24877   6.123   5.911   0.426
 7993SOL    HW124878   6.048   5.864   0.379
 7993SOL    HW224879   6.206   5.904   0.372
 7994SOL     OW24880   6.819   0.640   4.400
 7994SOL    HW124881   6.737   0.673   4.447
 7994SOL    HW224882   6.884   0.605   4.467
 7995SOL     OW24883   0.284   5.723   1.390
 7995SOL    HW124884   0.261   5.643   1.446
 7995SOL    HW224885   0.334   5.790   1.446
 7996SOL     OW24886   2.424   6.771   3.269
 7996SOL    HW124887   2.331   6.739   3.285
 7996SOL    HW224888   2.430   6.813   3.179
 7997SOL     OW24889   2.302   2.187   5.702
 7997SOL    HW124890   2.294   2.089   5.683
 7997SOL    HW224891   2.278   2.204   5.798
 7998SOL     OW24892   2.328   0.786   1.071
 7998SOL    HW124893   2.250   0.732   1.101
 7998SOL    HW224894   2.385   0.809   1.150
 7999SOL     OW24895   0.942   7.005   3.515
 7999SOL    HW124896   0.977   6.988   3.607
 7999SOL    HW224897   0.920   0.076   3.505
 8000SOL     OW24898   4.159   5.829   1.205
 8000SOL    HW124899   4.182   5.771   1.127
 8000SOL    HW224900   4.091   5.897   1.176
 8001SOL     OW24901   4.612   4.379   1.471
 8001SOL    HW124902   4.529   4.396   1.524
 8001SOL    HW224903   4.591   4.317   1.395
 8002SOL     OW24904   1.143   0.344   4.531
 8002SOL    HW124905   1.100   0.295   4.455
 8002SOL    HW224906   1.142   0.286   4.613
 8003SOL     OW24907   3.109   5.936   2.923
 8003SOL    HW124908   3.053   6.007   2.880
 8003SOL    HW224909   3.076   5.920   3.016
 8004SOL     OW24910   1.574   3.601   4.089
 8004SOL    HW124911   1.601   3.602   4.186
 8004SOL    HW224912   1.489   3.652   4.078
 8005SOL     OW24913   2.093   0.576   3.617
 8005SOL    HW124914   2.006   0.582   3.666
 8005SOL    HW224915   2.078   0.529   3.530
 8006SOL     OW24916   4.761   5.460   5.833
 8006SOL    HW124917   4.673   5.412   5.825
 8006SOL    HW224918   4.753   5.531   5.903
 8007SOL     OW24919   0.498   0.839   0.751
 8007SOL    HW124920   0.571   0.878   0.806
 8007SOL    HW224921   0.416   0.896   0.759
 8008SOL     OW24922   4.515   5.274   0.671
 8008SOL    HW124923   4.595   5.297   0.726
 8008SOL    HW224924   4.450   5.350   0.675
 8009SOL     OW24925   6.405   1.246   0.710
 8009SOL    HW124926   6.329   1.309   0.697
 8009SOL    HW224927   6.457   1.237   0.625
 8010SOL     OW24928   3.594   0.903   5.852
 8010SOL    HW124929   3.551   0.816   5.877
 8010SOL    HW224930   3.609   0.905   5.753
 8011SOL     OW24931   3.955   1.938   2.761
 8011SOL    HW124932   3.953   2.001   2.683
 8011SOL    HW224933   4.043   1.948   2.809
 8012SOL     OW24934   6.689   1.055   4.288
 8012SOL    HW124935   6.731   1.146   4.289
 8012SOL    HW224936   6.723   1.002   4.211
 8013SOL     OW24937   3.412   0.871   3.062
 8013SOL    HW124938   3.429   0.932   2.985
 8013SOL    HW224939   3.317   0.840   3.061
 8014SOL     OW24940   2.656   2.418   2.816
 8014SOL    HW124941   2.619   2.447   2.728
 8014SOL    HW224942   2.750   2.389   2.804
 8015SOL     OW24943   3.680   7.013   4.181
 8015SOL    HW124944   3.771   6.982   4.209
 8015SOL    HW224945   3.668   0.083   4.207
 8016SOL     OW24946   3.622   2.514   5.422
 8016SOL    HW124947   3.557   2.448   5.459
 8016SOL    HW224948   3.668   2.474   5.342
 8017SOL     OW24949   6.080   5.733   1.322
 8017SOL    HW124950   6.015   5.664   1.290
 8017SOL    HW224951   6.163   5.730   1.266
 8018SOL     OW24952   3.317   3.419   0.645
 8018SOL    HW124953   3.410   3.448   0.622
 8018SOL    HW224954   3.288   3.465   0.729
 8019SOL     OW24955   2.712   3.463   0.287
 8019SOL    HW124956   2.739   3.436   0.380
 8019SOL    HW224957   2.792   3.466   0.228
 8020SOL     OW24958   0.101   0.380   6.283
 8020SOL    HW124959   0.098   0.294   6.334
 8020SOL    HW224960   0.030   0.379   6.213
 8021SOL     OW24961   0.965   3.218   0.636
 8021SOL    HW124962   1.010   3.172   0.713
 8021SOL    HW224963   0.997   3.178   0.550
 8022SOL     OW24964   4.268   7.013   2.283
 8022SOL    HW124965   4.174   0.020   2.279
 8022SOL    HW224966   4.331   0.064   2.294
 8023SOL     OW24967   3.868   5.422   2.472
 8023SOL    HW124968   3.782   5.450   2.513
 8023SOL    HW224969   3.935   5.405   2.545
 8024SOL     OW24970   3.019   0.764   6.869
 8024SOL    HW124971   3.115   0.766   6.842
 8024SOL    HW224972   2.999   0.676   6.914
 8025SOL     OW24973   0.834   6.316   1.878
 8025SOL    HW124974   0.807   6.345   1.970
 8025SOL    HW224975   0.890   6.387   1.836
 8026SOL     OW24976   0.597   6.724   6.551
 8026SOL    HW124977   0.558   6.809   6.515
 8026SOL    HW224978   0.679   6.746   6.605
 8027SOL     OW24979   3.710   0.605   6.488
 8027SOL    HW124980   3.729   0.567   6.579
 8027SOL    HW224981   3.707   0.531   6.421
 8028SOL     OW24982   3.498   6.070   6.168
 8028SOL    HW124983   3.462   6.158   6.195
 8028SOL    HW224984   3.595   6.079   6.143
 8029SOL     OW24985   1.018   0.764   1.727
 8029SOL    HW124986   1.068   0.758   1.640
 8029SOL    HW224987   0.922   0.786   1.709
 8030SOL     OW24988   1.126   4.419   1.164
 8030SOL    HW124989   1.161   4.492   1.106
 8030SOL    HW224990   1.139   4.331   1.118
 8031SOL     OW24991   6.601   0.246   2.082
 8031SOL    HW124992   6.635   0.339   2.099
 8031SOL    HW224993   6.625   0.219   1.989
 8032SOL     OW24994   0.190   2.662   0.427
 8032SOL    HW124995   0.273   2.674   0.372
 8032SOL    HW224996   0.132   2.594   0.383
 8033SOL     OW24997   3.797   4.199   1.659
 8033SOL    HW124998   3.897   4.202   1.649
 8033SOL    HW224999   3.775   4.152   1.745
 8034SOL     OW25000   0.489   0.222   5.420
 8034SOL    HW125001   0.414   0.156   5.430
 8034SOL    HW225002   0.556   0.205   5.492
 8035SOL     OW25003   6.118   6.904   4.262
 8035SOL    HW125004   6.024   6.900   4.230
 8035SOL    HW225005   6.146   7.000   4.270
 8036SOL     OW25006   5.240   3.091   4.154
 8036SOL    HW125007   5.144   3.067   4.139
 8036SOL    HW225008   5.252   3.127   4.247
 8037SOL     OW25009   2.815   1.043   5.874
 8037SOL    HW125010   2.841   0.995   5.958
 8037SOL    HW225011   2.719   1.022   5.852
 8038SOL     OW25012   6.586   5.535   1.850
 8038SOL    HW125013   6.597   5.552   1.752
 8038SOL    HW225014   6.597   5.621   1.900
 8039SOL     OW25015   2.301   2.146   4.999
 8039SOL    HW125016   2.207   2.143   5.031
 8039SOL    HW225017   2.326   2.240   4.977
 8040SOL     OW25018   0.739   6.001   6.366
 8040SOL    HW125019   0.806   5.927   6.370
 8040SOL    HW225020   0.683   5.990   6.284
 8041SOL     OW25021   3.483   1.705   3.180
 8041SOL    HW125022   3.566   1.687   3.232
 8041SOL    HW225023   3.453   1.621   3.135
 8042SOL     OW25024   3.561   3.891   5.975
 8042SOL    HW125025   3.618   3.869   6.054
 8042SOL    HW225026   3.486   3.951   6.004
 8043SOL     OW25027   4.760   5.545   0.382
 8043SOL    HW125028   4.795   5.504   0.467
 8043SOL    HW225029   4.776   5.482   0.306
 8044SOL     OW25030   1.708   2.935   1.285
 8044SOL    HW125031   1.611   2.927   1.264
 8044SOL    HW225032   1.724   2.913   1.381
 8045SOL     OW25033   6.345   3.458   4.276
 8045SOL    HW125034   6.401   3.443   4.194
 8045SOL    HW225035   6.392   3.522   4.337
 8046SOL     OW25036   0.460   4.423   1.330
 8046SOL    HW125037   0.493   4.381   1.246
 8046SOL    HW225038   0.461   4.356   1.404
 8047SOL     OW25039   3.020   6.022   6.738
 8047SOL    HW125040   3.007   6.002   6.640
 8047SOL    HW225041   2.936   6.062   6.775
 8048SOL     OW25042   4.006   2.546   5.905
 8048SOL    HW125043   4.044   2.529   5.996
 8048SOL    HW225044   3.948   2.469   5.878
 8049SOL     OW25045   1.646   1.441   0.393
 8049SOL    HW125046   1.639   1.387   0.309
 8049SOL    HW225047   1.642   1.380   0.472
 8050SOL     OW25048   0.423   5.148   6.064
 8050SOL    HW125049   0.470   5.083   6.124
 8050SOL    HW225050   0.405   5.104   5.976
 8051SOL     OW25051   4.818   6.778   3.016
 8051SOL    HW125052   4.848   6.844   3.086
 8051SOL    HW225053   4.733   6.811   2.974
 8052SOL     OW25054   2.876   1.868   2.453
 8052SOL    HW125055   2.779   1.854   2.436
 8052SOL    HW225056   2.911   1.939   2.392
 8053SOL     OW25057   1.429   2.427   6.715
 8053SOL    HW125058   1.516   2.411   6.668
 8053SOL    HW225059   1.439   2.407   6.812
 8054SOL     OW25060   4.967   3.487   4.907
 8054SOL    HW125061   4.899   3.547   4.947
 8054SOL    HW225062   4.924   3.400   4.881
 8055SOL     OW25063   6.545   0.122   6.802
 8055SOL    HW125064   6.620   0.187   6.812
 8055SOL    HW225065   6.507   0.100   6.891
 8056SOL     OW25066   2.363   1.282   4.153
 8056SOL    HW125067   2.461   1.267   4.143
 8056SOL    HW225068   2.313   1.233   4.081
 8057SOL     OW25069   3.028   2.124   2.086
 8057SOL    HW125070   2.980   2.207   2.057
 8057SOL    HW225071   3.004   2.048   2.026
 8058SOL     OW25072   3.889   6.073   2.146
 8058SOL    HW125073   3.931   5.995   2.191
 8058SOL    HW225074   3.790   6.072   2.162
 8059SOL     OW25075   2.939   2.798   5.775
 8059SOL    HW125076   2.861   2.741   5.749
 8059SOL    HW225077   2.992   2.823   5.694
 8060SOL     OW25078   6.978   1.249   6.190
 8060SOL    HW125079   0.040   1.296   6.194
 8060SOL    HW225080   6.922   1.276   6.269
 8061SOL     OW25081   6.988   1.085   1.862
 8061SOL    HW125082   6.969   0.987   1.860
 8061SOL    HW225083   6.913   1.132   1.908
 8062SOL     OW25084   4.380   4.788   5.620
 8062SOL    HW125085   4.435   4.866   5.593
 8062SOL    HW225086   4.309   4.770   5.551
 8063SOL     OW25087   2.644   4.563   2.961
 8063SOL    HW125088   2.695   4.573   3.047
 8063SOL    HW225089   2.697   4.603   2.886
 8064SOL     OW25090   6.942   1.806   0.310
 8064SOL    HW125091   6.927   1.882   0.372
 8064SOL    HW225092   0.004   1.763   0.331
 8065SOL     OW25093   4.601   6.924   6.858
 8065SOL    HW125094   4.662   6.987   6.812
 8065SOL    HW225095   4.536   6.886   6.792
 8066SOL     OW25096   0.397   0.058   5.994
 8066SOL    HW125097   0.380   0.154   6.012
 8066SOL    HW225098   0.319   0.004   6.026
 8067SOL     OW25099   5.756   0.690   4.485
 8067SOL    HW125100   5.781   0.656   4.394
 8067SOL    HW225101   5.662   0.661   4.506
 8068SOL     OW25102   0.015   3.408   1.624
 8068SOL    HW125103   0.033   3.354   1.706
 8068SOL    HW225104   7.010   3.500   1.651
 8069SOL     OW25105   1.252   2.778   2.453
 8069SOL    HW125106   1.163   2.740   2.426
 8069SOL    HW225107   1.243   2.876   2.469
 8070SOL     OW25108   4.972   3.813   0.985
 8070SOL    HW125109   5.017   3.879   0.924
 8070SOL    HW225110   4.945   3.733   0.932
 8071SOL     OW25111   2.714   0.396   5.963
 8071SOL    HW125112   2.673   0.440   5.883
 8071SOL    HW225113   2.654   0.322   5.996
 8072SOL     OW25114   2.387   1.977   4.795
 8072SOL    HW125115   2.344   2.030   4.868
 8072SOL    HW225116   2.486   1.984   4.802
 8073SOL     OW25117   5.239   0.207   0.037
 8073SOL    HW125118   5.271   0.169   6.976
 8073SOL    HW225119   5.140   0.195   0.044
 8074SOL     OW25120   6.699   0.809   6.989
 8074SOL    HW125121   6.728   0.773   0.051
 8074SOL    HW225122   6.735   0.752   6.915
 8075SOL     OW25123   0.145   0.437   1.321
 8075SOL    HW125124   0.244   0.451   1.321
 8075SOL    HW225125   0.125   0.342   1.343
 8076SOL     OW25126   6.720   6.148   0.602
 8076SOL    HW125127   6.784   6.083   0.644
 8076SOL    HW225128   6.733   6.239   0.642
 8077SOL     OW25129   5.778   4.459   1.067
 8077SOL    HW125130   5.817   4.397   0.999
 8077SOL    HW225131   5.848   4.483   1.134
 8078SOL     OW25132   6.462   0.796   1.755
 8078SOL    HW125133   6.426   0.811   1.663
 8078SOL    HW225134   6.539   0.857   1.772
 8079SOL     OW25135   0.759   0.938   6.768
 8079SOL    HW125136   0.743   1.006   6.839
 8079SOL    HW225137   0.693   0.864   6.777
 8080SOL     OW25138   1.427   3.459   3.287
 8080SOL    HW125139   1.432   3.384   3.353
 8080SOL    HW225140   1.421   3.422   3.194
 8081SOL     OW25141   6.702   6.993   5.230
 8081SOL    HW125142   6.751   6.995   5.143
 8081SOL    HW225143   6.755   6.942   5.298
 8082SOL     OW25144   3.694   2.109   4.625
 8082SOL    HW125145   3.765   2.139   4.689
 8082SOL    HW225146   3.648   2.028   4.662
 8083SOL     OW25147   6.658   2.334   4.552
 8083SOL    HW125148   6.685   2.392   4.629
 8083SOL    HW225149   6.733   2.272   4.529
 8084SOL     OW25150   4.019   1.726   5.875
 8084SOL    HW125151   4.099   1.724   5.935
 8084SOL    HW225152   4.014   1.640   5.824
 8085SOL     OW25153   2.089   5.946   4.364
 8085SOL    HW125154   2.035   5.914   4.442
 8085SOL    HW225155   2.074   6.044   4.351
 8086SOL     OW25156   6.483   1.550   2.758
 8086SOL    HW125157   6.526   1.461   2.744
 8086SOL    HW225158   6.390   1.549   2.720
 8087SOL     OW25159   6.625   1.263   6.723
 8087SOL    HW125160   6.696   1.334   6.715
 8087SOL    HW225161   6.668   1.176   6.746
 8088SOL     OW25162   6.759   0.214   5.004
 8088SOL    HW125163   6.819   0.246   5.077
 8088SOL    HW225164   6.791   0.125   4.971
 8089SOL     OW25165   6.163   2.070   6.829
 8089SOL    HW125166   6.208   2.088   6.742
 8089SOL    HW225167   6.199   2.131   6.899
 8090SOL     OW25168   4.496   2.532   5.337
 8090SOL    HW125169   4.521   2.552   5.432
 8090SOL    HW225170   4.493   2.433   5.324
 8091SOL     OW25171   1.089   3.979   4.237
 8091SOL    HW125172   1.123   3.897   4.284
 8091SOL    HW225173   1.128   4.060   4.278
 8092SOL     OW25174   4.750   0.712   5.806
 8092SOL    HW125175   4.658   0.682   5.783
 8092SOL    HW225176   4.757   0.726   5.904
 8093SOL     OW25177   3.534   6.513   3.293
 8093SOL    HW125178   3.552   6.582   3.222
 8093SOL    HW225179   3.543   6.422   3.254
 8094SOL     OW25180   1.998   3.818   3.972
 8094SOL    HW125181   1.900   3.799   3.964
 8094SOL    HW225182   2.038   3.759   4.042
 8095SOL     OW25183   1.329   4.909   5.100
 8095SOL    HW125184   1.421   4.871   5.091
 8095SOL    HW225185   1.262   4.835   5.088
 8096SOL     OW25186   0.992   4.723   0.477
 8096SOL    HW125187   1.005   4.624   0.468
 8096SOL    HW225188   0.939   4.742   0.559
 8097SOL     OW25189   4.409   6.603   0.021
 8097SOL    HW125190   4.400   6.538   6.971
 8097SOL    HW225191   4.485   6.575   0.080
 8098SOL     OW25192   2.453   5.879   5.019
 8098SOL    HW125193   2.476   5.916   4.929
 8098SOL    HW225194   2.366   5.918   5.050
 8099SOL     OW25195   2.095   3.897   2.382
 8099SOL    HW125196   2.106   3.981   2.329
 8099SOL    HW225197   2.057   3.825   2.322
 8100SOL     OW25198   6.488   0.323   6.642
 8100SOL    HW125199   6.461   0.261   6.716
 8100SOL    HW225200   6.408   0.342   6.584
 8101SOL     OW25201   2.597   5.397   1.251
 8101SOL    HW125202   2.564   5.491   1.250
 8101SOL    HW225203   2.562   5.348   1.172
 8102SOL     OW25204   0.676   3.924   3.601
 8102SOL    HW125205   0.770   3.951   3.578
 8102SOL    HW225206   0.670   3.824   3.601
 8103SOL     OW25207   3.967   0.851   1.368
 8103SOL    HW125208   3.979   0.765   1.319
 8103SOL    HW225209   3.871   0.864   1.391
 8104SOL     OW25210   1.869   5.010   6.801
 8104SOL    HW125211   1.902   4.925   6.761
 8104SOL    HW225212   1.872   5.083   6.732
 8105SOL     OW25213   6.564   6.867   3.818
 8105SOL    HW125214   6.512   6.800   3.871
 8105SOL    HW225215   6.649   6.825   3.786
 8106SOL     OW25216   2.813   6.500   6.189
 8106SOL    HW125217   2.799   6.442   6.108
 8106SOL    HW225218   2.735   6.489   6.251
 8107SOL     OW25219   1.693   6.518   6.994
 8107SOL    HW125220   1.653   6.441   6.944
 8107SOL    HW225221   1.772   6.486   0.022
 8108SOL     OW25222   1.331   1.539   6.816
 8108SOL    HW125223   1.429   1.524   6.808
 8108SOL    HW225224   1.282   1.464   6.772
 8109SOL     OW25225   6.295   3.192   1.745
 8109SOL    HW125226   6.198   3.197   1.769
 8109SOL    HW225227   6.330   3.100   1.761
 8110SOL     OW25228   3.919   4.706   0.984
 8110SOL    HW125229   3.870   4.707   0.897
 8110SOL    HW225230   3.967   4.793   0.997
 8111SOL     OW25231   6.376   0.894   2.697
 8111SOL    HW125232   6.472   0.868   2.701
 8111SOL    HW225233   6.326   0.848   2.771
 8112SOL     OW25234   1.503   5.006   6.594
 8112SOL    HW125235   1.530   5.079   6.657
 8112SOL    HW225236   1.466   4.929   6.646
 8113SOL     OW25237   5.063   5.078   6.380
 8113SOL    HW125238   5.015   5.057   6.295
 8113SOL    HW225239   5.045   5.173   6.406
 8114SOL     OW25240   1.946   3.827   2.816
 8114SOL    HW125241   2.041   3.841   2.843
 8114SOL    HW225242   1.927   3.881   2.733
 8115SOL     OW25243   2.333   1.191   5.823
 8115SOL    HW125244   2.246   1.178   5.870
 8115SOL    HW225245   2.396   1.240   5.884
 8116SOL     OW25246   4.026   3.316   1.736
 8116SOL    HW125247   4.069   3.304   1.826
 8116SOL    HW225248   4.036   3.233   1.683
 8117SOL     OW25249   2.545   6.833   4.204
 8117SOL    HW125250   2.524   6.828   4.106
 8117SOL    HW225251   2.463   6.858   4.255
 8118SOL     OW25252   6.948   3.063   6.803
 8118SOL    HW125253   6.960   3.162   6.792
 8118SOL    HW225254   6.993   3.016   6.727
 8119SOL     OW25255   5.350   6.439   6.508
 8119SOL    HW125256   5.449   6.438   6.495
 8119SOL    HW225257   5.323   6.361   6.565
 8120SOL     OW25258   1.902   6.373   2.311
 8120SOL    HW125259   1.973   6.412   2.369
 8120SOL    HW225260   1.909   6.411   2.219
 8121SOL     OW25261   1.432   2.435   2.187
 8121SOL    HW125262   1.347   2.488   2.177
 8121SOL    HW225263   1.468   2.412   2.097
 8122SOL     OW25264   0.606   4.605   1.490
 8122SOL    HW125265   0.631   4.663   1.412
 8122SOL    HW225266   0.570   4.518   1.456
 8123SOL     OW25267   6.702   2.050   0.090
 8123SOL    HW125268   6.649   2.025   0.171
 8123SOL    HW225269   6.740   1.967   0.048
 8124SOL     OW25270   6.106   6.047   5.467
 8124SOL    HW125271   6.123   6.063   5.369
 8124SOL    HW225272   6.017   6.085   5.492
 8125SOL     OW25273   1.150   5.652   2.188
 8125SOL    HW125274   1.239   5.635   2.145
 8125SOL    HW225275   1.082   5.592   2.147
 8126SOL     OW25276   3.765   5.673   5.085
 8126SOL    HW125277   3.734   5.714   5.170
 8126SOL    HW225278   3.859   5.640   5.096
 8127SOL     OW25279   3.671   1.627   6.298
 8127SOL    HW125280   3.761   1.609   6.258
 8127SOL    HW225281   3.634   1.543   6.337
 8128SOL     OW25282   3.103   2.738   1.125
 8128SOL    HW125283   3.011   2.723   1.088
 8128SOL    HW225284   3.133   2.655   1.173
 8129SOL     OW25285   0.680   2.199   2.700
 8129SOL    HW125286   0.610   2.163   2.762
 8129SOL    HW225287   0.691   2.297   2.716
 8130SOL     OW25288   6.817   6.135   6.641
 8130SOL    HW125289   6.778   6.177   6.723
 8130SOL    HW225290   6.825   6.036   6.655
 8131SOL     OW25291   1.653   2.689   0.209
 8131SOL    HW125292   1.751   2.676   0.225
 8131SOL    HW225293   1.602   2.655   0.288
 8132SOL     OW25294   6.546   1.581   5.210
 8132SOL    HW125295   6.506   1.632   5.286
 8132SOL    HW225296   6.645   1.589   5.213
 8133SOL     OW25297   3.154   4.803   1.369
 8133SOL    HW125298   3.235   4.813   1.427
 8133SOL    HW225299   3.114   4.893   1.351
 8134SOL     OW25300   5.336   2.146   5.643
 8134SOL    HW125301   5.422   2.152   5.694
 8134SOL    HW225302   5.259   2.160   5.705
 8135SOL     OW25303   2.432   6.601   1.949
 8135SOL    HW125304   2.440   6.503   1.967
 8135SOL    HW225305   2.418   6.615   1.851
 8136SOL     OW25306   4.910   4.476   2.214
 8136SOL    HW125307   4.895   4.401   2.278
 8136SOL    HW225308   4.990   4.457   2.157
 8137SOL     OW25309   4.481   2.123   6.069
 8137SOL    HW125310   4.383   2.141   6.080
 8137SOL    HW225311   4.503   2.034   6.109
 8138SOL     OW25312   5.116   1.132   2.096
 8138SOL    HW125313   5.047   1.129   2.168
 8138SOL    HW225314   5.198   1.084   2.127
 8139SOL     OW25315   0.069   1.625   3.333
 8139SOL    HW125316   0.095   1.572   3.252
 8139SOL    HW225317   0.125   1.708   3.338
 8140SOL     OW25318   4.942   2.419   3.129
 8140SOL    HW125319   4.906   2.455   3.215
 8140SOL    HW225320   4.938   2.491   3.059
 8141SOL     OW25321   5.521   3.953   4.317
 8141SOL    HW125322   5.450   3.950   4.247
 8141SOL    HW225323   5.609   3.931   4.276
 8142SOL     OW25324   0.015   6.317   6.874
 8142SOL    HW125325   0.058   6.234   6.839
 8142SOL    HW225326   6.978   6.353   6.806
 8143SOL     OW25327   6.261   3.622   5.485
 8143SOL    HW125328   6.209   3.540   5.459
 8143SOL    HW225329   6.333   3.596   5.550
 8144SOL     OW25330   5.069   6.635   0.008
 8144SOL    HW125331   5.064   6.661   0.105
 8144SOL    HW225332   5.061   6.717   6.978
 8145SOL     OW25333   4.774   6.112   2.978
 8145SOL    HW125334   4.721   6.196   2.967
 8145SOL    HW225335   4.843   6.125   3.049
 8146SOL     OW25336   3.744   1.346   4.389
 8146SOL    HW125337   3.645   1.347   4.376
 8146SOL    HW225338   3.785   1.276   4.331
 8147SOL     OW25339   5.029   0.910   2.784
 8147SOL    HW125340   5.044   0.951   2.873
 8147SOL    HW225341   5.054   0.813   2.787
 8148SOL     OW25342   6.026   4.389   3.365
 8148SOL    HW125343   5.964   4.311   3.374
 8148SOL    HW225344   5.988   4.454   3.299
 8149SOL     OW25345   3.582   5.238   3.142
 8149SOL    HW125346   3.526   5.183   3.081
 8149SOL    HW225347   3.571   5.335   3.121
 8150SOL     OW25348   1.101   5.981   1.331
 8150SOL    HW125349   1.188   6.029   1.333
 8150SOL    HW225350   1.028   6.046   1.308
 8151SOL     OW25351   0.479   1.839   4.417
 8151SOL    HW125352   0.545   1.764   4.416
 8151SOL    HW225353   0.527   1.926   4.413
 8152SOL     OW25354   1.542   0.476   3.352
 8152SOL    HW125355   1.614   0.528   3.305
 8152SOL    HW225356   1.453   0.502   3.315
 8153SOL     OW25357   1.916   6.632   0.482
 8153SOL    HW125358   1.904   6.612   0.580
 8153SOL    HW225359   2.010   6.609   0.456
 8154SOL     OW25360   2.636   6.725   3.450
 8154SOL    HW125361   2.579   6.737   3.369
 8154SOL    HW225362   2.579   6.727   3.532
 8155SOL     OW25363   3.264   3.794   4.822
 8155SOL    HW125364   3.282   3.771   4.726
 8155SOL    HW225365   3.184   3.744   4.854
 8156SOL     OW25366   0.247   0.469   5.706
 8156SOL    HW125367   0.189   0.488   5.785
 8156SOL    HW225368   0.303   0.389   5.724
 8157SOL     OW25369   6.100   2.380   6.913
 8157SOL    HW125370   6.009   2.349   6.940
 8157SOL    HW225371   6.158   2.389   6.995
 8158SOL     OW25372   1.683   5.113   2.127
 8158SOL    HW125373   1.616   5.038   2.131
 8158SOL    HW225374   1.776   5.074   2.125
 8159SOL     OW25375   0.626   5.493   1.733
 8159SOL    HW125376   0.539   5.526   1.697
 8159SOL    HW225377   0.610   5.444   1.819
 8160SOL     OW25378   4.670   2.000   1.837
 8160SOL    HW125379   4.619   2.043   1.911
 8160SOL    HW225380   4.659   2.055   1.754
 8161SOL     OW25381   4.390   2.398   1.647
 8161SOL    HW125382   4.447   2.455   1.705
 8161SOL    HW225383   4.437   2.380   1.560
 8162SOL     OW25384   5.746   0.679   1.875
 8162SOL    HW125385   5.725   0.588   1.911
 8162SOL    HW225386   5.679   0.703   1.804
 8163SOL     OW25387   1.915   3.136   5.008
 8163SOL    HW125388   1.932   3.041   4.984
 8163SOL    HW225389   1.993   3.172   5.059
 8164SOL     OW25390   4.781   2.483   2.633
 8164SOL    HW125391   4.838   2.501   2.553
 8164SOL    HW225392   4.786   2.561   2.695
 8165SOL     OW25393   2.072   4.992   1.622
 8165SOL    HW125394   2.088   5.007   1.719
 8165SOL    HW225395   1.992   4.932   1.611
 8166SOL     OW25396   3.599   6.800   1.335
 8166SOL    HW125397   3.589   6.716   1.280
 8166SOL    HW225398   3.590   6.880   1.276
 8167SOL     OW25399   5.607   2.903   4.132
 8167SOL    HW125400   5.640   2.819   4.175
 8167SOL    HW225401   5.585   2.970   4.203
 8168SOL     OW25402   3.024   1.729   2.103
 8168SOL    HW125403   3.104   1.771   2.146
 8168SOL    HW225404   2.942   1.751   2.156
 8169SOL     OW25405   5.479   3.888   4.951
 8169SOL    HW125406   5.569   3.850   4.930
 8169SOL    HW225407   5.415   3.863   4.878
 8170SOL     OW25408   1.238   4.718   4.529
 8170SOL    HW125409   1.215   4.621   4.518
 8170SOL    HW225410   1.330   4.735   4.492
 8171SOL     OW25411   1.618   1.174   6.177
 8171SOL    HW125412   1.587   1.109   6.246
 8171SOL    HW225413   1.592   1.140   6.086
 8172SOL     OW25414   7.013   6.443   1.411
 8172SOL    HW125415   0.067   6.498   1.387
 8172SOL    HW225416   0.004   6.393   1.496
 8173SOL     OW25417   5.895   2.783   6.949
 8173SOL    HW125418   5.896   2.700   6.893
 8173SOL    HW225419   5.849   2.856   6.899
 8174SOL     OW25420   5.238   6.685   2.148
 8174SOL    HW125421   5.297   6.740   2.207
 8174SOL    HW225422   5.255   6.588   2.164
 8175SOL     OW25423   1.601   2.715   4.350
 8175SOL    HW125424   1.660   2.771   4.292
 8175SOL    HW225425   1.569   2.769   4.427
 8176SOL     OW25426   3.897   5.511   3.472
 8176SOL    HW125427   3.924   5.512   3.376
 8176SOL    HW225428   3.955   5.575   3.523
 8177SOL     OW25429   0.902   6.764   5.526
 8177SOL    HW125430   0.889   6.854   5.484
 8177SOL    HW225431   0.995   6.731   5.506
 8178SOL     OW25432   1.953   6.861   5.894
 8178SOL    HW125433   1.977   6.774   5.938
 8178SOL    HW225434   2.037   6.907   5.865
 8179SOL     OW25435   3.343   0.264   0.243
 8179SOL    HW125436   3.365   0.362   0.239
 8179SOL    HW225437   3.298   0.237   0.158
 8180SOL     OW25438   4.554   4.816   6.039
 8180SOL    HW125439   4.468   4.778   6.004
 8180SOL    HW225440   4.600   4.868   5.967
 8181SOL     OW25441   2.283   2.177   2.059
 8181SOL    HW125442   2.326   2.264   2.086
 8181SOL    HW225443   2.354   2.114   2.027
 8182SOL     OW25444   5.418   2.580   5.934
 8182SOL    HW125445   5.327   2.602   5.898
 8182SOL    HW225446   5.414   2.492   5.980
 8183SOL     OW25447   1.937   2.751   3.631
 8183SOL    HW125448   1.886   2.835   3.616
 8183SOL    HW225449   2.027   2.757   3.586
 8184SOL     OW25450   5.909   6.304   4.633
 8184SOL    HW125451   5.857   6.384   4.602
 8184SOL    HW225452   5.911   6.302   4.733
 8185SOL     OW25453   1.769   1.940   3.224
 8185SOL    HW125454   1.807   1.880   3.294
 8185SOL    HW225455   1.844   1.977   3.169
 8186SOL     OW25456   4.193   4.186   6.626
 8186SOL    HW125457   4.197   4.172   6.527
 8186SOL    HW225458   4.282   4.216   6.659
 8187SOL     OW25459   2.031   1.141   5.778
 8187SOL    HW125460   2.069   1.067   5.722
 8187SOL    HW225461   1.957   1.104   5.834
 8188SOL     OW25462   5.335   2.902   2.488
 8188SOL    HW125463   5.284   2.825   2.448
 8188SOL    HW225464   5.351   2.971   2.417
 8189SOL     OW25465   6.877   4.928   2.883
 8189SOL    HW125466   6.803   4.871   2.849
 8189SOL    HW225467   6.842   4.994   2.950
 8190SOL     OW25468   5.901   3.984   2.068
 8190SOL    HW125469   5.899   3.914   2.140
 8190SOL    HW225470   5.837   4.057   2.091
 8191SOL     OW25471   6.966   5.030   2.023
 8191SOL    HW125472   6.917   5.062   1.942
 8191SOL    HW225473   0.007   4.960   1.996
 8192SOL     OW25474   1.386   3.051   0.837
 8192SOL    HW125475   1.382   3.074   0.740
 8192SOL    HW225476   1.395   2.952   0.846
 8193SOL     OW25477   4.056   6.873   5.475
 8193SOL    HW125478   4.093   6.947   5.531
 8193SOL    HW225479   4.113   6.791   5.486
 8194SOL     OW25480   1.816   0.264   2.018
 8194SOL    HW125481   1.730   0.231   1.979
 8194SOL    HW225482   1.872   0.186   2.045
 8195SOL     OW25483   5.411   1.675   1.254
 8195SOL    HW125484   5.473   1.751   1.234
 8195SOL    HW225485   5.416   1.653   1.351
 8196SOL     OW25486   2.150   0.513   6.902
 8196SOL    HW125487   2.095   0.562   6.970
 8196SOL    HW225488   2.149   0.563   6.816
 8197SOL     OW25489   0.483   0.336   1.305
 8197SOL    HW125490   0.472   0.276   1.384
 8197SOL    HW225491   0.531   0.287   1.232
 8198SOL     OW25492   3.165   6.980   2.631
 8198SOL    HW125493   3.113   0.040   2.633
 8198SOL    HW225494   3.107   6.907   2.594
 8199SOL     OW25495   6.001   4.961   1.089
 8199SOL    HW125496   5.981   5.020   1.012
 8199SOL    HW225497   6.035   5.017   1.166
 8200SOL     OW25498   4.139   3.588   1.803
 8200SOL    HW125499   4.189   3.665   1.763
 8200SOL    HW225500   4.049   3.618   1.834
 8201SOL     OW25501   6.573   0.726   4.887
 8201SOL    HW125502   6.546   0.670   4.966
 8201SOL    HW225503   6.559   0.823   4.910
 8202SOL     OW25504   1.413   3.828   4.368
 8202SOL    HW125505   1.510   3.823   4.391
 8202SOL    HW225506   1.403   3.845   4.269
 8203SOL     OW25507   6.372   4.383   0.002
 8203SOL    HW125508   6.387   4.404   0.098
 8203SOL    HW225509   6.298   4.441   6.992
 8204SOL     OW25510   3.121   0.382   0.885
 8204SOL    HW125511   3.191   0.310   0.885
 8204SOL    HW225512   3.064   0.372   0.803
 8205SOL     OW25513   5.291   6.273   3.059
 8205SOL    HW125514   5.359   6.318   3.116
 8205SOL    HW225515   5.278   6.179   3.091
 8206SOL     OW25516   3.924   1.908   4.217
 8206SOL    HW125517   3.907   1.971   4.292
 8206SOL    HW225518   4.008   1.856   4.235
 8207SOL     OW25519   2.903   5.881   0.028
 8207SOL    HW125520   2.995   5.906   0.059
 8207SOL    HW225521   2.864   5.957   7.002
 8208SOL     OW25522   1.799   6.022   0.116
 8208SOL    HW125523   1.894   5.993   0.131
 8208SOL    HW225524   1.747   6.011   0.201
 8209SOL     OW25525   1.278   5.545   4.974
 8209SOL    HW125526   1.268   5.498   5.062
 8209SOL    HW225527   1.216   5.504   4.907
 8210SOL     OW25528   2.434   1.440   0.117
 8210SOL    HW125529   2.424   1.343   0.095
 8210SOL    HW225530   2.343   1.483   0.120
 8211SOL     OW25531   3.542   3.676   3.403
 8211SOL    HW125532   3.520   3.773   3.409
 8211SOL    HW225533   3.564   3.641   3.494
 8212SOL     OW25534   3.880   5.354   6.997
 8212SOL    HW125535   3.827   5.370   6.914
 8212SOL    HW225536   3.827   5.385   0.051
 8213SOL     OW25537   4.428   4.398   1.667
 8213SOL    HW125538   4.333   4.419   1.688
 8213SOL    HW225539   4.459   4.321   1.724
 8214SOL     OW25540   3.836   5.215   3.259
 8214SOL    HW125541   3.748   5.170   3.241
 8214SOL    HW225542   3.856   5.281   3.186
 8215SOL     OW25543   2.256   6.045   6.451
 8215SOL    HW125544   2.278   5.968   6.512
 8215SOL    HW225545   2.158   6.060   6.452
 8216SOL     OW25546   5.182   5.858   1.290
 8216SOL    HW125547   5.134   5.773   1.314
 8216SOL    HW225548   5.119   5.935   1.294
 8217SOL     OW25549   3.608   6.812   4.019
 8217SOL    HW125550   3.546   6.752   4.070
 8217SOL    HW225551   3.657   6.871   4.083
 8218SOL     OW25552   2.104   6.490   4.786
 8218SOL    HW125553   2.103   6.413   4.722
 8218SOL    HW225554   2.077   6.574   4.738
 8219SOL     OW25555   4.018   3.184   3.179
 8219SOL    HW125556   4.023   3.251   3.253
 8219SOL    HW225557   4.096   3.196   3.117
 8220SOL     OW25558   3.978   3.957   5.814
 8220SOL    HW125559   3.894   3.903   5.822
 8220SOL    HW225560   3.959   4.042   5.764
 8221SOL     OW25561   6.556   3.387   4.004
 8221SOL    HW125562   6.644   3.349   4.032
 8221SOL    HW225563   6.568   3.481   3.975
 8222SOL     OW25564   6.037   3.045   6.768
 8222SOL    HW125565   6.120   3.080   6.725
 8222SOL    HW225566   6.014   2.956   6.729
 8223SOL     OW25567   1.658   6.318   5.410
 8223SOL    HW125568   1.559   6.336   5.407
 8223SOL    HW225569   1.707   6.404   5.421
 8224SOL     OW25570   5.755   1.396   6.312
 8224SOL    HW125571   5.659   1.423   6.323
 8224SOL    HW225572   5.813   1.477   6.316
 8225SOL     OW25573   5.932   3.071   0.013
 8225SOL    HW125574   5.957   3.005   0.084
 8225SOL    HW225575   5.985   3.053   6.956
 8226SOL     OW25576   3.515   1.313   6.842
 8226SOL    HW125577   3.531   1.312   6.941
 8226SOL    HW225578   3.577   1.380   6.799
 8227SOL     OW25579   4.557   2.515   2.865
 8227SOL    HW125580   4.605   2.565   2.937
 8227SOL    HW225581   4.530   2.579   2.792
 8228SOL     OW25582   3.204   0.793   4.764
 8228SOL    HW125583   3.198   0.743   4.851
 8228SOL    HW225584   3.133   0.863   4.761
 8229SOL     OW25585   4.569   5.019   0.927
 8229SOL    HW125586   4.630   4.951   0.969
 8229SOL    HW225587   4.548   5.090   0.994
 8230SOL     OW25588   5.928   1.339   6.082
 8230SOL    HW125589   5.839   1.300   6.107
 8230SOL    HW225590   5.961   1.397   6.157
 8231SOL     OW25591   3.028   1.198   2.232
 8231SOL    HW125592   3.036   1.287   2.187
 8231SOL    HW225593   2.939   1.158   2.213
 8232SOL     OW25594   3.866   6.216   3.066
 8232SOL    HW125595   3.798   6.243   2.999
 8232SOL    HW225596   3.932   6.290   3.078
 8233SOL     OW25597   2.126   1.435   6.904
 8233SOL    HW125598   2.112   1.516   6.847
 8233SOL    HW225599   2.166   1.362   6.849
 8234SOL     OW25600   1.358   2.765   0.119
 8234SOL    HW125601   1.306   2.682   0.099
 8234SOL    HW225602   1.440   2.768   0.061
 8235SOL     OW25603   0.413   0.635   1.237
 8235SOL    HW125604   0.366   0.653   1.151
 8235SOL    HW225605   0.419   0.537   1.252
 8236SOL     OW25606   0.880   0.160   1.347
 8236SOL    HW125607   0.974   0.129   1.363
 8236SOL    HW225608   0.826   0.144   1.430
 8237SOL     OW25609   4.025   4.969   5.235
 8237SOL    HW125610   4.044   5.023   5.318
 8237SOL    HW225611   4.026   4.872   5.258
 8238SOL     OW25612   0.309   5.656   0.298
 8238SOL    HW125613   0.325   5.558   0.315
 8238SOL    HW225614   0.238   5.666   0.229
 8239SOL     OW25615   3.757   1.738   5.448
 8239SOL    HW125616   3.698   1.701   5.376
 8239SOL    HW225617   3.806   1.817   5.412
 8240SOL     OW25618   3.550   4.079   5.146
 8240SOL    HW125619   3.482   4.073   5.074
 8240SOL    HW225620   3.504   4.090   5.234
 8241SOL     OW25621   1.008   3.488   5.335
 8241SOL    HW125622   1.025   3.440   5.421
 8241SOL    HW225623   1.094   3.526   5.301
 8242SOL     OW25624   0.331   2.672   2.466
 8242SOL    HW125625   0.410   2.623   2.502
 8242SOL    HW225626   0.254   2.659   2.529
 8243SOL     OW25627   1.494   6.741   3.605
 8243SOL    HW125628   1.508   6.692   3.691
 8243SOL    HW225629   1.519   6.837   3.617
 8244SOL     OW25630   6.030   0.232   4.188
 8244SOL    HW125631   6.096   0.184   4.130
 8244SOL    HW225632   6.061   0.325   4.205
 8245SOL     OW25633   4.915   3.103   2.420
 8245SOL    HW125634   4.845   3.050   2.373
 8245SOL    HW225635   4.920   3.075   2.516
 8246SOL     OW25636   1.884   4.260   6.606
 8246SOL    HW125637   1.797   4.213   6.625
 8246SOL    HW225638   1.944   4.199   6.555
 8247SOL     OW25639   2.774   4.691   3.201
 8247SOL    HW125640   2.789   4.626   3.276
 8247SOL    HW225641   2.854   4.751   3.192
 8248SOL     OW25642   6.915   5.638   3.405
 8248SOL    HW125643   6.925   5.549   3.450
 8248SOL    HW225644   6.988   5.699   3.434
 8249SOL     OW25645   2.979   1.217   6.485
 8249SOL    HW125646   2.920   1.275   6.541
 8249SOL    HW225647   2.937   1.205   6.395
 8250SOL     OW25648   1.580   1.965   0.011
 8250SOL    HW125649   1.653   2.032   7.024
 8250SOL    HW225650   1.585   1.928   0.104
 8251SOL     OW25651   1.227   1.650   5.509
 8251SOL    HW125652   1.262   1.723   5.567
 8251SOL    HW225653   1.196   1.688   5.422
 8252SOL     OW25654   0.814   2.026   6.739
 8252SOL    HW125655   0.808   2.016   6.640
 8252SOL    HW225656   0.910   2.022   6.768
 8253SOL     OW25657   5.611   4.605   6.118
 8253SOL    HW125658   5.691   4.597   6.177
 8253SOL    HW225659   5.531   4.628   6.174
 8254SOL     OW25660   6.161   5.800   0.066
 8254SOL    HW125661   6.221   5.880   0.059
 8254SOL    HW225662   6.095   5.814   0.140
 8255SOL     OW25663   0.890   0.251   5.386
 8255SOL    HW125664   0.967   0.313   5.368
 8255SOL    HW225665   0.814   0.273   5.325
 8256SOL     OW25666   1.409   5.991   3.946
 8256SOL    HW125667   1.435   6.080   3.909
 8256SOL    HW225668   1.451   5.918   3.891
 8257SOL     OW25669   4.832   3.307   3.721
 8257SOL    HW125670   4.748   3.297   3.669
 8257SOL    HW225671   4.900   3.354   3.665
 8258SOL     OW25672   0.228   2.619   3.234
 8258SOL    HW125673   0.185   2.669   3.159
 8258SOL    HW225674   0.174   2.537   3.255
 8259SOL     OW25675   5.776   2.307   4.224
 8259SOL    HW125676   5.737   2.264   4.306
 8259SOL    HW225677   5.813   2.397   4.248
 8260SOL     OW25678   5.132   2.691   6.481
 8260SOL    HW125679   5.135   2.621   6.409
 8260SOL    HW225680   5.040   2.695   6.520
 8261SOL     OW25681   6.229   1.374   2.946
 8261SOL    HW125682   6.225   1.473   2.956
 8261SOL    HW225683   6.149   1.332   2.989
 8262SOL     OW25684   5.089   4.281   2.127
 8262SOL    HW125685   5.001   4.240   2.104
 8262SOL    HW225686   5.156   4.259   2.055
 8263SOL     OW25687   6.373   1.866   6.278
 8263SOL    HW125688   6.451   1.924   6.253
 8263SOL    HW225689   6.308   1.864   6.202
 8264SOL     OW25690   2.882   0.927   1.482
 8264SOL    HW125691   2.963   0.870   1.495
 8264SOL    HW225692   2.848   0.958   1.571
 8265SOL     OW25693   4.539   5.901   0.068
 8265SOL    HW125694   4.589   5.987   0.067
 8265SOL    HW225695   4.452   5.914   0.116
 8266SOL     OW25696   3.157   1.381   3.041
 8266SOL    HW125697   3.064   1.407   3.063
 8266SOL    HW225698   3.210   1.462   3.015
 8267SOL     OW25699   1.765   2.771   3.287
 8267SOL    HW125700   1.718   2.719   3.216
 8267SOL    HW225701   1.788   2.862   3.253
 8268SOL     OW25702   2.998   4.653   0.730
 8268SOL    HW125703   2.972   4.568   0.774
 8268SOL    HW225704   3.097   4.654   0.714
 8269SOL     OW25705   6.558   2.201   4.790
 8269SOL    HW125706   6.580   2.264   4.716
 8269SOL    HW225707   6.637   2.193   4.852
 8270SOL     OW25708   3.705   4.576   6.798
 8270SOL    HW125709   3.744   4.631   6.724
 8270SOL    HW225710   3.683   4.635   6.875
 8271SOL     OW25711   3.632   7.003   5.883
 8271SOL    HW125712   3.728   7.012   5.911
 8271SOL    HW225713   3.573   0.015   5.954
 8272SOL     OW25714   0.205   0.494   1.942
 8272SOL    HW125715   0.249   0.565   1.998
 8272SOL    HW225716   0.190   0.529   1.850
 8273SOL     OW25717   3.987   0.198   6.757
 8273SOL    HW125718   4.044   0.130   6.711
 8273SOL    HW225719   4.030   0.224   6.844
 8274SOL     OW25720   5.370   6.056   5.074
 8274SOL    HW125721   5.455   6.097   5.042
 8274SOL    HW225722   5.293   6.116   5.051
 8275SOL     OW25723   4.338   1.389   5.318
 8275SOL    HW125724   4.259   1.418   5.370
 8275SOL    HW225725   4.311   1.372   5.223
 8276SOL     OW25726   5.707   2.910   0.576
 8276SOL    HW125727   5.656   2.888   0.660
 8276SOL    HW225728   5.800   2.938   0.601
 8277SOL     OW25729   1.183   6.744   1.310
 8277SOL    HW125730   1.271   6.777   1.276
 8277SOL    HW225731   1.191   6.724   1.408
 8278SOL     OW25732   1.219   0.626   1.005
 8278SOL    HW125733   1.189   0.530   1.000
 8278SOL    HW225734   1.307   0.636   0.959
 8279SOL     OW25735   4.823   5.725   5.987
 8279SOL    HW125736   4.908   5.764   5.953
 8279SOL    HW225737   4.784   5.785   6.057
 8280SOL     OW25738   5.637   4.549   6.465
 8280SOL    HW125739   5.553   4.506   6.499
 8280SOL    HW225740   5.654   4.633   6.516
 8281SOL     OW25741   3.243   5.158   6.148
 8281SOL    HW125742   3.188   5.236   6.117
 8281SOL    HW225743   3.287   5.116   6.069
 8282SOL     OW25744   4.265   2.982   1.024
 8282SOL    HW125745   4.210   2.941   0.951
 8282SOL    HW225746   4.213   2.980   1.109
 8283SOL     OW25747   0.576   7.002   3.044
 8283SOL    HW125748   0.658   6.957   3.079
 8283SOL    HW225749   0.574   0.072   3.073
 8284SOL     OW25750   5.476   2.108   2.120
 8284SOL    HW125751   5.557   2.166   2.121
 8284SOL    HW225752   5.483   2.041   2.047
 8285SOL     OW25753   1.090   4.445   0.520
 8285SOL    HW125754   1.103   4.503   0.600
 8285SOL    HW225755   1.141   4.360   0.532
 8286SOL     OW25756   6.520   2.339   6.832
 8286SOL    HW125757   6.442   2.351   6.770
 8286SOL    HW225758   6.556   2.429   6.857
 8287SOL     OW25759   1.208   0.971   3.152
 8287SOL    HW125760   1.158   0.888   3.126
 8287SOL    HW225761   1.223   1.028   3.072
 8288SOL     OW25762   2.294   0.085   2.151
 8288SOL    HW125763   2.377   0.060   2.202
 8288SOL    HW225764   2.258   0.004   2.104
 8289SOL     OW25765   5.953   6.884   0.286
 8289SOL    HW125766   5.944   6.790   0.320
 8289SOL    HW225767   5.958   6.947   0.364
 8290SOL     OW25768   5.300   2.932   1.886
 8290SOL    HW125769   5.290   2.969   1.794
 8290SOL    HW225770   5.216   2.884   1.912
 8291SOL     OW25771   5.068   5.894   6.603
 8291SOL    HW125772   5.106   5.951   6.531
 8291SOL    HW225773   5.062   5.947   6.688
 8292SOL     OW25774   0.288   3.650   5.248
 8292SOL    HW125775   0.331   3.664   5.158
 8292SOL    HW225776   0.259   3.555   5.256
 8293SOL     OW25777   3.318   4.924   3.784
 8293SOL    HW125778   3.400   4.886   3.740
 8293SOL    HW225779   3.329   4.920   3.883
 8294SOL     OW25780   6.446   3.595   5.703
 8294SOL    HW125781   6.373   3.588   5.771
 8294SOL    HW225782   6.534   3.581   5.747
 8295SOL     OW25783   4.783   5.268   2.668
 8295SOL    HW125784   4.767   5.345   2.729
 8295SOL    HW225785   4.817   5.190   2.721
 8296SOL     OW25786   3.666   0.473   2.395
 8296SOL    HW125787   3.663   0.490   2.493
 8296SOL    HW225788   3.668   0.375   2.378
 8297SOL     OW25789   5.715   4.259   1.788
 8297SOL    HW125790   5.793   4.239   1.730
 8297SOL    HW225791   5.740   4.248   1.884
 8298SOL     OW25792   6.496   6.306   0.876
 8298SOL    HW125793   6.561   6.363   0.824
 8298SOL    HW225794   6.533   6.214   0.884
 8299SOL     OW25795   1.329   3.026   6.314
 8299SOL    HW125796   1.253   3.009   6.251
 8299SOL    HW225797   1.312   2.980   6.401
 8300SOL     OW25798   5.795   5.509   4.490
 8300SOL    HW125799   5.745   5.430   4.526
 8300SOL    HW225800   5.797   5.504   4.391
 8301SOL     OW25801   6.868   5.075   0.623
 8301SOL    HW125802   6.952   5.049   0.577
 8301SOL    HW225803   6.890   5.116   0.712
 8302SOL     OW25804   3.780   6.726   5.769
 8302SOL    HW125805   3.702   6.673   5.734
 8302SOL    HW225806   3.765   6.747   5.866
 8303SOL     OW25807   1.097   5.019   4.489
 8303SOL    HW125808   1.121   4.922   4.492
 8303SOL    HW225809   1.178   5.075   4.507
 8304SOL     OW25810   6.804   2.685   3.924
 8304SOL    HW125811   6.828   2.755   3.856
 8304SOL    HW225812   6.885   2.631   3.946
 8305SOL     OW25813   4.824   0.032   5.141
 8305SOL    HW125814   4.923   0.023   5.149
 8305SOL    HW225815   4.794   7.014   5.056
 8306SOL     OW25816   5.832   0.326   3.982
 8306SOL    HW125817   5.893   0.336   3.903
 8306SOL    HW225818   5.886   0.317   4.065
 8307SOL     OW25819   0.726   4.979   4.063
 8307SOL    HW125820   0.778   4.957   3.980
 8307SOL    HW225821   0.782   5.037   4.123
 8308SOL     OW25822   1.422   5.256   0.579
 8308SOL    HW125823   1.456   5.214   0.663
 8308SOL    HW225824   1.401   5.184   0.512
 8309SOL     OW25825   6.449   4.771   3.177
 8309SOL    HW125826   6.496   4.838   3.119
 8309SOL    HW225827   6.501   4.757   3.261
 8310SOL     OW25828   2.618   6.558   3.150
 8310SOL    HW125829   2.714   6.580   3.168
 8310SOL    HW225830   2.580   6.626   3.087
 8311SOL     OW25831   4.377   6.173   2.154
 8311SOL    HW125832   4.353   6.247   2.091
 8311SOL    HW225833   4.401   6.212   2.243
 8312SOL     OW25834   6.635   1.883   0.602
 8312SOL    HW125835   6.677   1.796   0.630
 8312SOL    HW225836   6.572   1.913   0.673
 8313SOL     OW25837   5.317   3.034   6.074
 8313SOL    HW125838   5.401   3.026   6.020
 8313SOL    HW225839   5.302   2.950   6.126
 8314SOL     OW25840   4.295   5.528   3.864
 8314SOL    HW125841   4.282   5.433   3.892
 8314SOL    HW225842   4.213   5.561   3.816
 8315SOL     OW25843   3.287   2.892   6.660
 8315SOL    HW125844   3.230   2.853   6.587
 8315SOL    HW225845   3.302   2.823   6.730
 8316SOL     OW25846   1.529   1.827   5.274
 8316SOL    HW125847   1.513   1.743   5.325
 8316SOL    HW225848   1.568   1.805   5.185
 8317SOL     OW25849   1.425   2.157   4.853
 8317SOL    HW125850   1.482   2.216   4.796
 8317SOL    HW225851   1.478   2.123   4.931
 8318SOL     OW25852   4.808   6.478   5.998
 8318SOL    HW125853   4.835   6.574   5.992
 8318SOL    HW225854   4.740   6.467   6.071
 8319SOL     OW25855   2.485   5.666   0.174
 8319SOL    HW125856   2.413   5.702   0.115
 8319SOL    HW225857   2.449   5.653   0.266
 8320SOL     OW25858   3.890   4.200   5.721
 8320SOL    HW125859   3.837   4.215   5.805
 8320SOL    HW225860   3.881   4.280   5.662
 8321SOL     OW25861   0.260   0.416   0.721
 8321SOL    HW125862   0.340   0.454   0.768
 8321SOL    HW225863   0.186   0.482   0.722
 8322SOL     OW25864   1.565   0.926   0.878
 8322SOL    HW125865   1.496   0.992   0.847
 8322SOL    HW225866   1.634   0.914   0.806
 8323SOL     OW25867   5.804   4.633   6.993
 8323SOL    HW125868   5.716   4.648   0.013
 8323SOL    HW225869   5.867   4.707   7.016
 8324SOL     OW25870   5.092   6.510   6.509
 8324SOL    HW125871   5.086   6.510   6.609
 8324SOL    HW225872   5.183   6.481   6.481
 8325SOL     OW25873   1.338   6.230   5.036
 8325SOL    HW125874   1.328   6.133   5.012
 8325SOL    HW225875   1.261   6.282   5.000
 8326SOL     OW25876   2.301   2.051   6.598
 8326SOL    HW125877   2.273   2.135   6.644
 8326SOL    HW225878   2.224   2.015   6.546
 8327SOL     OW25879   0.932   6.564   5.116
 8327SOL    HW125880   0.948   6.621   5.035
 8327SOL    HW225881   0.953   6.617   5.198
 8328SOL     OW25882   1.031   6.363   1.033
 8328SOL    HW125883   1.087   6.322   0.961
 8328SOL    HW225884   1.042   6.463   1.031
 8329SOL     OW25885   1.546   2.591   5.449
 8329SOL    HW125886   1.458   2.546   5.431
 8329SOL    HW225887   1.615   2.554   5.387
 8330SOL     OW25888   2.748   6.679   0.292
 8330SOL    HW125889   2.731   6.639   0.202
 8330SOL    HW225890   2.662   6.713   0.330
 8331SOL     OW25891   2.123   2.538   5.649
 8331SOL    HW125892   2.078   2.607   5.592
 8331SOL    HW225893   2.222   2.549   5.643
 8332SOL     OW25894   5.568   4.024   1.187
 8332SOL    HW125895   5.579   4.012   1.286
 8332SOL    HW225896   5.653   4.059   1.148
 8333SOL     OW25897   2.816   4.457   6.423
 8333SOL    HW125898   2.837   4.378   6.480
 8333SOL    HW225899   2.901   4.498   6.390
 8334SOL     OW25900   3.393   2.325   5.419
 8334SOL    HW125901   3.333   2.284   5.488
 8334SOL    HW225902   3.340   2.345   5.337
 8335SOL     OW25903   5.117   4.234   5.895
 8335SOL    HW125904   5.193   4.289   5.929
 8335SOL    HW225905   5.095   4.262   5.801
 8336SOL     OW25906   1.333   3.990   3.605
 8336SOL    HW125907   1.294   3.963   3.517
 8336SOL    HW225908   1.259   4.005   3.670
 8337SOL     OW25909   6.801   1.317   4.301
 8337SOL    HW125910   6.857   1.391   4.263
 8337SOL    HW225911   6.853   1.268   4.371
 8338SOL     OW25912   2.502   5.735   1.172
 8338SOL    HW125913   2.569   5.706   1.104
 8338SOL    HW225914   2.410   5.728   1.135
 8339SOL     OW25915   6.131   0.325   1.812
 8339SOL    HW125916   6.201   0.386   1.775
 8339SOL    HW225917   6.171   0.236   1.833
 8340SOL     OW25918   6.019   2.824   6.600
 8340SOL    HW125919   5.970   2.739   6.620
 8340SOL    HW225920   5.980   2.865   6.518
 8341SOL     OW25921   3.945   0.379   0.979
 8341SOL    HW125922   3.978   0.285   0.988
 8341SOL    HW225923   3.890   0.403   1.059
 8342SOL     OW25924   3.948   1.185   0.521
 8342SOL    HW125925   3.921   1.133   0.440
 8342SOL    HW225926   3.943   1.126   0.601
 8343SOL     OW25927   5.604   5.580   3.207
 8343SOL    HW125928   5.581   5.565   3.111
 8343SOL    HW225929   5.703   5.590   3.217
 8344SOL     OW25930   2.335   4.943   6.340
 8344SOL    HW125931   2.350   4.847   6.319
 8344SOL    HW225932   2.407   4.999   6.299
 8345SOL     OW25933   5.829   6.991   3.912
 8345SOL    HW125934   5.864   0.025   3.840
 8345SOL    HW225935   5.743   0.003   3.947
 8346SOL     OW25936   5.929   3.715   3.976
 8346SOL    HW125937   6.015   3.746   3.936
 8346SOL    HW225938   5.858   3.713   3.906
 8347SOL     OW25939   1.610   1.481   6.106
 8347SOL    HW125940   1.644   1.454   6.196
 8347SOL    HW225941   1.649   1.422   6.036
 8348SOL     OW25942   3.336   5.612   1.572
 8348SOL    HW125943   3.401   5.687   1.560
 8348SOL    HW225944   3.379   5.538   1.623
 8349SOL     OW25945   4.281   6.209   1.658
 8349SOL    HW125946   4.328   6.159   1.730
 8349SOL    HW225947   4.290   6.160   1.571
 8350SOL     OW25948   1.024   0.175   0.015
 8350SOL    HW125949   0.998   0.262   0.056
 8350SOL    HW225950   1.100   0.189   6.977
 8351SOL     OW25951   0.053   2.580   2.858
 8351SOL    HW125952   0.005   2.495   2.884
 8351SOL    HW225953   0.047   2.646   2.933
 8352SOL     OW25954   3.020   6.731   6.351
 8352SOL    HW125955   3.041   6.820   6.310
 8352SOL    HW225956   3.009   6.663   6.278
 8353SOL     OW25957   0.464   6.153   2.568
 8353SOL    HW125958   0.404   6.126   2.643
 8353SOL    HW225959   0.411   6.202   2.499
 8354SOL     OW25960   4.511   2.082   3.039
 8354SOL    HW125961   4.509   2.174   3.000
 8354SOL    HW225962   4.460   2.081   3.125
 8355SOL     OW25963   2.913   5.200   6.133
 8355SOL    HW125964   2.838   5.240   6.080
 8355SOL    HW225965   2.935   5.259   6.210
 8356SOL     OW25966   2.868   4.335   1.256
 8356SOL    HW125967   2.906   4.428   1.253
 8356SOL    HW225968   2.792   4.332   1.320
 8357SOL     OW25969   3.567   6.905   4.593
 8357SOL    HW125970   3.630   6.839   4.633
 8357SOL    HW225971   3.618   6.982   4.555
 8358SOL     OW25972   0.541   1.258   4.535
 8358SOL    HW125973   0.618   1.303   4.581
 8358SOL    HW225974   0.456   1.306   4.558
 8359SOL     OW25975   4.367   2.369   5.796
 8359SOL    HW125976   4.378   2.466   5.773
 8359SOL    HW225977   4.304   2.327   5.730
 8360SOL     OW25978   3.679   6.645   1.540
 8360SOL    HW125979   3.593   6.633   1.589
 8360SOL    HW225980   3.666   6.711   1.466
 8361SOL     OW25981   4.804   1.399   0.464
 8361SOL    HW125982   4.875   1.428   0.399
 8361SOL    HW225983   4.793   1.470   0.533
 8362SOL     OW25984   0.044   3.767   1.361
 8362SOL    HW125985   0.122   3.814   1.402
 8362SOL    HW225986   0.022   3.811   1.273
 8363SOL     OW25987   0.933   2.737   1.166
 8363SOL    HW125988   0.889   2.656   1.205
 8363SOL    HW225989   0.928   2.732   1.066
 8364SOL     OW25990   0.672   2.385   3.899
 8364SOL    HW125991   0.726   2.301   3.891
 8364SOL    HW225992   0.725   2.454   3.948
 8365SOL     OW25993   1.062   2.736   1.449
 8365SOL    HW125994   1.088   2.651   1.494
 8365SOL    HW225995   1.068   2.725   1.350
 8366SOL     OW25996   4.870   5.904   2.097
 8366SOL    HW125997   4.795   5.888   2.162
 8366SOL    HW225998   4.864   5.838   2.022
 8367SOL     OW25999   1.976   4.650   3.152
 8367SOL    HW126000   1.959   4.672   3.056
 8367SOL    HW226001   2.034   4.721   3.192
 8368SOL     OW26002   6.446   4.587   5.654
 8368SOL    HW126003   6.386   4.664   5.675
 8368SOL    HW226004   6.409   4.536   5.577
 8369SOL     OW26005   1.928   6.999   6.910
 8369SOL    HW126006   1.897   6.918   6.861
 8369SOL    HW226007   1.997   6.972   6.978
 8370SOL     OW26008   3.164   2.724   0.610
 8370SOL    HW126009   3.243   2.785   0.601
 8370SOL    HW226010   3.162   2.660   0.533
 8371SOL     OW26011   3.196   4.020   6.277
 8371SOL    HW126012   3.109   3.973   6.293
 8371SOL    HW226013   3.229   4.060   6.363
 8372SOL     OW26014   1.646   6.820   1.600
 8372SOL    HW126015   1.725   6.795   1.657
 8372SOL    HW226016   1.630   6.747   1.533
 8373SOL     OW26017   6.225   0.539   4.393
 8373SOL    HW126018   6.137   0.518   4.352
 8373SOL    HW226019   6.219   0.531   4.492
 8374SOL     OW26020   0.831   1.515   3.226
 8374SOL    HW126021   0.916   1.486   3.271
 8374SOL    HW226022   0.755   1.463   3.264
 8375SOL     OW26023   1.778   2.178   5.383
 8375SOL    HW126024   1.865   2.198   5.428
 8375SOL    HW226025   1.750   2.084   5.406
 8376SOL     OW26026   1.207   1.839   3.601
 8376SOL    HW126027   1.142   1.903   3.643
 8376SOL    HW226028   1.254   1.884   3.525
 8377SOL     OW26029   3.284   5.334   0.922
 8377SOL    HW126030   3.193   5.326   0.964
 8377SOL    HW226031   3.335   5.408   0.965
 8378SOL     OW26032   4.340   5.347   4.753
 8378SOL    HW126033   4.357   5.327   4.849
 8378SOL    HW226034   4.383   5.434   4.728
 8379SOL     OW26035   6.168   2.029   1.708
 8379SOL    HW126036   6.253   2.003   1.662
 8379SOL    HW226037   6.178   2.015   1.806
 8380SOL     OW26038   0.646   6.017   2.244
 8380SOL    HW126039   0.609   5.928   2.217
 8380SOL    HW226040   0.738   6.006   2.281
 8381SOL     OW26041   1.266   1.924   2.309
 8381SOL    HW126042   1.350   1.898   2.261
 8381SOL    HW226043   1.290   1.977   2.391
 8382SOL     OW26044   0.429   6.896   1.660
 8382SOL    HW126045   0.364   6.969   1.680
 8382SOL    HW226046   0.469   6.910   1.570
 8383SOL     OW26047   2.908   6.839   5.579
 8383SOL    HW126048   3.004   6.864   5.565
 8383SOL    HW226049   2.867   6.813   5.491
 8384SOL     OW26050   0.427   3.332   2.947
 8384SOL    HW126051   0.378   3.279   2.877
 8384SOL    HW226052   0.525   3.311   2.943
 8385SOL     OW26053   4.727   2.382   2.070
 8385SOL    HW126054   4.781   2.404   2.151
 8385SOL    HW226055   4.630   2.382   2.094
 8386SOL     OW26056   0.918   5.303   1.463
 8386SOL    HW126057   0.819   5.293   1.456
 8386SOL    HW226058   0.942   5.400   1.471
 8387SOL     OW26059   0.841   1.651   2.977
 8387SOL    HW126060   0.792   1.608   2.902
 8387SOL    HW226061   0.827   1.598   3.061
 8388SOL     OW26062   4.069   4.896   1.538
 8388SOL    HW126063   4.134   4.937   1.602
 8388SOL    HW226064   4.105   4.809   1.505
 8389SOL     OW26065   1.243   2.977   3.734
 8389SOL    HW126066   1.163   3.010   3.684
 8389SOL    HW226067   1.316   3.044   3.726
 8390SOL     OW26068   2.816   0.430   6.410
 8390SOL    HW126069   2.880   0.449   6.485
 8390SOL    HW226070   2.774   0.340   6.424
 8391SOL     OW26071   4.934   6.066   0.562
 8391SOL    HW126072   4.983   6.014   0.492
 8391SOL    HW226073   4.956   6.027   0.652
 8392SOL     OW26074   4.676   6.127   0.238
 8392SOL    HW126075   4.611   6.202   0.231
 8392SOL    HW226076   4.673   6.088   0.330
 8393SOL     OW26077   0.779   5.187   2.106
 8393SOL    HW126078   0.819   5.165   2.017
 8393SOL    HW226079   0.852   5.215   2.170
 8394SOL     OW26080   1.346   1.597   3.704
 8394SOL    HW126081   1.282   1.671   3.684
 8394SOL    HW226082   1.295   1.516   3.735
 8395SOL     OW26083   1.189   6.501   5.982
 8395SOL    HW126084   1.184   6.452   6.069
 8395SOL    HW226085   1.229   6.440   5.913
 8396SOL     OW26086   4.774   2.283   1.263
 8396SOL    HW126087   4.731   2.329   1.340
 8396SOL    HW226088   4.785   2.347   1.187
 8397SOL     OW26089   1.798   5.163   3.334
 8397SOL    HW126090   1.820   5.259   3.320
 8397SOL    HW226091   1.878   5.107   3.314
 8398SOL     OW26092   6.156   1.806   0.058
 8398SOL    HW126093   6.132   1.808   6.986
 8398SOL    HW226094   6.106   1.733   0.103
 8399SOL     OW26095   5.465   5.617   6.523
 8399SOL    HW126096   5.389   5.659   6.473
 8399SOL    HW226097   5.537   5.685   6.536
 8400SOL     OW26098   6.644   6.393   4.110
 8400SOL    HW126099   6.690   6.386   4.021
 8400SOL    HW226100   6.545   6.384   4.097
 8401SOL     OW26101   2.949   3.611   5.679
 8401SOL    HW126102   2.930   3.663   5.596
 8401SOL    HW226103   3.044   3.626   5.707
 8402SOL     OW26104   4.925   0.166   5.428
 8402SOL    HW126105   4.900   0.090   5.489
 8402SOL    HW226106   4.844   0.223   5.412
 8403SOL     OW26107   0.832   2.917   5.354
 8403SOL    HW126108   0.861   2.999   5.402
 8403SOL    HW226109   0.732   2.915   5.346
 8404SOL     OW26110   4.454   4.927   5.333
 8404SOL    HW126111   4.397   5.008   5.351
 8404SOL    HW226112   4.406   4.867   5.269
 8405SOL     OW26113   2.003   2.458   4.825
 8405SOL    HW126114   2.018   2.450   4.924
 8405SOL    HW226115   1.956   2.544   4.805
 8406SOL     OW26116   5.131   3.762   1.954
 8406SOL    HW126117   5.120   3.849   1.906
 8406SOL    HW226118   5.133   3.779   2.053
 8407SOL     OW26119   4.865   3.550   3.221
 8407SOL    HW126120   4.839   3.556   3.125
 8407SOL    HW226121   4.964   3.564   3.230
 8408SOL     OW26122   5.118   3.670   3.739
 8408SOL    HW126123   5.154   3.761   3.721
 8408SOL    HW226124   5.083   3.666   3.833
 8409SOL     OW26125   1.019   1.437   3.769
 8409SOL    HW126126   1.035   1.517   3.711
 8409SOL    HW226127   1.025   1.464   3.865
 8410SOL     OW26128   2.322   5.754   2.375
 8410SOL    HW126129   2.266   5.680   2.411
 8410SOL    HW226130   2.383   5.787   2.446
 8411SOL     OW26131   1.841   3.365   3.141
 8411SOL    HW126132   1.923   3.399   3.186
 8411SOL    HW226133   1.864   3.333   3.050
 8412SOL     OW26134   6.702   1.989   2.388
 8412SOL    HW126135   6.739   1.898   2.411
 8412SOL    HW226136   6.759   2.031   2.317
 8413SOL     OW26137   1.904   4.981   1.161
 8413SOL    HW126138   1.980   4.931   1.202
 8413SOL    HW226139   1.884   4.943   1.071
 8414SOL     OW26140   6.314   0.523   3.279
 8414SOL    HW126141   6.218   0.547   3.292
 8414SOL    HW226142   6.370   0.571   3.347
 8415SOL     OW26143   6.915   4.312   1.712
 8415SOL    HW126144   6.874   4.227   1.746
 8415SOL    HW226145   6.863   4.346   1.634
 8416SOL     OW26146   4.856   4.302   2.417
 8416SOL    HW126147   4.912   4.348   2.486
 8416SOL    HW226148   4.817   4.219   2.456
 8417SOL     OW26149   1.908   5.777   6.836
 8417SOL    HW126150   1.972   5.847   6.866
 8417SOL    HW226151   1.940   5.737   6.750
 8418SOL     OW26152   6.371   5.856   2.784
 8418SOL    HW126153   6.428   5.938   2.780
 8418SOL    HW226154   6.396   5.801   2.864
 8419SOL     OW26155   5.191   0.023   4.007
 8419SOL    HW126156   5.195   0.010   3.908
 8419SOL    HW226157   5.126   6.984   4.046
 8420SOL     OW26158   4.232   2.681   5.776
 8420SOL    HW126159   4.187   2.770   5.769
 8420SOL    HW226160   4.175   2.618   5.828
 8421SOL     OW26161   0.410   0.978   1.140
 8421SOL    HW126162   0.439   0.920   1.216
 8421SOL    HW226163   0.318   0.950   1.111
 8422SOL     OW26164   3.573   0.021   2.197
 8422SOL    HW126165   3.483   7.003   2.196
 8422SOL    HW226166   3.576   0.091   2.268
 8423SOL     OW26167   2.161   3.601   1.239
 8423SOL    HW126168   2.076   3.639   1.203
 8423SOL    HW226169   2.233   3.610   1.170
 8424SOL     OW26170   2.622   2.618   1.537
 8424SOL    HW126171   2.714   2.636   1.570
 8424SOL    HW226172   2.595   2.687   1.471
 8425SOL     OW26173   6.186   5.029   6.286
 8425SOL    HW126174   6.216   5.092   6.358
 8425SOL    HW226175   6.112   5.071   6.233
 8426SOL     OW26176   3.319   3.603   2.492
 8426SOL    HW126177   3.413   3.637   2.484
 8426SOL    HW226178   3.316   3.508   2.462
 8427SOL     OW26179   2.210   2.297   0.041
 8427SOL    HW126180   2.237   2.201   0.036
 8427SOL    HW226181   2.287   2.355   0.012
 8428SOL     OW26182   6.394   4.108   0.925
 8428SOL    HW126183   6.432   4.040   0.987
 8428SOL    HW226184   6.466   4.143   0.865
 8429SOL     OW26185   1.584   6.757   2.972
 8429SOL    HW126186   1.611   6.661   2.962
 8429SOL    HW226187   1.597   6.785   3.067
 8430SOL     OW26188   5.274   4.086   2.875
 8430SOL    HW126189   5.256   4.086   2.973
 8430SOL    HW226190   5.253   3.996   2.836
 8431SOL     OW26191   2.957   3.492   2.305
 8431SOL    HW126192   2.934   3.416   2.366
 8431SOL    HW226193   2.927   3.470   2.212
 8432SOL     OW26194   4.743   6.108   6.978
 8432SOL    HW126195   4.706   6.180   6.919
 8432SOL    HW226196   4.765   6.147   0.042
 8433SOL     OW26197   0.542   1.253   4.115
 8433SOL    HW126198   0.448   1.281   4.097
 8433SOL    HW226199   0.577   1.202   4.036
 8434SOL     OW26200   5.616   6.086   6.420
 8434SOL    HW126201   5.593   6.076   6.323
 8434SOL    HW226202   5.602   6.181   6.448
 8435SOL     OW26203   4.951   2.217   1.665
 8435SOL    HW126204   4.922   2.299   1.615
 8435SOL    HW226205   4.938   2.137   1.607
 8436SOL     OW26206   3.025   4.449   1.595
 8436SOL    HW126207   3.031   4.353   1.568
 8436SOL    HW226208   2.970   4.457   1.678
 8437SOL     OW26209   0.410   1.624   0.708
 8437SOL    HW126210   0.320   1.640   0.748
 8437SOL    HW226211   0.419   1.528   0.682
 8438SOL     OW26212   1.831   5.721   0.784
 8438SOL    HW126213   1.796   5.627   0.787
 8438SOL    HW226214   1.776   5.778   0.846
 8439SOL     OW26215   5.785   0.380   2.048
 8439SOL    HW126216   5.707   0.395   2.108
 8439SOL    HW226217   5.753   0.363   1.955
 8440SOL     OW26218   1.041   3.082   4.125
 8440SOL    HW126219   1.096   3.026   4.188
 8440SOL    HW226220   0.946   3.080   4.154
 8441SOL     OW26221   4.631   5.595   2.603
 8441SOL    HW126222   4.616   5.536   2.524
 8441SOL    HW226223   4.672   5.542   2.678
 8442SOL     OW26224   2.620   3.038   0.555
 8442SOL    HW126225   2.599   3.134   0.537
 8442SOL    HW226226   2.535   2.985   0.558
 8443SOL     OW26227   0.430   1.487   1.316
 8443SOL    HW126228   0.391   1.397   1.296
 8443SOL    HW226229   0.464   1.528   1.231
 8444SOL     OW26230   3.802   1.304   3.139
 8444SOL    HW126231   3.727   1.361   3.107
 8444SOL    HW226232   3.888   1.354   3.128
 8445SOL     OW26233   4.427   5.543   2.240
 8445SOL    HW126234   4.468   5.625   2.281
 8445SOL    HW226235   4.451   5.463   2.296
 8446SOL     OW26236   0.144   2.987   2.956
 8446SOL    HW126237   0.202   2.930   2.897
 8446SOL    HW226238   0.061   3.013   2.906
 8447SOL     OW26239   4.425   3.796   1.155
 8447SOL    HW126240   4.379   3.884   1.169
 8447SOL    HW226241   4.431   3.748   1.242
 8448SOL     OW26242   1.733   3.319   5.601
 8448SOL    HW126243   1.795   3.246   5.627
 8448SOL    HW226244   1.702   3.369   5.682
 8449SOL     OW26245   0.852   1.397   4.427
 8449SOL    HW126246   0.942   1.376   4.466
 8449SOL    HW226247   0.816   1.316   4.380
 8450SOL     OW26248   1.698   5.504   1.435
 8450SOL    HW126249   1.659   5.516   1.344
 8450SOL    HW226250   1.765   5.429   1.433
 8451SOL     OW26251   3.569   3.155   0.887
 8451SOL    HW126252   3.650   3.097   0.894
 8451SOL    HW226253   3.510   3.121   0.814
 8452SOL     OW26254   0.204   5.516   1.579
 8452SOL    HW126255   0.113   5.495   1.616
 8452SOL    HW226256   0.248   5.431   1.550
 8453SOL     OW26257   6.577   5.359   5.589
 8453SOL    HW126258   6.580   5.458   5.574
 8453SOL    HW226259   6.646   5.315   5.532
 8454SOL     OW26260   2.371   6.731   4.751
 8454SOL    HW126261   2.394   6.718   4.848
 8454SOL    HW226262   2.452   6.717   4.695
 8455SOL     OW26263   5.969   2.710   0.768
 8455SOL    HW126264   6.034   2.726   0.842
 8455SOL    HW226265   5.887   2.666   0.805
 8456SOL     OW26266   5.285   4.921   3.602
 8456SOL    HW126267   5.193   4.905   3.566
 8456SOL    HW226268   5.282   4.997   3.667
 8457SOL     OW26269   6.801   6.099   6.021
 8457SOL    HW126270   6.750   6.027   5.972
 8457SOL    HW226271   6.827   6.065   6.111
 8458SOL     OW26272   1.630   2.317   1.139
 8458SOL    HW126273   1.667   2.233   1.098
 8458SOL    HW226274   1.614   2.301   1.237
 8459SOL     OW26275   2.351   5.156   3.349
 8459SOL    HW126276   2.418   5.214   3.303
 8459SOL    HW226277   2.260   5.175   3.313
 8460SOL     OW26278   3.976   1.606   0.941
 8460SOL    HW126279   4.060   1.553   0.948
 8460SOL    HW226280   3.902   1.546   0.909
 8461SOL     OW26281   5.341   3.963   3.156
 8461SOL    HW126282   5.250   3.947   3.194
 8461SOL    HW226283   5.385   4.037   3.206
 8462SOL     OW26284   1.965   3.842   0.878
 8462SOL    HW126285   1.916   3.921   0.915
 8462SOL    HW226286   1.972   3.852   0.778
 8463SOL     OW26287   6.857   0.501   0.793
 8463SOL    HW126288   6.903   0.479   0.879
 8463SOL    HW226289   6.885   0.435   0.723
 8464SOL     OW26290   6.171   3.870   6.343
 8464SOL    HW126291   6.091   3.824   6.304
 8464SOL    HW226292   6.196   3.825   6.429
 8465SOL     OW26293   4.926   3.584   0.847
 8465SOL    HW126294   4.834   3.553   0.823
 8465SOL    HW226295   4.988   3.562   0.771
 8466SOL     OW26296   0.535   1.642   5.173
 8466SOL    HW126297   0.541   1.553   5.217
 8466SOL    HW226298   0.500   1.631   5.080
 8467SOL     OW26299   2.846   1.424   0.498
 8467SOL    HW126300   2.814   1.366   0.423
 8467SOL    HW226301   2.944   1.408   0.512
 8468SOL     OW26302   5.479   4.277   0.499
 8468SOL    HW126303   5.485   4.180   0.476
 8468SOL    HW226304   5.383   4.305   0.499
 8469SOL     OW26305   3.538   3.048   5.492
 8469SOL    HW126306   3.522   3.125   5.430
 8469SOL    HW226307   3.506   3.072   5.584
 8470SOL     OW26308   1.156   5.628   1.641
 8470SOL    HW126309   1.150   5.649   1.738
 8470SOL    HW226310   1.223   5.555   1.627
 8471SOL     OW26311   4.357   2.256   4.950
 8471SOL    HW126312   4.355   2.224   4.855
 8471SOL    HW226313   4.281   2.319   4.965
 8472SOL     OW26314   5.490   2.218   6.795
 8472SOL    HW126315   5.418   2.194   6.730
 8472SOL    HW226316   5.471   2.307   6.836
 8473SOL     OW26317   5.074   5.194   5.820
 8473SOL    HW126318   5.032   5.272   5.867
 8473SOL    HW226319   5.157   5.166   5.870
 8474SOL     OW26320   2.820   4.121   5.249
 8474SOL    HW126321   2.860   4.212   5.262
 8474SOL    HW226322   2.720   4.129   5.251
 8475SOL     OW26323   6.658   1.583   3.201
 8475SOL    HW126324   6.589   1.652   3.182
 8475SOL    HW226325   6.614   1.494   3.213
 8476SOL     OW26326   6.037   1.582   1.655
 8476SOL    HW126327   6.091   1.643   1.596
 8476SOL    HW226328   6.075   1.489   1.649
 8477SOL     OW26329   5.821   0.619   1.522
 8477SOL    HW126330   5.869   0.539   1.559
 8477SOL    HW226331   5.768   0.663   1.595
 8478SOL     OW26332   0.428   6.767   5.667
 8478SOL    HW126333   0.374   6.708   5.728
 8478SOL    HW226334   0.442   6.719   5.580
 8479SOL     OW26335   0.957   2.906   0.256
 8479SOL    HW126336   1.004   2.829   0.299
 8479SOL    HW226337   0.860   2.886   0.248
 8480SOL     OW26338   3.529   4.369   0.755
 8480SOL    HW126339   3.531   4.272   0.781
 8480SOL    HW226340   3.510   4.425   0.835
 8481SOL     OW26341   4.202   2.085   2.323
 8481SOL    HW126342   4.281   2.102   2.382
 8481SOL    HW226343   4.221   2.008   2.262
 8482SOL     OW26344   4.414   0.875   6.670
 8482SOL    HW126345   4.358   0.935   6.613
 8482SOL    HW226346   4.500   0.854   6.623
 8483SOL     OW26347   4.005   4.843   3.318
 8483SOL    HW126348   3.983   4.815   3.224
 8483SOL    HW226349   4.060   4.771   3.362
 8484SOL     OW26350   5.890   6.287   5.262
 8484SOL    HW126351   5.830   6.208   5.280
 8484SOL    HW226352   5.874   6.357   5.331
 8485SOL     OW26353   4.125   1.244   6.392
 8485SOL    HW126354   4.081   1.307   6.457
 8485SOL    HW226355   4.196   1.293   6.342
 8486SOL     OW26356   6.019   2.460   5.130
 8486SOL    HW126357   5.937   2.516   5.139
 8486SOL    HW226358   6.049   2.460   5.035
 8487SOL     OW26359   6.710   2.569   5.882
 8487SOL    HW126360   6.789   2.548   5.939
 8487SOL    HW226361   6.742   2.595   5.790
 8488SOL     OW26362   4.657   4.316   2.883
 8488SOL    HW126363   4.627   4.327   2.788
 8488SOL    HW226364   4.675   4.219   2.901
 8489SOL     OW26365   6.033   1.752   2.348
 8489SOL    HW126366   6.111   1.690   2.351
 8489SOL    HW226367   6.058   1.836   2.299
 8490SOL     OW26368   3.009   6.612   0.477
 8490SOL    HW126369   3.047   6.672   0.548
 8490SOL    HW226370   2.935   6.659   0.429
 8491SOL     OW26371   3.287   5.233   2.429
 8491SOL    HW126372   3.307   5.324   2.464
 8491SOL    HW226373   3.320   5.225   2.335
 8492SOL     OW26374   6.502   5.878   4.319
 8492SOL    HW126375   6.548   5.829   4.244
 8492SOL    HW226376   6.418   5.830   4.343
 8493SOL     OW26377   4.716   1.109   5.974
 8493SOL    HW126378   4.770   1.178   5.924
 8493SOL    HW226379   4.642   1.077   5.915
 8494SOL     OW26380   6.880   3.114   2.182
 8494SOL    HW126381   6.930   3.198   2.204
 8494SOL    HW226382   6.792   3.114   2.228
 8495SOL     OW26383   5.725   5.700   6.549
 8495SOL    HW126384   5.789   5.777   6.538
 8495SOL    HW226385   5.749   5.648   6.630
 8496SOL     OW26386   5.509   2.465   2.530
 8496SOL    HW126387   5.493   2.377   2.484
 8496SOL    HW226388   5.579   2.516   2.482
 8497SOL     OW26389   0.158   0.419   2.770
 8497SOL    HW126390   0.167   0.346   2.838
 8497SOL    HW226391   0.138   0.380   2.680
 8498SOL     OW26392   4.895   6.604   4.175
 8498SOL    HW126393   4.907   6.520   4.228
 8498SOL    HW226394   4.801   6.637   4.185
 8499SOL     OW26395   5.811   6.867   5.240
 8499SOL    HW126396   5.754   6.790   5.213
 8499SOL    HW226397   5.862   6.901   5.160
 8500SOL     OW26398   0.965   0.409   0.131
 8500SOL    HW126399   0.887   0.424   0.192
 8500SOL    HW226400   1.050   0.410   0.185
 8501SOL     OW26401   2.484   1.089   6.261
 8501SOL    HW126402   2.493   1.052   6.353
 8501SOL    HW226403   2.518   1.022   6.195
 8502SOL     OW26404   6.207   3.272   6.956
 8502SOL    HW126405   6.196   3.298   0.027
 8502SOL    HW226406   6.136   3.316   6.901
 8503SOL     OW26407   4.621   2.570   5.596
 8503SOL    HW126408   4.709   2.610   5.572
 8503SOL    HW226409   4.568   2.636   5.650
 8504SOL     OW26410   0.914   0.161   2.407
 8504SOL    HW126411   0.870   0.222   2.473
 8504SOL    HW226412   1.012   0.179   2.405
 8505SOL     OW26413   5.657   2.249   2.770
 8505SOL    HW126414   5.582   2.248   2.836
 8505SOL    HW226415   5.628   2.204   2.686
 8506SOL     OW26416   1.092   6.726   6.116
 8506SOL    HW126417   1.136   6.647   6.074
 8506SOL    HW226418   0.993   6.720   6.104
 8507SOL     OW26419   3.679   5.112   5.744
 8507SOL    HW126420   3.724   5.095   5.832
 8507SOL    HW226421   3.707   5.200   5.708
 8508SOL     OW26422   3.329   0.936   6.276
 8508SOL    HW126423   3.416   0.890   6.259
 8508SOL    HW226424   3.289   0.902   6.362
 8509SOL     OW26425   5.413   2.229   2.422
 8509SOL    HW126426   5.414   2.191   2.330
 8509SOL    HW226427   5.326   2.275   2.439
 8510SOL     OW26428   0.504   2.203   4.529
 8510SOL    HW126429   0.558   2.273   4.484
 8510SOL    HW226430   0.564   2.131   4.565
 8511SOL     OW26431   6.023   1.699   3.904
 8511SOL    HW126432   6.096   1.766   3.892
 8511SOL    HW226433   5.952   1.736   3.964
 8512SOL     OW26434   2.008   5.908   5.544
 8512SOL    HW126435   1.929   5.924   5.484
 8512SOL    HW226436   2.006   5.973   5.620
 8513SOL     OW26437   4.783   5.882   6.842
 8513SOL    HW126438   4.762   5.794   6.885
 8513SOL    HW226439   4.769   5.955   6.908
 8514SOL     OW26440   3.827   5.506   4.244
 8514SOL    HW126441   3.838   5.455   4.329
 8514SOL    HW226442   3.815   5.441   4.168
 8515SOL     OW26443   6.324   2.286   1.999
 8515SOL    HW126444   6.343   2.318   2.091
 8515SOL    HW226445   6.232   2.247   1.995
 8516SOL     OW26446   6.826   1.681   2.506
 8516SOL    HW126447   6.909   1.628   2.524
 8516SOL    HW226448   6.826   1.710   2.411
 8517SOL     OW26449   1.306   3.417   5.642
 8517SOL    HW126450   1.289   3.493   5.579
 8517SOL    HW226451   1.360   3.449   5.719
 8518SOL     OW26452   2.652   5.697   0.932
 8518SOL    HW126453   2.623   5.641   0.855
 8518SOL    HW226454   2.740   5.741   0.911
 8519SOL     OW26455   2.806   5.874   3.535
 8519SOL    HW126456   2.862   5.797   3.507
 8519SOL    HW226457   2.864   5.946   3.573
 8520SOL     OW26458   3.446   6.537   6.830
 8520SOL    HW126459   3.420   6.592   6.751
 8520SOL    HW226460   3.467   6.444   6.801
 8521SOL     OW26461   1.899   0.026   2.119
 8521SOL    HW126462   1.870   6.986   2.189
 8521SOL    HW226463   1.949   7.004   2.047
 8522SOL     OW26464   2.518   6.382   4.679
 8522SOL    HW126465   2.504   6.456   4.613
 8522SOL    HW226466   2.615   6.358   4.682
 8523SOL     OW26467   1.816   6.741   6.847
 8523SOL    HW126468   1.742   6.770   6.786
 8523SOL    HW226469   1.788   6.658   6.895
 8524SOL     OW26470   1.835   1.646   6.947
 8524SOL    HW126471   1.872   1.554   6.937
 8524SOL    HW226472   1.895   1.711   6.900
 8525SOL     OW26473   6.104   3.313   3.889
 8525SOL    HW126474   6.026   3.347   3.836
 8525SOL    HW226475   6.103   3.353   3.980
 8526SOL     OW26476   1.990   3.269   2.185
 8526SOL    HW126477   1.900   3.300   2.155
 8526SOL    HW226478   2.050   3.348   2.198
 8527SOL     OW26479   4.397   0.371   4.300
 8527SOL    HW126480   4.477   0.314   4.320
 8527SOL    HW226481   4.413   0.422   4.216
 8528SOL     OW26482   5.555   1.761   6.567
 8528SOL    HW126483   5.554   1.861   6.569
 8528SOL    HW226484   5.515   1.725   6.652
 8529SOL     OW26485   6.684   6.374   5.455
 8529SOL    HW126486   6.768   6.367   5.509
 8529SOL    HW226487   6.706   6.404   5.363
 8530SOL     OW26488   1.787   5.019   6.228
 8530SOL    HW126489   1.707   4.968   6.196
 8530SOL    HW226490   1.800   5.002   6.326
 8531SOL     OW26491   4.136   5.050   1.909
 8531SOL    HW126492   4.139   5.012   2.001
 8531SOL    HW226493   4.075   5.129   1.907
 8532SOL     OW26494   1.665   3.951   0.779
 8532SOL    HW126495   1.726   3.993   0.846
 8532SOL    HW226496   1.719   3.910   0.705
 8533SOL     OW26497   3.829   6.430   5.660
 8533SOL    HW126498   3.786   6.483   5.588
 8533SOL    HW226499   3.894   6.365   5.620
 8534SOL     OW26500   1.803   2.517   1.151
 8534SOL    HW126501   1.875   2.471   1.203
 8534SOL    HW226502   1.720   2.461   1.152
 8535SOL     OW26503   0.480   3.288   5.431
 8535SOL    HW126504   0.458   3.363   5.492
 8535SOL    HW226505   0.502   3.206   5.484
 8536SOL     OW26506   5.911   1.052   5.820
 8536SOL    HW126507   5.992   1.059   5.877
 8536SOL    HW226508   5.854   0.975   5.851
 8537SOL     OW26509   4.496   6.429   3.259
 8537SOL    HW126510   4.416   6.450   3.202
 8537SOL    HW226511   4.510   6.330   3.260
 8538SOL     OW26512   5.104   0.337   5.010
 8538SOL    HW126513   5.009   0.328   5.042
 8538SOL    HW226514   5.121   0.432   4.985
 8539SOL     OW26515   1.103   3.055   2.549
 8539SOL    HW126516   1.103   3.135   2.488
 8539SOL    HW226517   1.012   3.042   2.588
 8540SOL     OW26518   4.167   0.238   6.979
 8540SOL    HW126519   4.213   0.152   6.957
 8540SOL    HW226520   4.213   0.313   6.932
 8541SOL     OW26521   2.550   6.472   5.182
 8541SOL    HW126522   2.565   6.435   5.273
 8541SOL    HW226523   2.565   6.400   5.114
 8542SOL     OW26524   1.038   5.323   5.593
 8542SOL    HW126525   1.115   5.279   5.638
 8542SOL    HW226526   0.974   5.253   5.559
 8543SOL     OW26527   2.947   2.428   5.287
 8543SOL    HW126528   3.031   2.387   5.253
 8543SOL    HW226529   2.918   2.381   5.370
 8544SOL     OW26530   5.079   4.273   5.621
 8544SOL    HW126531   4.983   4.257   5.598
 8544SOL    HW226532   5.103   4.367   5.598
 8545SOL     OW26533   1.826   0.032   6.061
 8545SOL    HW126534   1.858   0.125   6.044
 8545SOL    HW226535   1.860   6.996   5.990
 8546SOL     OW26536   3.818   1.648   3.865
 8546SOL    HW126537   3.792   1.730   3.916
 8546SOL    HW226538   3.918   1.642   3.862
 8547SOL     OW26539   5.397   6.464   5.786
 8547SOL    HW126540   5.399   6.521   5.704
 8547SOL    HW226541   5.419   6.369   5.761
 8548SOL     OW26542   1.223   4.468   4.185
 8548SOL    HW126543   1.240   4.535   4.113
 8548SOL    HW226544   1.128   4.475   4.216
 8549SOL     OW26545   2.020   0.402   4.003
 8549SOL    HW126546   1.990   0.494   3.978
 8549SOL    HW226547   2.083   0.407   4.080
 8550SOL     OW26548   0.344   4.950   5.480
 8550SOL    HW126549   0.414   4.912   5.419
 8550SOL    HW226550   0.380   5.032   5.525
 8551SOL     OW26551   3.847   0.923   4.523
 8551SOL    HW126552   3.811   0.877   4.442
 8551SOL    HW226553   3.773   0.969   4.572
 8552SOL     OW26554   3.406   1.568   1.916
 8552SOL    HW126555   3.396   1.630   1.994
 8552SOL    HW226556   3.463   1.490   1.941
 8553SOL     OW26557   4.655   4.010   0.818
 8553SOL    HW126558   4.748   4.029   0.787
 8553SOL    HW226559   4.657   3.933   0.883
 8554SOL     OW26560   1.152   1.094   6.525
 8554SOL    HW126561   1.057   1.123   6.520
 8554SOL    HW226562   1.169   1.024   6.455
 8555SOL     OW26563   2.963   2.093   3.403
 8555SOL    HW126564   3.030   2.158   3.439
 8555SOL    HW226565   2.873   2.115   3.440
 8556SOL     OW26566   0.224   5.409   5.427
 8556SOL    HW126567   0.254   5.465   5.504
 8556SOL    HW226568   0.173   5.330   5.462
 8557SOL     OW26569   6.448   1.004   0.129
 8557SOL    HW126570   6.457   1.092   0.082
 8557SOL    HW226571   6.462   0.930   0.063
 8558SOL     OW26572   2.967   6.666   3.891
 8558SOL    HW126573   2.898   6.697   3.957
 8558SOL    HW226574   2.922   6.627   3.811
 8559SOL     OW26575   1.781   3.464   2.536
 8559SOL    HW126576   1.723   3.517   2.473
 8559SOL    HW226577   1.806   3.378   2.493
 8560SOL     OW26578   3.649   3.918   1.160
 8560SOL    HW126579   3.650   3.978   1.080
 8560SOL    HW226580   3.564   3.930   1.210
 8561SOL     OW26581   3.985   0.842   2.885
 8561SOL    HW126582   3.961   0.770   2.950
 8561SOL    HW226583   4.044   0.909   2.930
 8562SOL     OW26584   5.523   2.595   6.543
 8562SOL    HW126585   5.571   2.510   6.563
 8562SOL    HW226586   5.452   2.578   6.474
 8563SOL     OW26587   2.343   5.266   2.730
 8563SOL    HW126588   2.296   5.201   2.670
 8563SOL    HW226589   2.336   5.235   2.825
 8564SOL     OW26590   3.553   6.101   0.445
 8564SOL    HW126591   3.493   6.074   0.520
 8564SOL    HW226592   3.640   6.132   0.482
 8565SOL     OW26593   1.214   5.162   0.948
 8565SOL    HW126594   1.198   5.068   0.916
 8565SOL    HW226595   1.142   5.188   1.012
 8566SOL     OW26596   3.625   0.755   3.174
 8566SOL    HW126597   3.699   0.744   3.107
 8566SOL    HW226598   3.552   0.812   3.134
 8567SOL     OW26599   1.794   2.532   1.641
 8567SOL    HW126600   1.818   2.436   1.627
 8567SOL    HW226601   1.755   2.544   1.732
 8568SOL     OW26602   5.991   0.561   5.944
 8568SOL    HW126603   6.037   0.561   5.855
 8568SOL    HW226604   5.989   0.654   5.981
 8569SOL     OW26605   5.383   1.775   0.306
 8569SOL    HW126606   5.358   1.758   0.211
 8569SOL    HW226607   5.301   1.772   0.363
 8570SOL     OW26608   2.123   1.470   3.052
 8570SOL    HW126609   2.046   1.467   2.988
 8570SOL    HW226610   2.124   1.558   3.099
 8571SOL     OW26611   1.441   0.310   3.615
 8571SOL    HW126612   1.506   0.382   3.590
 8571SOL    HW226613   1.454   0.285   3.711
 8572SOL     OW26614   3.206   4.052   5.621
 8572SOL    HW126615   3.145   4.046   5.541
 8572SOL    HW226616   3.246   4.144   5.625
 8573SOL     OW26617   2.146   5.893   6.254
 8573SOL    HW126618   2.188   5.966   6.307
 8573SOL    HW226619   2.148   5.808   6.307
 8574SOL     OW26620   5.186   1.601   5.389
 8574SOL    HW126621   5.123   1.542   5.338
 8574SOL    HW226622   5.177   1.695   5.358
 8575SOL     OW26623   3.513   6.646   4.368
 8575SOL    HW126624   3.532   6.559   4.322
 8575SOL    HW226625   3.571   6.653   4.450
 8576SOL     OW26626   1.445   4.500   4.365
 8576SOL    HW126627   1.367   4.476   4.307
 8576SOL    HW226628   1.467   4.597   4.353
 8577SOL     OW26629   2.282   0.389   0.224
 8577SOL    HW126630   2.380   0.411   0.221
 8577SOL    HW226631   2.244   0.421   0.311
 8578SOL     OW26632   0.894   0.145   6.128
 8578SOL    HW126633   0.844   0.232   6.137
 8578SOL    HW226634   0.928   0.116   6.217
 8579SOL     OW26635   3.345   0.223   1.995
 8579SOL    HW126636   3.407   0.296   2.024
 8579SOL    HW226637   3.386   0.134   2.017
 8580SOL     OW26638   1.955   0.421   1.776
 8580SOL    HW126639   1.887   0.371   1.831
 8580SOL    HW226640   2.040   0.429   1.828
 8581SOL     OW26641   3.792   3.831   2.192
 8581SOL    HW126642   3.774   3.923   2.160
 8581SOL    HW226643   3.891   3.818   2.205
 8582SOL     OW26644   4.523   5.597   6.060
 8582SOL    HW126645   4.542   5.516   6.115
 8582SOL    HW226646   4.518   5.678   6.119
 8583SOL     OW26647   2.901   0.112   2.859
 8583SOL    HW126648   2.848   0.184   2.904
 8583SOL    HW226649   2.949   0.150   2.780
 8584SOL     OW26650   6.131   1.591   5.004
 8584SOL    HW126651   6.034   1.584   5.030
 8584SOL    HW226652   6.160   1.686   5.010
 8585SOL     OW26653   4.874   2.461   2.339
 8585SOL    HW126654   4.968   2.481   2.309
 8585SOL    HW226655   4.817   2.542   2.325
 8586SOL     OW26656   5.917   5.637   5.607
 8586SOL    HW126657   5.984   5.641   5.682
 8586SOL    HW226658   5.964   5.653   5.520
 8587SOL     OW26659   6.505   1.737   0.166
 8587SOL    HW126660   6.595   1.706   0.196
 8587SOL    HW226661   6.443   1.659   0.159
 8588SOL     OW26662   1.821   0.552   5.154
 8588SOL    HW126663   1.843   0.473   5.211
 8588SOL    HW226664   1.735   0.535   5.105
 8589SOL     OW26665   5.492   2.966   6.975
 8589SOL    HW126666   5.452   3.029   0.017
 8589SOL    HW226667   5.487   3.008   6.884
 8590SOL     OW26668   1.054   1.596   3.561
 8590SOL    HW126669   0.955   1.608   3.566
 8590SOL    HW226670   1.099   1.684   3.566
 8591SOL     OW26671   0.378   4.406   5.165
 8591SOL    HW126672   0.455   4.375   5.109
 8591SOL    HW226673   0.407   4.414   5.260
 8592SOL     OW26674   6.876   1.799   4.002
 8592SOL    HW126675   6.970   1.792   4.036
 8592SOL    HW226676   6.821   1.850   4.069
 8593SOL     OW26677   6.411   1.023   0.408
 8593SOL    HW126678   6.313   1.030   0.425
 8593SOL    HW226679   6.429   1.020   0.310
 8594SOL     OW26680   5.932   4.327   6.050
 8594SOL    HW126681   5.946   4.294   6.143
 8594SOL    HW226682   5.997   4.401   6.031
 8595SOL     OW26683   4.979   6.295   3.125
 8595SOL    HW126684   5.078   6.282   3.121
 8595SOL    HW226685   4.953   6.371   3.066
 8596SOL     OW26686   1.253   2.649   5.106
 8596SOL    HW126687   1.279   2.572   5.166
 8596SOL    HW226688   1.154   2.661   5.109
 8597SOL     OW26689   5.908   2.454   6.423
 8597SOL    HW126690   5.811   2.428   6.427
 8597SOL    HW226691   5.958   2.409   6.497
 8598SOL     OW26692   7.008   0.517   5.380
 8598SOL    HW126693   0.026   0.428   5.384
 8598SOL    HW226694   6.928   0.518   5.440
 8599SOL     OW26695   6.344   4.368   5.166
 8599SOL    HW126696   6.305   4.277   5.176
 8599SOL    HW226697   6.282   4.425   5.112
 8600SOL     OW26698   4.583   2.799   1.728
 8600SOL    HW126699   4.645   2.809   1.651
 8600SOL    HW226700   4.602   2.871   1.795
 8601SOL     OW26701   5.798   5.904   2.978
 8601SOL    HW126702   5.860   5.961   2.922
 8601SOL    HW226703   5.810   5.808   2.952
 8602SOL     OW26704   1.535   0.281   5.368
 8602SOL    HW126705   1.477   0.309   5.292
 8602SOL    HW226706   1.487   0.213   5.424
 8603SOL     OW26707   0.678   1.062   6.526
 8603SOL    HW126708   0.717   1.017   6.606
 8603SOL    HW226709   0.644   0.993   6.462
 8604SOL     OW26710   2.026   5.294   5.966
 8604SOL    HW126711   2.001   5.201   5.938
 8604SOL    HW226712   2.027   5.300   6.066
 8605SOL     OW26713   0.037   4.666   3.998
 8605SOL    HW126714   0.052   4.567   3.996
 8605SOL    HW226715   6.978   4.687   3.950
 8606SOL     OW26716   1.408   0.600   6.870
 8606SOL    HW126717   1.380   0.672   6.934
 8606SOL    HW226718   1.350   0.603   6.789
 8607SOL     OW26719   3.031   3.316   1.276
 8607SOL    HW126720   3.091   3.241   1.250
 8607SOL    HW226721   3.048   3.395   1.216
 8608SOL     OW26722   1.533   5.327   2.034
 8608SOL    HW126723   1.581   5.254   2.083
 8608SOL    HW226724   1.522   5.301   1.938
 8609SOL     OW26725   4.926   1.837   4.533
 8609SOL    HW126726   4.988   1.782   4.477
 8609SOL    HW226727   4.839   1.788   4.544
 8610SOL     OW26728   0.024   5.508   2.856
 8610SOL    HW126729   6.985   5.437   2.882
 8610SOL    HW226730   0.116   5.469   2.852
 8611SOL     OW26731   1.942   1.171   5.026
 8611SOL    HW126732   1.993   1.257   5.024
 8611SOL    HW226733   1.993   1.103   5.080
 8612SOL     OW26734   3.622   3.473   4.834
 8612SOL    HW126735   3.672   3.525   4.765
 8612SOL    HW226736   3.524   3.476   4.815
 8613SOL     OW26737   3.995   3.248   3.485
 8613SOL    HW126738   4.035   3.282   3.570
 8613SOL    HW226739   3.989   3.322   3.419
 8614SOL     OW26740   0.846   2.036   3.685
 8614SOL    HW126741   0.778   1.966   3.665
 8614SOL    HW226742   0.893   2.062   3.601
 8615SOL     OW26743   3.292   1.779   5.569
 8615SOL    HW126744   3.192   1.784   5.560
 8615SOL    HW226745   3.335   1.835   5.498
 8616SOL     OW26746   5.840   4.470   4.972
 8616SOL    HW126747   5.899   4.496   4.896
 8616SOL    HW226748   5.843   4.371   4.984
 8617SOL     OW26749   1.337   6.864   2.954
 8617SOL    HW126750   1.339   6.949   3.006
 8617SOL    HW226751   1.430   6.829   2.944
 8618SOL     OW26752   5.757   4.135   1.032
 8618SOL    HW126753   5.845   4.171   1.001
 8618SOL    HW226754   5.708   4.096   0.954
 8619SOL     OW26755   5.265   6.039   0.524
 8619SOL    HW126756   5.214   6.011   0.443
 8619SOL    HW226757   5.328   5.965   0.551
 8620SOL     OW26758   1.823   6.483   3.654
 8620SOL    HW126759   1.779   6.553   3.596
 8620SOL    HW226760   1.784   6.487   3.746
 8621SOL     OW26761   5.529   3.652   2.139
 8621SOL    HW126762   5.544   3.674   2.043
 8621SOL    HW226763   5.607   3.599   2.174
 8622SOL     OW26764   0.433   5.297   2.840
 8622SOL    HW126765   0.456   5.203   2.869
 8622SOL    HW226766   0.515   5.342   2.806
 8623SOL     OW26767   2.169   2.192   3.616
 8623SOL    HW126768   2.256   2.163   3.577
 8623SOL    HW226769   2.154   2.147   3.704
 8624SOL     OW26770   3.424   4.098   5.436
 8624SOL    HW126771   3.484   4.030   5.478
 8624SOL    HW226772   3.436   4.185   5.484
 8625SOL     OW26773   4.393   3.251   6.235
 8625SOL    HW126774   4.318   3.317   6.241
 8625SOL    HW226775   4.431   3.235   6.326
 8626SOL     OW26776   4.969   1.860   1.450
 8626SOL    HW126777   5.040   1.851   1.519
 8626SOL    HW226778   4.981   1.946   1.400
 8627SOL     OW26779   1.639   0.120   2.779
 8627SOL    HW126780   1.637   0.216   2.804
 8627SOL    HW226781   1.731   0.095   2.749
 8628SOL     OW26782   0.997   0.041   1.069
 8628SOL    HW126783   0.947   0.086   1.143
 8628SOL    HW226784   1.079   7.023   1.106
 8629SOL     OW26785   0.618   6.779   4.458
 8629SOL    HW126786   0.530   6.734   4.474
 8629SOL    HW226787   0.604   6.862   4.404
 8630SOL     OW26788   4.974   2.731   1.740
 8630SOL    HW126789   5.036   2.728   1.818
 8630SOL    HW226790   4.903   2.661   1.751
 8631SOL     OW26791   2.288   5.937   6.004
 8631SOL    HW126792   2.242   5.907   6.087
 8631SOL    HW226793   2.309   5.857   5.947
 8632SOL     OW26794   6.029   5.370   4.069
 8632SOL    HW126795   5.979   5.296   4.023
 8632SOL    HW226796   6.064   5.434   4.001
 8633SOL     OW26797   5.993   4.026   5.351
 8633SOL    HW126798   5.936   4.031   5.433
 8633SOL    HW226799   6.072   4.086   5.363
 8634SOL     OW26800   5.093   4.903   6.604
 8634SOL    HW126801   5.100   4.980   6.540
 8634SOL    HW226802   5.040   4.931   6.684
 8635SOL     OW26803   4.921   2.694   6.874
 8635SOL    HW126804   4.969   2.781   6.871
 8635SOL    HW226805   4.887   2.678   6.967
 8636SOL     OW26806   4.314   5.875   1.986
 8636SOL    HW126807   4.233   5.818   2.001
 8636SOL    HW226808   4.311   5.953   2.048
 8637SOL     OW26809   1.716   2.215   6.898
 8637SOL    HW126810   1.744   2.178   6.809
 8637SOL    HW226811   1.797   2.231   6.954
 8638SOL     OW26812   4.987   3.031   4.132
 8638SOL    HW126813   4.937   3.076   4.206
 8638SOL    HW226814   4.927   3.022   4.052
 8639SOL     OW26815   3.295   4.577   0.522
 8639SOL    HW126816   3.331   4.629   0.600
 8639SOL    HW226817   3.206   4.614   0.495
 8640SOL     OW26818   4.193   2.567   0.565
 8640SOL    HW126819   4.222   2.477   0.598
 8640SOL    HW226820   4.261   2.636   0.590
 8641SOL     OW26821   3.464   5.088   2.938
 8641SOL    HW126822   3.499   5.158   2.876
 8641SOL    HW226823   3.385   5.043   2.896
 8642SOL     OW26824   2.444   5.765   2.972
 8642SOL    HW126825   2.535   5.727   2.957
 8642SOL    HW226826   2.410   5.736   3.061
 8643SOL     OW26827   3.499   6.392   1.456
 8643SOL    HW126828   3.599   6.386   1.458
 8643SOL    HW226829   3.470   6.477   1.499
 8644SOL     OW26830   5.823   2.681   5.857
 8644SOL    HW126831   5.758   2.695   5.783
 8644SOL    HW226832   5.915   2.703   5.825
 8645SOL     OW26833   5.374   5.579   3.013
 8645SOL    HW126834   5.372   5.586   3.113
 8645SOL    HW226835   5.398   5.667   2.974
 8646SOL     OW26836   0.087   2.914   5.156
 8646SOL    HW126837   0.094   2.846   5.228
 8646SOL    HW226838   0.146   2.889   5.080
 8647SOL     OW26839   1.541   5.024   1.816
 8647SOL    HW126840   1.558   5.120   1.791
 8647SOL    HW226841   1.448   4.999   1.792
 8648SOL     OW26842   4.473   5.346   0.393
 8648SOL    HW126843   4.498   5.347   0.490
 8648SOL    HW226844   4.424   5.430   0.370
 8649SOL     OW26845   5.638   1.503   0.999
 8649SOL    HW126846   5.542   1.474   0.999
 8649SOL    HW226847   5.648   1.588   0.948
 8650SOL     OW26848   2.056   6.975   5.500
 8650SOL    HW126849   2.085   0.043   5.520
 8650SOL    HW226850   1.967   6.976   5.455
 8651SOL     OW26851   3.955   1.861   1.914
 8651SOL    HW126852   3.996   1.773   1.889
 8651SOL    HW226853   3.871   1.875   1.860
 8652SOL     OW26854   0.966   2.642   3.689
 8652SOL    HW126855   0.870   2.626   3.712
 8652SOL    HW226856   1.014   2.675   3.770
 8653SOL     OW26857   5.936   1.376   6.891
 8653SOL    HW126858   5.912   1.285   6.925
 8653SOL    HW226859   5.917   1.382   6.793
 8654SOL     OW26860   0.007   4.654   3.107
 8654SOL    HW126861   0.038   4.593   3.035
 8654SOL    HW226862   6.939   4.631   3.132
 8655SOL     OW26863   0.799   0.282   4.765
 8655SOL    HW126864   0.785   0.246   4.857
 8655SOL    HW226865   0.732   0.354   4.746
 8656SOL     OW26866   4.250   6.663   0.922
 8656SOL    HW126867   4.232   6.749   0.970
 8656SOL    HW226868   4.248   6.587   0.987
 8657SOL     OW26869   3.003   1.886   2.732
 8657SOL    HW126870   3.072   1.846   2.792
 8657SOL    HW226871   2.954   1.813   2.684
 8658SOL     OW26872   6.384   4.321   1.347
 8658SOL    HW126873   6.376   4.372   1.262
 8658SOL    HW226874   6.418   4.381   1.419
 8659SOL     OW26875   3.802   0.818   2.670
 8659SOL    HW126876   3.882   0.815   2.730
 8659SOL    HW226877   3.789   0.912   2.637
 8660SOL     OW26878   0.551   4.048   1.879
 8660SOL    HW126879   0.598   4.035   1.966
 8660SOL    HW226880   0.492   3.970   1.860
 8661SOL     OW26881   6.602   3.631   1.927
 8661SOL    HW126882   6.508   3.600   1.935
 8661SOL    HW226883   6.605   3.716   1.875
 8662SOL     OW26884   1.302   2.059   2.573
 8662SOL    HW126885   1.239   2.124   2.617
 8662SOL    HW226886   1.386   2.106   2.548
 8663SOL     OW26887   4.230   4.792   2.557
 8663SOL    HW126888   4.305   4.857   2.542
 8663SOL    HW226889   4.159   4.807   2.488
 8664SOL     OW26890   3.654   6.509   4.135
 8664SOL    HW126891   3.656   6.446   4.057
 8664SOL    HW226892   3.747   6.537   4.158
 8665SOL     OW26893   5.717   4.001   6.841
 8665SOL    HW126894   5.710   3.912   6.795
 8665SOL    HW226895   5.802   4.046   6.814
 8666SOL     OW26896   4.840   0.642   2.877
 8666SOL    HW126897   4.825   0.638   2.976
 8666SOL    HW226898   4.938   0.634   2.858
 8667SOL     OW26899   5.708   2.275   2.027
 8667SOL    HW126900   5.669   2.283   1.935
 8667SOL    HW226901   5.719   2.366   2.067
 8668SOL     OW26902   4.440   2.041   4.438
 8668SOL    HW126903   4.395   2.055   4.350
 8668SOL    HW226904   4.509   1.969   4.429
 8669SOL     OW26905   6.801   6.126   6.352
 8669SOL    HW126906   6.784   6.207   6.296
 8669SOL    HW226907   6.798   6.152   6.449
 8670SOL     OW26908   0.138   5.162   5.452
 8670SOL    HW126909   0.084   5.145   5.369
 8670SOL    HW226910   0.205   5.089   5.464
 8671SOL     OW26911   0.383   2.855   3.205
 8671SOL    HW126912   0.305   2.917   3.195
 8671SOL    HW226913   0.349   2.762   3.220
 8672SOL     OW26914   6.961   1.434   2.669
 8672SOL    HW126915   6.890   1.484   2.718
 8672SOL    HW226916   7.003   1.367   2.730
 8673SOL     OW26917   0.956   1.413   1.181
 8673SOL    HW126918   1.056   1.414   1.173
 8673SOL    HW226919   0.922   1.507   1.186
 8674SOL     OW26920   6.930   4.351   3.373
 8674SOL    HW126921   6.862   4.285   3.406
 8674SOL    HW226922   6.962   4.406   3.450
 8675SOL     OW26923   4.571   2.466   5.070
 8675SOL    HW126924   4.509   2.401   5.026
 8675SOL    HW226925   4.525   2.508   5.148
 8676SOL     OW26926   4.645   2.056   1.266
 8676SOL    HW126927   4.712   2.131   1.274
 8676SOL    HW226928   4.663   1.988   1.336
 8677SOL     OW26929   2.732   0.153   6.472
 8677SOL    HW126930   2.785   0.099   6.538
 8677SOL    HW226931   2.639   0.118   6.468
 8678SOL     OW26932   2.865   2.200   0.072
 8678SOL    HW126933   2.776   2.246   0.073
 8678SOL    HW226934   2.931   2.255   0.123
 8679SOL     OW26935   1.847   1.858   6.563
 8679SOL    HW126936   1.873   1.761   6.567
 8679SOL    HW226937   1.923   1.912   6.528
 8680SOL     OW26938   0.145   0.246   0.545
 8680SOL    HW126939   0.066   0.226   0.604
 8680SOL    HW226940   0.215   0.294   0.598
 8681SOL     OW26941   5.450   5.137   1.695
 8681SOL    HW126942   5.444   5.137   1.795
 8681SOL    HW226943   5.463   5.231   1.662
 8682SOL     OW26944   2.493   0.737   2.714
 8682SOL    HW126945   2.435   0.660   2.740
 8682SOL    HW226946   2.455   0.822   2.750
 8683SOL     OW26947   2.371   4.421   3.996
 8683SOL    HW126948   2.305   4.368   4.049
 8683SOL    HW226949   2.443   4.456   4.057
 8684SOL     OW26950   2.231   4.360   3.269
 8684SOL    HW126951   2.322   4.403   3.276
 8684SOL    HW226952   2.163   4.420   3.312
 8685SOL     OW26953   4.979   3.182   4.776
 8685SOL    HW126954   4.993   3.092   4.735
 8685SOL    HW226955   4.907   3.177   4.844
 8686SOL     OW26956   1.571   4.982   2.975
 8686SOL    HW126957   1.523   4.986   3.062
 8686SOL    HW226958   1.640   5.054   2.971
 8687SOL     OW26959   5.621   4.300   5.281
 8687SOL    HW126960   5.680   4.323   5.359
 8687SOL    HW226961   5.603   4.201   5.282
 8688SOL     OW26962   1.280   3.871   4.802
 8688SOL    HW126963   1.184   3.865   4.778
 8688SOL    HW226964   1.331   3.799   4.755
 8689SOL     OW26965   4.645   3.604   0.793
 8689SOL    HW126966   4.566   3.543   0.789
 8689SOL    HW226967   4.634   3.667   0.870
 8690SOL     OW26968   1.231   1.625   2.337
 8690SOL    HW126969   1.213   1.723   2.327
 8690SOL    HW226970   1.307   1.599   2.278
 8691SOL     OW26971   3.365   2.193   6.341
 8691SOL    HW126972   3.355   2.105   6.294
 8691SOL    HW226973   3.461   2.221   6.341
 8692SOL     OW26974   5.556   2.779   4.442
 8692SOL    HW126975   5.491   2.717   4.486
 8692SOL    HW226976   5.608   2.728   4.373
 8693SOL     OW26977   7.011   6.818   5.406
 8693SOL    HW126978   0.035   6.765   5.474
 8693SOL    HW226979   6.912   6.807   5.421
 8694SOL     OW26980   4.403   3.625   5.872
 8694SOL    HW126981   4.391   3.617   5.773
 8694SOL    HW226982   4.324   3.673   5.910
 8695SOL     OW26983   3.127   5.016   1.588
 8695SOL    HW126984   3.208   5.067   1.558
 8695SOL    HW226985   3.132   4.923   1.553
 8696SOL     OW26986   2.312   5.811   6.563
 8696SOL    HW126987   2.317   5.741   6.491
 8696SOL    HW226988   2.349   5.774   6.648
 8697SOL     OW26989   1.131   3.498   4.933
 8697SOL    HW126990   1.230   3.513   4.936
 8697SOL    HW226991   1.084   3.586   4.940
 8698SOL     OW26992   4.281   4.554   6.502
 8698SOL    HW126993   4.281   4.522   6.597
 8698SOL    HW226994   4.356   4.618   6.488
 8699SOL     OW26995   2.333   2.337   0.728
 8699SOL    HW126996   2.344   2.250   0.679
 8699SOL    HW226997   2.298   2.318   0.820
 8700SOL     OW26998   0.742   1.787   4.679
 8700SOL    HW126999   0.748   1.761   4.583
 8700SOL    HW227000   0.818   1.745   4.730
 8701SOL     OW27001   1.869   3.540   6.701
 8701SOL    HW127002   1.958   3.495   6.712
 8701SOL    HW227003   1.827   3.509   6.616
 8702SOL     OW27004   5.738   4.443   1.514
 8702SOL    HW127005   5.692   4.491   1.440
 8702SOL    HW227006   5.709   4.481   1.602
 8703SOL     OW27007   2.229   5.596   1.909
 8703SOL    HW127008   2.278   5.606   1.996
 8703SOL    HW227009   2.131   5.594   1.927
 8704SOL     OW27010   0.003   1.678   4.477
 8704SOL    HW127011   0.001   1.768   4.521
 8704SOL    HW227012   6.946   1.627   4.501
 8705SOL     OW27013   3.452   2.016   0.566
 8705SOL    HW127014   3.493   1.930   0.536
 8705SOL    HW227015   3.353   2.007   0.570
 8706SOL     OW27016   4.826   2.532   6.297
 8706SOL    HW127017   4.822   2.568   6.204
 8706SOL    HW227018   4.808   2.605   6.363
 8707SOL     OW27019   1.061   0.847   4.232
 8707SOL    HW127020   1.058   0.894   4.144
 8707SOL    HW227021   0.980   0.873   4.286
 8708SOL     OW27022   6.130   2.715   1.029
 8708SOL    HW127023   6.115   2.680   1.121
 8708SOL    HW227024   6.175   2.804   1.034
 8709SOL     OW27025   6.689   6.065   4.152
 8709SOL    HW127026   6.619   6.137   4.147
 8709SOL    HW227027   6.760   6.093   4.216
 8710SOL     OW27028   2.425   1.899   3.632
 8710SOL    HW127029   2.353   1.844   3.590
 8710SOL    HW227030   2.436   1.984   3.580
 8711SOL     OW27031   1.411   1.136   2.109
 8711SOL    HW127032   1.467   1.218   2.119
 8711SOL    HW227033   1.361   1.120   2.194
 8712SOL     OW27034   0.945   4.434   4.296
 8712SOL    HW127035   0.860   4.485   4.312
 8712SOL    HW227036   0.923   4.341   4.267
 8713SOL     OW27037   0.387   3.576   2.304
 8713SOL    HW127038   0.422   3.593   2.212
 8713SOL    HW227039   0.418   3.648   2.366
 8714SOL     OW27040   6.252   4.519   6.322
 8714SOL    HW127041   6.197   4.545   6.402
 8714SOL    HW227042   6.319   4.590   6.302
 8715SOL     OW27043   2.420   4.890   1.295
 8715SOL    HW127044   2.405   4.878   1.197
 8715SOL    HW227045   2.473   4.813   1.330
 8716SOL     OW27046   6.023   0.517   2.005
 8716SOL    HW127047   5.930   0.496   2.033
 8716SOL    HW227048   6.050   0.457   1.930
 8717SOL     OW27049   3.216   2.136   0.646
 8717SOL    HW127050   3.222   2.235   0.655
 8717SOL    HW227051   3.160   2.113   0.566
 8718SOL     OW27052   2.851   5.572   6.532
 8718SOL    HW127053   2.796   5.489   6.520
 8718SOL    HW227054   2.887   5.575   6.625
 8719SOL     OW27055   2.981   1.224   4.970
 8719SOL    HW127056   3.060   1.209   4.911
 8719SOL    HW227057   2.915   1.150   4.958
 8720SOL     OW27058   1.085   6.312   4.424
 8720SOL    HW127059   1.055   6.352   4.338
 8720SOL    HW227060   1.148   6.236   4.405
 8721SOL     OW27061   1.160   0.354   1.018
 8721SOL    HW127062   1.083   0.397   0.971
 8721SOL    HW227063   1.165   0.258   0.990
 8722SOL     OW27064   3.296   1.581   0.604
 8722SOL    HW127065   3.330   1.584   0.698
 8722SOL    HW227066   3.241   1.499   0.591
 8723SOL     OW27067   3.722   6.512   2.325
 8723SOL    HW127068   3.812   6.469   2.313
 8723SOL    HW227069   3.734   6.601   2.369
 8724SOL     OW27070   3.487   1.279   4.954
 8724SOL    HW127071   3.554   1.347   4.926
 8724SOL    HW227072   3.418   1.268   4.883
 8725SOL     OW27073   0.018   0.708   2.143
 8725SOL    HW127074   0.049   0.792   2.187
 8725SOL    HW227075   0.072   0.631   2.176
 8726SOL     OW27076   6.400   0.714   0.553
 8726SOL    HW127077   6.398   0.690   0.650
 8726SOL    HW227078   6.465   0.788   0.539
 8727SOL     OW27079   5.231   5.708   6.410
 8727SOL    HW127080   5.176   5.766   6.470
 8727SOL    HW227081   5.173   5.668   6.340
 8728SOL     OW27082   6.266   6.541   4.450
 8728SOL    HW127083   6.255   6.558   4.352
 8728SOL    HW227084   6.222   6.455   4.475
 8729SOL     OW27085   5.785   5.885   5.942
 8729SOL    HW127086   5.704   5.829   5.923
 8729SOL    HW227087   5.822   5.861   6.031
 8730SOL     OW27088   3.922   4.778   1.761
 8730SOL    HW127089   3.991   4.765   1.690
 8730SOL    HW227090   3.960   4.837   1.833
 8731SOL     OW27091   6.959   1.732   3.751
 8731SOL    HW127092   6.873   1.721   3.701
 8731SOL    HW227093   6.939   1.758   3.846
 8732SOL     OW27094   5.126   6.394   5.786
 8732SOL    HW127095   5.124   6.297   5.763
 8732SOL    HW227096   5.220   6.428   5.780
 8733SOL     OW27097   6.721   4.572   2.203
 8733SOL    HW127098   6.738   4.639   2.130
 8733SOL    HW227099   6.786   4.588   2.277
 8734SOL     OW27100   1.340   5.024   0.450
 8734SOL    HW127101   1.375   4.972   0.372
 8734SOL    HW227102   1.266   4.973   0.494
 8735SOL     OW27103   1.363   2.813   6.077
 8735SOL    HW127104   1.293   2.875   6.113
 8735SOL    HW227105   1.347   2.798   5.979
 8736SOL     OW27106   1.729   5.898   3.240
 8736SOL    HW127107   1.682   5.884   3.153
 8736SOL    HW227108   1.810   5.839   3.245
 8737SOL     OW27109   0.313   5.421   0.000
 8737SOL    HW127110   0.321   5.467   6.937
 8737SOL    HW227111   0.269   5.332   7.014
 8738SOL     OW27112   1.851   2.674   2.037
 8738SOL    HW127113   1.900   2.597   1.996
 8738SOL    HW227114   1.891   2.694   2.127
 8739SOL     OW27115   5.560   4.437   3.248
 8739SOL    HW127116   5.495   4.513   3.259
 8739SOL    HW227117   5.531   4.381   3.171
 8740SOL     OW27118   3.135   1.673   3.244
 8740SOL    HW127119   3.051   1.719   3.273
 8740SOL    HW227120   3.114   1.606   3.173
 8741SOL     OW27121   1.067   1.666   2.592
 8741SOL    HW127122   0.998   1.720   2.544
 8741SOL    HW227123   1.106   1.599   2.529
 8742SOL     OW27124   2.504   3.029   1.731
 8742SOL    HW127125   2.599   3.033   1.763
 8742SOL    HW227126   2.465   2.940   1.754
 8743SOL     OW27127   0.880   3.327   0.356
 8743SOL    HW127128   0.911   3.401   0.416
 8743SOL    HW227129   0.952   3.258   0.349
 8744SOL     OW27130   3.404   4.083   6.082
 8744SOL    HW127131   3.407   4.182   6.069
 8744SOL    HW227132   3.339   4.062   6.156
 8745SOL     OW27133   5.873   2.118   6.553
 8745SOL    HW127134   5.800   2.068   6.600
 8745SOL    HW227135   5.933   2.053   6.506
 8746SOL     OW27136   4.123   4.951   4.959
 8746SOL    HW127137   4.030   4.988   4.953
 8746SOL    HW227138   4.132   4.898   5.043
 8747SOL     OW27139   0.980   0.479   2.207
 8747SOL    HW127140   0.909   0.477   2.277
 8747SOL    HW227141   0.963   0.407   2.140
 8748SOL     OW27142   5.272   1.853   4.424
 8748SOL    HW127143   5.361   1.892   4.449
 8748SOL    HW227144   5.284   1.758   4.397
 8749SOL     OW27145   2.642   1.207   4.153
 8749SOL    HW127146   2.636   1.108   4.166
 8749SOL    HW227147   2.660   1.252   4.240
 8750SOL     OW27148   4.590   3.542   1.679
 8750SOL    HW127149   4.552   3.566   1.590
 8750SOL    HW227150   4.605   3.625   1.732
 8751SOL     OW27151   2.424   0.105   0.421
 8751SOL    HW127152   2.333   0.070   0.444
 8751SOL    HW227153   2.444   0.084   0.325
 8752SOL     OW27154   6.950   3.517   5.742
 8752SOL    HW127155   6.963   3.543   5.838
 8752SOL    HW227156   6.963   3.597   5.684
 8753SOL     OW27157   1.741   1.900   1.009
 8753SOL    HW127158   1.780   1.808   1.017
 8753SOL    HW227159   1.642   1.896   1.023
 8754SOL     OW27160   0.838   6.207   6.551
 8754SOL    HW127161   0.801   6.155   6.474
 8754SOL    HW227162   0.770   6.272   6.583
 8755SOL     OW27163   0.613   2.817   1.643
 8755SOL    HW127164   0.564   2.866   1.571
 8755SOL    HW227165   0.548   2.790   1.714
 8756SOL     OW27166   1.293   1.962   1.882
 8756SOL    HW127167   1.289   1.889   1.950
 8756SOL    HW227168   1.327   2.046   1.925
 8757SOL     OW27169   5.617   6.113   4.858
 8757SOL    HW127170   5.611   6.205   4.820
 8757SOL    HW227171   5.713   6.088   4.870
 8758SOL     OW27172   3.573   5.756   6.095
 8758SOL    HW127173   3.521   5.820   6.151
 8758SOL    HW227174   3.643   5.711   6.151
 8759SOL     OW27175   6.154   1.343   1.653
 8759SOL    HW127176   6.127   1.246   1.654
 8759SOL    HW227177   6.218   1.360   1.728
 8760SOL     OW27178   2.420   2.242   4.218
 8760SOL    HW127179   2.473   2.184   4.280
 8760SOL    HW227180   2.358   2.185   4.164
 8761SOL     OW27181   4.913   2.643   2.984
 8761SOL    HW127182   4.814   2.634   2.993
 8761SOL    HW227183   4.935   2.669   2.890
 8762SOL     OW27184   4.253   6.587   3.149
 8762SOL    HW127185   4.281   6.673   3.107
 8762SOL    HW227186   4.221   6.604   3.243
 8763SOL     OW27187   6.949   1.805   4.846
 8763SOL    HW127188   6.933   1.855   4.931
 8763SOL    HW227189   6.871   1.744   4.829
 8764SOL     OW27190   3.362   4.738   6.337
 8764SOL    HW127191   3.333   4.653   6.381
 8764SOL    HW227192   3.347   4.730   6.238
 8765SOL     OW27193   4.628   6.699   4.032
 8765SOL    HW127194   4.672   6.769   3.977
 8765SOL    HW227195   4.639   6.610   3.988
 8766SOL     OW27196   5.619   6.966   4.649
 8766SOL    HW127197   5.607   0.001   4.727
 8766SOL    HW227198   5.687   7.005   4.587
 8767SOL     OW27199   1.632   0.968   4.319
 8767SOL    HW127200   1.692   1.036   4.360
 8767SOL    HW227201   1.617   0.893   4.384
 8768SOL     OW27202   6.461   1.754   0.891
 8768SOL    HW127203   6.454   1.654   0.883
 8768SOL    HW227204   6.378   1.795   0.853
 8769SOL     OW27205   5.942   0.055   6.313
 8769SOL    HW127206   5.934   6.981   6.320
 8769SOL    HW227207   6.001   0.079   6.235
 8770SOL     OW27208   5.048   2.118   0.035
 8770SOL    HW127209   4.991   2.042   0.068
 8770SOL    HW227210   4.992   2.179   7.005
 8771SOL     OW27211   1.013   2.259   6.078
 8771SOL    HW127212   1.095   2.295   6.033
 8771SOL    HW227213   0.974   2.330   6.137
 8772SOL     OW27214   0.671   6.884   3.637
 8772SOL    HW127215   0.729   6.934   3.573
 8772SOL    HW227216   0.718   6.801   3.667
 8773SOL     OW27217   0.182   1.616   3.730
 8773SOL    HW127218   0.089   1.654   3.733
 8773SOL    HW227219   0.217   1.608   3.823
 8774SOL     OW27220   1.508   1.888   6.772
 8774SOL    HW127221   1.540   1.980   6.792
 8774SOL    HW227222   1.504   1.834   6.856
 8775SOL     OW27223   5.419   2.317   3.011
 8775SOL    HW127224   5.320   2.300   3.016
 8775SOL    HW227225   5.454   2.332   3.103
 8776SOL     OW27226   4.790   2.824   1.531
 8776SOL    HW127227   4.774   2.744   1.474
 8776SOL    HW227228   4.879   2.817   1.576
 8777SOL     OW27229   6.610   2.208   3.548
 8777SOL    HW127230   6.531   2.147   3.545
 8777SOL    HW227231   6.587   2.290   3.600
 8778SOL     OW27232   2.564   3.834   0.113
 8778SOL    HW127233   2.604   3.798   0.030
 8778SOL    HW227234   2.469   3.802   0.121
 8779SOL     OW27235   3.951   5.497   3.192
 8779SOL    HW127236   3.896   5.559   3.136
 8779SOL    HW227237   3.992   5.428   3.133
 8780SOL     OW27238   0.629   4.219   3.947
 8780SOL    HW127239   0.654   4.141   4.004
 8780SOL    HW227240   0.679   4.214   3.860
 8781SOL     OW27241   2.824   1.163   1.367
 8781SOL    HW127242   2.892   1.219   1.414
 8781SOL    HW227243   2.830   1.068   1.399
 8782SOL     OW27244   6.670   2.668   0.611
 8782SOL    HW127245   6.635   2.661   0.518
 8782SOL    HW227246   6.742   2.737   0.615
 8783SOL     OW27247   4.156   4.162   5.357
 8783SOL    HW127248   4.201   4.103   5.423
 8783SOL    HW227249   4.214   4.241   5.338
 8784SOL     OW27250   4.278   0.637   6.999
 8784SOL    HW127251   4.299   0.573   6.925
 8784SOL    HW227252   4.303   0.596   0.061
 8785SOL     OW27253   0.066   5.760   5.505
 8785SOL    HW127254   0.147   5.765   5.564
 8785SOL    HW227255   0.028   5.852   5.493
 8786SOL     OW27256   5.856   1.590   3.487
 8786SOL    HW127257   5.845   1.560   3.392
 8786SOL    HW227258   5.922   1.531   3.532
 8787SOL     OW27259   3.436   5.208   2.194
 8787SOL    HW127260   3.502   5.221   2.269
 8787SOL    HW227261   3.459   5.124   2.144
 8788SOL     OW27262   0.153   5.874   4.468
 8788SOL    HW127263   0.166   5.833   4.558
 8788SOL    HW227264   0.241   5.886   4.424
 8789SOL     OW27265   1.368   3.029   6.626
 8789SOL    HW127266   1.370   3.107   6.688
 8789SOL    HW227267   1.417   2.952   6.669
 8790SOL     OW27268   4.802   2.593   5.140
 8790SOL    HW127269   4.722   2.539   5.115
 8790SOL    HW227270   4.781   2.690   5.131
 8791SOL     OW27271   4.023   5.979   5.170
 8791SOL    HW127272   4.047   6.045   5.098
 8791SOL    HW227273   3.931   5.943   5.153
 8792SOL     OW27274   5.762   5.370   1.638
 8792SOL    HW127275   5.832   5.439   1.656
 8792SOL    HW227276   5.802   5.279   1.643
 8793SOL     OW27277   6.159   6.116   5.201
 8793SOL    HW127278   6.216   6.157   5.272
 8793SOL    HW227279   6.067   6.156   5.205
 8794SOL     OW27280   0.115   1.511   3.059
 8794SOL    HW127281   0.020   1.542   3.063
 8794SOL    HW227282   0.130   1.460   2.975
 8795SOL     OW27283   0.897   6.664   6.641
 8795SOL    HW127284   0.976   6.610   6.671
 8795SOL    HW227285   0.916   6.705   6.552
 8796SOL     OW27286   5.655   4.230   4.941
 8796SOL    HW127287   5.626   4.320   4.974
 8796SOL    HW227288   5.690   4.176   5.017
 8797SOL     OW27289   4.905   6.351   4.323
 8797SOL    HW127290   4.845   6.379   4.398
 8797SOL    HW227291   4.996   6.332   4.358
 8798SOL     OW27292   2.043   6.115   5.779
 8798SOL    HW127293   1.997   6.203   5.791
 8798SOL    HW227294   2.002   6.047   5.840
 8799SOL     OW27295   1.223   5.873   1.542
 8799SOL    HW127296   1.187   5.790   1.585
 8799SOL    HW227297   1.159   5.904   1.471
 8800SOL     OW27298   0.023   5.905   3.970
 8800SOL    HW127299   0.074   5.903   3.884
 8800SOL    HW227300   6.976   5.973   3.964
 8801SOL     OW27301   4.993   3.288   5.430
 8801SOL    HW127302   4.954   3.197   5.440
 8801SOL    HW227303   4.919   3.355   5.423
 8802SOL     OW27304   1.336   6.384   6.709
 8802SOL    HW127305   1.239   6.408   6.714
 8802SOL    HW227306   1.372   6.372   6.802
 8803SOL     OW27307   5.475   5.433   5.223
 8803SOL    HW127308   5.501   5.378   5.301
 8803SOL    HW227309   5.557   5.465   5.175
 8804SOL     OW27310   1.541   6.171   2.003
 8804SOL    HW127311   1.503   6.214   2.085
 8804SOL    HW227312   1.488   6.198   1.923
 8805SOL     OW27313   5.288   4.839   2.788
 8805SOL    HW127314   5.380   4.869   2.812
 8805SOL    HW227315   5.294   4.768   2.718
 8806SOL     OW27316   1.135   0.669   2.452
 8806SOL    HW127317   1.049   0.714   2.429
 8806SOL    HW227318   1.197   0.736   2.493
 8807SOL     OW27319   5.586   2.246   1.434
 8807SOL    HW127320   5.655   2.294   1.488
 8807SOL    HW227321   5.630   2.171   1.384
 8808SOL     OW27322   2.081   1.999   0.049
 8808SOL    HW127323   2.076   1.916   0.104
 8808SOL    HW227324   2.011   2.064   0.079
 8809SOL     OW27325   0.742   3.398   3.103
 8809SOL    HW127326   0.688   3.452   3.169
 8809SOL    HW227327   0.780   3.459   3.034
 8810SOL     OW27328   0.288   2.530   4.561
 8810SOL    HW127329   0.227   2.609   4.569
 8810SOL    HW227330   0.275   2.486   4.472
 8811SOL     OW27331   4.496   4.516   2.393
 8811SOL    HW127332   4.564   4.497   2.321
 8811SOL    HW227333   4.438   4.435   2.406
 8812SOL     OW27334   5.773   1.069   0.376
 8812SOL    HW127335   5.737   1.009   0.305
 8812SOL    HW227336   5.707   1.075   0.451
 8813SOL     OW27337   1.835   2.995   2.216
 8813SOL    HW127338   1.759   2.955   2.164
 8813SOL    HW227339   1.918   2.993   2.161
 8814SOL     OW27340   6.006   6.712   4.795
 8814SOL    HW127341   5.996   6.729   4.697
 8814SOL    HW227342   6.093   6.666   4.813
 8815SOL     OW27343   5.274   1.061   1.336
 8815SOL    HW127344   5.243   1.001   1.409
 8815SOL    HW227345   5.195   1.098   1.287
 8816SOL     OW27346   0.161   0.298   3.960
 8816SOL    HW127347   0.116   0.244   4.031
 8816SOL    HW227348   0.251   0.258   3.940
 8817SOL     OW27349   1.424   2.788   3.256
 8817SOL    HW127350   1.475   2.818   3.337
 8817SOL    HW227351   1.326   2.805   3.271
 8818SOL     OW27352   1.129   6.410   6.247
 8818SOL    HW127353   1.143   6.314   6.223
 8818SOL    HW227354   1.034   6.425   6.274
 8819SOL     OW27355   4.803   6.125   6.417
 8819SOL    HW127356   4.753   6.098   6.499
 8819SOL    HW227357   4.895   6.156   6.442
 8820SOL     OW27358   4.223   6.613   5.542
 8820SOL    HW127359   4.178   6.621   5.631
 8820SOL    HW227360   4.234   6.516   5.519
 8821SOL     OW27361   0.783   5.119   5.922
 8821SOL    HW127362   0.738   5.132   5.834
 8821SOL    HW227363   0.877   5.088   5.908
 8822SOL     OW27364   6.102   0.314   4.837
 8822SOL    HW127365   6.022   0.342   4.784
 8822SOL    HW227366   6.093   0.345   4.931
 8823SOL     OW27367   4.184   1.914   2.937
 8823SOL    HW127368   4.175   1.979   3.013
 8823SOL    HW227369   4.255   1.946   2.874
 8824SOL     OW27370   1.929   0.789   3.978
 8824SOL    HW127371   1.875   0.873   3.989
 8824SOL    HW227372   2.020   0.813   3.944
 8825SOL     OW27373   0.331   6.615   0.413
 8825SOL    HW127374   0.353   6.642   0.319
 8825SOL    HW227375   0.234   6.595   0.420
 8826SOL     OW27376   0.756   4.246   0.110
 8826SOL    HW127377   0.823   4.319   0.123
 8826SOL    HW227378   0.704   4.234   0.194
 8827SOL     OW27379   5.018   6.439   3.672
 8827SOL    HW127380   5.115   6.425   3.692
 8827SOL    HW227381   4.989   6.375   3.601
 8828SOL     OW27382   5.169   2.184   5.834
 8828SOL    HW127383   5.135   2.278   5.843
 8828SOL    HW227384   5.159   2.137   5.922
 8829SOL     OW27385   6.834   0.984   2.516
 8829SOL    HW127386   6.824   1.081   2.497
 8829SOL    HW227387   6.748   0.947   2.552
 8830SOL     OW27388   3.302   0.513   3.108
 8830SOL    HW127389   3.247   0.580   3.058
 8830SOL    HW227390   3.317   0.544   3.201
 8831SOL     OW27391   0.023   2.900   2.570
 8831SOL    HW127392   7.000   2.939   2.648
 8831SOL    HW227393   0.025   2.801   2.578
 8832SOL     OW27394   5.240   0.660   5.753
 8832SOL    HW127395   5.168   0.684   5.687
 8832SOL    HW227396   5.274   0.744   5.796
 8833SOL     OW27397   4.643   2.826   0.916
 8833SOL    HW127398   4.545   2.807   0.911
 8833SOL    HW227399   4.663   2.913   0.870
 8834SOL     OW27400   5.298   4.868   6.383
 8834SOL    HW127401   5.269   4.799   6.450
 8834SOL    HW227402   5.247   4.952   6.398
 8835SOL     OW27403   6.260   1.034   5.287
 8835SOL    HW127404   6.314   1.118   5.296
 8835SOL    HW227405   6.167   1.051   5.319
 8836SOL     OW27406   4.023   1.201   0.951
 8836SOL    HW127407   3.931   1.185   0.915
 8836SOL    HW227408   4.032   1.155   1.039
 8837SOL     OW27409   4.619   6.008   0.465
 8837SOL    HW127410   4.700   5.994   0.522
 8837SOL    HW227411   4.561   5.926   0.468
 8838SOL     OW27412   2.099   3.427   3.238
 8838SOL    HW127413   2.106   3.479   3.323
 8838SOL    HW227414   2.143   3.479   3.164
 8839SOL     OW27415   4.765   5.115   1.364
 8839SOL    HW127416   4.698   5.040   1.363
 8839SOL    HW227417   4.767   5.156   1.455
 8840SOL     OW27418   6.934   1.026   1.050
 8840SOL    HW127419   6.879   1.045   1.131
 8840SOL    HW227420   6.874   1.003   0.974
 8841SOL     OW27421   3.369   1.321   0.941
 8841SOL    HW127422   3.404   1.281   1.026
 8841SOL    HW227423   3.403   1.414   0.931
 8842SOL     OW27424   3.687   2.898   4.167
 8842SOL    HW127425   3.746   2.911   4.087
 8842SOL    HW227426   3.591   2.898   4.138
 8843SOL     OW27427   2.437   5.506   5.348
 8843SOL    HW127428   2.497   5.575   5.307
 8843SOL    HW227429   2.492   5.429   5.380
 8844SOL     OW27430   3.077   3.007   6.120
 8844SOL    HW127431   3.137   2.965   6.053
 8844SOL    HW227432   3.075   3.106   6.105
 8845SOL     OW27433   0.492   3.316   2.398
 8845SOL    HW127434   0.454   3.402   2.364
 8845SOL    HW227435   0.469   3.305   2.495
 8846SOL     OW27436   5.374   5.313   4.334
 8846SOL    HW127437   5.470   5.284   4.334
 8846SOL    HW227438   5.366   5.404   4.375
 8847SOL     OW27439   1.076   1.897   4.038
 8847SOL    HW127440   1.028   1.951   4.107
 8847SOL    HW227441   1.150   1.951   3.998
 8848SOL     OW27442   6.560   2.112   0.794
 8848SOL    HW127443   6.589   2.203   0.763
 8848SOL    HW227444   6.481   2.083   0.741
 8849SOL     OW27445   3.531   5.476   4.373
 8849SOL    HW127446   3.563   5.495   4.466
 8849SOL    HW227447   3.474   5.394   4.373
 8850SOL     OW27448   2.687   2.011   1.061
 8850SOL    HW127449   2.623   1.996   0.985
 8850SOL    HW227450   2.751   2.084   1.037
 8851SOL     OW27451   0.115   5.140   2.693
 8851SOL    HW127452   0.057   5.208   2.649
 8851SOL    HW227453   0.211   5.158   2.673
 8852SOL     OW27454   5.164   3.602   4.781
 8852SOL    HW127455   5.146   3.575   4.687
 8852SOL    HW227456   5.099   3.556   4.842
 8853SOL     OW27457   4.473   2.080   5.507
 8853SOL    HW127458   4.521   2.068   5.594
 8853SOL    HW227459   4.537   2.063   5.432
 8854SOL     OW27460   2.243   0.864   6.109
 8854SOL    HW127461   2.242   0.964   6.119
 8854SOL    HW227462   2.333   0.835   6.075
 8855SOL     OW27463   5.985   5.149   6.119
 8855SOL    HW127464   5.893   5.168   6.155
 8855SOL    HW227465   5.977   5.105   6.029
 8856SOL     OW27466   5.601   0.996   5.312
 8856SOL    HW127467   5.574   1.092   5.320
 8856SOL    HW227468   5.520   0.937   5.322
 8857SOL     OW27469   1.352   3.487   4.571
 8857SOL    HW127470   1.369   3.437   4.486
 8857SOL    HW227471   1.308   3.426   4.637
 8858SOL     OW27472   0.446   3.460   5.634
 8858SOL    HW127473   0.462   3.526   5.708
 8858SOL    HW227474   0.352   3.425   5.640
 8859SOL     OW27475   2.885   6.264   5.367
 8859SOL    HW127476   2.940   6.293   5.446
 8859SOL    HW227477   2.942   6.267   5.284
 8860SOL     OW27478   1.736   2.011   0.759
 8860SOL    HW127479   1.706   2.106   0.771
 8860SOL    HW227480   1.741   1.967   0.849
 8861SOL     OW27481   2.582   2.445   1.172
 8861SOL    HW127482   2.645   2.500   1.226
 8861SOL    HW227483   2.523   2.392   1.233
 8862SOL     OW27484   6.422   2.205   5.059
 8862SOL    HW127485   6.468   2.176   4.975
 8862SOL    HW227486   6.404   2.303   5.056
 8863SOL     OW27487   1.140   5.910   5.645
 8863SOL    HW127488   1.065   5.953   5.695
 8863SOL    HW227489   1.104   5.835   5.589
 8864SOL     OW27490   1.568   3.735   6.020
 8864SOL    HW127491   1.512   3.748   6.102
 8864SOL    HW227492   1.539   3.652   5.972
 8865SOL     OW27493   3.062   2.062   5.879
 8865SOL    HW127494   3.076   1.998   5.954
 8865SOL    HW227495   3.135   2.052   5.812
 8866SOL     OW27496   5.090   6.561   4.966
 8866SOL    HW127497   5.101   6.660   4.968
 8866SOL    HW227498   5.165   6.520   4.914
 8867SOL     OW27499   6.517   1.116   4.039
 8867SOL    HW127500   6.473   1.089   4.125
 8867SOL    HW227501   6.524   1.037   3.979
 8868SOL     OW27502   5.075   3.506   0.650
 8868SOL    HW127503   5.164   3.549   0.662
 8868SOL    HW227504   5.047   3.512   0.554
 8869SOL     OW27505   3.397   2.051   2.753
 8869SOL    HW127506   3.338   2.113   2.804
 8869SOL    HW227507   3.410   1.966   2.804
 8870SOL     OW27508   4.513   1.300   2.404
 8870SOL    HW127509   4.513   1.309   2.304
 8870SOL    HW227510   4.556   1.381   2.444
 8871SOL     OW27511   1.857   2.003   3.682
 8871SOL    HW127512   1.770   2.044   3.712
 8871SOL    HW227513   1.843   1.905   3.667
 8872SOL     OW27514   1.483   2.399   1.896
 8872SOL    HW127515   1.538   2.478   1.868
 8872SOL    HW227516   1.386   2.423   1.894
 8873SOL     OW27517   6.843   6.059   4.920
 8873SOL    HW127518   6.855   6.093   5.013
 8873SOL    HW227519   6.864   5.962   4.917
 8874SOL     OW27520   0.660   1.616   6.280
 8874SOL    HW127521   0.731   1.648   6.343
 8874SOL    HW227522   0.574   1.605   6.330
 8875SOL     OW27523   1.551   1.452   4.644
 8875SOL    HW127524   1.560   1.358   4.611
 8875SOL    HW227525   1.576   1.516   4.571
 8876SOL     OW27526   2.899   0.754   4.404
 8876SOL    HW127527   2.840   0.763   4.323
 8876SOL    HW227528   2.912   0.658   4.426
 8877SOL     OW27529   3.111   6.858   4.427
 8877SOL    HW127530   3.105   6.762   4.455
 8877SOL    HW227531   3.206   6.889   4.438
 8878SOL     OW27532   5.642   4.912   5.507
 8878SOL    HW127533   5.560   4.877   5.551
 8878SOL    HW227534   5.641   4.888   5.410
 8879SOL     OW27535   4.586   5.337   4.402
 8879SOL    HW127536   4.646   5.340   4.482
 8879SOL    HW227537   4.587   5.246   4.362
 8880SOL     OW27538   0.222   6.437   5.310
 8880SOL    HW127539   0.298   6.392   5.264
 8880SOL    HW227540   0.154   6.369   5.336
 8881SOL     OW27541   6.534   1.538   1.503
 8881SOL    HW127542   6.574   1.612   1.449
 8881SOL    HW227543   6.601   1.465   1.515
 8882SOL     OW27544   5.622   2.678   0.433
 8882SOL    HW127545   5.682   2.758   0.432
 8882SOL    HW227546   5.661   2.606   0.377
 8883SOL     OW27547   6.554   1.657   5.479
 8883SOL    HW127548   6.649   1.649   5.509
 8883SOL    HW227549   6.508   1.569   5.489
 8884SOL     OW27550   6.592   1.256   5.912
 8884SOL    HW127551   6.655   1.269   5.835
 8884SOL    HW227552   6.641   1.267   5.998
 8885SOL     OW27553   5.595   3.735   1.852
 8885SOL    HW127554   5.609   3.724   1.754
 8885SOL    HW227555   5.586   3.832   1.874
 8886SOL     OW27556   3.112   5.402   6.099
 8886SOL    HW127557   3.135   5.465   6.174
 8886SOL    HW227558   3.023   5.426   6.062
 8887SOL     OW27559   1.697   0.892   1.106
 8887SOL    HW127560   1.723   0.966   1.168
 8887SOL    HW227561   1.637   0.927   1.034
 8888SOL     OW27562   3.041   2.114   2.589
 8888SOL    HW127563   3.136   2.145   2.596
 8888SOL    HW227564   3.031   2.026   2.635
 8889SOL     OW27565   3.579   0.178   4.597
 8889SOL    HW127566   3.513   0.233   4.545
 8889SOL    HW227567   3.611   0.231   4.675
 8890SOL     OW27568   0.448   3.733   3.330
 8890SOL    HW127569   0.542   3.704   3.309
 8890SOL    HW227570   0.449   3.828   3.359
 8891SOL     OW27571   2.974   1.666   5.890
 8891SOL    HW127572   2.950   1.612   5.970
 8891SOL    HW227573   3.068   1.645   5.862
 8892SOL     OW27574   1.230   6.781   2.566
 8892SOL    HW127575   1.228   6.877   2.595
 8892SOL    HW227576   1.268   6.725   2.640
 8893SOL     OW27577   0.417   0.525   7.024
 8893SOL    HW127578   0.342   0.474   0.040
 8893SOL    HW227579   0.502   0.474   0.009
 8894SOL     OW27580   4.556   2.909   6.474
 8894SOL    HW127581   4.598   2.854   6.547
 8894SOL    HW227582   4.518   2.849   6.404
 8895SOL     OW27583   2.082   0.810   2.559
 8895SOL    HW127584   2.015   0.860   2.503
 8895SOL    HW227585   2.090   0.854   2.648
 8896SOL     OW27586   2.216   4.283   4.911
 8896SOL    HW127587   2.199   4.332   4.997
 8896SOL    HW227588   2.271   4.202   4.930
 8897SOL     OW27589   1.245   2.390   0.868
 8897SOL    HW127590   1.286   2.302   0.847
 8897SOL    HW227591   1.302   2.438   0.935
 8898SOL     OW27592   6.915   2.971   4.970
 8898SOL    HW127593   6.962   2.929   5.049
 8898SOL    HW227594   6.950   3.063   4.956
 8899SOL     OW27595   3.034   5.341   1.447
 8899SOL    HW127596   2.955   5.287   1.475
 8899SOL    HW227597   3.041   5.341   1.347
 8900SOL     OW27598   0.056   1.212   3.468
 8900SOL    HW127599   0.112   1.257   3.537
 8900SOL    HW227600   0.105   1.210   3.381
 8901SOL     OW27601   1.767   6.382   1.880
 8901SOL    HW127602   1.789   6.286   1.862
 8901SOL    HW227603   1.675   6.403   1.845
 8902SOL     OW27604   3.124   5.999   5.171
 8902SOL    HW127605   3.114   6.071   5.103
 8902SOL    HW227606   3.105   6.036   5.262
 8903SOL     OW27607   0.525   0.301   2.712
 8903SOL    HW127608   0.583   0.331   2.788
 8903SOL    HW227609   0.461   0.232   2.745
 8904SOL     OW27610   1.438   5.000   3.222
 8904SOL    HW127611   1.377   4.951   3.285
 8904SOL    HW227612   1.532   4.968   3.234
 8905SOL     OW27613   2.182   4.352   4.652
 8905SOL    HW127614   2.156   4.266   4.607
 8905SOL    HW227615   2.185   4.338   4.751
 8906SOL     OW27616   1.574   5.093   4.391
 8906SOL    HW127617   1.533   5.064   4.477
 8906SOL    HW227618   1.621   5.180   4.404
 8907SOL     OW27619   3.858   2.756   6.738
 8907SOL    HW127620   3.858   2.839   6.681
 8907SOL    HW227621   3.952   2.733   6.764
 8908SOL     OW27622   0.674   2.484   2.372
 8908SOL    HW127623   0.717   2.508   2.458
 8908SOL    HW227624   0.744   2.476   2.301
 8909SOL     OW27625   3.546   0.276   5.742
 8909SOL    HW127626   3.538   0.287   5.643
 8909SOL    HW227627   3.637   0.242   5.765
 8910SOL     OW27628   4.061   3.291   0.354
 8910SOL    HW127629   4.121   3.328   0.425
 8910SOL    HW227630   4.106   3.213   0.310
 8911SOL     OW27631   4.385   2.242   4.026
 8911SOL    HW127632   4.395   2.147   4.054
 8911SOL    HW227633   4.464   2.268   3.970
 8912SOL     OW27634   5.190   1.749   6.578
 8912SOL    HW127635   5.266   1.812   6.590
 8912SOL    HW227636   5.118   1.793   6.523
 8913SOL     OW27637   3.941   4.305   1.198
 8913SOL    HW127638   3.841   4.300   1.187
 8913SOL    HW227639   3.982   4.216   1.177
 8914SOL     OW27640   5.065   1.884   3.616
 8914SOL    HW127641   5.110   1.971   3.637
 8914SOL    HW227642   4.966   1.896   3.621
 8915SOL     OW27643   0.935   5.894   2.580
 8915SOL    HW127644   0.947   5.806   2.534
 8915SOL    HW227645   0.852   5.891   2.636
 8916SOL     OW27646   5.911   3.208   2.088
 8916SOL    HW127647   5.879   3.213   1.993
 8916SOL    HW227648   5.996   3.155   2.092
 8917SOL     OW27649   5.678   5.240   5.033
 8917SOL    HW127650   5.588   5.242   4.988
 8917SOL    HW227651   5.699   5.332   5.068
 8918SOL     OW27652   4.905   4.168   6.040
 8918SOL    HW127653   4.837   4.135   5.974
 8918SOL    HW227654   4.977   4.216   5.992
 8919SOL     OW27655   2.503   3.418   1.371
 8919SOL    HW127656   2.591   3.387   1.333
 8919SOL    HW227657   2.492   3.516   1.354
 8920SOL     OW27658   6.720   5.585   5.773
 8920SOL    HW127659   6.757   5.611   5.684
 8920SOL    HW227660   6.795   5.560   5.834
 8921SOL     OW27661   1.453   5.607   3.891
 8921SOL    HW127662   1.434   5.520   3.846
 8921SOL    HW227663   1.509   5.591   3.973
 8922SOL     OW27664   6.494   3.951   6.703
 8922SOL    HW127665   6.507   4.049   6.688
 8922SOL    HW227666   6.522   3.901   6.622
 8923SOL     OW27667   2.147   4.231   4.089
 8923SOL    HW127668   2.196   4.233   4.176
 8923SOL    HW227669   2.067   4.172   4.097
 8924SOL     OW27670   2.540   5.694   5.182
 8924SOL    HW127671   2.601   5.741   5.245
 8924SOL    HW227672   2.488   5.761   5.129
 8925SOL     OW27673   4.621   5.975   1.588
 8925SOL    HW127674   4.557   6.028   1.645
 8925SOL    HW227675   4.687   5.928   1.647
 8926SOL     OW27676   5.305   0.397   6.612
 8926SOL    HW127677   5.397   0.420   6.580
 8926SOL    HW227678   5.266   0.475   6.661
 8927SOL     OW27679   2.655   1.783   4.511
 8927SOL    HW127680   2.683   1.747   4.422
 8927SOL    HW227681   2.709   1.864   4.533
 8928SOL     OW27682   0.564   6.995   4.289
 8928SOL    HW127683   0.511   0.033   4.345
 8928SOL    HW227684   0.611   0.021   4.217
 8929SOL     OW27685   5.267   4.186   3.580
 8929SOL    HW127686   5.284   4.274   3.624
 8929SOL    HW227687   5.314   4.182   3.492
 8930SOL     OW27688   0.904   5.162   5.387
 8930SOL    HW127689   1.002   5.161   5.368
 8930SOL    HW227690   0.854   5.134   5.305
 8931SOL     OW27691   4.968   1.268   1.686
 8931SOL    HW127692   4.961   1.323   1.769
 8931SOL    HW227693   5.019   1.184   1.706
 8932SOL     OW27694   5.877   0.903   0.162
 8932SOL    HW127695   5.976   0.888   0.169
 8932SOL    HW227696   5.831   0.816   0.146
 8933SOL     OW27697   1.101   0.612   5.543
 8933SOL    HW127698   1.107   0.705   5.580
 8933SOL    HW227699   1.019   0.567   5.577
 8934SOL     OW27700   4.445   6.800   3.476
 8934SOL    HW127701   4.496   6.869   3.426
 8934SOL    HW227702   4.475   6.798   3.572
 8935SOL     OW27703   5.307   1.469   2.744
 8935SOL    HW127704   5.281   1.425   2.830
 8935SOL    HW227705   5.382   1.533   2.760
 8936SOL     OW27706   1.790   3.913   2.600
 8936SOL    HW127707   1.778   3.982   2.671
 8936SOL    HW227708   1.717   3.923   2.532
 8937SOL     OW27709   4.288   0.427   5.098
 8937SOL    HW127710   4.249   0.514   5.067
 8937SOL    HW227711   4.240   0.351   5.053
 8938SOL     OW27712   5.729   6.665   1.140
 8938SOL    HW127713   5.785   6.587   1.170
 8938SOL    HW227714   5.632   6.641   1.148
 8939SOL     OW27715   0.803   3.153   4.281
 8939SOL    HW127716   0.707   3.156   4.253
 8939SOL    HW227717   0.810   3.112   4.372
 8940SOL     OW27718   6.312   3.304   1.998
 8940SOL    HW127719   6.285   3.227   2.055
 8940SOL    HW227720   6.315   3.276   1.902
 8941SOL     OW27721   5.811   1.760   3.244
 8941SOL    HW127722   5.731   1.790   3.191
 8941SOL    HW227723   5.823   1.661   3.234
 8942SOL     OW27724   5.013   4.375   3.462
 8942SOL    HW127725   5.017   4.459   3.516
 8942SOL    HW227726   5.034   4.297   3.522
 8943SOL     OW27727   4.530   2.904   0.454
 8943SOL    HW127728   4.532   2.986   0.396
 8943SOL    HW227729   4.608   2.905   0.516
 8944SOL     OW27730   4.116   5.708   5.498
 8944SOL    HW127731   4.153   5.737   5.586
 8944SOL    HW227732   4.016   5.718   5.500
 8945SOL     OW27733   6.520   4.432   2.056
 8945SOL    HW127734   6.586   4.460   2.125
 8945SOL    HW227735   6.558   4.357   2.001
 8946SOL     OW27736   4.105   1.729   4.960
 8946SOL    HW127737   4.027   1.754   4.903
 8946SOL    HW227738   4.075   1.673   5.036
 8947SOL     OW27739   2.023   4.803   0.825
 8947SOL    HW127740   2.046   4.783   0.730
 8947SOL    HW227741   1.950   4.742   0.855
 8948SOL     OW27742   5.386   0.589   3.224
 8948SOL    HW127743   5.363   0.681   3.257
 8948SOL    HW227744   5.485   0.577   3.225
 8949SOL     OW27745   3.414   6.400   1.095
 8949SOL    HW127746   3.428   6.442   1.006
 8949SOL    HW227747   3.409   6.301   1.085
 8950SOL     OW27748   3.337   3.771   2.884
 8950SOL    HW127749   3.307   3.692   2.831
 8950SOL    HW227750   3.304   3.855   2.841
 8951SOL     OW27751   0.788   0.678   3.988
 8951SOL    HW127752   0.805   0.582   3.965
 8951SOL    HW227753   0.694   0.689   4.019
 8952SOL     OW27754   1.800   4.396   4.440
 8952SOL    HW127755   1.758   4.485   4.428
 8952SOL    HW227756   1.729   4.327   4.457
 8953SOL     OW27757   0.363   5.262   1.498
 8953SOL    HW127758   0.455   5.298   1.492
 8953SOL    HW227759   0.364   5.173   1.545
 8954SOL     OW27760   2.020   4.067   5.430
 8954SOL    HW127761   2.095   4.121   5.392
 8954SOL    HW227762   2.027   4.066   5.530
 8955SOL     OW27763   5.991   2.910   5.290
 8955SOL    HW127764   6.037   2.965   5.359
 8955SOL    HW227765   5.980   2.964   5.206
 8956SOL     OW27766   0.739   5.985   0.877
 8956SOL    HW127767   0.723   6.002   0.974
 8956SOL    HW227768   0.652   5.968   0.831
 8957SOL     OW27769   1.213   0.009   2.668
 8957SOL    HW127770   1.189   0.037   2.575
 8957SOL    HW227771   1.219   0.090   2.727
 8958SOL     OW27772   0.217   3.902   4.507
 8958SOL    HW127773   0.190   3.805   4.501
 8958SOL    HW227774   0.215   3.942   4.416
 8959SOL     OW27775   5.505   2.119   4.000
 8959SOL    HW127776   5.546   2.105   4.089
 8959SOL    HW227777   5.409   2.146   4.011
 8960SOL     OW27778   5.520   4.972   2.875
 8960SOL    HW127779   5.486   4.963   2.969
 8960SOL    HW227780   5.561   5.063   2.863
 8961SOL     OW27781   2.838   1.538   5.079
 8961SOL    HW127782   2.855   1.549   5.177
 8961SOL    HW227783   2.764   1.472   5.065
 8962SOL     OW27784   6.841   5.917   2.231
 8962SOL    HW127785   6.851   6.016   2.230
 8962SOL    HW227786   6.866   5.880   2.141
 8963SOL     OW27787   2.561   6.226   6.080
 8963SOL    HW127788   2.480   6.219   6.022
 8963SOL    HW227789   2.542   6.289   6.155
 8964SOL     OW27790   1.815   2.954   3.504
 8964SOL    HW127791   1.889   3.010   3.466
 8964SOL    HW227792   1.777   2.896   3.432
 8965SOL     OW27793   4.181   6.022   0.643
 8965SOL    HW127794   4.252   6.022   0.573
 8965SOL    HW227795   4.140   6.113   0.650
 8966SOL     OW27796   5.045   6.639   5.240
 8966SOL    HW127797   4.979   6.637   5.314
 8966SOL    HW227798   5.003   6.606   5.156
 8967SOL     OW27799   2.663   0.212   2.966
 8967SOL    HW127800   2.650   0.115   2.948
 8967SOL    HW227801   2.649   0.230   3.064
 8968SOL     OW27802   3.446   4.938   2.417
 8968SOL    HW127803   3.447   4.958   2.319
 8968SOL    HW227804   3.352   4.923   2.447
 8969SOL     OW27805   6.852   1.243   2.972
 8969SOL    HW127806   6.936   1.272   2.926
 8969SOL    HW227807   6.876   1.199   3.059
 8970SOL     OW27808   2.164   1.132   3.199
 8970SOL    HW127809   2.117   1.058   3.247
 8970SOL    HW227810   2.213   1.188   3.265
 8971SOL     OW27811   3.166   4.024   1.070
 8971SOL    HW127812   3.136   4.026   1.166
 8971SOL    HW227813   3.153   4.115   1.030
 8972SOL     OW27814   5.611   4.207   6.574
 8972SOL    HW127815   5.587   4.206   6.477
 8972SOL    HW227816   5.711   4.202   6.583
 8973SOL     OW27817   2.659   1.979   2.927
 8973SOL    HW127818   2.632   1.931   2.843
 8973SOL    HW227819   2.756   1.962   2.946
 8974SOL     OW27820   1.729   4.035   4.205
 8974SOL    HW127821   1.722   4.120   4.257
 8974SOL    HW227822   1.795   4.045   4.131
 8975SOL     OW27823   6.777   3.747   6.114
 8975SOL    HW127824   6.737   3.811   6.180
 8975SOL    HW227825   6.823   3.798   6.042
 8976SOL     OW27826   5.919   0.396   1.668
 8976SOL    HW127827   6.004   0.367   1.712
 8976SOL    HW227828   5.843   0.380   1.730
 8977SOL     OW27829   6.770   4.609   6.368
 8977SOL    HW127830   6.742   4.630   6.462
 8977SOL    HW227831   6.691   4.578   6.316
 8978SOL     OW27832   6.426   5.697   5.868
 8978SOL    HW127833   6.520   5.694   5.834
 8978SOL    HW227834   6.398   5.605   5.897
 8979SOL     OW27835   1.972   5.131   3.593
 8979SOL    HW127836   1.909   5.201   3.628
 8979SOL    HW227837   2.061   5.172   3.573
 8980SOL     OW27838   3.893   0.977   0.666
 8980SOL    HW127839   3.960   0.925   0.719
 8980SOL    HW227840   3.815   0.919   0.644
 8981SOL     OW27841   4.023   2.246   6.920
 8981SOL    HW127842   3.983   2.177   6.981
 8981SOL    HW227843   4.085   2.305   6.972
 8982SOL     OW27844   6.814   1.377   1.861
 8982SOL    HW127845   6.818   1.331   1.773
 8982SOL    HW227846   6.881   1.450   1.864
 8983SOL     OW27847   1.564   6.995   2.415
 8983SOL    HW127848   1.552   6.936   2.495
 8983SOL    HW227849   1.619   6.947   2.347
 8984SOL     OW27850   6.845   2.135   4.507
 8984SOL    HW127851   6.911   2.182   4.448
 8984SOL    HW227852   6.883   2.047   4.536
 8985SOL     OW27853   4.337   1.205   1.884
 8985SOL    HW127854   4.410   1.166   1.829
 8985SOL    HW227855   4.367   1.293   1.922
 8986SOL     OW27856   6.887   6.013   0.354
 8986SOL    HW127857   6.792   5.989   0.376
 8986SOL    HW227858   6.898   6.112   0.359
 8987SOL     OW27859   2.210   6.294   2.077
 8987SOL    HW127860   2.304   6.261   2.072
 8987SOL    HW227861   2.176   6.313   1.984
 8988SOL     OW27862   2.512   0.209   1.307
 8988SOL    HW127863   2.435   0.267   1.279
 8988SOL    HW227864   2.571   0.194   1.228
 8989SOL     OW27865   5.973   1.173   2.513
 8989SOL    HW127866   5.873   1.178   2.505
 8989SOL    HW227867   6.010   1.120   2.436
 8990SOL     OW27868   3.369   1.238   3.149
 8990SOL    HW127869   3.283   1.285   3.128
 8990SOL    HW227870   3.403   1.194   3.066
 8991SOL     OW27871   1.380   2.384   0.517
 8991SOL    HW127872   1.292   2.336   0.509
 8991SOL    HW227873   1.452   2.318   0.540
 8992SOL     OW27874   6.644   4.406   6.201
 8992SOL    HW127875   6.598   4.319   6.220
 8992SOL    HW227876   6.596   4.453   6.127
 8993SOL     OW27877   5.211   3.936   3.757
 8993SOL    HW127878   5.215   3.977   3.665
 8993SOL    HW227879   5.303   3.912   3.787
 8994SOL     OW27880   1.214   6.468   2.820
 8994SOL    HW127881   1.123   6.470   2.779
 8994SOL    HW227882   1.215   6.521   2.904
 8995SOL     OW27883   2.110   3.948   3.742
 8995SOL    HW127884   2.072   3.897   3.819
 8995SOL    HW227885   2.144   4.037   3.774
 8996SOL     OW27886   2.294   3.599   1.013
 8996SOL    HW127887   2.329   3.681   0.967
 8996SOL    HW227888   2.371   3.542   1.042
 8997SOL     OW27889   4.711   0.821   5.169
 8997SOL    HW127890   4.796   0.769   5.174
 8997SOL    HW227891   4.728   0.910   5.126
 8998SOL     OW27892   1.022   1.551   6.622
 8998SOL    HW127893   1.083   1.625   6.651
 8998SOL    HW227894   1.049   1.467   6.668
 8999SOL     OW27895   5.275   2.848   5.735
 8999SOL    HW127896   5.232   2.930   5.698
 8999SOL    HW227897   5.258   2.771   5.672
 9000SOL     OW27898   3.635   4.898   1.338
 9000SOL    HW127899   3.652   4.842   1.419
 9000SOL    HW227900   3.613   4.839   1.260
 9001SOL     OW27901   1.665   4.465   3.172
 9001SOL    HW127902   1.654   4.551   3.122
 9001SOL    HW227903   1.761   4.452   3.197
 9002SOL     OW27904   5.422   3.607   5.428
 9002SOL    HW127905   5.416   3.651   5.339
 9002SOL    HW227906   5.363   3.527   5.430
 9003SOL     OW27907   6.618   3.363   6.760
 9003SOL    HW127908   6.619   3.345   6.858
 9003SOL    HW227909   6.710   3.349   6.723
 9004SOL     OW27910   4.744   5.769   1.155
 9004SOL    HW127911   4.767   5.676   1.185
 9004SOL    HW227912   4.712   5.766   1.060
 9005SOL     OW27913   5.171   2.898   3.783
 9005SOL    HW127914   5.228   2.967   3.827
 9005SOL    HW227915   5.158   2.923   3.687
 9006SOL     OW27916   1.991   6.862   1.034
 9006SOL    HW127917   1.920   6.813   1.083
 9006SOL    HW227918   2.081   6.825   1.059
 9007SOL     OW27919   1.946   6.010   5.232
 9007SOL    HW127920   1.945   6.107   5.207
 9007SOL    HW227921   1.872   5.991   5.296
 9008SOL     OW27922   0.433   4.570   2.250
 9008SOL    HW127923   0.422   4.480   2.207
 9008SOL    HW227924   0.404   4.641   2.187
 9009SOL     OW27925   3.799   5.627   0.089
 9009SOL    HW127926   3.729   5.662   0.151
 9009SOL    HW227927   3.889   5.655   0.121
 9010SOL     OW27928   6.960   5.613   4.671
 9010SOL    HW127929   6.964   5.639   4.768
 9010SOL    HW227930   0.019   5.640   4.626
 9011SOL     OW27931   4.491   2.456   2.451
 9011SOL    HW127932   4.477   2.366   2.492
 9011SOL    HW227933   4.574   2.497   2.489
 9012SOL     OW27934   5.748   5.110   2.753
 9012SOL    HW127935   5.846   5.091   2.756
 9012SOL    HW227936   5.733   5.199   2.710
 9013SOL     OW27937   4.513   6.189   2.746
 9013SOL    HW127938   4.457   6.238   2.680
 9013SOL    HW227939   4.550   6.253   2.814
 9014SOL     OW27940   2.043   0.349   1.521
 9014SOL    HW127941   2.010   0.255   1.523
 9014SOL    HW227942   2.016   0.396   1.605
 9015SOL     OW27943   5.813   1.487   5.048
 9015SOL    HW127944   5.791   1.390   5.065
 9015SOL    HW227945   5.759   1.519   4.970
 9016SOL     OW27946   0.003   5.823   6.643
 9016SOL    HW127947   0.031   5.744   6.589
 9016SOL    HW227948   0.054   5.904   6.614
 9017SOL     OW27949   0.154   3.230   3.031
 9017SOL    HW127950   0.165   3.134   3.003
 9017SOL    HW227951   0.142   3.287   2.950
 9018SOL     OW27952   4.546   1.886   6.317
 9018SOL    HW127953   4.601   1.941   6.380
 9018SOL    HW227954   4.452   1.884   6.349
 9019SOL     OW27955   1.804   5.412   0.214
 9019SOL    HW127956   1.735   5.405   0.143
 9019SOL    HW227957   1.814   5.323   0.260
 9020SOL     OW27958   0.879   5.010   3.824
 9020SOL    HW127959   0.854   4.945   3.752
 9020SOL    HW227960   0.978   5.021   3.826
 9021SOL     OW27961   5.592   5.264   5.418
 9021SOL    HW127962   5.647   5.320   5.480
 9021SOL    HW227963   5.519   5.220   5.469
 9022SOL     OW27964   2.777   6.759   6.885
 9022SOL    HW127965   2.694   6.800   6.923
 9022SOL    HW227966   2.755   6.716   6.797
 9023SOL     OW27967   3.201   2.932   3.798
 9023SOL    HW127968   3.227   2.940   3.701
 9023SOL    HW227969   3.211   2.837   3.827
 9024SOL     OW27970   1.108   0.408   6.717
 9024SOL    HW127971   1.149   0.361   6.638
 9024SOL    HW227972   1.010   0.388   6.719
 9025SOL     OW27973   0.300   3.439   0.033
 9025SOL    HW127974   0.311   3.502   6.982
 9025SOL    HW227975   0.368   3.459   0.103
 9026SOL     OW27976   2.804   3.385   5.654
 9026SOL    HW127977   2.863   3.465   5.643
 9026SOL    HW227978   2.860   3.302   5.655
 9027SOL     OW27979   2.128   2.672   2.489
 9027SOL    HW127980   2.075   2.682   2.405
 9027SOL    HW227981   2.222   2.648   2.467
 9028SOL     OW27982   2.589   4.574   4.218
 9028SOL    HW127983   2.671   4.593   4.164
 9028SOL    HW227984   2.614   4.519   4.298
 9029SOL     OW27985   5.952   5.447   2.513
 9029SOL    HW127986   5.911   5.361   2.480
 9029SOL    HW227987   5.940   5.518   2.443
 9030SOL     OW27988   3.761   2.090   2.259
 9030SOL    HW127989   3.764   2.153   2.181
 9030SOL    HW227990   3.666   2.075   2.286
 9031SOL     OW27991   1.982   1.345   1.209
 9031SOL    HW127992   2.065   1.401   1.203
 9031SOL    HW227993   1.942   1.355   1.300
 9032SOL     OW27994   0.463   2.757   1.859
 9032SOL    HW127995   0.529   2.745   1.932
 9032SOL    HW227996   0.386   2.812   1.892
 9033SOL     OW27997   1.247   3.833   2.403
 9033SOL    HW127998   1.290   3.805   2.489
 9033SOL    HW227999   1.233   3.932   2.404
 9034SOL     OW28000   1.992   6.712   6.654
 9034SOL    HW128001   1.955   6.734   6.564
 9034SOL    HW228002   1.924   6.732   6.724
 9035SOL     OW28003   6.869   1.240   4.831
 9035SOL    HW128004   6.948   1.290   4.795
 9035SOL    HW228005   6.786   1.270   4.782
 9036SOL     OW28006   0.926   1.011   4.415
 9036SOL    HW128007   0.888   0.943   4.478
 9036SOL    HW228008   0.853   1.072   4.384
 9037SOL     OW28009   2.670   3.819   5.837
 9037SOL    HW128010   2.757   3.771   5.843
 9037SOL    HW228011   2.641   3.826   5.742
 9038SOL     OW28012   4.404   5.316   5.610
 9038SOL    HW128013   4.385   5.248   5.539
 9038SOL    HW228014   4.420   5.405   5.567
 9039SOL     OW28015   2.495   4.517   6.722
 9039SOL    HW128016   2.434   4.542   6.647
 9039SOL    HW228017   2.529   4.424   6.709
 9040SOL     OW28018   2.446   1.980   1.931
 9040SOL    HW128019   2.529   2.003   1.880
 9040SOL    HW228020   2.397   1.906   1.884
 9041SOL     OW28021   1.730   2.939   5.839
 9041SOL    HW128022   1.649   2.955   5.782
 9041SOL    HW228023   1.811   2.972   5.793
 9042SOL     OW28024   1.629   5.509   3.113
 9042SOL    HW128025   1.674   5.499   3.024
 9042SOL    HW228026   1.564   5.434   3.126
 9043SOL     OW28027   0.138   2.330   6.980
 9043SOL    HW128028   0.235   2.318   6.959
 9043SOL    HW228029   0.128   2.401   0.024
 9044SOL     OW28030   0.256   4.030   0.055
 9044SOL    HW128031   0.304   3.996   6.999
 9044SOL    HW228032   0.238   3.953   0.117
 9045SOL     OW28033   2.478   4.808   4.294
 9045SOL    HW128034   2.524   4.847   4.214
 9045SOL    HW228035   2.502   4.711   4.302
 9046SOL     OW28036   3.669   4.643   6.116
 9046SOL    HW128037   3.769   4.639   6.120
 9046SOL    HW228038   3.640   4.690   6.033
 9047SOL     OW28039   1.132   4.453   4.511
 9047SOL    HW128040   1.105   4.409   4.596
 9047SOL    HW228041   1.058   4.446   4.445
 9048SOL     OW28042   1.771   1.912   5.418
 9048SOL    HW128043   1.804   1.860   5.339
 9048SOL    HW228044   1.752   1.849   5.494
 9049SOL     OW28045   5.010   6.311   6.088
 9049SOL    HW128046   4.959   6.397   6.080
 9049SOL    HW228047   5.102   6.324   6.053
 9050SOL     OW28048   6.995   5.515   5.858
 9050SOL    HW128049   0.057   5.515   5.905
 9050SOL    HW228050   6.990   5.439   5.794
 9051SOL     OW28051   5.559   6.811   6.331
 9051SOL    HW128052   5.492   6.754   6.285
 9051SOL    HW228053   5.628   6.841   6.266
 9052SOL     OW28054   2.842   4.867   4.890
 9052SOL    HW128055   2.754   4.896   4.851
 9052SOL    HW228056   2.834   4.774   4.926
 9053SOL     OW28057   2.693   1.468   2.402
 9053SOL    HW128058   2.665   1.480   2.497
 9053SOL    HW228059   2.792   1.483   2.394
 9054SOL     OW28060   1.976   6.766   1.402
 9054SOL    HW128061   1.997   6.864   1.401
 9054SOL    HW228062   2.061   6.714   1.398
 9055SOL     OW28063   1.102   2.343   4.451
 9055SOL    HW128064   1.154   2.360   4.367
 9055SOL    HW228065   1.048   2.425   4.474
 9056SOL     OW28066   4.698   2.737   2.005
 9056SOL    HW128067   4.737   2.827   2.023
 9056SOL    HW228068   4.690   2.722   1.906
 9057SOL     OW28069   3.768   6.464   0.008
 9057SOL    HW128070   3.711   6.464   0.090
 9057SOL    HW228071   3.778   6.558   7.001
 9058SOL     OW28072   2.336   2.175   4.610
 9058SOL    HW128073   2.287   2.246   4.660
 9058SOL    HW228074   2.357   2.099   4.672
 9059SOL     OW28075   0.118   1.450   2.092
 9059SOL    HW128076   0.054   1.396   2.147
 9059SOL    HW228077   0.191   1.484   2.151
 9060SOL     OW28078   0.022   5.075   1.185
 9060SOL    HW128079   0.040   5.031   1.273
 9060SOL    HW228080   0.108   5.092   1.138
 9061SOL     OW28081   4.816   3.920   2.324
 9061SOL    HW128082   4.897   3.891   2.373
 9061SOL    HW228083   4.783   3.846   2.265
 9062SOL     OW28084   1.201   5.912   2.867
 9062SOL    HW128085   1.258   5.946   2.942
 9062SOL    HW228086   1.108   5.947   2.878
 9063SOL     OW28087   4.622   0.980   1.141
 9063SOL    HW128088   4.682   0.919   1.194
 9063SOL    HW228089   4.614   1.068   1.188
 9064SOL     OW28090   1.320   5.472   3.368
 9064SOL    HW128091   1.312   5.424   3.455
 9064SOL    HW228092   1.371   5.557   3.381
 9065SOL     OW28093   3.765   4.293   6.760
 9065SOL    HW128094   3.687   4.235   6.784
 9065SOL    HW228095   3.756   4.382   6.805
 9066SOL     OW28096   4.776   4.735   3.880
 9066SOL    HW128097   4.726   4.657   3.843
 9066SOL    HW228098   4.719   4.783   3.946
 9067SOL     OW28099   2.170   6.721   4.417
 9067SOL    HW128100   2.167   6.710   4.516
 9067SOL    HW228101   2.253   6.770   4.391
 9068SOL     OW28102   4.649   6.722   6.009
 9068SOL    HW128103   4.574   6.736   6.074
 9068SOL    HW228104   4.650   6.797   5.943
 9069SOL     OW28105   5.142   2.494   2.257
 9069SOL    HW128106   5.206   2.493   2.180
 9069SOL    HW228107   5.170   2.427   2.325
 9070SOL     OW28108   1.557   0.757   6.000
 9070SOL    HW128109   1.654   0.751   6.022
 9070SOL    HW228110   1.514   0.667   6.012
 9071SOL     OW28111   5.049   2.464   6.817
 9071SOL    HW128112   5.067   2.434   6.910
 9071SOL    HW228113   5.012   2.557   6.819
 9072SOL     OW28114   5.994   6.981   2.222
 9072SOL    HW128115   5.988   0.044   2.176
 9072SOL    HW228116   6.079   6.936   2.195
 9073SOL     OW28117   4.401   3.288   5.377
 9073SOL    HW128118   4.374   3.359   5.311
 9073SOL    HW228119   4.471   3.229   5.337
 9074SOL     OW28120   1.881   0.717   3.087
 9074SOL    HW128121   1.865   0.671   3.174
 9074SOL    HW228122   1.796   0.723   3.035
 9075SOL     OW28123   4.999   5.711   0.532
 9075SOL    HW128124   5.040   5.643   0.593
 9075SOL    HW228125   4.914   5.675   0.495
 9076SOL     OW28126   0.725   6.220   2.546
 9076SOL    HW128127   0.755   6.263   2.632
 9076SOL    HW228128   0.628   6.196   2.552
 9077SOL     OW28129   6.319   2.055   6.554
 9077SOL    HW128130   6.382   2.118   6.510
 9077SOL    HW228131   6.370   1.987   6.606
 9078SOL     OW28132   5.232   6.905   0.455
 9078SOL    HW128133   5.262   6.959   0.377
 9078SOL    HW228134   5.312   6.874   0.507
 9079SOL     OW28135   1.373   1.190   5.887
 9079SOL    HW128136   1.276   1.196   5.909
 9079SOL    HW228137   1.405   1.277   5.850
 9080SOL     OW28138   6.319   4.187   2.431
 9080SOL    HW128139   6.352   4.147   2.346
 9080SOL    HW228140   6.342   4.127   2.507
 9081SOL     OW28141   5.161   1.535   0.749
 9081SOL    HW128142   5.155   1.440   0.782
 9081SOL    HW228143   5.107   1.594   0.808
 9082SOL     OW28144   3.420   4.966   6.733
 9082SOL    HW128145   3.371   5.014   6.660
 9082SOL    HW228146   3.404   4.868   6.724
 9083SOL     OW28147   3.419   0.219   0.668
 9083SOL    HW128148   3.345   0.227   0.601
 9083SOL    HW228149   3.485   0.293   0.653
 9084SOL     OW28150   0.011   3.911   4.989
 9084SOL    HW128151   0.042   3.830   4.940
 9084SOL    HW228152   0.090   3.970   5.008
 9085SOL     OW28153   2.856   4.896   0.627
 9085SOL    HW128154   2.864   4.944   0.715
 9085SOL    HW228155   2.828   4.802   0.644
 9086SOL     OW28156   0.193   3.058   0.466
 9086SOL    HW128157   0.212   3.147   0.507
 9086SOL    HW228158   0.158   2.996   0.536
 9087SOL     OW28159   5.164   1.897   1.807
 9087SOL    HW128160   5.066   1.886   1.791
 9087SOL    HW228161   5.203   1.811   1.839
 9088SOL     OW28162   6.193   5.528   0.158
 9088SOL    HW128163   6.093   5.524   0.166
 9088SOL    HW228164   6.220   5.615   0.118
 9089SOL     OW28165   5.223   5.371   3.723
 9089SOL    HW128166   5.147   5.326   3.676
 9089SOL    HW228167   5.214   5.470   3.714
 9090SOL     OW28168   5.059   5.912   6.148
 9090SOL    HW128169   4.968   5.950   6.160
 9090SOL    HW228170   5.120   5.949   6.218
 9091SOL     OW28171   2.826   2.174   1.766
 9091SOL    HW128172   2.859   2.219   1.849
 9091SOL    HW228173   2.795   2.082   1.788
 9092SOL     OW28174   2.180   1.435   5.136
 9092SOL    HW128175   2.211   1.516   5.185
 9092SOL    HW228176   2.082   1.442   5.118
 9093SOL     OW28177   2.093   3.510   0.805
 9093SOL    HW128178   2.190   3.491   0.788
 9093SOL    HW228179   2.083   3.547   0.898
 9094SOL     OW28180   6.162   3.690   0.835
 9094SOL    HW128181   6.202   3.654   0.750
 9094SOL    HW228182   6.231   3.690   0.907
 9095SOL     OW28183   2.271   3.007   0.214
 9095SOL    HW128184   2.358   2.978   0.253
 9095SOL    HW228185   2.250   2.953   0.132
 9096SOL     OW28186   6.273   3.576   3.220
 9096SOL    HW128187   6.354   3.621   3.183
 9096SOL    HW228188   6.194   3.637   3.212
 9097SOL     OW28189   6.270   5.958   5.765
 9097SOL    HW128190   6.172   5.960   5.781
 9097SOL    HW228191   6.289   5.981   5.670
 9098SOL     OW28192   3.375   4.180   4.652
 9098SOL    HW128193   3.295   4.122   4.669
 9098SOL    HW228194   3.379   4.202   4.554
 9099SOL     OW28195   1.863   2.152   0.126
 9099SOL    HW128196   1.810   2.224   0.171
 9099SOL    HW228197   1.850   2.066   0.174
 9100SOL     OW28198   1.509   2.903   6.949
 9100SOL    HW128199   1.538   2.856   6.866
 9100SOL    HW228200   1.450   2.980   6.926
 9101SOL     OW28201   2.172   1.909   6.824
 9101SOL    HW128202   2.137   1.941   6.912
 9101SOL    HW228203   2.201   1.987   6.769
 9102SOL     OW28204   5.312   6.225   2.686
 9102SOL    HW128205   5.278   6.262   2.599
 9102SOL    HW228206   5.258   6.262   2.761
 9103SOL     OW28207   0.597   4.999   6.207
 9103SOL    HW128208   0.574   4.903   6.225
 9103SOL    HW228209   0.696   5.011   6.215
 9104SOL     OW28210   5.210   0.049   2.747
 9104SOL    HW128211   5.193   6.977   2.741
 9104SOL    HW228212   5.208   0.089   2.656
 9105SOL     OW28213   2.787   1.034   5.575
 9105SOL    HW128214   2.740   1.047   5.662
 9105SOL    HW228215   2.849   0.956   5.581
 9106SOL     OW28216   6.373   4.760   1.795
 9106SOL    HW128217   6.290   4.804   1.761
 9106SOL    HW228218   6.348   4.687   1.859
 9107SOL     OW28219   4.629   0.187   0.324
 9107SOL    HW128220   4.616   0.286   0.312
 9107SOL    HW228221   4.678   0.170   0.409
 9108SOL     OW28222   4.027   5.978   6.953
 9108SOL    HW128223   3.977   6.063   6.937
 9108SOL    HW228224   4.124   5.992   6.936
 9109SOL     OW28225   3.221   1.099   4.873
 9109SOL    HW128226   3.169   1.017   4.850
 9109SOL    HW228227   3.301   1.105   4.815
 9110SOL     OW28228   1.497   2.761   2.995
 9110SOL    HW128229   1.478   2.771   3.092
 9110SOL    HW228230   1.470   2.844   2.947
 9111SOL     OW28231   4.237   4.076   1.743
 9111SOL    HW128232   4.277   3.985   1.756
 9111SOL    HW228233   4.302   4.145   1.773
 9112SOL     OW28234   0.870   5.118   1.846
 9112SOL    HW128235   0.883   5.040   1.785
 9112SOL    HW228236   0.884   5.203   1.796
 9113SOL     OW28237   3.152   6.010   0.157
 9113SOL    HW128238   3.076   6.056   0.203
 9113SOL    HW228239   3.237   6.060   0.176
 9114SOL     OW28240   2.744   4.060   1.529
 9114SOL    HW128241   2.684   4.059   1.610
 9114SOL    HW228242   2.728   4.143   1.477
 9115SOL     OW28243   1.730   4.420   3.977
 9115SOL    HW128244   1.706   4.412   3.880
 9115SOL    HW228245   1.829   4.430   3.987
 9116SOL     OW28246   2.339   1.459   5.644
 9116SOL    HW128247   2.367   1.543   5.598
 9116SOL    HW228248   2.375   1.460   5.738
 9117SOL     OW28249   6.908   3.070   6.481
 9117SOL    HW128250   6.830   3.059   6.543
 9117SOL    HW228251   6.926   2.984   6.434
 9118SOL     OW28252   7.001   5.467   1.240
 9118SOL    HW128253   0.031   5.385   1.225
 9118SOL    HW228254   0.032   5.548   1.227
 9119SOL     OW28255   6.022   0.011   0.896
 9119SOL    HW128256   6.096   0.029   0.831
 9119SOL    HW228257   5.937   0.050   0.861
 9120SOL     OW28258   5.883   1.141   6.356
 9120SOL    HW128259   5.819   1.213   6.328
 9120SOL    HW228260   5.964   1.182   6.397
 9121SOL     OW28261   1.508   1.215   6.845
 9121SOL    HW128262   1.516   1.170   6.934
 9121SOL    HW228263   1.413   1.213   6.815
 9122SOL     OW28264   0.560   2.570   0.810
 9122SOL    HW128265   0.502   2.650   0.824
 9122SOL    HW228266   0.521   2.491   0.857
 9123SOL     OW28267   2.809   6.127   6.948
 9123SOL    HW128268   2.709   6.134   6.956
 9123SOL    HW228269   2.852   6.207   6.989
 9124SOL     OW28270   6.118   4.434   5.695
 9124SOL    HW128271   6.057   4.494   5.748
 9124SOL    HW228272   6.193   4.488   5.657
 9125SOL     OW28273   4.867   6.161   2.005
 9125SOL    HW128274   4.921   6.079   2.028
 9125SOL    HW228275   4.912   6.242   2.042
 9126SOL     OW28276   5.853   0.452   2.355
 9126SOL    HW128277   5.832   0.543   2.392
 9126SOL    HW228278   5.950   0.447   2.333
 9127SOL     OW28279   5.315   6.597   6.800
 9127SOL    HW128280   5.311   6.695   6.820
 9127SOL    HW228281   5.374   6.582   6.721
 9128SOL     OW28282   5.132   2.734   4.968
 9128SOL    HW128283   5.064   2.704   4.900
 9128SOL    HW228284   5.215   2.680   4.959
 9129SOL     OW28285   2.086   1.612   6.459
 9129SOL    HW128286   2.185   1.610   6.446
 9129SOL    HW228287   2.043   1.652   6.378
 9130SOL     OW28288   6.040   5.565   0.915
 9130SOL    HW128289   6.110   5.495   0.932
 9130SOL    HW228290   6.084   5.648   0.880
 9131SOL     OW28291   0.354   4.500   4.072
 9131SOL    HW128292   0.261   4.478   4.040
 9131SOL    HW228293   0.353   4.510   4.172
 9132SOL     OW28294   1.587   3.080   4.448
 9132SOL    HW128295   1.546   2.996   4.485
 9132SOL    HW228296   1.606   3.143   4.524
 9133SOL     OW28297   1.770   4.757   0.920
 9133SOL    HW128298   1.765   4.658   0.907
 9133SOL    HW228299   1.696   4.801   0.868
 9134SOL     OW28300   2.682   4.865   6.211
 9134SOL    HW128301   2.683   4.829   6.304
 9134SOL    HW228302   2.763   4.832   6.161
 9135SOL     OW28303   0.407   5.900   4.246
 9135SOL    HW128304   0.505   5.900   4.229
 9135SOL    HW228305   0.364   5.824   4.197
 9136SOL     OW28306   4.459   5.317   6.183
 9136SOL    HW128307   4.380   5.291   6.128
 9136SOL    HW228308   4.508   5.234   6.212
 9137SOL     OW28309   4.210   1.142   2.584
 9137SOL    HW128310   4.187   1.189   2.499
 9137SOL    HW228311   4.181   1.046   2.578
 9138SOL     OW28312   3.634   4.701   1.124
 9138SOL    HW128313   3.694   4.659   1.056
 9138SOL    HW228314   3.586   4.777   1.083
 9139SOL     OW28315   3.526   0.978   5.383
 9139SOL    HW128316   3.554   0.984   5.287
 9139SOL    HW228317   3.555   1.061   5.431
 9140SOL     OW28318   0.087   2.394   3.304
 9140SOL    HW128319   7.017   2.374   3.325
 9140SOL    HW228320   0.146   2.334   3.359
 9141SOL     OW28321   5.672   0.740   5.722
 9141SOL    HW128322   5.670   0.837   5.698
 9141SOL    HW228323   5.630   0.727   5.812
 9142SOL     OW28324   1.009   4.008   6.183
 9142SOL    HW128325   0.978   3.934   6.242
 9142SOL    HW228326   1.086   3.977   6.128
 9143SOL     OW28327   5.323   4.356   1.121
 9143SOL    HW128328   5.320   4.376   1.219
 9143SOL    HW228329   5.256   4.413   1.073
 9144SOL     OW28330   1.579   4.749   5.125
 9144SOL    HW128331   1.609   4.654   5.122
 9144SOL    HW228332   1.516   4.762   5.202
 9145SOL     OW28333   0.373   3.871   6.635
 9145SOL    HW128334   0.432   3.911   6.566
 9145SOL    HW228335   0.304   3.813   6.591
 9146SOL     OW28336   6.976   1.684   1.581
 9146SOL    HW128337   6.969   1.649   1.674
 9146SOL    HW228338   0.016   1.759   1.577
 9147SOL     OW28339   4.162   6.261   6.223
 9147SOL    HW128340   4.116   6.229   6.141
 9147SOL    HW228341   4.260   6.243   6.217
 9148SOL     OW28342   4.038   5.890   3.221
 9148SOL    HW128343   4.041   5.960   3.150
 9148SOL    HW228344   4.080   5.927   3.305
 9149SOL     OW28345   5.873   3.225   3.717
 9149SOL    HW128346   5.797   3.164   3.741
 9149SOL    HW228347   5.954   3.170   3.695
 9150SOL     OW28348   4.327   1.378   3.440
 9150SOL    HW128349   4.354   1.331   3.356
 9150SOL    HW228350   4.351   1.475   3.433
 9151SOL     OW28351   1.493   3.599   2.422
 9151SOL    HW128352   1.420   3.543   2.384
 9151SOL    HW228353   1.568   3.605   2.356
 9152SOL     OW28354   2.460   5.830   2.597
 9152SOL    HW128355   2.527   5.755   2.593
 9152SOL    HW228356   2.379   5.799   2.648
 9153SOL     OW28357   1.369   3.254   6.013
 9153SOL    HW128358   1.301   3.189   5.979
 9153SOL    HW228359   1.356   3.267   6.111
 9154SOL     OW28360   2.014   5.909   0.703
 9154SOL    HW128361   1.951   5.839   0.737
 9154SOL    HW228362   2.101   5.903   0.753
 9155SOL     OW28363   1.603   4.216   0.314
 9155SOL    HW128364   1.534   4.277   0.353
 9155SOL    HW228365   1.558   4.132   0.282
 9156SOL     OW28366   5.461   2.702   1.924
 9156SOL    HW128367   5.424   2.788   1.959
 9156SOL    HW228368   5.440   2.695   1.826
 9157SOL     OW28369   5.088   3.738   5.670
 9157SOL    HW128370   5.019   3.753   5.742
 9157SOL    HW228371   5.151   3.816   5.668
 9158SOL     OW28372   0.723   3.709   3.302
 9158SOL    HW128373   0.719   3.684   3.399
 9158SOL    HW228374   0.812   3.681   3.265
 9159SOL     OW28375   0.205   4.091   3.091
 9159SOL    HW128376   0.302   4.109   3.107
 9159SOL    HW228377   0.180   4.004   3.133
 9160SOL     OW28378   6.750   6.918   0.117
 9160SOL    HW128379   6.744   6.887   0.212
 9160SOL    HW228380   6.668   6.971   0.094
 9161SOL     OW28381   5.416   3.672   4.091
 9161SOL    HW128382   5.350   3.742   4.118
 9161SOL    HW228383   5.377   3.615   4.018
 9162SOL     OW28384   5.215   1.890   2.267
 9162SOL    HW128385   5.148   1.949   2.222
 9162SOL    HW228386   5.260   1.833   2.199
 9163SOL     OW28387   3.430   1.735   3.850
 9163SOL    HW128388   3.405   1.731   3.754
 9163SOL    HW228389   3.519   1.780   3.859
 9164SOL     OW28390   2.866   0.128   0.397
 9164SOL    HW128391   2.953   0.134   0.349
 9164SOL    HW228392   2.871   0.058   0.469
 9165SOL     OW28393   5.370   6.550   0.274
 9165SOL    HW128394   5.404   6.458   0.251
 9165SOL    HW228395   5.272   6.545   0.293
 9166SOL     OW28396   3.106   5.495   1.669
 9166SOL    HW128397   3.164   5.565   1.628
 9166SOL    HW228398   3.096   5.419   1.605
 9167SOL     OW28399   0.942   4.072   4.539
 9167SOL    HW128400   0.974   4.080   4.444
 9167SOL    HW228401   0.967   3.981   4.574
 9168SOL     OW28402   2.336   0.213   6.397
 9168SOL    HW128403   2.243   0.223   6.431
 9168SOL    HW228404   2.394   0.282   6.440
 9169SOL     OW28405   6.672   6.415   3.285
 9169SOL    HW128406   6.633   6.470   3.359
 9169SOL    HW228407   6.679   6.320   3.314
 9170SOL     OW28408   6.491   6.118   6.627
 9170SOL    HW128409   6.482   6.041   6.690
 9170SOL    HW228410   6.569   6.174   6.653
 9171SOL     OW28411   2.551   5.871   6.191
 9171SOL    HW128412   2.546   5.793   6.129
 9171SOL    HW228413   2.481   5.938   6.166
 9172SOL     OW28414   2.795   1.989   4.128
 9172SOL    HW128415   2.808   1.988   4.029
 9172SOL    HW228416   2.706   1.951   4.151
 9173SOL     OW28417   0.441   4.973   4.946
 9173SOL    HW128418   0.395   4.995   5.032
 9173SOL    HW228419   0.527   4.925   4.966
 9174SOL     OW28420   0.239   5.034   0.273
 9174SOL    HW128421   0.159   5.025   0.333
 9174SOL    HW228422   0.322   5.037   0.328
 9175SOL     OW28423   1.357   0.067   5.107
 9175SOL    HW128424   1.324   0.133   5.175
 9175SOL    HW228425   1.444   0.098   5.069
 9176SOL     OW28426   1.863   0.944   5.602
 9176SOL    HW128427   1.796   0.888   5.552
 9176SOL    HW228428   1.858   0.921   5.700
 9177SOL     OW28429   1.125   4.964   3.550
 9177SOL    HW128430   1.038   4.922   3.576
 9177SOL    HW228431   1.147   5.037   3.615
 9178SOL     OW28432   2.343   4.634   0.763
 9178SOL    HW128433   2.395   4.579   0.697
 9178SOL    HW228434   2.396   4.714   0.789
 9179SOL     OW28435   3.069   4.948   4.727
 9179SOL    HW128436   3.008   4.904   4.792
 9179SOL    HW228437   3.162   4.950   4.764
 9180SOL     OW28438   4.988   1.980   3.070
 9180SOL    HW128439   5.019   2.075   3.062
 9180SOL    HW228440   5.063   1.918   3.047
 9181SOL     OW28441   4.061   1.284   2.381
 9181SOL    HW128442   4.046   1.383   2.373
 9181SOL    HW228443   4.026   1.238   2.300
 9182SOL     OW28444   1.496   0.013   1.570
 9182SOL    HW128445   1.445   0.007   1.483
 9182SOL    HW228446   1.561   6.963   1.575
 9183SOL     OW28447   5.262   5.820   6.893
 9183SOL    HW128448   5.241   5.745   6.830
 9183SOL    HW228449   5.194   5.823   6.966
 9184SOL     OW28450   4.743   6.848   0.316
 9184SOL    HW128451   4.728   6.941   0.349
 9184SOL    HW228452   4.717   6.782   0.386
 9185SOL     OW28453   4.016   1.338   5.282
 9185SOL    HW128454   3.999   1.335   5.184
 9185SOL    HW228455   4.030   1.245   5.316
 9186SOL     OW28456   5.549   0.038   6.446
 9186SOL    HW128457   5.545   6.971   6.410
 9186SOL    HW228458   5.511   0.040   6.538
 9187SOL     OW28459   2.526   6.277   2.237
 9187SOL    HW128460   2.463   6.260   2.313
 9187SOL    HW228461   2.620   6.256   2.266
 9188SOL     OW28462   2.439   5.998   1.364
 9188SOL    HW128463   2.532   5.963   1.358
 9188SOL    HW228464   2.375   5.928   1.332
 9189SOL     OW28465   5.574   5.047   1.951
 9189SOL    HW128466   5.663   5.058   1.996
 9189SOL    HW228467   5.524   4.973   1.996
 9190SOL     OW28468   1.693   5.084   0.632
 9190SOL    HW128469   1.641   5.153   0.682
 9190SOL    HW228470   1.789   5.088   0.658
 9191SOL     OW28471   6.935   0.679   6.192
 9191SOL    HW128472   6.922   0.777   6.207
 9191SOL    HW228473   6.862   0.628   6.237
 9192SOL     OW28474   6.965   3.784   3.874
 9192SOL    HW128475   6.984   3.874   3.836
 9192SOL    HW228476   7.020   3.715   3.825
 9193SOL     OW28477   3.202   3.216   6.935
 9193SOL    HW128478   3.196   3.304   6.888
 9193SOL    HW228479   3.283   3.167   6.902
 9194SOL     OW28480   3.629   0.266   4.272
 9194SOL    HW128481   3.717   0.254   4.227
 9194SOL    HW228482   3.638   0.336   4.344
 9195SOL     OW28483   1.437   1.649   3.432
 9195SOL    HW128484   1.516   1.700   3.465
 9195SOL    HW228485   1.373   1.635   3.507
 9196SOL     OW28486   4.947   2.277   5.507
 9196SOL    HW128487   4.974   2.182   5.525
 9196SOL    HW228488   4.847   2.283   5.504
 9197SOL     OW28489   2.460   3.700   1.323
 9197SOL    HW128490   2.371   3.745   1.318
 9197SOL    HW228491   2.511   3.717   1.239
 9198SOL     OW28492   0.300   5.117   4.205
 9198SOL    HW128493   0.382   5.152   4.251
 9198SOL    HW228494   0.327   5.062   4.127
 9199SOL     OW28495   6.308   4.898   4.968
 9199SOL    HW128496   6.273   4.891   5.061
 9199SOL    HW228497   6.232   4.908   4.904
 9200SOL     OW28498   2.652   0.270   0.318
 9200SOL    HW128499   2.569   0.225   0.351
 9200SOL    HW228500   2.731   0.213   0.341
 9201SOL     OW28501   1.783   4.176   0.578
 9201SOL    HW128502   1.833   4.091   0.561
 9201SOL    HW228503   1.694   4.171   0.532
 9202SOL     OW28504   2.309   0.383   3.773
 9202SOL    HW128505   2.283   0.408   3.866
 9202SOL    HW228506   2.249   0.429   3.708
 9203SOL     OW28507   6.923   0.224   0.683
 9203SOL    HW128508   6.886   0.272   0.604
 9203SOL    HW228509   6.850   0.205   0.748
 9204SOL     OW28510   5.051   0.455   5.424
 9204SOL    HW128511   5.045   0.373   5.366
 9204SOL    HW228512   4.960   0.482   5.453
 9205SOL     OW28513   0.168   4.310   1.640
 9205SOL    HW128514   0.078   4.294   1.680
 9205SOL    HW228515   0.238   4.303   1.711
 9206SOL     OW28516   3.372   6.040   0.623
 9206SOL    HW128517   3.287   6.086   0.599
 9206SOL    HW228518   3.352   5.948   0.657
 9207SOL     OW28519   5.228   5.449   6.481
 9207SOL    HW128520   5.200   5.384   6.411
 9207SOL    HW228521   5.281   5.523   6.439
 9208SOL     OW28522   1.592   3.613   3.034
 9208SOL    HW128523   1.612   3.545   2.963
 9208SOL    HW228524   1.676   3.638   3.081
 9209SOL     OW28525   3.069   0.378   6.307
 9209SOL    HW128526   3.083   0.322   6.226
 9209SOL    HW228527   2.974   0.369   6.337
 9210SOL     OW28528   6.928   0.224   3.632
 9210SOL    HW128529   6.965   0.264   3.549
 9210SOL    HW228530   6.897   0.131   3.614
 9211SOL     OW28531   0.846   1.758   2.430
 9211SOL    HW128532   0.862   1.844   2.381
 9211SOL    HW228533   0.831   1.685   2.364
 9212SOL     OW28534   3.173   5.072   4.331
 9212SOL    HW128535   3.090   5.115   4.295
 9212SOL    HW228536   3.231   5.141   4.374
 9213SOL     OW28537   6.128   4.576   6.573
 9213SOL    HW128538   6.110   4.501   6.638
 9213SOL    HW228539   6.066   4.652   6.593
 9214SOL     OW28540   0.533   4.593   0.840
 9214SOL    HW128541   0.503   4.529   0.769
 9214SOL    HW228542   0.452   4.632   0.885
 9215SOL     OW28543   1.063   1.001   0.948
 9215SOL    HW128544   1.034   0.910   0.918
 9215SOL    HW228545   1.148   0.993   1.000
 9216SOL     OW28546   1.936   6.839   3.173
 9216SOL    HW128547   2.019   6.871   3.219
 9216SOL    HW228548   1.857   6.852   3.233
 9217SOL     OW28549   0.987   2.334   0.034
 9217SOL    HW128550   1.051   2.328   6.983
 9217SOL    HW228551   0.908   2.389   0.007
 9218SOL     OW28552   2.658   0.802   0.591
 9218SOL    HW128553   2.594   0.823   0.665
 9218SOL    HW228554   2.608   0.768   0.511
 9219SOL     OW28555   0.237   1.923   0.610
 9219SOL    HW128556   0.214   1.941   0.706
 9219SOL    HW228557   0.333   1.899   0.603
 9220SOL     OW28558   2.813   6.393   1.922
 9220SOL    HW128559   2.798   6.482   1.965
 9220SOL    HW228560   2.904   6.391   1.880
 9221SOL     OW28561   2.811   5.426   4.480
 9221SOL    HW128562   2.770   5.399   4.567
 9221SOL    HW228563   2.759   5.502   4.441
 9222SOL     OW28564   2.723   2.163   5.939
 9222SOL    HW128565   2.815   2.203   5.932
 9222SOL    HW228566   2.686   2.149   5.847
 9223SOL     OW28567   2.826   3.102   5.224
 9223SOL    HW128568   2.810   3.181   5.284
 9223SOL    HW228569   2.742   3.048   5.217
 9224SOL     OW28570   2.261   5.054   4.900
 9224SOL    HW128571   2.269   5.125   4.831
 9224SOL    HW228572   2.164   5.038   4.921
 9225SOL     OW28573   2.179   6.604   0.079
 9225SOL    HW128574   2.269   6.570   0.108
 9225SOL    HW228575   2.167   6.586   7.007
 9226SOL     OW28576   3.634   6.563   1.188
 9226SOL    HW128577   3.567   6.497   1.153
 9226SOL    HW228578   3.722   6.548   1.145
 9227SOL     OW28579   1.616   5.910   1.992
 9227SOL    HW128580   1.586   6.005   1.993
 9227SOL    HW228581   1.539   5.850   1.968
 9228SOL     OW28582   0.746   0.096   6.741
 9228SOL    HW128583   0.738   0.095   6.841
 9228SOL    HW228584   0.832   0.052   6.714
 9229SOL     OW28585   0.522   5.932   5.655
 9229SOL    HW128586   0.486   5.850   5.700
 9229SOL    HW228587   0.619   5.941   5.676
 9230SOL     OW28588   5.717   0.492   4.264
 9230SOL    HW128589   5.644   0.433   4.298
 9230SOL    HW228590   5.677   0.565   4.208
 9231SOL     OW28591   1.854   2.999   3.170
 9231SOL    HW128592   1.774   3.054   3.194
 9231SOL    HW228593   1.932   3.060   3.154
 9232SOL     OW28594   4.155   4.653   1.434
 9232SOL    HW128595   4.246   4.621   1.407
 9232SOL    HW228596   4.087   4.613   1.373
 9233SOL     OW28597   4.770   4.850   1.016
 9233SOL    HW128598   4.784   4.760   1.059
 9233SOL    HW228599   4.824   4.919   1.065
 9234SOL     OW28600   2.539   5.935   3.593
 9234SOL    HW128601   2.630   5.894   3.585
 9234SOL    HW228602   2.547   6.033   3.611
 9235SOL     OW28603   0.690   2.049   3.353
 9235SOL    HW128604   0.745   2.078   3.274
 9235SOL    HW228605   0.664   2.129   3.406
 9236SOL     OW28606   3.455   2.812   5.829
 9236SOL    HW128607   3.483   2.728   5.781
 9236SOL    HW228608   3.450   2.794   5.927
 9237SOL     OW28609   1.629   3.316   4.037
 9237SOL    HW128610   1.617   3.302   3.938
 9237SOL    HW228611   1.626   3.413   4.058
 9238SOL     OW28612   4.360   3.337   6.551
 9238SOL    HW128613   4.305   3.307   6.629
 9238SOL    HW228614   4.437   3.392   6.583
 9239SOL     OW28615   1.801   4.015   0.213
 9239SOL    HW128616   1.901   4.019   0.224
 9239SOL    HW228617   1.768   4.103   0.178
 9240SOL     OW28618   4.415   0.782   2.553
 9240SOL    HW128619   4.447   0.713   2.488
 9240SOL    HW228620   4.434   0.873   2.517
 9241SOL     OW28621   0.485   6.020   6.926
 9241SOL    HW128622   0.572   6.039   6.881
 9241SOL    HW228623   0.478   5.922   6.945
 9242SOL     OW28624   6.432   6.091   1.705
 9242SOL    HW128625   6.398   6.033   1.780
 9242SOL    HW228626   6.361   6.156   1.679
 9243SOL     OW28627   6.524   6.500   4.509
 9243SOL    HW128628   6.582   6.580   4.492
 9243SOL    HW228629   6.429   6.521   4.487
 9244SOL     OW28630   3.081   5.184   6.806
 9244SOL    HW128631   3.121   5.156   6.892
 9244SOL    HW228632   3.023   5.265   6.820
 9245SOL     OW28633   0.700   6.000   1.164
 9245SOL    HW128634   0.693   5.918   1.221
 9245SOL    HW228635   0.769   6.061   1.203
 9246SOL     OW28636   0.115   4.698   4.422
 9246SOL    HW128637   0.094   4.601   4.410
 9246SOL    HW228638   0.133   4.739   4.333
 9247SOL     OW28639   1.616   6.557   2.151
 9247SOL    HW128640   1.580   6.577   2.060
 9247SOL    HW228641   1.715   6.542   2.145
 9248SOL     OW28642   3.243   1.617   6.421
 9248SOL    HW128643   3.170   1.575   6.474
 9248SOL    HW228644   3.212   1.629   6.326
 9249SOL     OW28645   4.789   6.734   3.437
 9249SOL    HW128646   4.732   6.814   3.419
 9249SOL    HW228647   4.749   6.654   3.392
 9250SOL     OW28648   5.391   3.449   3.928
 9250SOL    HW128649   5.406   3.482   3.834
 9250SOL    HW228650   5.465   3.386   3.953
 9251SOL     OW28651   3.363   1.599   2.571
 9251SOL    HW128652   3.297   1.532   2.537
 9251SOL    HW228653   3.450   1.553   2.591
 9252SOL     OW28654   1.629   6.882   4.414
 9252SOL    HW128655   1.613   6.808   4.478
 9252SOL    HW228656   1.726   6.886   4.391
 9253SOL     OW28657   0.933   0.170   5.661
 9253SOL    HW128658   1.030   0.149   5.678
 9253SOL    HW228659   0.914   0.162   5.563
 9254SOL     OW28660   5.582   3.652   1.587
 9254SOL    HW128661   5.528   3.572   1.561
 9254SOL    HW228662   5.679   3.635   1.566
 9255SOL     OW28663   0.063   4.421   0.412
 9255SOL    HW128664   0.039   4.400   0.317
 9255SOL    HW228665   0.032   4.346   0.471
 9256SOL     OW28666   4.286   4.944   1.717
 9256SOL    HW128667   4.333   4.859   1.741
 9256SOL    HW228668   4.233   4.976   1.795
 9257SOL     OW28669   0.869   3.896   1.253
 9257SOL    HW128670   0.952   3.852   1.218
 9257SOL    HW228671   0.892   3.987   1.287
 9258SOL     OW28672   3.949   3.956   3.678
 9258SOL    HW128673   4.019   3.885   3.684
 9258SOL    HW228674   3.907   3.969   3.768
 9259SOL     OW28675   1.197   2.960   6.989
 9259SOL    HW128676   1.267   2.912   0.016
 9259SOL    HW228677   1.118   2.901   6.976
 9260SOL     OW28678   5.496   3.537   6.742
 9260SOL    HW128679   5.574   3.597   6.727
 9260SOL    HW228680   5.500   3.460   6.678
 9261SOL     OW28681   4.400   0.122   0.178
 9261SOL    HW128682   4.321   0.079   0.222
 9261SOL    HW228683   4.475   0.129   0.244
 9262SOL     OW28684   4.840   1.056   5.413
 9262SOL    HW128685   4.746   1.067   5.381
 9262SOL    HW228686   4.840   1.053   5.513
 9263SOL     OW28687   5.563   3.979   2.042
 9263SOL    HW128688   5.531   3.992   1.948
 9263SOL    HW228689   5.619   4.057   2.069
 9264SOL     OW28690   6.431   3.222   0.217
 9264SOL    HW128691   6.387   3.133   0.230
 9264SOL    HW228692   6.366   3.295   0.237
 9265SOL     OW28693   1.885   1.075   5.347
 9265SOL    HW128694   1.906   1.037   5.438
 9265SOL    HW228695   1.948   1.150   5.327
 9266SOL     OW28696   1.666   6.243   2.370
 9266SOL    HW128697   1.735   6.315   2.369
 9266SOL    HW228698   1.695   6.169   2.431
 9267SOL     OW28699   2.555   5.010   5.271
 9267SOL    HW128700   2.534   5.071   5.195
 9267SOL    HW228701   2.585   4.922   5.235
 9268SOL     OW28702   0.227   1.138   2.627
 9268SOL    HW128703   0.283   1.182   2.557
 9268SOL    HW228704   0.271   1.054   2.659
 9269SOL     OW28705   3.700   1.319   5.782
 9269SOL    HW128706   3.777   1.259   5.760
 9269SOL    HW228707   3.700   1.397   5.719
 9270SOL     OW28708   0.673   6.852   5.725
 9270SOL    HW128709   0.577   6.830   5.740
 9270SOL    HW228710   0.719   6.773   5.684
 9271SOL     OW28711   0.979   5.093   0.066
 9271SOL    HW128712   0.943   5.155   7.022
 9271SOL    HW228713   0.926   5.008   0.066
 9272SOL     OW28714   2.683   4.743   6.774
 9272SOL    HW128715   2.631   4.659   6.757
 9272SOL    HW228716   2.776   4.719   6.803
 9273SOL     OW28717   3.812   5.786   5.505
 9273SOL    HW128718   3.733   5.786   5.443
 9273SOL    HW228719   3.809   5.867   5.563
 9274SOL     OW28720   5.688   2.413   1.109
 9274SOL    HW128721   5.761   2.452   1.053
 9274SOL    HW228722   5.613   2.479   1.116
 9275SOL     OW28723   0.815   0.478   6.411
 9275SOL    HW128724   0.869   0.483   6.495
 9275SOL    HW228725   0.760   0.394   6.412
 9276SOL     OW28726   4.422   6.106   5.020
 9276SOL    HW128727   4.368   6.046   4.961
 9276SOL    HW228728   4.362   6.158   5.079
 9277SOL     OW28729   3.444   2.441   0.494
 9277SOL    HW128730   3.451   2.362   0.433
 9277SOL    HW228731   3.479   2.522   0.447
 9278SOL     OW28732   1.119   2.471   1.561
 9278SOL    HW128733   1.165   2.426   1.484
 9278SOL    HW228734   1.186   2.500   1.628
 9279SOL     OW28735   3.366   6.890   1.453
 9279SOL    HW128736   3.378   6.946   1.535
 9279SOL    HW228737   3.452   6.844   1.431
 9280SOL     OW28738   2.020   0.302   2.865
 9280SOL    HW128739   1.970   0.231   2.915
 9280SOL    HW228740   1.970   0.325   2.781
 9281SOL     OW28741   2.030   2.933   0.361
 9281SOL    HW128742   2.067   2.911   0.451
 9281SOL    HW228743   2.105   2.939   0.295
 9282SOL     OW28744   4.686   2.089   6.463
 9282SOL    HW128745   4.759   2.115   6.527
 9282SOL    HW228746   4.689   2.148   6.383
 9283SOL     OW28747   5.756   1.803   2.817
 9283SOL    HW128748   5.711   1.854   2.744
 9283SOL    HW228749   5.853   1.828   2.820
 9284SOL     OW28750   3.189   3.712   1.767
 9284SOL    HW128751   3.243   3.736   1.848
 9284SOL    HW228752   3.236   3.640   1.716
 9285SOL     OW28753   6.310   2.756   6.513
 9285SOL    HW128754   6.214   2.781   6.527
 9285SOL    HW228755   6.351   2.817   6.445
 9286SOL     OW28756   5.264   6.425   5.174
 9286SOL    HW128757   5.209   6.509   5.169
 9286SOL    HW228758   5.203   6.346   5.184
 9287SOL     OW28759   2.684   6.619   2.018
 9287SOL    HW128760   2.684   6.617   2.118
 9287SOL    HW228761   2.590   6.621   1.986
 9288SOL     OW28762   4.750   2.637   6.033
 9288SOL    HW128763   4.679   2.570   6.012
 9288SOL    HW228764   4.781   2.680   5.949
 9289SOL     OW28765   4.795   2.980   2.872
 9289SOL    HW128766   4.844   2.941   2.950
 9289SOL    HW228767   4.852   3.050   2.829
 9290SOL     OW28768   4.672   2.188   4.988
 9290SOL    HW128769   4.572   2.193   4.980
 9290SOL    HW228770   4.712   2.162   4.900
 9291SOL     OW28771   0.752   2.181   4.904
 9291SOL    HW128772   0.828   2.167   4.968
 9291SOL    HW228773   0.687   2.245   4.945
 9292SOL     OW28774   6.516   3.617   6.608
 9292SOL    HW128775   6.547   3.668   6.689
 9292SOL    HW228776   6.509   3.520   6.630
 9293SOL     OW28777   5.584   4.374   6.812
 9293SOL    HW128778   5.555   4.315   6.736
 9293SOL    HW228779   5.676   4.407   6.795
 9294SOL     OW28780   5.644   5.962   0.125
 9294SOL    HW128781   5.627   6.052   0.083
 9294SOL    HW228782   5.743   5.949   0.136
 9295SOL     OW28783   4.787   1.941   3.609
 9295SOL    HW128784   4.752   1.868   3.552
 9295SOL    HW228785   4.760   2.030   3.571
 9296SOL     OW28786   6.128   0.005   5.781
 9296SOL    HW128787   6.207   0.042   5.732
 9296SOL    HW228788   6.112   6.936   5.753
 9297SOL     OW28789   0.845   0.585   0.500
 9297SOL    HW128790   0.908   0.650   0.459
 9297SOL    HW228791   0.811   0.522   0.429
 9298SOL     OW28792   1.141   6.404   4.981
 9298SOL    HW128793   1.052   6.423   5.022
 9298SOL    HW228794   1.138   6.425   4.884
 9299SOL     OW28795   2.395   2.506   4.294
 9299SOL    HW128796   2.385   2.565   4.214
 9299SOL    HW228797   2.418   2.414   4.264
 9300SOL     OW28798   5.571   4.341   4.205
 9300SOL    HW128799   5.546   4.339   4.302
 9300SOL    HW228800   5.608   4.252   4.178
 9301SOL     OW28801   5.816   4.193   2.855
 9301SOL    HW128802   5.728   4.151   2.832
 9301SOL    HW228803   5.878   4.123   2.890
 9302SOL     OW28804   2.226   1.885   2.434
 9302SOL    HW128805   2.319   1.878   2.472
 9302SOL    HW228806   2.165   1.921   2.504
 9303SOL     OW28807   3.251   5.035   1.170
 9303SOL    HW128808   3.294   5.078   1.249
 9303SOL    HW228809   3.167   4.989   1.198
 9304SOL     OW28810   4.423   3.455   0.800
 9304SOL    HW128811   4.376   3.367   0.795
 9304SOL    HW228812   4.383   3.511   0.874
 9305SOL     OW28813   5.122   2.681   2.718
 9305SOL    HW128814   5.109   2.586   2.691
 9305SOL    HW228815   5.210   2.691   2.763
 9306SOL     OW28816   6.569   4.247   3.872
 9306SOL    HW128817   6.555   4.321   3.938
 9306SOL    HW228818   6.486   4.191   3.866
 9307SOL     OW28819   2.107   1.343   6.540
 9307SOL    HW128820   2.086   1.288   6.460
 9307SOL    HW228821   2.102   1.440   6.516
 9308SOL     OW28822   6.654   3.177   1.014
 9308SOL    HW128823   6.624   3.161   1.108
 9308SOL    HW228824   6.583   3.148   0.951
 9309SOL     OW28825   4.875   3.805   6.494
 9309SOL    HW128826   4.870   3.858   6.410
 9309SOL    HW228827   4.893   3.709   6.472
 9310SOL     OW28828   3.903   6.165   1.005
 9310SOL    HW128829   3.817   6.216   1.008
 9310SOL    HW228830   3.933   6.157   0.910
 9311SOL     OW28831   6.149   3.210   1.029
 9311SOL    HW128832   6.107   3.283   1.084
 9311SOL    HW228833   6.248   3.226   1.023
 9312SOL     OW28834   1.660   4.721   5.443
 9312SOL    HW128835   1.643   4.807   5.395
 9312SOL    HW228836   1.653   4.736   5.541
 9313SOL     OW28837   5.964   6.733   2.380
 9313SOL    HW128838   5.865   6.733   2.371
 9313SOL    HW228839   6.000   6.821   2.349
 9314SOL     OW28840   5.286   4.774   0.413
 9314SOL    HW128841   5.228   4.854   0.432
 9314SOL    HW228842   5.248   4.723   0.336
 9315SOL     OW28843   6.360   6.639   6.420
 9315SOL    HW128844   6.363   6.702   6.498
 9315SOL    HW228845   6.329   6.549   6.452
 9316SOL     OW28846   3.869   5.901   4.185
 9316SOL    HW128847   3.794   5.850   4.227
 9316SOL    HW228848   3.940   5.838   4.154
 9317SOL     OW28849   6.012   4.281   4.716
 9317SOL    HW128850   6.066   4.290   4.800
 9317SOL    HW228851   6.073   4.260   4.639
 9318SOL     OW28852   6.309   0.175   6.167
 9318SOL    HW128853   6.402   0.144   6.146
 9318SOL    HW228854   6.288   0.257   6.115
 9319SOL     OW28855   7.016   3.278   4.787
 9319SOL    HW128856   0.013   3.211   4.717
 9319SOL    HW228857   0.030   3.251   4.874
 9320SOL     OW28858   4.471   2.885   6.769
 9320SOL    HW128859   4.423   2.827   6.834
 9320SOL    HW228860   4.438   2.867   6.676
 9321SOL     OW28861   6.262   5.977   3.298
 9321SOL    HW128862   6.291   5.888   3.264
 9321SOL    HW228863   6.337   6.021   3.348
 9322SOL     OW28864   0.431   6.509   6.960
 9322SOL    HW128865   0.449   6.510   6.862
 9322SOL    HW228866   0.438   6.416   6.995
 9323SOL     OW28867   6.979   1.500   5.925
 9323SOL    HW128868   0.030   1.543   5.973
 9323SOL    HW228869   6.900   1.562   5.928
 9324SOL     OW28870   1.995   5.635   0.105
 9324SOL    HW128871   1.945   5.639   0.019
 9324SOL    HW228872   1.945   5.579   0.171
 9325SOL     OW28873   0.260   2.644   0.879
 9325SOL    HW128874   0.162   2.642   0.901
 9325SOL    HW228875   0.278   2.580   0.804
 9326SOL     OW28876   2.264   6.106   1.185
 9326SOL    HW128877   2.343   6.077   1.240
 9326SOL    HW228878   2.293   6.127   1.092
 9327SOL     OW28879   3.930   1.107   3.278
 9327SOL    HW128880   3.883   1.181   3.230
 9327SOL    HW228881   3.948   1.135   3.372
 9328SOL     OW28882   2.874   0.841   2.221
 9328SOL    HW128883   2.885   0.838   2.320
 9328SOL    HW228884   2.841   0.753   2.188
 9329SOL     OW28885   1.338   3.606   1.951
 9329SOL    HW128886   1.297   3.636   2.037
 9329SOL    HW228887   1.267   3.600   1.881
 9330SOL     OW28888   5.736   0.377   0.451
 9330SOL    HW128889   5.822   0.372   0.400
 9330SOL    HW228890   5.660   0.392   0.388
 9331SOL     OW28891   0.447   1.195   6.751
 9331SOL    HW128892   0.542   1.179   6.723
 9331SOL    HW228893   0.441   1.283   6.798
 9332SOL     OW28894   3.525   3.816   4.535
 9332SOL    HW128895   3.599   3.835   4.600
 9332SOL    HW228896   3.562   3.821   4.442
 9333SOL     OW28897   5.332   4.939   1.545
 9333SOL    HW128898   5.347   5.019   1.604
 9333SOL    HW228899   5.417   4.917   1.497
 9334SOL     OW28900   2.944   0.113   4.775
 9334SOL    HW128901   3.032   0.107   4.823
 9334SOL    HW228902   2.931   0.031   4.720
 9335SOL     OW28903   0.824   1.043   1.105
 9335SOL    HW128904   0.901   1.050   1.042
 9335SOL    HW228905   0.829   0.956   1.154
 9336SOL     OW28906   3.208   6.899   5.539
 9336SOL    HW128907   3.279   6.893   5.609
 9336SOL    HW228908   3.237   6.964   5.468
 9337SOL     OW28909   4.811   0.032   2.741
 9337SOL    HW128910   4.821   0.129   2.762
 9337SOL    HW228911   4.752   0.020   2.661
 9338SOL     OW28912   4.105   0.332   1.595
 9338SOL    HW128913   4.168   0.399   1.635
 9338SOL    HW228914   4.038   0.379   1.538
 9339SOL     OW28915   3.993   5.809   0.911
 9339SOL    HW128916   3.906   5.831   0.955
 9339SOL    HW228917   4.061   5.878   0.936
 9340SOL     OW28918   5.614   3.209   0.566
 9340SOL    HW128919   5.652   3.283   0.510
 9340SOL    HW228920   5.668   3.126   0.550
 9341SOL     OW28921   6.837   5.290   6.085
 9341SOL    HW128922   6.773   5.299   6.009
 9341SOL    HW228923   6.889   5.375   6.095
 9342SOL     OW28924   1.117   6.148   6.170
 9342SOL    HW128925   1.135   6.098   6.255
 9342SOL    HW228926   1.127   6.086   6.092
 9343SOL     OW28927   6.355   5.330   4.783
 9343SOL    HW128928   6.454   5.328   4.796
 9343SOL    HW228929   6.327   5.253   4.726
 9344SOL     OW28930   4.673   6.595   1.346
 9344SOL    HW128931   4.621   6.680   1.338
 9344SOL    HW228932   4.744   6.593   1.275
 9345SOL     OW28933   6.776   2.878   0.225
 9345SOL    HW128934   6.709   2.945   0.255
 9345SOL    HW228935   6.857   2.883   0.283
 9346SOL     OW28936   6.136   0.171   0.165
 9346SOL    HW128937   6.097   0.217   0.085
 9346SOL    HW228938   6.073   0.180   0.242
 9347SOL     OW28939   1.533   6.566   1.829
 9347SOL    HW128940   1.479   6.493   1.788
 9347SOL    HW228941   1.482   6.652   1.823
 9348SOL     OW28942   2.723   5.049   0.412
 9348SOL    HW128943   2.663   4.981   0.372
 9348SOL    HW228944   2.778   5.007   0.484
 9349SOL     OW28945   2.052   5.987   2.687
 9349SOL    HW128946   2.049   5.953   2.593
 9349SOL    HW228947   2.095   6.077   2.688
 9350SOL     OW28948   0.711   2.760   6.049
 9350SOL    HW128949   0.651   2.836   6.073
 9350SOL    HW228950   0.721   2.755   5.950
 9351SOL     OW28951   2.656   1.209   6.656
 9351SOL    HW128952   2.742   1.218   6.707
 9351SOL    HW228953   2.580   1.237   6.713
 9352SOL     OW28954   2.468   4.905   5.886
 9352SOL    HW128955   2.487   4.840   5.812
 9352SOL    HW228956   2.517   4.876   5.969
 9353SOL     OW28957   6.323   0.661   0.899
 9353SOL    HW128958   6.304   0.695   0.992
 9353SOL    HW228959   6.237   0.652   0.849
 9354SOL     OW28960   0.800   1.649   6.539
 9354SOL    HW128961   0.881   1.596   6.565
 9354SOL    HW228962   0.810   1.744   6.569
 9355SOL     OW28963   0.183   2.123   5.297
 9355SOL    HW128964   0.221   2.030   5.301
 9355SOL    HW228965   0.244   2.182   5.245
 9356SOL     OW28966   5.475   0.169   3.663
 9356SOL    HW128967   5.387   0.194   3.622
 9356SOL    HW228968   5.503   0.080   3.628
 9357SOL     OW28969   0.609   1.696   0.288
 9357SOL    HW128970   0.677   1.695   0.361
 9357SOL    HW228971   0.641   1.640   0.211
 9358SOL     OW28972   0.674   2.636   1.306
 9358SOL    HW128973   0.576   2.620   1.318
 9358SOL    HW228974   0.702   2.716   1.359
 9359SOL     OW28975   0.808   0.126   4.991
 9359SOL    HW128976   0.898   0.106   5.029
 9359SOL    HW228977   0.737   0.081   5.046
 9360SOL     OW28978   0.689   0.222   5.846
 9360SOL    HW128979   0.734   0.207   5.759
 9360SOL    HW228980   0.746   0.187   5.920
 9361SOL     OW28981   2.111   5.504   4.035
 9361SOL    HW128982   2.105   5.459   4.124
 9361SOL    HW228983   2.153   5.594   4.046
 9362SOL     OW28984   2.194   0.437   1.874
 9362SOL    HW128985   2.278   0.445   1.821
 9362SOL    HW228986   2.210   0.376   1.952
 9363SOL     OW28987   1.872   4.835   2.427
 9363SOL    HW128988   1.970   4.833   2.446
 9363SOL    HW228989   1.854   4.788   2.340
 9364SOL     OW28990   0.979   2.880   0.892
 9364SOL    HW128991   1.046   2.806   0.897
 9364SOL    HW228992   0.917   2.864   0.815
 9365SOL     OW28993   3.443   0.894   4.595
 9365SOL    HW128994   3.479   0.834   4.524
 9365SOL    HW228995   3.362   0.851   4.637
 9366SOL     OW28996   4.351   5.977   2.647
 9366SOL    HW128997   4.435   6.000   2.696
 9366SOL    HW228998   4.324   6.054   2.590
 9367SOL     OW28999   6.566   1.115   1.656
 9367SOL    HW129000   6.593   1.076   1.744
 9367SOL    HW229001   6.482   1.070   1.624
 9368SOL     OW29002   2.680   0.419   2.804
 9368SOL    HW129003   2.654   0.341   2.860
 9368SOL    HW229004   2.677   0.394   2.707
 9369SOL     OW29005   3.148   5.207   0.714
 9369SOL    HW129006   3.221   5.187   0.649
 9369SOL    HW229007   3.189   5.225   0.804
 9370SOL     OW29008   4.378   1.811   5.033
 9370SOL    HW129009   4.281   1.790   5.021
 9370SOL    HW229010   4.425   1.733   5.074
 9371SOL     OW29011   4.503   5.202   1.131
 9371SOL    HW129012   4.494   5.163   1.222
 9371SOL    HW229013   4.499   5.302   1.136
 9372SOL     OW29014   4.178   5.884   1.654
 9372SOL    HW129015   4.213   5.797   1.620
 9372SOL    HW229016   4.145   5.872   1.748
 9373SOL     OW29017   0.221   3.035   1.024
 9373SOL    HW129018   0.182   3.004   1.111
 9373SOL    HW229019   0.312   2.995   1.013
 9374SOL     OW29020   0.271   5.807   6.060
 9374SOL    HW129021   0.331   5.868   6.112
 9374SOL    HW229022   0.242   5.851   5.976
 9375SOL     OW29023   0.430   1.422   6.932
 9375SOL    HW129024   0.345   1.473   6.940
 9375SOL    HW229025   0.444   1.367   7.015
 9376SOL     OW29026   2.529   3.775   1.033
 9376SOL    HW129027   2.450   3.827   1.001
 9376SOL    HW229028   2.577   3.734   0.955
 9377SOL     OW29029   2.183   0.869   3.454
 9377SOL    HW129030   2.084   0.885   3.459
 9377SOL    HW229031   2.202   0.791   3.395
 9378SOL     OW29032   3.684   1.234   5.159
 9378SOL    HW129033   3.671   1.280   5.247
 9378SOL    HW229034   3.603   1.246   5.102
 9379SOL     OW29035   5.055   6.823   4.142
 9379SOL    HW129036   4.997   6.747   4.169
 9379SOL    HW229037   5.150   6.802   4.165
 9380SOL     OW29038   5.597   5.452   0.364
 9380SOL    HW129039   5.562   5.386   0.431
 9380SOL    HW229040   5.528   5.464   0.292
 9381SOL     OW29041   5.245   1.143   5.429
 9381SOL    HW129042   5.218   1.049   5.452
 9381SOL    HW229043   5.184   1.207   5.475
 9382SOL     OW29044   2.699   5.263   6.000
 9382SOL    HW129045   2.615   5.229   5.958
 9382SOL    HW229046   2.750   5.318   5.933
 9383SOL     OW29047   5.932   3.944   2.729
 9383SOL    HW129048   6.030   3.963   2.729
 9383SOL    HW229049   5.916   3.846   2.735
 9384SOL     OW29050   3.500   0.348   1.568
 9384SOL    HW129051   3.476   0.406   1.646
 9384SOL    HW229052   3.564   0.278   1.598
 9385SOL     OW29053   4.364   1.284   4.039
 9385SOL    HW129054   4.437   1.223   4.008
 9385SOL    HW229055   4.276   1.245   4.014
 9386SOL     OW29056   4.877   6.562   0.674
 9386SOL    HW129057   4.867   6.479   0.619
 9386SOL    HW229058   4.959   6.612   0.644
 9387SOL     OW29059   2.903   1.158   0.083
 9387SOL    HW129060   2.887   1.251   0.115
 9387SOL    HW229061   2.821   1.103   0.097
 9388SOL     OW29062   2.253   0.152   5.542
 9388SOL    HW129063   2.243   0.207   5.625
 9388SOL    HW229064   2.315   0.076   5.560
 9389SOL     OW29065   2.084   3.848   1.555
 9389SOL    HW129066   2.014   3.812   1.494
 9389SOL    HW229067   2.112   3.777   1.620
 9390SOL     OW29068   4.989   4.443   4.381
 9390SOL    HW129069   5.087   4.448   4.399
 9390SOL    HW229070   4.940   4.429   4.467
 9391SOL     OW29071   1.450   4.111   4.387
 9391SOL    HW129072   1.442   4.016   4.356
 9391SOL    HW229073   1.515   4.115   4.463
 9392SOL     OW29074   5.372   4.288   2.735
 9392SOL    HW129075   5.446   4.319   2.675
 9392SOL    HW229076   5.382   4.191   2.753
 9393SOL     OW29077   1.812   5.957   5.902
 9393SOL    HW129078   1.726   5.907   5.904
 9393SOL    HW229079   1.886   5.897   5.934
 9394SOL     OW29080   4.236   0.345   0.459
 9394SOL    HW129081   4.269   0.316   0.549
 9394SOL    HW229082   4.269   0.437   0.440
 9395SOL     OW29083   1.238   1.408   1.221
 9395SOL    HW129084   1.266   1.481   1.284
 9395SOL    HW229085   1.313   1.387   1.159
 9396SOL     OW29086   0.864   0.417   6.131
 9396SOL    HW129087   0.766   0.438   6.133
 9396SOL    HW229088   0.903   0.430   6.222
 9397SOL     OW29089   3.914   0.987   4.873
 9397SOL    HW129090   3.908   1.012   4.970
 9397SOL    HW229091   3.845   1.038   4.821
 9398SOL     OW29092   0.727   1.944   0.099
 9398SOL    HW129093   0.697   1.881   0.170
 9398SOL    HW229094   0.747   1.893   0.015
 9399SOL     OW29095   1.244   2.071   4.401
 9399SOL    HW129096   1.166   2.020   4.435
 9399SOL    HW229097   1.226   2.101   4.307
 9400SOL     OW29098   5.832   1.422   1.172
 9400SOL    HW129099   5.864   1.497   1.229
 9400SOL    HW229100   5.758   1.454   1.113
 9401SOL     OW29101   0.243   2.227   3.492
 9401SOL    HW129102   0.289   2.153   3.442
 9401SOL    HW229103   0.270   2.225   3.588
 9402SOL     OW29104   2.726   6.925   4.404
 9402SOL    HW129105   2.809   6.954   4.355
 9402SOL    HW229106   2.658   6.893   4.338
 9403SOL     OW29107   5.301   2.107   0.920
 9403SOL    HW129108   5.354   2.075   0.842
 9403SOL    HW229109   5.363   2.151   0.986
 9404SOL     OW29110   2.386   2.607   1.066
 9404SOL    HW129111   2.451   2.548   1.114
 9404SOL    HW229112   2.358   2.682   1.126
 9405SOL     OW29113   6.293   5.739   5.521
 9405SOL    HW129114   6.325   5.790   5.600
 9405SOL    HW229115   6.364   5.674   5.493
 9406SOL     OW29116   1.160   2.249   0.514
 9406SOL    HW129117   1.069   2.276   0.483
 9406SOL    HW229118   1.154   2.160   0.560
 9407SOL     OW29119   1.783   4.891   4.708
 9407SOL    HW129120   1.817   4.977   4.669
 9407SOL    HW229121   1.846   4.860   4.779
 9408SOL     OW29122   6.178   4.241   4.507
 9408SOL    HW129123   6.257   4.219   4.450
 9408SOL    HW229124   6.135   4.324   4.474
 9409SOL     OW29125   6.183   5.507   2.014
 9409SOL    HW129126   6.091   5.546   2.008
 9409SOL    HW229127   6.251   5.580   2.003
 9410SOL     OW29128   4.080   0.796   0.812
 9410SOL    HW129129   4.086   0.702   0.779
 9410SOL    HW229130   4.055   0.796   0.909
 9411SOL     OW29131   3.377   4.084   3.142
 9411SOL    HW129132   3.345   4.117   3.231
 9411SOL    HW229133   3.302   4.091   3.075
 9412SOL     OW29134   4.717   6.848   1.762
 9412SOL    HW129135   4.647   6.854   1.833
 9412SOL    HW229136   4.673   6.850   1.672
 9413SOL     OW29137   4.767   3.954   3.138
 9413SOL    HW129138   4.715   3.912   3.212
 9413SOL    HW229139   4.745   4.051   3.133
 9414SOL     OW29140   2.497   2.240   2.599
 9414SOL    HW129141   2.423   2.199   2.653
 9414SOL    HW229142   2.580   2.186   2.611
 9415SOL     OW29143   5.514   0.419   2.142
 9415SOL    HW129144   5.473   0.349   2.200
 9415SOL    HW229145   5.500   0.395   2.046
 9416SOL     OW29146   5.750   5.402   5.590
 9416SOL    HW129147   5.728   5.384   5.686
 9416SOL    HW229148   5.809   5.483   5.584
 9417SOL     OW29149   3.236   5.163   2.668
 9417SOL    HW129150   3.258   5.172   2.571
 9417SOL    HW229151   3.140   5.188   2.683
 9418SOL     OW29152   3.125   1.832   5.055
 9418SOL    HW129153   3.088   1.787   4.974
 9418SOL    HW229154   3.167   1.919   5.028
 9419SOL     OW29155   2.171   2.802   6.756
 9419SOL    HW129156   2.240   2.735   6.782
 9419SOL    HW229157   2.093   2.755   6.714
 9420SOL     OW29158   5.548   3.992   5.539
 9420SOL    HW129159   5.609   4.054   5.589
 9420SOL    HW229160   5.538   3.907   5.590
 9421SOL     OW29161   3.542   6.313   6.660
 9421SOL    HW129162   3.509   6.225   6.695
 9421SOL    HW229163   3.633   6.300   6.620
 9422SOL     OW29164   2.423   6.368   5.681
 9422SOL    HW129165   2.352   6.315   5.636
 9422SOL    HW229166   2.425   6.344   5.779
 9423SOL     OW29167   4.507   5.096   2.236
 9423SOL    HW129168   4.474   5.178   2.188
 9423SOL    HW229169   4.549   5.034   2.170
 9424SOL     OW29170   6.470   0.443   4.304
 9424SOL    HW129171   6.466   0.430   4.205
 9424SOL    HW229172   6.393   0.497   4.335
 9425SOL     OW29173   7.009   3.820   0.463
 9425SOL    HW129174   0.064   3.844   0.516
 9425SOL    HW229175   6.944   3.770   0.521
 9426SOL     OW29176   5.107   3.158   6.010
 9426SOL    HW129177   5.048   3.149   6.090
 9426SOL    HW229178   5.186   3.097   6.020
 9427SOL     OW29179   4.602   4.318   2.617
 9427SOL    HW129180   4.659   4.397   2.596
 9427SOL    HW229181   4.632   4.240   2.562
 9428SOL     OW29182   0.905   6.347   5.664
 9428SOL    HW129183   0.834   6.414   5.682
 9428SOL    HW229184   0.985   6.367   5.720
 9429SOL     OW29185   2.689   2.052   3.822
 9429SOL    HW129186   2.701   1.967   3.770
 9429SOL    HW229187   2.602   2.049   3.870
 9430SOL     OW29188   1.786   1.020   4.059
 9430SOL    HW129189   1.768   1.118   4.064
 9430SOL    HW229190   1.718   0.970   4.114
 9431SOL     OW29191   0.844   4.533   5.603
 9431SOL    HW129192   0.878   4.467   5.670
 9431SOL    HW229193   0.782   4.487   5.539
 9432SOL     OW29194   6.957   1.159   4.466
 9432SOL    HW129195   6.900   1.079   4.481
 9432SOL    HW229196   7.017   1.173   4.545
 9433SOL     OW29197   4.830   5.553   2.255
 9433SOL    HW129198   4.837   5.482   2.324
 9433SOL    HW229199   4.823   5.511   2.164
 9434SOL     OW29200   4.018   5.417   4.033
 9434SOL    HW129201   4.001   5.513   4.013
 9434SOL    HW229202   3.951   5.360   3.984
 9435SOL     OW29203   5.926   3.624   0.960
 9435SOL    HW129204   6.001   3.647   0.897
 9435SOL    HW229205   5.884   3.539   0.930
 9436SOL     OW29206   2.833   0.825   3.322
 9436SOL    HW129207   2.834   0.860   3.229
 9436SOL    HW229208   2.926   0.800   3.349
 9437SOL     OW29209   5.499   0.731   5.064
 9437SOL    HW129210   5.580   0.681   5.031
 9437SOL    HW229211   5.419   0.672   5.057
 9438SOL     OW29212   4.643   0.440   2.848
 9438SOL    HW129213   4.739   0.467   2.854
 9438SOL    HW229214   4.593   0.507   2.794
 9439SOL     OW29215   2.279   3.988   0.562
 9439SOL    HW129216   2.265   3.982   0.463
 9439SOL    HW229217   2.364   3.941   0.587
 9440SOL     OW29218   1.570   5.389   4.043
 9440SOL    HW129219   1.590   5.348   3.954
 9440SOL    HW229220   1.529   5.320   4.102
 9441SOL     OW29221   0.403   6.622   4.561
 9441SOL    HW129222   0.461   6.546   4.531
 9441SOL    HW229223   0.331   6.637   4.493
 9442SOL     OW29224   6.040   3.400   1.177
 9442SOL    HW129225   6.097   3.478   1.203
 9442SOL    HW229226   5.950   3.432   1.148
 9443SOL     OW29227   2.233   4.148   1.024
 9443SOL    HW129228   2.204   4.106   1.110
 9443SOL    HW229229   2.300   4.219   1.043
 9444SOL     OW29230   1.951   4.788   6.604
 9444SOL    HW129231   1.960   4.692   6.579
 9444SOL    HW229232   1.953   4.844   6.521
 9445SOL     OW29233   0.266   1.314   4.056
 9445SOL    HW129234   0.210   1.247   4.105
 9445SOL    HW229235   0.270   1.289   3.959
 9446SOL     OW29236   6.212   3.967   4.545
 9446SOL    HW129237   6.174   3.943   4.634
 9446SOL    HW229238   6.192   4.062   4.525
 9447SOL     OW29239   5.083   4.908   2.159
 9447SOL    HW129240   4.986   4.881   2.162
 9447SOL    HW229241   5.097   4.971   2.083
 9448SOL     OW29242   5.666   2.029   6.693
 9448SOL    HW129243   5.587   2.083   6.722
 9448SOL    HW229244   5.715   1.994   6.772
 9449SOL     OW29245   5.681   0.030   2.067
 9449SOL    HW129246   5.687   6.962   2.101
 9449SOL    HW229247   5.656   0.029   1.970
 9450SOL     OW29248   1.166   6.866   3.362
 9450SOL    HW129249   1.243   6.930   3.357
 9450SOL    HW229250   1.084   6.914   3.391
 9451SOL     OW29251   4.019   5.162   0.299
 9451SOL    HW129252   4.018   5.157   0.199
 9451SOL    HW229253   3.925   5.164   0.333
 9452SOL     OW29254   6.168   4.138   6.234
 9452SOL    HW129255   6.192   4.051   6.277
 9452SOL    HW229256   6.211   4.143   6.144
 9453SOL     OW29257   5.822   4.641   1.923
 9453SOL    HW129258   5.834   4.661   1.826
 9453SOL    HW229259   5.886   4.569   1.951
 9454SOL     OW29260   6.177   5.000   0.504
 9454SOL    HW129261   6.248   5.071   0.504
 9454SOL    HW229262   6.166   4.963   0.596
 9455SOL     OW29263   4.283   0.587   1.440
 9455SOL    HW129264   4.208   0.538   1.397
 9455SOL    HW229265   4.278   0.684   1.416
 9456SOL     OW29266   6.448   2.146   3.225
 9456SOL    HW129267   6.416   2.117   3.135
 9456SOL    HW229268   6.512   2.079   3.261
 9457SOL     OW29269   6.955   6.182   4.205
 9457SOL    HW129270   6.899   6.166   4.124
 9457SOL    HW229271   0.016   6.134   4.196
 9458SOL     OW29272   5.910   4.169   0.076
 9458SOL    HW129273   5.928   4.226   0.155
 9458SOL    HW229274   5.817   4.133   0.080
 9459SOL     OW29275   4.715   4.196   4.881
 9459SOL    HW129276   4.726   4.144   4.966
 9459SOL    HW229277   4.650   4.271   4.896
 9460SOL     OW29278   1.184   2.844   2.051
 9460SOL    HW129279   1.105   2.864   2.110
 9460SOL    HW229280   1.152   2.795   1.969
 9461SOL     OW29281   1.781   1.258   1.533
 9461SOL    HW129282   1.780   1.177   1.474
 9461SOL    HW229283   1.875   1.286   1.550
 9462SOL     OW29284   6.718   1.269   5.639
 9462SOL    HW129285   6.810   1.265   5.677
 9462SOL    HW229286   6.716   1.221   5.552
 9463SOL     OW29287   6.602   3.884   0.001
 9463SOL    HW129288   6.536   3.927   6.966
 9463SOL    HW229289   6.609   3.937   0.086
 9464SOL     OW29290   1.470   0.778   1.776
 9464SOL    HW129291   1.382   0.750   1.813
 9464SOL    HW229292   1.486   0.875   1.797
 9465SOL     OW29293   6.632   5.936   0.474
 9465SOL    HW129294   6.605   5.866   0.540
 9465SOL    HW229295   6.658   6.020   0.523
 9466SOL     OW29296   4.551   3.639   5.442
 9466SOL    HW129297   4.610   3.624   5.521
 9466SOL    HW229298   4.591   3.594   5.362
 9467SOL     OW29299   1.322   3.714   0.660
 9467SOL    HW129300   1.287   3.642   0.720
 9467SOL    HW229301   1.419   3.698   0.642
 9468SOL     OW29302   6.037   1.365   0.964
 9468SOL    HW129303   5.964   1.388   1.028
 9468SOL    HW229304   6.061   1.268   0.975
 9469SOL     OW29305   6.683   6.968   1.346
 9469SOL    HW129306   6.674   6.965   1.247
 9469SOL    HW229307   6.753   0.008   1.372
 9470SOL     OW29308   4.222   3.239   0.605
 9470SOL    HW129309   4.276   3.206   0.682
 9470SOL    HW229310   4.138   3.185   0.597
 9471SOL     OW29311   6.429   2.675   4.871
 9471SOL    HW129312   6.352   2.704   4.928
 9471SOL    HW229313   6.405   2.590   4.825
 9472SOL     OW29314   1.371   3.386   5.237
 9472SOL    HW129315   1.428   3.422   5.310
 9472SOL    HW229316   1.417   3.400   5.149
 9473SOL     OW29317   3.332   3.402   1.069
 9473SOL    HW129318   3.391   3.459   1.126
 9473SOL    HW229319   3.240   3.441   1.066
 9474SOL     OW29320   5.936   4.619   0.696
 9474SOL    HW129321   5.916   4.525   0.669
 9474SOL    HW229322   5.860   4.655   0.750
 9475SOL     OW29323   4.924   3.824   5.889
 9475SOL    HW129324   4.898   3.791   5.979
 9475SOL    HW229325   4.862   3.898   5.861
 9476SOL     OW29326   4.270   4.286   1.407
 9476SOL    HW129327   4.320   4.336   1.337
 9476SOL    HW229328   4.332   4.225   1.456
 9477SOL     OW29329   2.436   4.660   1.085
 9477SOL    HW129330   2.368   4.721   1.045
 9477SOL    HW229331   2.522   4.668   1.034
 9478SOL     OW29332   5.691   4.148   6.156
 9478SOL    HW129333   5.755   4.097   6.213
 9478SOL    HW229334   5.608   4.168   6.209
 9479SOL     OW29335   4.217   0.975   2.013
 9479SOL    HW129336   4.138   0.947   1.959
 9479SOL    HW229337   4.258   1.057   1.972
 9480SOL     OW29338   5.870   0.773   0.536
 9480SOL    HW129339   5.900   0.681   0.561
 9480SOL    HW229340   5.944   0.819   0.485
 9481SOL     OW29341   4.793   0.488   3.303
 9481SOL    HW129342   4.720   0.463   3.367
 9481SOL    HW229343   4.847   0.562   3.342
 9482SOL     OW29344   6.462   4.940   5.566
 9482SOL    HW129345   6.372   4.977   5.542
 9482SOL    HW229346   6.484   4.966   5.660
 9483SOL     OW29347   6.231   6.097   6.695
 9483SOL    HW129348   6.178   6.093   6.780
 9483SOL    HW229349   6.327   6.117   6.717
 9484SOL     OW29350   2.831   5.820   4.919
 9484SOL    HW129351   2.919   5.845   4.880
 9484SOL    HW229352   2.837   5.730   4.960
 9485SOL     OW29353   0.223   1.778   5.090
 9485SOL    HW129354   0.158   1.725   5.035
 9485SOL    HW229355   0.316   1.742   5.075
 9486SOL     OW29356   6.409   5.779   6.569
 9486SOL    HW129357   6.456   5.691   6.570
 9486SOL    HW229358   6.386   5.804   6.475
 9487SOL     OW29359   3.246   3.627   3.538
 9487SOL    HW129360   3.152   3.597   3.521
 9487SOL    HW229361   3.291   3.644   3.451
 9488SOL     OW29362   1.853   0.997   1.434
 9488SOL    HW129363   1.837   0.903   1.465
 9488SOL    HW229364   1.951   1.012   1.422
 9489SOL     OW29365   6.151   3.854   0.154
 9489SOL    HW129366   6.124   3.949   0.173
 9489SOL    HW229367   6.128   3.832   0.059
 9490SOL     OW29368   6.207   3.523   4.816
 9490SOL    HW129369   6.191   3.538   4.719
 9490SOL    HW229370   6.279   3.454   4.827
 9491SOL     OW29371   5.908   6.944   2.720
 9491SOL    HW129372   5.815   6.980   2.713
 9491SOL    HW229373   5.932   6.932   2.816
 9492SOL     OW29374   4.775   2.505   3.741
 9492SOL    HW129375   4.733   2.443   3.808
 9492SOL    HW229376   4.874   2.500   3.748
 9493SOL     OW29377   3.540   6.035   2.169
 9493SOL    HW129378   3.494   6.059   2.254
 9493SOL    HW229379   3.534   5.936   2.154
 9494SOL     OW29380   5.291   2.518   2.015
 9494SOL    HW129381   5.367   2.576   1.990
 9494SOL    HW229382   5.319   2.422   2.010
 9495SOL     OW29383   5.529   3.079   1.110
 9495SOL    HW129384   5.456   3.128   1.060
 9495SOL    HW229385   5.598   3.047   1.045
 9496SOL     OW29386   5.821   2.822   1.223
 9496SOL    HW129387   5.878   2.877   1.283
 9496SOL    HW229388   5.778   2.880   1.155
 9497SOL     OW29389   5.016   5.392   5.108
 9497SOL    HW129390   4.932   5.382   5.054
 9497SOL    HW229391   5.000   5.457   5.182
 9498SOL     OW29392   1.030   5.986   5.140
 9498SOL    HW129393   1.126   5.989   5.115
 9498SOL    HW229394   0.975   6.030   5.069
 9499SOL     OW29395   5.760   6.438   4.203
 9499SOL    HW129396   5.710   6.520   4.231
 9499SOL    HW229397   5.759   6.371   4.278
 9500SOL     OW29398   3.000   1.788   0.487
 9500SOL    HW129399   3.032   1.805   0.580
 9500SOL    HW229400   2.915   1.736   0.489
 9501SOL     OW29401   2.067   4.003   5.128
 9501SOL    HW129402   2.096   3.965   5.216
 9501SOL    HW229403   2.147   4.014   5.069
 9502SOL     OW29404   5.892   4.763   3.975
 9502SOL    HW129405   5.906   4.830   4.047
 9502SOL    HW229406   5.946   4.788   3.894
 9503SOL     OW29407   6.166   0.937   0.131
 9503SOL    HW129408   6.162   0.946   0.031
 9503SOL    HW229409   6.252   0.974   0.165
 9504SOL     OW29410   6.285   5.777   2.044
 9504SOL    HW129411   6.365   5.756   2.100
 9504SOL    HW229412   6.289   5.872   2.015
 9505SOL     OW29413   4.465   4.334   6.318
 9505SOL    HW129414   4.550   4.311   6.271
 9505SOL    HW229415   4.486   4.372   6.408
 9506SOL     OW29416   2.618   1.036   1.032
 9506SOL    HW129417   2.696   1.096   1.018
 9506SOL    HW229418   2.634   0.980   1.113
 9507SOL     OW29419   6.467   0.134   1.436
 9507SOL    HW129420   6.548   0.112   1.381
 9507SOL    HW229421   6.390   0.079   1.403
 9508SOL     OW29422   4.162   0.869   2.623
 9508SOL    HW129423   4.140   0.844   2.717
 9508SOL    HW229424   4.247   0.823   2.596
 9509SOL     OW29425   5.523   1.437   3.578
 9509SOL    HW129426   5.474   1.519   3.605
 9509SOL    HW229427   5.527   1.432   3.478
 9510SOL     OW29428   1.886   2.656   2.622
 9510SOL    HW129429   1.861   2.726   2.556
 9510SOL    HW229430   1.967   2.606   2.590
 9511SOL     OW29431   0.560   1.637   1.134
 9511SOL    HW129432   0.653   1.661   1.162
 9511SOL    HW229433   0.519   1.715   1.087
 9512SOL     OW29434   6.485   1.769   2.070
 9512SOL    HW129435   6.570   1.759   2.019
 9512SOL    HW229436   6.413   1.716   2.025
 9513SOL     OW29437   4.526   4.033   5.295
 9513SOL    HW129438   4.533   4.081   5.382
 9513SOL    HW229439   4.476   3.948   5.308
 9514SOL     OW29440   3.632   2.906   0.701
 9514SOL    HW129441   3.611   2.812   0.728
 9514SOL    HW229442   3.549   2.950   0.666
 9515SOL     OW29443   0.704   5.544   3.238
 9515SOL    HW129444   0.735   5.626   3.189
 9515SOL    HW229445   0.683   5.472   3.172
 9516SOL     OW29446   0.299   3.862   5.854
 9516SOL    HW129447   0.234   3.936   5.870
 9516SOL    HW229448   0.266   3.805   5.779
 9517SOL     OW29449   0.144   0.252   0.983
 9517SOL    HW129450   0.115   0.211   0.896
 9517SOL    HW229451   0.173   0.179   1.045
 9518SOL     OW29452   0.871   1.017   1.538
 9518SOL    HW129453   0.828   1.084   1.479
 9518SOL    HW229454   0.956   1.054   1.575
 9519SOL     OW29455   1.010   2.784   5.190
 9519SOL    HW129456   0.965   2.856   5.243
 9519SOL    HW229457   0.941   2.732   5.139
 9520SOL     OW29458   3.521   6.637   2.053
 9520SOL    HW129459   3.620   6.626   2.062
 9520SOL    HW229460   3.485   6.565   1.994
 9521SOL     OW29461   5.464   4.969   3.393
 9521SOL    HW129462   5.427   4.939   3.481
 9521SOL    HW229463   5.488   4.888   3.338
 9522SOL     OW29464   2.824   5.034   6.828
 9522SOL    HW129465   2.912   5.073   6.799
 9522SOL    HW229466   2.831   5.000   6.921
 9523SOL     OW29467   2.213   6.559   5.399
 9523SOL    HW129468   2.186   6.621   5.474
 9523SOL    HW229469   2.307   6.578   5.373
 9524SOL     OW29470   5.011   2.844   0.743
 9524SOL    HW129471   4.978   2.937   0.758
 9524SOL    HW229472   5.002   2.791   0.828
 9525SOL     OW29473   4.062   6.974   4.462
 9525SOL    HW129474   4.072   0.032   4.516
 9525SOL    HW229475   4.138   6.965   4.398
 9526SOL     OW29476   4.790   6.142   1.443
 9526SOL    HW129477   4.738   6.073   1.494
 9526SOL    HW229478   4.820   6.214   1.505
 9527SOL     OW29479   0.057   2.413   0.869
 9527SOL    HW129480   0.042   2.504   0.908
 9527SOL    HW229481   0.076   2.420   0.771
 9528SOL     OW29482   6.944   1.269   1.660
 9528SOL    HW129483   7.002   1.216   1.722
 9528SOL    HW229484   6.968   1.248   1.565
 9529SOL     OW29485   1.370   3.170   4.953
 9529SOL    HW129486   1.284   3.205   4.991
 9529SOL    HW229487   1.368   3.179   4.853
 9530SOL     OW29488   1.922   1.474   3.983
 9530SOL    HW129489   1.863   1.555   3.978
 9530SOL    HW229490   2.018   1.503   3.987
 9531SOL     OW29491   2.904   6.609   3.622
 9531SOL    HW129492   2.884   6.515   3.651
 9531SOL    HW229493   2.821   6.652   3.588
 9532SOL     OW29494   3.029   1.473   2.017
 9532SOL    HW129495   3.047   1.563   2.058
 9532SOL    HW229496   2.960   1.483   1.945
 9533SOL     OW29497   0.956   1.688   4.819
 9533SOL    HW129498   1.017   1.760   4.853
 9533SOL    HW229499   0.943   1.619   4.890
 9534SOL     OW29500   5.587   2.057   4.562
 9534SOL    HW129501   5.613   1.968   4.525
 9534SOL    HW229502   5.661   2.122   4.549
 9535SOL     OW29503   3.502   1.862   4.744
 9535SOL    HW129504   3.475   1.811   4.662
 9535SOL    HW229505   3.427   1.922   4.772
 9536SOL     OW29506   2.656   6.667   6.515
 9536SOL    HW129507   2.568   6.621   6.528
 9536SOL    HW229508   2.730   6.603   6.533
 9537SOL     OW29509   2.848   6.977   0.627
 9537SOL    HW129510   2.749   6.973   0.640
 9537SOL    HW229511   2.888   0.008   0.699
 9538SOL     OW29512   6.218   3.926   2.774
 9538SOL    HW129513   6.247   3.888   2.862
 9538SOL    HW229514   6.286   3.904   2.704
 9539SOL     OW29515   0.047   3.653   6.877
 9539SOL    HW129516   0.048   3.579   6.944
 9539SOL    HW229517   6.979   3.669   6.847
 9540SOL     OW29518   5.205   3.091   5.642
 9540SOL    HW129519   5.263   3.172   5.627
 9540SOL    HW229520   5.126   3.117   5.698
 9541SOL     OW29521   6.717   1.720   3.624
 9541SOL    HW129522   6.636   1.684   3.577
 9541SOL    HW229523   6.790   1.735   3.557
 9542SOL     OW29524   4.699   4.201   4.237
 9542SOL    HW129525   4.699   4.199   4.337
 9542SOL    HW229526   4.652   4.283   4.205
 9543SOL     OW29527   5.139   2.581   1.599
 9543SOL    HW129528   5.084   2.645   1.653
 9543SOL    HW229529   5.151   2.496   1.651
 9544SOL     OW29530   4.397   1.189   1.080
 9544SOL    HW129531   4.299   1.176   1.095
 9544SOL    HW229532   4.426   1.139   0.999
 9545SOL     OW29533   1.225   0.012   4.614
 9545SOL    HW129534   1.135   0.049   4.640
 9545SOL    HW229535   1.294   0.045   4.678
 9546SOL     OW29536   2.234   4.628   1.870
 9546SOL    HW129537   2.226   4.622   1.771
 9546SOL    HW229538   2.154   4.586   1.913
 9547SOL     OW29539   5.822   5.327   3.502
 9547SOL    HW129540   5.745   5.303   3.442
 9547SOL    HW229541   5.817   5.424   3.525
 9548SOL     OW29542   5.613   0.063   2.754
 9548SOL    HW129543   5.627   0.162   2.741
 9548SOL    HW229544   5.574   0.047   2.844
 9549SOL     OW29545   2.390   5.852   0.363
 9549SOL    HW129546   2.291   5.835   0.361
 9549SOL    HW229547   2.424   5.834   0.455
 9550SOL     OW29548   1.864   1.315   0.031
 9550SOL    HW129549   1.868   1.220   0.062
 9550SOL    HW229550   1.946   1.336   7.002
 9551SOL     OW29551   2.114   5.656   4.882
 9551SOL    HW129552   2.131   5.741   4.831
 9551SOL    HW229553   2.131   5.672   4.979
 9552SOL     OW29554   0.644   5.112   3.573
 9552SOL    HW129555   0.608   5.192   3.621
 9552SOL    HW229556   0.574   5.041   3.570
 9553SOL     OW29557   5.596   4.900   6.324
 9553SOL    HW129558   5.513   4.894   6.378
 9553SOL    HW229559   5.648   4.981   6.350
 9554SOL     OW29560   1.669   1.795   1.688
 9554SOL    HW129561   1.658   1.801   1.589
 9554SOL    HW229562   1.637   1.706   1.720
 9555SOL     OW29563   0.300   2.711   6.181
 9555SOL    HW129564   0.263   2.618   6.168
 9555SOL    HW229565   0.224   2.776   6.186
 9556SOL     OW29566   6.690   1.089   1.366
 9556SOL    HW129567   6.605   1.136   1.390
 9556SOL    HW229568   6.768   1.150   1.383
 9557SOL     OW29569   4.718   1.626   2.285
 9557SOL    HW129570   4.709   1.575   2.199
 9557SOL    HW229571   4.779   1.704   2.271
 9558SOL     OW29572   6.576   3.868   1.098
 9558SOL    HW129573   6.549   3.946   1.155
 9558SOL    HW229574   6.657   3.825   1.136
 9559SOL     OW29575   0.603   3.778   2.947
 9559SOL    HW129576   0.629   3.821   3.033
 9559SOL    HW229577   0.599   3.848   2.875
 9560SOL     OW29578   3.922   2.547   5.337
 9560SOL    HW129579   3.899   2.606   5.414
 9560SOL    HW229580   4.008   2.577   5.296
 9561SOL     OW29581   3.100   5.793   6.132
 9561SOL    HW129582   3.089   5.886   6.167
 9561SOL    HW229583   3.121   5.796   6.034
 9562SOL     OW29584   5.641   5.252   4.299
 9562SOL    HW129585   5.713   5.314   4.269
 9562SOL    HW229586   5.656   5.161   4.260
 9563SOL     OW29587   0.437   6.541   6.673
 9563SOL    HW129588   0.344   6.568   6.695
 9563SOL    HW229589   0.491   6.622   6.651
 9564SOL     OW29590   1.191   0.689   5.976
 9564SOL    HW129591   1.286   0.671   5.951
 9564SOL    HW229592   1.135   0.608   5.955
 9565SOL     OW29593   3.172   5.678   5.119
 9565SOL    HW129594   3.087   5.726   5.096
 9565SOL    HW229595   3.151   5.593   5.168
 9566SOL     OW29596   2.888   4.759   6.090
 9566SOL    HW129597   2.920   4.846   6.052
 9566SOL    HW229598   2.964   4.693   6.092
 9567SOL     OW29599   6.108   5.133   4.886
 9567SOL    HW129600   6.042   5.191   4.839
 9567SOL    HW229601   6.115   5.161   4.982
 9568SOL     OW29602   5.369   3.783   5.862
 9568SOL    HW129603   5.312   3.859   5.893
 9568SOL    HW229604   5.328   3.696   5.889
 9569SOL     OW29605   6.107   0.080   1.605
 9569SOL    HW129606   6.131   0.069   1.701
 9569SOL    HW229607   6.009   0.062   1.593
 9570SOL     OW29608   1.215   1.730   6.668
 9570SOL    HW129609   1.283   1.800   6.647
 9570SOL    HW229610   1.255   1.661   6.729
 9571SOL     OW29611   2.910   2.113   0.677
 9571SOL    HW129612   2.841   2.056   0.633
 9571SOL    HW229613   2.995   2.061   0.688
 9572SOL     OW29614   0.193   3.966   0.617
 9572SOL    HW129615   0.233   4.032   0.554
 9572SOL    HW229616   0.237   3.877   0.605
 9573SOL     OW29617   4.839   1.363   3.122
 9573SOL    HW129618   4.805   1.297   3.056
 9573SOL    HW229619   4.763   1.413   3.162
 9574SOL     OW29620   2.644   2.377   3.376
 9574SOL    HW129621   2.668   2.385   3.280
 9574SOL    HW229622   2.591   2.457   3.405
 9575SOL     OW29623   4.067   1.391   3.148
 9575SOL    HW129624   4.037   1.440   3.229
 9575SOL    HW229625   4.099   1.456   3.079
 9576SOL     OW29626   3.839   3.561   5.608
 9576SOL    HW129627   3.830   3.537   5.705
 9576SOL    HW229628   3.784   3.499   5.553
 9577SOL     OW29629   0.834   5.927   3.537
 9577SOL    HW129630   0.779   5.997   3.582
 9577SOL    HW229631   0.829   5.842   3.590
 9578SOL     OW29632   0.044   3.923   1.081
 9578SOL    HW129633   0.065   3.872   0.997
 9578SOL    HW229634   6.972   3.946   1.082
 9579SOL     OW29635   2.120   4.906   2.996
 9579SOL    HW129636   2.121   4.807   3.013
 9579SOL    HW229637   2.040   4.928   2.939
 9580SOL     OW29638   4.207   3.754   6.058
 9580SOL    HW129639   4.210   3.844   6.015
 9580SOL    HW229640   4.144   3.695   6.007
 9581SOL     OW29641   1.196   6.011   5.933
 9581SOL    HW129642   1.110   6.041   5.894
 9581SOL    HW229643   1.200   5.911   5.934
 9582SOL     OW29644   4.544   5.265   3.076
 9582SOL    HW129645   4.468   5.308   3.026
 9582SOL    HW229646   4.538   5.289   3.173
 9583SOL     OW29647   1.490   4.686   1.434
 9583SOL    HW129648   1.552   4.710   1.359
 9583SOL    HW229649   1.457   4.593   1.421
 9584SOL     OW29650   5.002   4.935   0.175
 9584SOL    HW129651   5.098   4.930   0.146
 9584SOL    HW229652   4.960   4.844   0.165
 9585SOL     OW29653   6.759   0.921   2.885
 9585SOL    HW129654   6.819   0.948   2.810
 9585SOL    HW229655   6.807   0.933   2.972
 9586SOL     OW29656   5.009   3.786   2.491
 9586SOL    HW129657   5.046   3.804   2.582
 9586SOL    HW229658   4.998   3.687   2.478
 9587SOL     OW29659   4.349   6.471   1.638
 9587SOL    HW129660   4.330   6.536   1.711
 9587SOL    HW229661   4.299   6.386   1.655
 9588SOL     OW29662   6.332   0.849   3.586
 9588SOL    HW129663   6.309   0.792   3.665
 9588SOL    HW229664   6.348   0.943   3.616
 9589SOL     OW29665   3.265   2.006   4.706
 9589SOL    HW129666   3.244   1.952   4.625
 9589SOL    HW229667   3.210   2.090   4.706
 9590SOL     OW29668   0.244   4.775   4.648
 9590SOL    HW129669   0.328   4.722   4.638
 9590SOL    HW229670   0.179   4.748   4.576
 9591SOL     OW29671   1.124   4.403   2.722
 9591SOL    HW129672   1.176   4.321   2.748
 9591SOL    HW229673   1.084   4.390   2.632
 9592SOL     OW29674   4.461   5.845   0.725
 9592SOL    HW129675   4.402   5.909   0.776
 9592SOL    HW229676   4.404   5.786   0.668
 9593SOL     OW29677   2.314   1.942   3.276
 9593SOL    HW129678   2.376   1.882   3.226
 9593SOL    HW229679   2.305   2.029   3.227
 9594SOL     OW29680   5.943   0.526   1.184
 9594SOL    HW129681   5.966   0.623   1.175
 9594SOL    HW229682   5.955   0.497   1.279
 9595SOL     OW29683   1.421   5.718   5.125
 9595SOL    HW129684   1.373   5.650   5.069
 9595SOL    HW229685   1.384   5.715   5.218
 9596SOL     OW29686   5.173   5.968   2.064
 9596SOL    HW129687   5.168   5.877   2.107
 9596SOL    HW229688   5.158   5.959   1.966
 9597SOL     OW29689   2.575   4.496   1.268
 9597SOL    HW129690   2.501   4.506   1.201
 9597SOL    HW229691   2.579   4.577   1.326
 9598SOL     OW29692   0.373   6.235   6.093
 9598SOL    HW129693   0.295   6.207   6.037
 9598SOL    HW229694   0.341   6.293   6.168
 9599SOL     OW29695   3.769   2.180   5.155
 9599SOL    HW129696   3.704   2.159   5.082
 9599SOL    HW229697   3.861   2.188   5.116
 9600SOL     OW29698   1.747   6.417   6.532
 9600SOL    HW129699   1.658   6.461   6.540
 9600SOL    HW229700   1.806   6.472   6.473
 9601SOL     OW29701   1.108   6.680   5.290
 9601SOL    HW129702   1.107   6.600   5.350
 9601SOL    HW229703   1.123   6.763   5.344
 9602SOL     OW29704   1.297   5.611   6.228
 9602SOL    HW129705   1.333   5.600   6.321
 9602SOL    HW229706   1.370   5.598   6.162
 9603SOL     OW29707   0.958   4.722   2.540
 9603SOL    HW129708   1.008   4.691   2.621
 9603SOL    HW229709   0.889   4.654   2.515
 9604SOL     OW29710   0.286   0.577   6.210
 9604SOL    HW129711   0.247   0.653   6.261
 9604SOL    HW229712   0.226   0.497   6.217
 9605SOL     OW29713   3.208   4.703   1.103
 9605SOL    HW129714   3.182   4.782   1.046
 9605SOL    HW229715   3.192   4.725   1.199
 9606SOL     OW29716   0.084   0.274   5.376
 9606SOL    HW129717   0.123   0.185   5.395
 9606SOL    HW229718   0.156   0.343   5.373
 9607SOL     OW29719   0.025   2.107   2.573
 9607SOL    HW129720   6.956   2.123   2.601
 9607SOL    HW229721   0.086   2.166   2.626
 9608SOL     OW29722   6.348   1.139   2.003
 9608SOL    HW129723   6.290   1.093   1.935
 9608SOL    HW229724   6.364   1.234   1.974
 9609SOL     OW29725   1.589   2.370   3.520
 9609SOL    HW129726   1.620   2.290   3.467
 9609SOL    HW229727   1.606   2.453   3.468
 9610SOL     OW29728   4.081   0.904   5.722
 9610SOL    HW129729   3.981   0.898   5.719
 9610SOL    HW229730   4.115   0.835   5.786
 9611SOL     OW29731   5.004   5.647   0.965
 9611SOL    HW129732   4.972   5.741   0.973
 9611SOL    HW229733   5.060   5.623   1.044
 9612SOL     OW29734   5.498   3.119   3.602
 9612SOL    HW129735   5.431   3.193   3.607
 9612SOL    HW229736   5.537   3.103   3.692
 9613SOL     OW29737   5.506   0.816   4.746
 9613SOL    HW129738   5.539   0.830   4.840
 9613SOL    HW229739   5.574   0.851   4.682
 9614SOL     OW29740   2.871   2.517   0.512
 9614SOL    HW129741   2.878   2.454   0.590
 9614SOL    HW229742   2.867   2.611   0.546
 9615SOL     OW29743   0.733   5.567   3.503
 9615SOL    HW129744   0.721   5.543   3.406
 9615SOL    HW229745   0.777   5.491   3.551
 9616SOL     OW29746   0.943   2.344   0.888
 9616SOL    HW129747   1.040   2.320   0.891
 9616SOL    HW229748   0.905   2.340   0.981
 9617SOL     OW29749   0.163   2.317   2.772
 9617SOL    HW129750   0.222   2.290   2.847
 9617SOL    HW229751   0.143   2.415   2.779
 9618SOL     OW29752   4.930   3.824   1.617
 9618SOL    HW129753   4.941   3.767   1.535
 9618SOL    HW229754   4.922   3.766   1.697
 9619SOL     OW29755   0.658   6.957   1.188
 9619SOL    HW129756   0.670   6.945   1.089
 9619SOL    HW229757   0.660   0.029   1.210
 9620SOL     OW29758   3.833   1.304   0.138
 9620SOL    HW129759   3.885   1.230   0.095
 9620SOL    HW229760   3.886   1.344   0.213
 9621SOL     OW29761   0.158   0.992   1.511
 9621SOL    HW129762   0.224   1.062   1.539
 9621SOL    HW229763   0.207   0.906   1.494
 9622SOL     OW29764   6.664   5.887   5.826
 9622SOL    HW129765   6.634   5.892   5.731
 9622SOL    HW229766   6.738   5.820   5.834
 9623SOL     OW29767   2.969   6.022   5.839
 9623SOL    HW129768   3.032   5.950   5.868
 9623SOL    HW229769   2.925   5.995   5.753
 9624SOL     OW29770   4.500   5.715   5.818
 9624SOL    HW129771   4.502   5.653   5.896
 9624SOL    HW229772   4.405   5.732   5.791
 9625SOL     OW29773   4.839   4.437   6.239
 9625SOL    HW129774   4.919   4.384   6.267
 9625SOL    HW229775   4.865   4.532   6.222
 9626SOL     OW29776   2.575   2.688   6.336
 9626SOL    HW129777   2.630   2.762   6.376
 9626SOL    HW229778   2.623   2.648   6.258
 9627SOL     OW29779   0.245   5.818   0.544
 9627SOL    HW129780   0.248   5.768   0.457
 9627SOL    HW229781   0.201   5.907   0.530
 9628SOL     OW29782   5.739   0.915   6.008
 9628SOL    HW129783   5.681   0.834   6.018
 9628SOL    HW229784   5.689   0.996   6.039
 9629SOL     OW29785   0.751   5.728   3.982
 9629SOL    HW129786   0.814   5.782   3.927
 9629SOL    HW229787   0.658   5.742   3.951
 9630SOL     OW29788   5.365   0.874   6.581
 9630SOL    HW129789   5.271   0.865   6.548
 9630SOL    HW229790   5.428   0.835   6.513
 9631SOL     OW29791   4.464   6.402   0.752
 9631SOL    HW129792   4.467   6.495   0.717
 9631SOL    HW229793   4.489   6.338   0.678
 9632SOL     OW29794   2.798   5.173   3.053
 9632SOL    HW129795   2.891   5.204   3.072
 9632SOL    HW229796   2.797   5.074   3.044
 9633SOL     OW29797   3.661   2.995   5.081
 9633SOL    HW129798   3.691   2.917   5.136
 9633SOL    HW229799   3.704   3.078   5.116
 9634SOL     OW29800   5.737   4.784   2.970
 9634SOL    HW129801   5.837   4.786   2.966
 9634SOL    HW229802   5.700   4.808   2.880
 9635SOL     OW29803   0.766   4.579   4.599
 9635SOL    HW129804   0.848   4.631   4.578
 9635SOL    HW229805   0.715   4.561   4.515
 9636SOL     OW29806   5.666   3.734   3.897
 9636SOL    HW129807   5.664   3.675   3.816
 9636SOL    HW229808   5.584   3.718   3.952
 9637SOL     OW29809   1.555   3.357   0.006
 9637SOL    HW129810   1.535   3.452   0.032
 9637SOL    HW229811   1.642   3.330   0.045
 9638SOL     OW29812   6.338   4.489   5.429
 9638SOL    HW129813   6.273   4.564   5.443
 9638SOL    HW229814   6.324   4.451   5.337
 9639SOL     OW29815   5.103   2.344   1.413
 9639SOL    HW129816   5.107   2.369   1.316
 9639SOL    HW229817   5.100   2.427   1.469
 9640SOL     OW29818   3.384   0.291   2.866
 9640SOL    HW129819   3.456   0.334   2.920
 9640SOL    HW229820   3.361   0.202   2.906
 9641SOL     OW29821   0.456   3.166   4.702
 9641SOL    HW129822   0.433   3.084   4.754
 9641SOL    HW229823   0.383   3.186   4.637
 9642SOL     OW29824   0.689   2.808   4.533
 9642SOL    HW129825   0.635   2.801   4.617
 9642SOL    HW229826   0.756   2.733   4.531
 9643SOL     OW29827   5.507   4.843   4.594
 9643SOL    HW129828   5.571   4.778   4.636
 9643SOL    HW229829   5.471   4.804   4.509
 9644SOL     OW29830   1.099   4.557   3.844
 9644SOL    HW129831   1.024   4.587   3.902
 9644SOL    HW229832   1.181   4.611   3.863
 9645SOL     OW29833   1.105   5.068   6.755
 9645SOL    HW129834   1.144   5.084   6.665
 9645SOL    HW229835   1.062   4.978   6.758
 9646SOL     OW29836   2.907   5.297   0.746
 9646SOL    HW129837   2.994   5.256   0.718
 9646SOL    HW229838   2.907   5.394   0.724
 9647SOL     OW29839   5.636   6.763   3.324
 9647SOL    HW129840   5.546   6.719   3.320
 9647SOL    HW229841   5.707   6.693   3.321
 9648SOL     OW29842   2.983   2.152   1.144
 9648SOL    HW129843   2.909   2.198   1.095
 9648SOL    HW229844   3.071   2.192   1.117
 9649SOL     OW29845   7.025   5.883   1.099
 9649SOL    HW129846   0.097   5.859   1.099
 9649SOL    HW229847   6.973   5.806   1.062
 9650SOL     OW29848   0.748   4.942   5.001
 9650SOL    HW129849   0.762   4.923   4.904
 9650SOL    HW229850   0.823   4.902   5.054
 9651SOL     OW29851   3.913   1.851   6.800
 9651SOL    HW129852   3.870   1.765   6.829
 9651SOL    HW229853   3.990   1.871   6.860
 9652SOL     OW29854   0.375   3.754   0.226
 9652SOL    HW129855   0.441   3.679   0.219
 9652SOL    HW229856   0.417   3.831   0.274
 9653SOL     OW29857   5.362   4.637   5.842
 9653SOL    HW129858   5.341   4.563   5.906
 9653SOL    HW229859   5.281   4.695   5.830
 9654SOL     OW29860   3.561   3.807   3.684
 9654SOL    HW129861   3.578   3.906   3.688
 9654SOL    HW229862   3.643   3.761   3.652
 9655SOL     OW29863   5.005   1.143   1.259
 9655SOL    HW129864   4.955   1.081   1.198
 9655SOL    HW229865   4.969   1.135   1.352
 9656SOL     OW29866   4.709   4.377   6.623
 9656SOL    HW129867   4.619   4.333   6.623
 9656SOL    HW229868   4.744   4.382   6.716
 9657SOL     OW29869   5.088   4.703   2.943
 9657SOL    HW129870   5.154   4.772   2.913
 9657SOL    HW229871   5.106   4.617   2.895
 9658SOL     OW29872   5.374   1.128   2.822
 9658SOL    HW129873   5.349   1.199   2.888
 9658SOL    HW229874   5.317   1.137   2.740
 9659SOL     OW29875   3.409   3.118   6.766
 9659SOL    HW129876   3.343   3.059   6.719
 9659SOL    HW229877   3.484   3.062   6.802
 9660SOL     OW29878   1.786   6.552   1.491
 9660SOL    HW129879   1.855   6.618   1.461
 9660SOL    HW229880   1.826   6.492   1.560
 9661SOL     OW29881   4.085   3.622   2.242
 9661SOL    HW129882   4.066   3.663   2.153
 9661SOL    HW229883   4.094   3.695   2.310
 9662SOL     OW29884   4.644   6.948   5.849
 9662SOL    HW129885   4.588   7.013   5.900
 9662SOL    HW229886   4.602   6.929   5.760
 9663SOL     OW29887   1.119   5.446   3.056
 9663SOL    HW129888   1.099   5.370   3.118
 9663SOL    HW229889   1.069   5.432   2.971
 9664SOL     OW29890   3.003   4.872   2.833
 9664SOL    HW129891   2.961   4.919   2.755
 9664SOL    HW229892   3.099   4.900   2.841
 9665SOL     OW29893   6.485   4.847   6.536
 9665SOL    HW129894   6.559   4.785   6.562
 9665SOL    HW229895   6.491   4.931   6.590
 9666SOL     OW29896   4.918   4.098   0.762
 9666SOL    HW129897   4.954   4.147   0.683
 9666SOL    HW229898   4.994   4.057   0.813
 9667SOL     OW29899   5.593   6.257   0.043
 9667SOL    HW129900   5.657   6.296   7.002
 9667SOL    HW229901   5.506   6.305   0.038
 9668SOL     OW29902   1.596   1.174   6.573
 9668SOL    HW129903   1.547   1.253   6.536
 9668SOL    HW229904   1.573   1.163   6.670
 9669SOL     OW29905   3.083   0.444   6.906
 9669SOL    HW129906   3.181   0.464   6.911
 9669SOL    HW229907   3.037   0.484   6.985
 9670SOL     OW29908   0.547   1.200   1.389
 9670SOL    HW129909   0.475   1.242   1.334
 9670SOL    HW229910   0.634   1.206   1.341
 9671SOL     OW29911   1.068   4.915   6.430
 9671SOL    HW129912   0.978   4.951   6.456
 9671SOL    HW229913   1.089   4.942   6.336
 9672SOL     OW29914   0.641   3.470   4.179
 9672SOL    HW129915   0.623   3.430   4.269
 9672SOL    HW229916   0.560   3.459   4.121
 9673SOL     OW29917   2.359   2.504   6.454
 9673SOL    HW129918   2.443   2.541   6.415
 9673SOL    HW229919   2.290   2.577   6.460
 9674SOL     OW29920   1.765   6.947   3.868
 9674SOL    HW129921   1.810   0.010   3.869
 9674SOL    HW229922   1.694   6.945   3.798
 9675SOL     OW29923   6.616   4.345   5.699
 9675SOL    HW129924   6.553   4.423   5.699
 9675SOL    HW229925   6.583   4.277   5.765
 9676SOL     OW29926   0.750   3.724   5.544
 9676SOL    HW129927   0.662   3.761   5.574
 9676SOL    HW229928   0.765   3.750   5.448
 9677SOL     OW29929   7.021   4.863   2.616
 9677SOL    HW129930   6.956   4.927   2.575
 9677SOL    HW229931   0.078   4.859   2.561
 9678SOL     OW29932   3.666   3.336   5.500
 9678SOL    HW129933   3.578   3.364   5.462
 9678SOL    HW229934   3.651   3.289   5.587
 9679SOL     OW29935   1.364   0.902   3.728
 9679SOL    HW129936   1.326   0.972   3.787
 9679SOL    HW229937   1.439   0.855   3.775
 9680SOL     OW29938   4.210   0.458   2.304
 9680SOL    HW129939   4.129   0.490   2.352
 9680SOL    HW229940   4.288   0.517   2.326
 9681SOL     OW29941   1.304   3.492   1.447
 9681SOL    HW129942   1.395   3.529   1.469
 9681SOL    HW229943   1.281   3.420   1.513
 9682SOL     OW29944   4.867   0.067   5.739
 9682SOL    HW129945   4.790   0.029   5.790
 9682SOL    HW229946   4.924   7.019   5.705
 9683SOL     OW29947   3.828   5.827   4.631
 9683SOL    HW129948   3.865   5.874   4.551
 9683SOL    HW229949   3.878   5.742   4.646
 9684SOL     OW29950   6.883   3.222   5.702
 9684SOL    HW129951   6.926   3.310   5.683
 9684SOL    HW229952   6.877   3.210   5.801
 9685SOL     OW29953   3.241   4.639   1.730
 9685SOL    HW129954   3.312   4.592   1.783
 9685SOL    HW229955   3.165   4.577   1.715
 9686SOL     OW29956   0.299   1.631   5.342
 9686SOL    HW129957   0.334   1.664   5.430
 9686SOL    HW229958   0.374   1.628   5.276
 9687SOL     OW29959   5.626   1.451   3.860
 9687SOL    HW129960   5.705   1.506   3.834
 9687SOL    HW229961   5.572   1.430   3.778
 9688SOL     OW29962   0.124   5.093   1.738
 9688SOL    HW129963   0.144   5.000   1.708
 9688SOL    HW229964   0.206   5.134   1.777
 9689SOL     OW29965   1.508   5.492   1.185
 9689SOL    HW129966   1.429   5.435   1.165
 9689SOL    HW229967   1.477   5.583   1.213
 9690SOL     OW29968   0.201   4.784   5.084
 9690SOL    HW129969   0.237   4.722   5.014
 9690SOL    HW229970   0.103   4.799   5.068
 9691SOL     OW29971   4.006   3.323   2.283
 9691SOL    HW129972   4.039   3.262   2.211
 9691SOL    HW229973   4.050   3.413   2.272
 9692SOL     OW29974   4.974   4.647   0.522
 9692SOL    HW129975   5.053   4.669   0.465
 9692SOL    HW229976   4.903   4.716   0.507
 9693SOL     OW29977   4.655   3.528   6.331
 9693SOL    HW129978   4.745   3.527   6.286
 9693SOL    HW229979   4.638   3.438   6.370
 9694SOL     OW29980   2.495   6.360   0.848
 9694SOL    HW129981   2.586   6.378   0.885
 9694SOL    HW229982   2.436   6.439   0.865
 9695SOL     OW29983   1.469   2.835   3.859
 9695SOL    HW129984   1.372   2.858   3.853
 9695SOL    HW229985   1.523   2.919   3.865
 9696SOL     OW29986   4.827   3.063   3.357
 9696SOL    HW129987   4.831   3.159   3.328
 9696SOL    HW229988   4.846   3.057   3.455
 9697SOL     OW29989   0.074   0.526   1.570
 9697SOL    HW129990   0.117   0.463   1.506
 9697SOL    HW229991   0.010   0.475   1.628
 9698SOL     OW29992   7.011   3.236   1.834
 9698SOL    HW129993   6.921   3.231   1.876
 9698SOL    HW229994   0.032   3.148   1.843
 9699SOL     OW29995   0.769   6.082   2.001
 9699SOL    HW129996   0.699   6.082   2.072
 9699SOL    HW229997   0.784   6.175   1.968
 9700SOL     OW29998   5.774   0.765   6.610
 9700SOL    HW129999   5.752   0.853   6.568
 9700SOL    HW230000   5.848   0.722   6.560
 9701SOL     OW30001   5.479   4.038   0.399
 9701SOL    HW130002   5.572   4.001   0.399
 9701SOL    HW230003   5.421   3.982   0.340
 9702SOL     OW30004   3.498   3.984   1.594
 9702SOL    HW130005   3.568   3.926   1.634
 9702SOL    HW230006   3.464   4.048   1.663
 9703SOL     OW30007   6.257   4.979   3.153
 9703SOL    HW130008   6.287   5.052   3.214
 9703SOL    HW230009   6.306   4.895   3.174
 9704SOL     OW30010   1.011   4.497   2.177
 9704SOL    HW130011   1.058   4.560   2.115
 9704SOL    HW230012   1.027   4.403   2.146
 9705SOL     OW30013   0.523   3.846   5.632
 9705SOL    HW130014   0.514   3.791   5.715
 9705SOL    HW230015   0.435   3.887   5.609
 9706SOL     OW30016   0.609   0.572   2.073
 9706SOL    HW130017   0.603   0.507   2.148
 9706SOL    HW230018   0.698   0.618   2.075
 9707SOL     OW30019   0.959   5.314   2.238
 9707SOL    HW130020   0.934   5.405   2.205
 9707SOL    HW230021   1.025   5.323   2.312
 9708SOL     OW30022   2.720   1.002   1.688
 9708SOL    HW130023   2.658   0.974   1.615
 9708SOL    HW230024   2.727   0.928   1.755
 9709SOL     OW30025   5.067   2.016   2.067
 9709SOL    HW130026   5.110   1.962   1.994
 9709SOL    HW230027   5.003   2.081   2.026
 9710SOL     OW30028   5.024   5.002   4.460
 9710SOL    HW130029   5.085   5.062   4.407
 9710SOL    HW230030   4.988   4.931   4.400
 9711SOL     OW30031   2.777   0.794   6.543
 9711SOL    HW130032   2.866   0.780   6.501
 9711SOL    HW230033   2.785   0.859   6.618
 9712SOL     OW30034   5.176   0.163   5.329
 9712SOL    HW130035   5.153   0.104   5.251
 9712SOL    HW230036   5.093   0.188   5.378
 9713SOL     OW30037   1.918   0.379   2.634
 9713SOL    HW130038   1.920   0.321   2.553
 9713SOL    HW230039   1.982   0.455   2.622
 9714SOL     OW30040   2.047   3.079   4.272
 9714SOL    HW130041   1.951   3.104   4.280
 9714SOL    HW230042   2.074   3.023   4.350
 9715SOL     OW30043   0.273   2.530   6.531
 9715SOL    HW130044   0.343   2.583   6.483
 9715SOL    HW230045   0.279   2.434   6.503
 9716SOL     OW30046   2.429   6.710   0.733
 9716SOL    HW130047   2.396   6.690   0.825
 9716SOL    HW230048   2.509   6.653   0.713
 9717SOL     OW30049   3.867   2.759   5.981
 9717SOL    HW130050   3.932   2.692   5.947
 9717SOL    HW230051   3.904   2.803   6.063
 9718SOL     OW30052   3.785   2.471   0.039
 9718SOL    HW130053   3.789   2.507   6.972
 9718SOL    HW230054   3.855   2.401   0.051
 9719SOL     OW30055   4.451   0.647   5.868
 9719SOL    HW130056   4.399   0.625   5.785
 9719SOL    HW230057   4.423   0.587   5.943
 9720SOL     OW30058   2.155   2.390   2.475
 9720SOL    HW130059   2.216   2.357   2.547
 9720SOL    HW230060   2.143   2.489   2.484
 9721SOL     OW30061   0.828   1.732   1.210
 9721SOL    HW130062   0.856   1.759   1.118
 9721SOL    HW230063   0.864   1.798   1.277
 9722SOL     OW30064   4.222   2.634   5.503
 9722SOL    HW130065   4.187   2.716   5.459
 9722SOL    HW230066   4.230   2.650   5.602
 9723SOL     OW30067   6.078   0.540   5.040
 9723SOL    HW130068   6.017   0.598   4.986
 9723SOL    HW230069   6.169   0.581   5.042
 9724SOL     OW30070   1.592   4.291   1.260
 9724SOL    HW130071   1.615   4.238   1.341
 9724SOL    HW230072   1.671   4.345   1.232
 9725SOL     OW30073   5.401   5.617   3.834
 9725SOL    HW130074   5.474   5.588   3.895
 9725SOL    HW230075   5.315   5.626   3.885
 9726SOL     OW30076   6.908   0.075   3.176
 9726SOL    HW130077   6.931   0.041   3.084
 9726SOL    HW230078   6.842   0.149   3.169
 9727SOL     OW30079   6.114   2.623   1.604
 9727SOL    HW130080   6.128   2.546   1.667
 9727SOL    HW230081   6.017   2.646   1.601
 9728SOL     OW30082   5.084   2.284   4.517
 9728SOL    HW130083   5.012   2.216   4.533
 9728SOL    HW230084   5.072   2.323   4.426
 9729SOL     OW30085   0.318   3.638   2.602
 9729SOL    HW130086   0.260   3.557   2.591
 9729SOL    HW230087   0.345   3.647   2.698
 9730SOL     OW30088   1.043   5.589   3.395
 9730SOL    HW130089   0.944   5.574   3.402
 9730SOL    HW230090   1.079   5.541   3.315
 9731SOL     OW30091   6.122   2.584   1.263
 9731SOL    HW130092   6.111   2.495   1.309
 9731SOL    HW230093   6.198   2.633   1.305
 9732SOL     OW30094   1.598   3.062   2.523
 9732SOL    HW130095   1.591   2.970   2.485
 9732SOL    HW230096   1.618   3.056   2.621
 9733SOL     OW30097   6.114   5.230   2.022
 9733SOL    HW130098   6.022   5.212   1.989
 9733SOL    HW230099   6.133   5.328   2.015
 9734SOL     OW30100   4.086   4.945   6.689
 9734SOL    HW130101   3.995   4.944   6.731
 9734SOL    HW230102   4.137   4.865   6.720
 9735SOL     OW30103   0.372   1.800   0.214
 9735SOL    HW130104   0.405   1.817   0.121
 9735SOL    HW230105   0.446   1.764   0.270
 9736SOL     OW30106   5.322   2.438   5.131
 9736SOL    HW130107   5.222   2.439   5.129
 9736SOL    HW230108   5.354   2.380   5.205
 9737SOL     OW30109   5.626   3.281   4.769
 9737SOL    HW130110   5.601   3.220   4.694
 9737SOL    HW230111   5.579   3.369   4.758
 9738SOL     OW30112   2.313   6.303   1.481
 9738SOL    HW130113   2.334   6.334   1.388
 9738SOL    HW230114   2.398   6.292   1.533
 9739SOL     OW30115   5.602   0.105   0.477
 9739SOL    HW130116   5.563   0.032   0.534
 9739SOL    HW230117   5.676   0.150   0.527
 9740SOL     OW30118   6.307   0.493   1.695
 9740SOL    HW130119   6.385   0.431   1.688
 9740SOL    HW230120   6.340   0.587   1.695
 9741SOL     OW30121   2.680   2.447   3.104
 9741SOL    HW130122   2.692   2.434   3.006
 9741SOL    HW230123   2.589   2.484   3.122
 9742SOL     OW30124   4.103   1.982   6.268
 9742SOL    HW130125   4.028   1.956   6.329
 9742SOL    HW230126   4.079   1.959   6.173
 9743SOL     OW30127   6.791   3.528   4.191
 9743SOL    HW130128   6.753   3.567   4.275
 9743SOL    HW230129   6.804   3.601   4.123
 9744SOL     OW30130   1.818   1.756   2.678
 9744SOL    HW130131   1.753   1.832   2.672
 9744SOL    HW230132   1.768   1.671   2.695
 9745SOL     OW30133   0.620   6.930   5.985
 9745SOL    HW130134   0.676   6.940   5.903
 9745SOL    HW230135   0.534   6.981   5.973
 9746SOL     OW30136   3.178   6.257   5.943
 9746SOL    HW130137   3.193   6.338   5.887
 9746SOL    HW230138   3.099   6.207   5.909
 9747SOL     OW30139   3.669   1.753   3.672
 9747SOL    HW130140   3.726   1.749   3.590
 9747SOL    HW230141   3.716   1.709   3.749
 9748SOL     OW30142   0.284   1.560   2.270
 9748SOL    HW130143   0.215   1.574   2.340
 9748SOL    HW230144   0.335   1.646   2.256
 9749SOL     OW30145   6.884   0.834   1.808
 9749SOL    HW130146   6.897   0.755   1.868
 9749SOL    HW230147   6.933   0.819   1.722
 9750SOL     OW30148   5.634   2.686   5.632
 9750SOL    HW130149   5.552   2.631   5.651
 9750SOL    HW230150   5.614   2.751   5.559
 9751SOL     OW30151   2.863   6.583   1.368
 9751SOL    HW130152   2.820   6.666   1.404
 9751SOL    HW230153   2.904   6.531   1.443
 9752SOL     OW30154   3.311   2.914   0.381
 9752SOL    HW130155   3.327   2.848   0.307
 9752SOL    HW230156   3.390   2.975   0.390
 9753SOL     OW30157   6.768   5.738   3.695
 9753SOL    HW130158   6.714   5.684   3.630
 9753SOL    HW230159   6.775   5.688   3.781
 9754SOL     OW30160   3.110   0.853   2.031
 9754SOL    HW130161   3.024   0.840   2.081
 9754SOL    HW230162   3.178   0.787   2.064
 9755SOL     OW30163   3.740   3.700   0.030
 9755SOL    HW130164   3.672   3.717   6.985
 9755SOL    HW230165   3.704   3.731   0.118
 9756SOL     OW30166   5.845   0.461   6.405
 9756SOL    HW130167   5.865   0.394   6.476
 9756SOL    HW230168   5.843   0.416   6.316
 9757SOL     OW30169   5.568   3.453   4.243
 9757SOL    HW130170   5.518   3.522   4.190
 9757SOL    HW230171   5.561   3.475   4.341
 9758SOL     OW30172   2.498   0.316   2.253
 9758SOL    HW130173   2.476   0.377   2.177
 9758SOL    HW230174   2.446   0.343   2.334
 9759SOL     OW30175   6.573   2.268   1.298
 9759SOL    HW130176   6.550   2.174   1.321
 9759SOL    HW230177   6.563   2.282   1.200
 9760SOL     OW30178   4.985   0.536   6.338
 9760SOL    HW130179   5.010   0.579   6.251
 9760SOL    HW230180   4.979   0.437   6.325
 9761SOL     OW30181   0.813   2.364   1.131
 9761SOL    HW130182   0.771   2.451   1.106
 9761SOL    HW230183   0.741   2.299   1.156
 9762SOL     OW30184   3.196   0.995   5.636
 9762SOL    HW130185   3.261   0.999   5.712
 9762SOL    HW230186   3.166   1.087   5.613
 9763SOL     OW30187   6.556   2.664   1.053
 9763SOL    HW130188   6.574   2.748   1.104
 9763SOL    HW230189   6.458   2.643   1.057
 9764SOL     OW30190   0.837   2.418   2.742
 9764SOL    HW130191   0.883   2.356   2.679
 9764SOL    HW230192   0.904   2.479   2.785
 9765SOL     OW30193   6.658   1.711   1.361
 9765SOL    HW130194   6.742   1.749   1.400
 9765SOL    HW230195   6.681   1.633   1.303
 9766SOL     OW30196   0.643   2.834   3.095
 9766SOL    HW130197   0.696   2.916   3.114
 9766SOL    HW230198   0.550   2.845   3.131
 9767SOL     OW30199   3.299   1.624   5.155
 9767SOL    HW130200   3.247   1.541   5.136
 9767SOL    HW230201   3.236   1.702   5.163
 9768SOL     OW30202   5.198   2.357   0.291
 9768SOL    HW130203   5.127   2.423   0.317
 9768SOL    HW230204   5.273   2.406   0.246
 9769SOL     OW30205   3.437   1.545   5.621
 9769SOL    HW130206   3.383   1.476   5.573
 9769SOL    HW230207   3.392   1.634   5.612
 9770SOL     OW30208   1.854   3.125   5.263
 9770SOL    HW130209   1.761   3.115   5.299
 9770SOL    HW230210   1.850   3.143   5.165
 9771SOL     OW30211   3.682   1.131   1.662
 9771SOL    HW130212   3.582   1.124   1.664
 9771SOL    HW230213   3.712   1.151   1.568
 9772SOL     OW30214   0.832   0.767   1.168
 9772SOL    HW130215   0.785   0.731   1.088
 9772SOL    HW230216   0.869   0.691   1.222
 9773SOL     OW30217   6.053   6.057   2.315
 9773SOL    HW130218   6.020   5.976   2.266
 9773SOL    HW230219   6.055   6.135   2.252
 9774SOL     OW30220   2.142   5.048   4.400
 9774SOL    HW130221   2.164   5.104   4.480
 9774SOL    HW230222   2.103   4.961   4.430
 9775SOL     OW30223   1.255   1.338   2.542
 9775SOL    HW130224   1.302   1.263   2.588
 9775SOL    HW230225   1.317   1.415   2.532
 9776SOL     OW30226   2.044   5.459   1.204
 9776SOL    HW130227   1.965   5.428   1.256
 9776SOL    HW230228   2.020   5.466   1.107
 9777SOL     OW30229   4.384   2.273   5.323
 9777SOL    HW130230   4.424   2.209   5.388
 9777SOL    HW230231   4.333   2.221   5.253
 9778SOL     OW30232   1.455   3.935   2.898
 9778SOL    HW130233   1.492   3.842   2.903
 9778SOL    HW230234   1.507   3.995   2.960
 9779SOL     OW30235   3.232   0.310   3.555
 9779SOL    HW130236   3.255   0.218   3.586
 9779SOL    HW230237   3.153   0.306   3.493
 9780SOL     OW30238   0.543   1.422   0.365
 9780SOL    HW130239   0.471   1.403   0.432
 9780SOL    HW230240   0.564   1.520   0.366
 9781SOL     OW30241   1.118   1.383   2.181
 9781SOL    HW130242   1.154   1.302   2.227
 9781SOL    HW230243   1.155   1.465   2.225
 9782SOL     OW30244   0.542   2.496   0.274
 9782SOL    HW130245   0.469   2.561   0.251
 9782SOL    HW230246   0.611   2.540   0.330
 9783SOL     OW30247   4.296   1.075   2.849
 9783SOL    HW130248   4.280   1.126   2.765
 9783SOL    HW230249   4.360   0.999   2.831
 9784SOL     OW30250   1.609   1.518   6.792
 9784SOL    HW130251   1.619   1.420   6.809
 9784SOL    HW230252   1.658   1.569   6.863
 9785SOL     OW30253   0.762   3.792   4.632
 9785SOL    HW130254   0.723   3.884   4.630
 9785SOL    HW230255   0.705   3.731   4.577
 9786SOL     OW30256   2.250   4.262   6.475
 9786SOL    HW130257   2.211   4.263   6.383
 9786SOL    HW230258   2.250   4.168   6.510
 9787SOL     OW30259   2.890   3.690   1.845
 9787SOL    HW130260   2.984   3.669   1.816
 9787SOL    HW230261   2.855   3.615   1.901
 9788SOL     OW30262   3.033   6.738   2.698
 9788SOL    HW130263   3.128   6.711   2.681
 9788SOL    HW230264   3.031   6.810   2.766
 9789SOL     OW30265   3.780   1.066   0.318
 9789SOL    HW130266   3.769   0.967   0.311
 9789SOL    HW230267   3.818   1.101   0.232
 9790SOL     OW30268   4.417   5.362   5.034
 9790SOL    HW130269   4.496   5.322   5.081
 9790SOL    HW230270   4.393   5.448   5.078
 9791SOL     OW30271   0.435   0.596   0.882
 9791SOL    HW130272   0.354   0.619   0.936
 9791SOL    HW230273   0.451   0.669   0.815
 9792SOL     OW30274   3.633   5.041   0.747
 9792SOL    HW130275   3.578   4.973   0.698
 9792SOL    HW230276   3.729   5.015   0.744
 9793SOL     OW30277   5.926   0.978   3.268
 9793SOL    HW130278   5.942   0.926   3.184
 9793SOL    HW230279   5.858   0.930   3.324
 9794SOL     OW30280   3.973   5.196   4.200
 9794SOL    HW130281   4.050   5.163   4.255
 9794SOL    HW230282   4.006   5.261   4.131
 9795SOL     OW30283   1.094   3.309   3.428
 9795SOL    HW130284   1.116   3.388   3.486
 9795SOL    HW230285   1.104   3.335   3.332
 9796SOL     OW30286   3.097   3.533   4.251
 9796SOL    HW130287   3.029   3.590   4.297
 9796SOL    HW230288   3.122   3.576   4.163
 9797SOL     OW30289   3.166   5.675   6.806
 9797SOL    HW130290   3.243   5.615   6.782
 9797SOL    HW230291   3.197   5.745   6.870
 9798SOL     OW30292   6.846   4.292   6.656
 9798SOL    HW130293   6.837   4.350   6.737
 9798SOL    HW230294   6.937   4.304   6.616
 9799SOL     OW30295   3.493   6.540   0.061
 9799SOL    HW130296   3.410   6.582   0.098
 9799SOL    HW230297   3.515   6.580   6.998
 9800SOL     OW30298   6.383   4.409   4.778
 9800SOL    HW130299   6.301   4.424   4.722
 9800SOL    HW230300   6.380   4.317   4.819
 9801SOL     OW30301   4.240   6.658   1.216
 9801SOL    HW130302   4.291   6.597   1.276
 9801SOL    HW230303   4.142   6.648   1.234
 9802SOL     OW30304   4.097   3.997   0.242
 9802SOL    HW130305   4.065   3.929   0.309
 9802SOL    HW230306   4.154   4.064   0.289
 9803SOL     OW30307   1.194   3.751   6.425
 9803SOL    HW130308   1.122   3.766   6.358
 9803SOL    HW230309   1.217   3.837   6.470
 9804SOL     OW30310   1.009   4.157   3.308
 9804SOL    HW130311   0.968   4.190   3.393
 9804SOL    HW230312   1.095   4.206   3.291
 9805SOL     OW30313   0.110   5.601   4.295
 9805SOL    HW130314   0.182   5.531   4.301
 9805SOL    HW230315   0.118   5.664   4.373
 9806SOL     OW30316   3.702   1.641   0.297
 9806SOL    HW130317   3.777   1.575   0.309
 9806SOL    HW230318   3.653   1.620   0.213
 9807SOL     OW30319   3.989   3.434   3.292
 9807SOL    HW130320   4.055   3.498   3.252
 9807SOL    HW230321   3.902   3.441   3.244
 9808SOL     OW30322   3.518   5.564   2.252
 9808SOL    HW130323   3.572   5.527   2.176
 9808SOL    HW230324   3.429   5.595   2.217
 9809SOL     OW30325   6.245   2.541   0.478
 9809SOL    HW130326   6.312   2.536   0.552
 9809SOL    HW230327   6.276   2.608   0.410
 9810SOL     OW30328   2.375   2.803   0.868
 9810SOL    HW130329   2.385   2.721   0.924
 9810SOL    HW230330   2.384   2.779   0.772
 9811SOL     OW30331   5.921   3.576   4.257
 9811SOL    HW130332   5.904   3.614   4.166
 9811SOL    HW230333   5.840   3.590   4.314
 9812SOL     OW30334   3.171   5.589   5.584
 9812SOL    HW130335   3.124   5.653   5.523
 9812SOL    HW230336   3.264   5.574   5.552
 9813SOL     OW30337   4.671   0.528   2.124
 9813SOL    HW130338   4.756   0.574   2.099
 9813SOL    HW230339   4.645   0.465   2.051
 9814SOL     OW30340   0.156   1.648   6.069
 9814SOL    HW130341   0.234   1.624   6.011
 9814SOL    HW230342   0.182   1.639   6.165
 9815SOL     OW30343   4.175   2.275   4.491
 9815SOL    HW130344   4.157   2.178   4.472
 9815SOL    HW230345   4.216   2.317   4.410
 9816SOL     OW30346   2.763   1.484   0.950
 9816SOL    HW130347   2.741   1.470   0.854
 9816SOL    HW230348   2.681   1.512   0.999
 9817SOL     OW30349   6.307   0.124   1.810
 9817SOL    HW130350   6.338   0.031   1.793
 9817SOL    HW230351   6.361   0.188   1.755
 9818SOL     OW30352   4.160   2.991   5.424
 9818SOL    HW130353   4.085   2.948   5.376
 9818SOL    HW230354   4.172   3.085   5.391
 9819SOL     OW30355   3.450   0.801   1.812
 9819SOL    HW130356   3.470   0.785   1.909
 9819SOL    HW230357   3.364   0.852   1.804
 9820SOL     OW30358   3.930   2.535   0.495
 9820SOL    HW130359   4.026   2.549   0.517
 9820SOL    HW230360   3.893   2.618   0.453
 9821SOL     OW30361   0.210   5.163   7.019
 9821SOL    HW130362   0.110   5.158   7.016
 9821SOL    HW230363   0.243   5.124   0.080
 9822SOL     OW30364   0.606   0.447   2.937
 9822SOL    HW130365   0.658   0.505   3.000
 9822SOL    HW230366   0.588   0.359   2.980
 9823SOL     OW30367   3.287   6.690   1.809
 9823SOL    HW130368   3.215   6.732   1.863
 9823SOL    HW230369   3.320   6.607   1.855
 9824SOL     OW30370   1.681   3.889   6.441
 9824SOL    HW130371   1.771   3.865   6.404
 9824SOL    HW230372   1.686   3.980   6.483
 9825SOL     OW30373   4.082   5.095   5.531
 9825SOL    HW130374   4.029   5.179   5.538
 9825SOL    HW230375   4.076   5.046   5.618
 9826SOL     OW30376   5.301   0.154   5.673
 9826SOL    HW130377   5.278   0.250   5.655
 9826SOL    HW230378   5.268   0.097   5.598
 9827SOL     OW30379   0.909   4.190   4.199
 9827SOL    HW130380   0.978   4.122   4.174
 9827SOL    HW230381   0.818   4.149   4.193
 9828SOL     OW30382   3.097   2.840   6.458
 9828SOL    HW130383   3.025   2.861   6.525
 9828SOL    HW230384   3.064   2.860   6.366
 9829SOL     OW30385   2.665   4.437   0.873
 9829SOL    HW130386   2.755   4.405   0.846
 9829SOL    HW230387   2.672   4.531   0.908
 9830SOL     OW30388   6.609   1.223   0.520
 9830SOL    HW130389   6.693   1.171   0.506
 9830SOL    HW230390   6.531   1.172   0.485
 9831SOL     OW30391   5.562   6.959   0.899
 9831SOL    HW130392   5.585   6.995   0.989
 9831SOL    HW230393   5.542   6.861   0.906
 9832SOL     OW30394   3.725   5.143   1.299
 9832SOL    HW130395   3.688   5.050   1.302
 9832SOL    HW230396   3.750   5.166   1.205
 9833SOL     OW30397   4.629   4.410   5.770
 9833SOL    HW130398   4.586   4.433   5.857
 9833SOL    HW230399   4.727   4.430   5.775
 9834SOL     OW30400   2.158   1.798   4.018
 9834SOL    HW130401   2.188   1.863   4.088
 9834SOL    HW230402   2.163   1.705   4.056
 9835SOL     OW30403   4.652   1.746   4.618
 9835SOL    HW130404   4.641   1.791   4.706
 9835SOL    HW230405   4.562   1.718   4.583
 9836SOL     OW30406   5.336   5.083   2.262
 9836SOL    HW130407   5.297   5.044   2.345
 9836SOL    HW230408   5.313   5.025   2.184
 9837SOL     OW30409   1.559   6.495   4.794
 9837SOL    HW130410   1.605   6.413   4.828
 9837SOL    HW230411   1.505   6.536   4.868
 9838SOL     OW30412   6.744   5.497   5.268
 9838SOL    HW130413   6.813   5.482   5.197
 9838SOL    HW230414   6.746   5.421   5.334
 9839SOL     OW30415   6.830   2.206   2.719
 9839SOL    HW130416   6.798   2.118   2.754
 9839SOL    HW230417   6.878   2.255   2.792
 9840SOL     OW30418   6.314   0.756   1.144
 9840SOL    HW130419   6.371   0.834   1.169
 9840SOL    HW230420   6.229   0.759   1.196
 9841SOL     OW30421   1.618   3.538   4.345
 9841SOL    HW130422   1.611   3.628   4.390
 9841SOL    HW230423   1.687   3.483   4.390
 9842SOL     OW30424   2.989   3.575   3.548
 9842SOL    HW130425   2.987   3.670   3.578
 9842SOL    HW230426   2.933   3.519   3.610
 9843SOL     OW30427   5.902   3.619   3.158
 9843SOL    HW130428   5.965   3.693   3.182
 9843SOL    HW230429   5.919   3.539   3.216
 9844SOL     OW30430   5.391   0.333   2.598
 9844SOL    HW130431   5.481   0.314   2.638
 9844SOL    HW230432   5.326   0.353   2.671
 9845SOL     OW30433   1.284   1.955   3.382
 9845SOL    HW130434   1.250   1.884   3.321
 9845SOL    HW230435   1.352   2.011   3.335
 9846SOL     OW30436   3.228   3.310   2.887
 9846SOL    HW130437   3.219   3.391   2.945
 9846SOL    HW230438   3.160   3.242   2.915
 9847SOL     OW30439   2.304   4.581   4.737
 9847SOL    HW130440   2.257   4.499   4.703
 9847SOL    HW230441   2.331   4.567   4.832
 9848SOL     OW30442   5.283   3.915   0.223
 9848SOL    HW130443   5.310   3.835   0.169
 9848SOL    HW230444   5.244   3.884   0.309
 9849SOL     OW30445   0.191   0.023   5.410
 9849SOL    HW130446   0.120   6.980   5.424
 9849SOL    HW230447   0.202   0.039   5.312
 9850SOL     OW30448   4.458   6.874   2.719
 9850SOL    HW130449   4.531   6.914   2.664
 9850SOL    HW230450   4.382   6.938   2.725
 9851SOL     OW30451   5.338   3.263   5.193
 9851SOL    HW130452   5.310   3.212   5.112
 9851SOL    HW230453   5.397   3.338   5.166
 9852SOL     OW30454   4.627   2.044   4.167
 9852SOL    HW130455   4.712   2.056   4.218
 9852SOL    HW230456   4.568   1.979   4.215
 9853SOL     OW30457   0.354   3.881   1.309
 9853SOL    HW130458   0.336   3.946   1.236
 9853SOL    HW230459   0.415   3.809   1.276
 9854SOL     OW30460   4.442   5.910   3.549
 9854SOL    HW130461   4.509   5.844   3.515
 9854SOL    HW230462   4.478   5.953   3.632
 9855SOL     OW30463   1.666   3.517   0.835
 9855SOL    HW130464   1.613   3.438   0.801
 9855SOL    HW230465   1.628   3.601   0.797
 9856SOL     OW30466   3.992   2.573   0.911
 9856SOL    HW130467   4.026   2.496   0.857
 9856SOL    HW230468   3.955   2.538   0.997
 9857SOL     OW30469   6.315   4.079   3.161
 9857SOL    HW130470   6.217   4.072   3.177
 9857SOL    HW230471   6.333   4.097   3.065
 9858SOL     OW30472   4.098   1.568   1.216
 9858SOL    HW130473   4.042   1.485   1.219
 9858SOL    HW230474   4.090   1.611   1.126
 9859SOL     OW30475   6.513   0.409   1.365
 9859SOL    HW130476   6.607   0.419   1.398
 9859SOL    HW230477   6.486   0.313   1.371
 9860SOL     OW30478   0.356   1.307   2.438
 9860SOL    HW130479   0.395   1.389   2.481
 9860SOL    HW230480   0.287   1.334   2.371
 9861SOL     OW30481   3.436   6.883   5.194
 9861SOL    HW130482   3.509   6.822   5.161
 9861SOL    HW230483   3.433   6.879   5.294
 9862SOL     OW30484   0.752   2.326   0.695
 9862SOL    HW130485   0.684   2.399   0.689
 9862SOL    HW230486   0.817   2.347   0.769
 9863SOL     OW30487   2.934   0.135   0.872
 9863SOL    HW130488   2.901   0.229   0.882
 9863SOL    HW230489   2.992   0.111   0.950
 9864SOL     OW30490   4.420   6.062   2.980
 9864SOL    HW130491   4.326   6.037   2.959
 9864SOL    HW230492   4.448   6.140   2.924
 9865SOL     OW30493   1.245   2.884   4.720
 9865SOL    HW130494   1.189   2.923   4.647
 9865SOL    HW230495   1.206   2.909   4.809
 9866SOL     OW30496   4.108   4.812   2.829
 9866SOL    HW130497   4.122   4.779   2.922
 9866SOL    HW230498   4.151   4.750   2.763
 9867SOL     OW30499   4.026   0.709   6.468
 9867SOL    HW130500   4.017   0.808   6.478
 9867SOL    HW230501   4.064   0.671   6.552
 9868SOL     OW30502   0.353   5.088   6.455
 9868SOL    HW130503   0.289   5.117   6.525
 9868SOL    HW230504   0.306   5.082   6.367
 9869SOL     OW30505   1.733   3.773   3.613
 9869SOL    HW130506   1.716   3.771   3.711
 9869SOL    HW230507   1.820   3.819   3.594
 9870SOL     OW30508   5.167   4.536   2.481
 9870SOL    HW130509   5.191   4.443   2.454
 9870SOL    HW230510   5.199   4.601   2.411
 9871SOL     OW30511   1.474   1.579   5.401
 9871SOL    HW130512   1.385   1.606   5.437
 9871SOL    HW230513   1.476   1.481   5.385
 9872SOL     OW30514   1.418   4.815   3.711
 9872SOL    HW130515   1.371   4.872   3.644
 9872SOL    HW230516   1.495   4.865   3.750
 9873SOL     OW30517   1.146   2.732   0.607
 9873SOL    HW130518   1.138   2.747   0.508
 9873SOL    HW230519   1.226   2.781   0.641
 9874SOL     OW30520   0.725   2.780   3.814
 9874SOL    HW130521   0.745   2.878   3.811
 9874SOL    HW230522   0.633   2.766   3.850
 9875SOL     OW30523   1.053   0.767   3.036
 9875SOL    HW130524   1.087   0.776   2.942
 9875SOL    HW230525   0.987   0.692   3.041
 9876SOL     OW30526   6.945   5.720   2.710
 9876SOL    HW130527   6.967   5.645   2.773
 9876SOL    HW230528   6.946   5.806   2.760
 9877SOL     OW30529   3.600   0.032   1.797
 9877SOL    HW130530   3.634   0.091   1.723
 9877SOL    HW230531   3.648   0.053   1.881
 9878SOL     OW30532   0.760   0.568   5.451
 9878SOL    HW130533   0.703   0.632   5.504
 9878SOL    HW230534   0.813   0.619   5.384
 9879SOL     OW30535   5.468   6.214   5.709
 9879SOL    HW130536   5.437   6.143   5.772
 9879SOL    HW230537   5.449   6.185   5.615
 9880SOL     OW30538   1.927   1.638   4.807
 9880SOL    HW130539   2.013   1.674   4.843
 9880SOL    HW230540   1.930   1.641   4.707
 9881SOL     OW30541   7.007   2.087   6.351
 9881SOL    HW130542   6.978   2.175   6.388
 9881SOL    HW230543   0.012   2.028   6.426
 9882SOL     OW30544   1.545   1.735   2.483
 9882SOL    HW130545   1.452   1.729   2.521
 9882SOL    HW230546   1.585   1.824   2.505
 9883SOL     OW30547   2.120   0.713   1.905
 9883SOL    HW130548   2.161   0.624   1.889
 9883SOL    HW230549   2.086   0.719   1.999
 9884SOL     OW30550   3.764   0.797   4.127
 9884SOL    HW130551   3.760   0.707   4.170
 9884SOL    HW230552   3.724   0.793   4.035
 9885SOL     OW30553   6.196   4.674   3.447
 9885SOL    HW130554   6.127   4.684   3.376
 9885SOL    HW230555   6.186   4.585   3.491
 9886SOL     OW30556   1.334   3.403   2.310
 9886SOL    HW130557   1.402   3.363   2.248
 9886SOL    HW230558   1.286   3.477   2.264
 9887SOL     OW30559   4.346   0.522   6.102
 9887SOL    HW130560   4.292   0.585   6.159
 9887SOL    HW230561   4.421   0.484   6.156
 9888SOL     OW30562   0.088   4.693   0.365
 9888SOL    HW130563   0.094   4.595   0.384
 9888SOL    HW230564   0.161   4.741   0.414
 9889SOL     OW30565   0.678   4.773   0.563
 9889SOL    HW130566   0.725   4.794   0.477
 9889SOL    HW230567   0.651   4.677   0.565
 9890SOL     OW30568   1.222   3.516   0.814
 9890SOL    HW130569   1.276   3.536   0.894
 9890SOL    HW230570   1.205   3.417   0.809
 9891SOL     OW30571   4.999   1.470   1.867
 9891SOL    HW130572   5.029   1.527   1.791
 9891SOL    HW230573   5.077   1.421   1.906
 9892SOL     OW30574   0.173   5.770   6.843
 9892SOL    HW130575   0.095   5.786   6.783
 9892SOL    HW230576   0.234   5.703   6.802
 9893SOL     OW30577   2.184   1.517   1.202
 9893SOL    HW130578   2.196   1.560   1.292
 9893SOL    HW230579   2.165   1.587   1.134
 9894SOL     OW30580   1.350   1.403   0.971
 9894SOL    HW130581   1.335   1.498   0.944
 9894SOL    HW230582   1.323   1.342   0.896
 9895SOL     OW30583   4.661   3.680   5.927
 9895SOL    HW130584   4.687   3.699   6.021
 9895SOL    HW230585   4.567   3.646   5.924
 9896SOL     OW30586   6.156   6.937   6.665
 9896SOL    HW130587   6.239   6.882   6.660
 9896SOL    HW230588   6.181   0.008   6.676
 9897SOL     OW30589   5.644   4.761   3.820
 9897SOL    HW130590   5.741   4.765   3.847
 9897SOL    HW230591   5.588   4.794   3.896
 9898SOL     OW30592   3.036   6.275   5.587
 9898SOL    HW130593   3.101   6.344   5.619
 9898SOL    HW230594   2.980   6.243   5.664
 9899SOL     OW30595   6.968   5.236   0.011
 9899SOL    HW130596   6.990   5.310   6.973
 9899SOL    HW230597   6.921   5.273   0.090
 9900SOL     OW30598   2.122   3.514   3.492
 9900SOL    HW130599   2.118   3.521   3.592
 9900SOL    HW230600   2.086   3.598   3.452
 9901SOL     OW30601   2.062   2.705   5.445
 9901SOL    HW130602   2.046   2.767   5.368
 9901SOL    HW230603   2.027   2.746   5.529
 9902SOL     OW30604   2.458   4.166   6.854
 9902SOL    HW130605   2.425   4.094   6.792
 9902SOL    HW230606   2.542   4.206   6.816
 9903SOL     OW30607   5.894   0.648   3.858
 9903SOL    HW130608   5.821   0.711   3.886
 9903SOL    HW230609   5.882   0.561   3.904
 9904SOL     OW30610   7.013   2.549   0.083
 9904SOL    HW130611   0.018   2.643   0.099
 9904SOL    HW230612   7.022   2.496   0.167
 9905SOL     OW30613   4.618   1.330   0.289
 9905SOL    HW130614   4.648   1.351   0.196
 9905SOL    HW230615   4.695   1.343   0.352
 9906SOL     OW30616   4.099   3.292   4.662
 9906SOL    HW130617   4.017   3.240   4.687
 9906SOL    HW230618   4.176   3.229   4.652
 9907SOL     OW30619   0.864   0.471   1.682
 9907SOL    HW130620   0.817   0.537   1.741
 9907SOL    HW230621   0.807   0.451   1.602
 9908SOL     OW30622   5.086   3.177   3.029
 9908SOL    HW130623   5.184   3.159   3.038
 9908SOL    HW230624   5.035   3.092   3.043
 9909SOL     OW30625   1.961   0.178   5.193
 9909SOL    HW130626   1.983   0.080   5.193
 9909SOL    HW230627   1.922   0.203   5.282
 9910SOL     OW30628   0.540   4.092   3.184
 9910SOL    HW130629   0.508   4.067   3.276
 9910SOL    HW230630   0.623   4.042   3.163
 9911SOL     OW30631   2.543   6.092   2.472
 9911SOL    HW130632   2.541   6.117   2.569
 9911SOL    HW230633   2.478   6.018   2.455
 9912SOL     OW30634   5.153   0.686   6.802
 9912SOL    HW130635   5.176   0.760   6.740
 9912SOL    HW230636   5.066   0.645   6.775
 9913SOL     OW30637   5.025   3.077   6.591
 9913SOL    HW130638   5.024   3.045   6.685
 9913SOL    HW230639   5.012   3.000   6.529
 9914SOL     OW30640   6.783   4.019   4.801
 9914SOL    HW130641   6.873   4.007   4.760
 9914SOL    HW230642   6.724   3.942   4.775
 9915SOL     OW30643   5.600   0.785   4.149
 9915SOL    HW130644   5.509   0.760   4.180
 9915SOL    HW230645   5.605   0.885   4.137
 9916SOL     OW30646   2.244   2.383   1.421
 9916SOL    HW130647   2.213   2.413   1.511
 9916SOL    HW230648   2.338   2.413   1.406
 9917SOL     OW30649   6.234   4.625   4.872
 9917SOL    HW130650   6.228   4.667   4.962
 9917SOL    HW230651   6.330   4.603   4.852
 9918SOL     OW30652   4.475   2.145   2.506
 9918SOL    HW130653   4.521   2.195   2.579
 9918SOL    HW230654   4.523   2.059   2.488
 9919SOL     OW30655   6.724   6.389   0.747
 9919SOL    HW130656   6.789   6.399   0.822
 9919SOL    HW230657   6.753   6.445   0.670
 9920SOL     OW30658   4.766   1.496   2.044
 9920SOL    HW130659   4.712   1.572   2.007
 9920SOL    HW230660   4.857   1.498   2.004
 9921SOL     OW30661   3.472   5.469   6.119
 9921SOL    HW130662   3.465   5.569   6.119
 9921SOL    HW230663   3.386   5.429   6.088
 9922SOL     OW30664   0.552   4.997   0.696
 9922SOL    HW130665   0.607   4.921   0.662
 9922SOL    HW230666   0.613   5.073   0.721
 9923SOL     OW30667   5.270   4.853   0.871
 9923SOL    HW130668   5.361   4.860   0.831
 9923SOL    HW230669   5.250   4.757   0.890
 9924SOL     OW30670   0.479   3.939   4.892
 9924SOL    HW130671   0.561   3.997   4.900
 9924SOL    HW230672   0.507   3.843   4.890
 9925SOL     OW30673   5.538   2.629   3.689
 9925SOL    HW130674   5.481   2.688   3.632
 9925SOL    HW230675   5.610   2.685   3.732
 9926SOL     OW30676   2.329   5.091   6.987
 9926SOL    HW130677   2.240   5.065   0.000
 9926SOL    HW230678   2.352   5.027   6.914
 9927SOL     OW30679   6.012   0.165   3.042
 9927SOL    HW130680   5.993   0.067   3.046
 9927SOL    HW230681   5.997   0.206   3.132
 9928SOL     OW30682   4.780   4.603   1.975
 9928SOL    HW130683   4.792   4.566   2.067
 9928SOL    HW230684   4.685   4.633   1.964
 9929SOL     OW30685   1.418   4.335   2.682
 9929SOL    HW130686   1.386   4.255   2.732
 9929SOL    HW230687   1.394   4.418   2.733
 9930SOL     OW30688   6.739   0.322   3.805
 9930SOL    HW130689   6.815   0.297   3.746
 9930SOL    HW230690   6.680   0.243   3.820
 9931SOL     OW30691   0.580   4.870   5.896
 9931SOL    HW130692   0.489   4.887   5.857
 9931SOL    HW230693   0.641   4.945   5.872
 9932SOL     OW30694   1.292   6.546   5.160
 9932SOL    HW130695   1.241   6.491   5.094
 9932SOL    HW230696   1.229   6.606   5.209
 9933SOL     OW30697   0.051   6.117   2.002
 9933SOL    HW130698   0.145   6.146   2.017
 9933SOL    HW230699   0.011   6.088   2.089
 9934SOL     OW30700   6.699   2.493   6.299
 9934SOL    HW130701   6.717   2.431   6.222
 9934SOL    HW230702   6.615   2.466   6.345
 9935SOL     OW30703   3.104   0.631   6.067
 9935SOL    HW130704   3.122   0.591   6.157
 9935SOL    HW230705   3.139   0.725   6.065
 9936SOL     OW30706   0.782   4.655   3.947
 9936SOL    HW130707   0.834   4.651   4.033
 9936SOL    HW230708   0.695   4.609   3.960
 9937SOL     OW30709   6.771   2.152   6.620
 9937SOL    HW130710   6.839   2.200   6.565
 9937SOL    HW230711   6.774   2.186   6.714
 9938SOL     OW30712   6.681   6.398   2.605
 9938SOL    HW130713   6.669   6.309   2.562
 9938SOL    HW230714   6.728   6.459   2.541
 9939SOL     OW30715   3.454   2.932   2.486
 9939SOL    HW130716   3.420   2.838   2.479
 9939SOL    HW230717   3.458   2.973   2.395
 9940SOL     OW30718   6.967   1.074   0.222
 9940SOL    HW130719   6.971   0.993   0.164
 9940SOL    HW230720   6.885   1.127   0.200
 9941SOL     OW30721   2.836   5.073   5.687
 9941SOL    HW130722   2.811   5.027   5.602
 9941SOL    HW230723   2.783   5.158   5.695
 9942SOL     OW30724   2.688   5.423   3.539
 9942SOL    HW130725   2.654   5.403   3.631
 9942SOL    HW230726   2.755   5.354   3.513
 9943SOL     OW30727   1.250   6.924   4.905
 9943SOL    HW130728   1.170   6.975   4.875
 9943SOL    HW230729   1.314   6.986   4.951
 9944SOL     OW30730   1.121   3.772   0.147
 9944SOL    HW130731   1.170   3.765   0.233
 9944SOL    HW230732   1.146   3.696   0.087
 9945SOL     OW30733   6.510   5.900   6.779
 9945SOL    HW130734   6.461   5.858   6.702
 9945SOL    HW230735   6.608   5.903   6.758
 9946SOL     OW30736   5.042   1.416   4.899
 9946SOL    HW130737   5.018   1.461   4.813
 9946SOL    HW230738   5.025   1.478   4.976
 9947SOL     OW30739   5.864   4.721   3.544
 9947SOL    HW130740   5.859   4.796   3.477
 9947SOL    HW230741   5.803   4.647   3.515
 9948SOL     OW30742   5.298   3.943   4.154
 9948SOL    HW130743   5.247   3.966   4.237
 9948SOL    HW230744   5.257   3.990   4.075
 9949SOL     OW30745   5.834   5.214   2.499
 9949SOL    HW130746   5.786   5.156   2.433
 9949SOL    HW230747   5.889   5.157   2.560
 9950SOL     OW30748   3.431   6.124   5.629
 9950SOL    HW130749   3.356   6.170   5.675
 9950SOL    HW230750   3.516   6.139   5.679
 9951SOL     OW30751   5.943   1.991   3.026
 9951SOL    HW130752   5.861   2.026   3.072
 9951SOL    HW230753   5.915   1.936   2.947
 9952SOL     OW30754   0.466   5.046   0.406
 9952SOL    HW130755   0.522   5.091   0.337
 9952SOL    HW230756   0.522   5.027   0.487
 9953SOL     OW30757   6.501   2.424   3.741
 9953SOL    HW130758   6.525   2.518   3.766
 9953SOL    HW230759   6.474   2.373   3.823
 9954SOL     OW30760   4.466   0.309   5.573
 9954SOL    HW130761   4.414   0.314   5.488
 9954SOL    HW230762   4.491   0.214   5.591
 9955SOL     OW30763   0.618   4.458   4.387
 9955SOL    HW130764   0.580   4.503   4.307
 9955SOL    HW230765   0.590   4.363   4.389
 9956SOL     OW30766   0.784   6.134   0.597
 9956SOL    HW130767   0.859   6.200   0.598
 9956SOL    HW230768   0.775   6.092   0.687
 9957SOL     OW30769   6.441   4.838   2.599
 9957SOL    HW130770   6.413   4.915   2.542
 9957SOL    HW230771   6.450   4.756   2.543
 9958SOL     OW30772   2.060   4.130   0.804
 9958SOL    HW130773   2.139   4.137   0.865
 9958SOL    HW230774   2.052   4.213   0.750
 9959SOL     OW30775   3.727   3.602   1.202
 9959SOL    HW130776   3.802   3.667   1.187
 9959SOL    HW230777   3.765   3.510   1.216
 9960SOL     OW30778   0.759   1.529   2.282
 9960SOL    HW130779   0.673   1.477   2.289
 9960SOL    HW230780   0.806   1.503   2.197
 9961SOL     OW30781   2.015   4.549   4.518
 9961SOL    HW130782   2.082   4.484   4.553
 9961SOL    HW230783   1.935   4.499   4.486
 9962SOL     OW30784   5.220   6.426   4.682
 9962SOL    HW130785   5.261   6.502   4.632
 9962SOL    HW230786   5.286   6.352   4.691
 9963SOL     OW30787   3.230   0.812   0.542
 9963SOL    HW130788   3.245   0.757   0.460
 9963SOL    HW230789   3.244   0.755   0.623
 9964SOL     OW30790   4.871   5.818   5.081
 9964SOL    HW130791   4.785   5.785   5.119
 9964SOL    HW230792   4.912   5.885   5.143
 9965SOL     OW30793   3.821   6.949   0.040
 9965SOL    HW130794   3.752   7.019   0.056
 9965SOL    HW230795   3.832   6.893   0.122
 9966SOL     OW30796   0.171   6.952   2.837
 9966SOL    HW130797   0.090   6.983   2.886
 9966SOL    HW230798   0.144   6.890   2.763
 9967SOL     OW30799   1.109   5.209   0.319
 9967SOL    HW130800   1.161   5.141   0.371
 9967SOL    HW230801   1.097   5.177   0.225
 9968SOL     OW30802   3.165   3.217   2.636
 9968SOL    HW130803   3.134   3.122   2.625
 9968SOL    HW230804   3.168   3.240   2.733
 9969SOL     OW30805   1.513   3.389   1.701
 9969SOL    HW130806   1.415   3.385   1.685
 9969SOL    HW230807   1.547   3.480   1.677
 9970SOL     OW30808   5.880   4.739   1.661
 9970SOL    HW130809   5.915   4.658   1.613
 9970SOL    HW230810   5.956   4.788   1.704
 9971SOL     OW30811   2.492   6.058   0.231
 9971SOL    HW130812   2.464   5.964   0.253
 9971SOL    HW230813   2.437   6.122   0.284
 9972SOL     OW30814   6.863   4.783   1.566
 9972SOL    HW130815   6.770   4.758   1.540
 9972SOL    HW230816   6.927   4.715   1.530
 9973SOL     OW30817   5.591   0.115   4.159
 9973SOL    HW130818   5.586   0.090   4.063
 9973SOL    HW230819   5.639   0.202   4.169
 9974SOL     OW30820   2.291   0.744   4.137
 9974SOL    HW130821   2.333   0.800   4.208
 9974SOL    HW230822   2.195   0.727   4.161
 9975SOL     OW30823   6.675   3.469   0.713
 9975SOL    HW130824   6.631   3.527   0.782
 9975SOL    HW230825   6.712   3.388   0.756
 9976SOL     OW30826   2.197   0.004   5.271
 9976SOL    HW130827   2.194   0.060   5.353
 9976SOL    HW230828   2.187   6.933   5.296
 9977SOL     OW30829   6.612   4.390   4.290
 9977SOL    HW130830   6.582   4.468   4.344
 9977SOL    HW230831   6.569   4.394   4.199
 9978SOL     OW30832   0.264   2.934   4.629
 9978SOL    HW130833   0.166   2.930   4.644
 9978SOL    HW230834   0.310   2.868   4.689
 9979SOL     OW30835   0.985   4.005   4.972
 9979SOL    HW130836   1.081   4.034   4.972
 9979SOL    HW230837   0.948   4.017   5.064
 9980SOL     OW30838   3.281   6.833   4.957
 9980SOL    HW130839   3.188   6.827   4.994
 9980SOL    HW230840   3.346   6.838   5.033
 9981SOL     OW30841   3.500   1.973   4.164
 9981SOL    HW130842   3.495   2.053   4.225
 9981SOL    HW230843   3.517   1.891   4.219
 9982SOL     OW30844   6.361   6.255   2.983
 9982SOL    HW130845   6.295   6.272   3.057
 9982SOL    HW230846   6.376   6.339   2.932
 9983SOL     OW30847   6.928   1.296   1.372
 9983SOL    HW130848   6.970   1.384   1.395
 9983SOL    HW230849   6.984   1.249   1.304
 9984SOL     OW30850   2.837   0.899   0.267
 9984SOL    HW130851   2.761   0.962   0.253
 9984SOL    HW230852   2.924   0.949   0.263
 9985SOL     OW30853   1.233   1.478   1.902
 9985SOL    HW130854   1.261   1.395   1.951
 9985SOL    HW230855   1.278   1.481   1.813
 9986SOL     OW30856   4.960   4.307   4.876
 9986SOL    HW130857   4.870   4.263   4.885
 9986SOL    HW230858   5.031   4.243   4.906
 9987SOL     OW30859   0.020   4.508   5.912
 9987SOL    HW130860   6.988   4.518   5.993
 9987SOL    HW230861   0.102   4.564   5.923
 9988SOL     OW30862   6.519   6.899   4.913
 9988SOL    HW130863   6.503   6.829   4.843
 9988SOL    HW230864   6.460   6.978   4.895
 9989SOL     OW30865   1.066   3.003   4.544
 9989SOL    HW130866   0.968   3.021   4.535
 9989SOL    HW230867   1.105   2.985   4.454
 9990SOL     OW30868   1.209   5.261   2.042
 9990SOL    HW130869   1.250   5.254   2.132
 9990SOL    HW230870   1.180   5.171   2.011
 9991SOL     OW30871   4.358   2.091   3.276
 9991SOL    HW130872   4.274   2.131   3.242
 9991SOL    HW230873   4.380   2.129   3.366
 9992SOL     OW30874   6.625   5.694   6.282
 9992SOL    HW130875   6.644   5.754   6.361
 9992SOL    HW230876   6.702   5.698   6.218
 9993SOL     OW30877   1.219   0.758   1.893
 9993SOL    HW130878   1.152   0.740   1.822
 9993SOL    HW230879   1.219   0.855   1.916
 9994SOL     OW30880   5.973   4.988   3.124
 9994SOL    HW130881   5.932   5.078   3.112
 9994SOL    HW230882   6.072   4.998   3.139
 9995SOL     OW30883   4.854   1.239   4.294
 9995SOL    HW130884   4.852   1.271   4.389
 9995SOL    HW230885   4.764   1.208   4.267
 9996SOL     OW30886   2.547   3.146   6.913
 9996SOL    HW130887   2.576   3.212   6.844
 9996SOL    HW230888   2.448   3.152   6.925
 9997SOL     OW30889   2.751   0.289   4.693
 9997SOL    HW130890   2.819   0.219   4.715
 9997SOL    HW230891   2.726   0.283   4.597
 9998SOL     OW30892   5.776   6.493   5.416
 9998SOL    HW130893   5.791   6.581   5.462
 9998SOL    HW230894   5.739   6.427   5.480
 9999SOL     OW30895   6.741   2.474   4.794
 9999SOL    HW130896   6.704   2.566   4.785
 9999SOL    HW230897   6.711   2.434   4.882
10000SOL     OW30898   6.955   4.377   0.112
10000SOL    HW130899   6.856   4.376   0.117
10000SOL    HW230900   6.989   4.288   0.082
10001SOL     OW30901   4.016   0.215   3.227
10001SOL    HW130902   3.933   0.161   3.240
10001SOL    HW230903   4.094   0.166   3.269
10002SOL     OW30904   1.204   1.727   2.018
10002SOL    HW130905   1.219   1.639   1.974
10002SOL    HW230906   1.111   1.760   1.996
10003SOL     OW30907   5.425   2.859   3.599
10003SOL    HW130908   5.451   2.955   3.608
10003SOL    HW230909   5.341   2.852   3.546
10004SOL     OW30910   0.416   2.326   2.946
10004SOL    HW130911   0.446   2.242   2.901
10004SOL    HW230912   0.418   2.313   3.045
10005SOL     OW30913   5.226   6.982   4.456
10005SOL    HW130914   5.292   7.005   4.385
10005SOL    HW230915   5.202   6.885   4.450
10006SOL     OW30916   4.395   1.331   4.828
10006SOL    HW130917   4.344   1.275   4.762
10006SOL    HW230918   4.368   1.426   4.819
10007SOL     OW30919   6.540   3.820   3.922
10007SOL    HW130920   6.477   3.840   3.997
10007SOL    HW230921   6.603   3.747   3.950
10008SOL     OW30922   3.922   6.589   4.213
10008SOL    HW130923   3.877   6.677   4.195
10008SOL    HW230924   3.963   6.591   4.304
10009SOL     OW30925   1.598   4.102   1.875
10009SOL    HW130926   1.516   4.107   1.820
10009SOL    HW230927   1.578   4.055   1.962
10010SOL     OW30928   6.474   1.688   6.444
10010SOL    HW130929   6.564   1.658   6.412
10010SOL    HW230930   6.429   1.741   6.372
10011SOL     OW30931   6.876   6.882   4.089
10011SOL    HW130932   6.846   6.978   4.087
10011SOL    HW230933   6.938   6.869   4.166
10012SOL     OW30934   6.000   0.702   4.679
10012SOL    HW130935   5.953   0.618   4.652
10012SOL    HW230936   5.933   0.770   4.706
10013SOL     OW30937   1.613   0.978   1.986
10013SOL    HW130938   1.530   1.035   1.991
10013SOL    HW230939   1.597   0.892   2.033
10014SOL     OW30940   1.563   5.024   6.033
10014SOL    HW130941   1.514   4.937   6.032
10014SOL    HW230942   1.644   5.018   5.974
10015SOL     OW30943   2.316   4.627   6.949
10015SOL    HW130944   2.227   4.591   6.920
10015SOL    HW230945   2.386   4.597   6.885
10016SOL     OW30946   2.531   0.537   5.052
10016SOL    HW130947   2.483   0.450   5.049
10016SOL    HW230948   2.535   0.577   4.960
10017SOL     OW30949   0.830   2.159   3.947
10017SOL    HW130950   0.839   2.083   4.012
10017SOL    HW230951   0.823   2.122   3.855
10018SOL     OW30952   5.034   6.672   5.797
10018SOL    HW130953   5.055   6.713   5.886
10018SOL    HW230954   5.067   6.578   5.795
10019SOL     OW30955   1.584   1.205   2.386
10019SOL    HW130956   1.568   1.304   2.383
10019SOL    HW230957   1.673   1.184   2.344
10020SOL     OW30958   0.279   3.021   6.921
10020SOL    HW130959   0.328   3.085   6.980
10020SOL    HW230960   0.256   3.066   6.834
10021SOL     OW30961   5.412   3.259   1.777
10021SOL    HW130962   5.329   3.280   1.828
10021SOL    HW230963   5.390   3.200   1.700
10022SOL     OW30964   1.691   0.671   6.372
10022SOL    HW130965   1.644   0.701   6.455
10022SOL    HW230966   1.697   0.749   6.309
10023SOL     OW30967   0.437   3.342   1.141
10023SOL    HW130968   0.506   3.295   1.086
10023SOL    HW230969   0.382   3.275   1.190
10024SOL     OW30970   1.345   4.526   3.409
10024SOL    HW130971   1.315   4.500   3.501
10024SOL    HW230972   1.424   4.587   3.416
10025SOL     OW30973   0.969   0.912   0.600
10025SOL    HW130974   0.996   0.868   0.514
10025SOL    HW230975   0.969   0.844   0.674
10026SOL     OW30976   6.869   0.513   3.960
10026SOL    HW130977   6.924   0.469   4.032
10026SOL    HW230978   6.818   0.442   3.910
10027SOL     OW30979   5.332   2.346   6.071
10027SOL    HW130980   5.361   2.250   6.067
10027SOL    HW230981   5.350   2.382   6.163
10028SOL     OW30982   1.775   0.738   1.540
10028SOL    HW130983   1.694   0.681   1.551
10028SOL    HW230984   1.820   0.749   1.628
10029SOL     OW30985   4.602   1.160   4.266
10029SOL    HW130986   4.569   1.071   4.296
10029SOL    HW230987   4.534   1.203   4.206
10030SOL     OW30988   1.384   0.642   2.973
10030SOL    HW130989   1.300   0.640   2.919
10030SOL    HW230990   1.437   0.559   2.955
10031SOL     OW30991   6.703   4.528   4.021
10031SOL    HW130992   6.776   4.559   4.082
10031SOL    HW230993   6.615   4.550   4.062
10032SOL     OW30994   3.240   1.130   5.168
10032SOL    HW130995   3.202   1.180   5.091
10032SOL    HW230996   3.268   1.195   5.239
10033SOL     OW30997   5.184   2.889   4.372
10033SOL    HW130998   5.265   2.923   4.419
10033SOL    HW230999   5.102   2.934   4.407
10034SOL     OW31000   4.138   0.261   6.148
10034SOL    HW131001   4.217   0.321   6.134
10034SOL    HW231002   4.110   0.221   6.061
10035SOL     OW31003   0.220   6.452   3.421
10035SOL    HW131004   0.267   6.538   3.442
10035SOL    HW231005   0.288   6.381   3.402
10036SOL     OW31006   6.918   0.139   0.199
10036SOL    HW131007   6.917   0.199   0.279
10036SOL    HW231008   6.864   0.057   0.218
10037SOL     OW31009   0.078   6.897   1.201
10037SOL    HW131010   0.013   6.886   1.276
10037SOL    HW231011   0.030   6.931   1.120
10038SOL     OW31012   6.231   0.300   0.886
10038SOL    HW131013   6.274   0.219   0.925
10038SOL    HW231014   6.138   0.310   0.922
10039SOL     OW31015   3.962   0.656   3.059
10039SOL    HW131016   3.973   0.712   3.141
10039SOL    HW231017   3.900   0.579   3.080
10040SOL     OW31018   0.244   2.239   0.945
10040SOL    HW131019   0.167   2.301   0.928
10040SOL    HW231020   0.316   2.257   0.878
10041SOL     OW31021   1.193   6.138   0.365
10041SOL    HW131022   1.135   6.124   0.445
10041SOL    HW231023   1.220   6.049   0.327
10042SOL     OW31024   5.991   1.868   3.394
10042SOL    HW131025   5.928   1.813   3.340
10042SOL    HW231026   6.076   1.817   3.408
10043SOL     OW31027   1.070   3.223   5.013
10043SOL    HW131028   1.015   3.178   4.942
10043SOL    HW231029   1.076   3.321   4.993
10044SOL     OW31030   4.300   1.858   6.412
10044SOL    HW131031   4.219   1.913   6.389
10044SOL    HW231032   4.328   1.877   6.506
10045SOL     OW31033   2.509   0.904   0.781
10045SOL    HW131034   2.484   0.809   0.801
10045SOL    HW231035   2.520   0.954   0.867
10046SOL     OW31036   0.997   5.068   1.351
10046SOL    HW131037   1.006   5.144   1.287
10046SOL    HW231038   0.975   5.103   1.442
10047SOL     OW31039   1.320   3.149   0.581
10047SOL    HW131040   1.296   3.244   0.564
10047SOL    HW231041   1.336   3.102   0.495
10048SOL     OW31042   5.689   4.814   2.297
10048SOL    HW131043   5.745   4.835   2.216
10048SOL    HW231044   5.643   4.727   2.284
10049SOL     OW31045   5.379   1.561   4.940
10049SOL    HW131046   5.376   1.484   4.876
10049SOL    HW231047   5.358   1.527   5.032
10050SOL     OW31048   6.952   2.919   5.661
10050SOL    HW131049   6.911   3.009   5.647
10050SOL    HW231050   0.020   2.919   5.624
10051SOL     OW31051   2.269   1.142   4.574
10051SOL    HW131052   2.176   1.106   4.560
10051SOL    HW231053   2.282   1.161   4.671
10052SOL     OW31054   1.165   0.300   3.657
10052SOL    HW131055   1.151   0.239   3.734
10052SOL    HW231056   1.263   0.314   3.642
10053SOL     OW31057   5.954   5.345   2.801
10053SOL    HW131058   6.031   5.401   2.832
10053SOL    HW231059   5.987   5.267   2.749
10054SOL     OW31060   6.877   3.931   4.082
10054SOL    HW131061   6.897   3.873   4.004
10054SOL    HW231062   6.790   3.905   4.123
10055SOL     OW31063   1.637   1.906   6.357
10055SOL    HW131064   1.677   1.990   6.319
10055SOL    HW231065   1.699   1.867   6.425
10056SOL     OW31066   6.088   2.283   4.495
10056SOL    HW131067   6.095   2.382   4.506
10056SOL    HW231068   6.177   2.245   4.471
10057SOL     OW31069   5.431   4.817   5.644
10057SOL    HW131070   5.464   4.768   5.725
10057SOL    HW231071   5.339   4.786   5.622
10058SOL     OW31072   0.020   4.048   4.668
10058SOL    HW131073   0.097   3.992   4.697
10058SOL    HW231074   0.034   4.077   4.573
10059SOL     OW31075   5.512   6.704   6.608
10059SOL    HW131076   5.576   6.748   6.670
10059SOL    HW231077   5.549   6.706   6.515
10060SOL     OW31078   2.947   1.843   1.555
10060SOL    HW131079   3.046   1.858   1.544
10060SOL    HW231080   2.926   1.833   1.652
10061SOL     OW31081   3.284   0.216   2.308
10061SOL    HW131082   3.245   0.138   2.258
10061SOL    HW231083   3.327   0.183   2.392
10062SOL     OW31084   6.803   6.937   4.974
10062SOL    HW131085   6.709   6.912   4.949
10062SOL    HW231086   6.866   6.872   4.931
10063SOL     OW31087   3.022   2.172   4.432
10063SOL    HW131088   2.975   2.216   4.355
10063SOL    HW231089   3.058   2.241   4.493
10064SOL     OW31090   2.817   0.313   2.212
10064SOL    HW131091   2.719   0.334   2.218
10064SOL    HW231092   2.836   0.273   2.122
10065SOL     OW31093   0.128   1.906   1.585
10065SOL    HW131094   0.062   1.981   1.586
10065SOL    HW231095   0.218   1.940   1.613
10066SOL     OW31096   6.691   4.577   3.418
10066SOL    HW131097   6.728   4.568   3.325
10066SOL    HW231098   6.592   4.583   3.414
10067SOL     OW31099   6.441   4.174   4.907
10067SOL    HW131100   6.365   4.127   4.952
10067SOL    HW231101   6.525   4.158   4.959
10068SOL     OW31102   1.622   2.611   2.261
10068SOL    HW131103   1.674   2.614   2.176
10068SOL    HW231104   1.537   2.560   2.247
10069SOL     OW31105   3.362   4.811   1.567
10069SOL    HW131106   3.457   4.826   1.595
10069SOL    HW231107   3.317   4.750   1.632
10070SOL     OW31108   5.402   0.310   0.763
10070SOL    HW131109   5.457   0.335   0.843
10070SOL    HW231110   5.330   0.247   0.791
10071SOL     OW31111   5.022   0.754   5.589
10071SOL    HW131112   5.096   0.799   5.539
10071SOL    HW231113   4.935   0.774   5.543
10072SOL     OW31114   6.403   2.891   1.884
10072SOL    HW131115   6.328   2.899   1.950
10072SOL    HW231116   6.367   2.859   1.796
10073SOL     OW31117   5.556   5.837   5.082
10073SOL    HW131118   5.481   5.901   5.067
10073SOL    HW231119   5.539   5.784   5.166
10074SOL     OW31120   2.011   4.861   0.449
10074SOL    HW131121   1.996   4.764   0.468
10074SOL    HW231122   2.010   4.877   0.351
10075SOL     OW31123   1.227   2.895   1.615
10075SOL    HW131124   1.183   2.979   1.648
10075SOL    HW231125   1.170   2.855   1.543
10076SOL     OW31126   5.777   4.148   4.047
10076SOL    HW131127   5.750   4.052   4.052
10076SOL    HW231128   5.831   4.163   3.965
10077SOL     OW31129   4.501   3.756   6.614
10077SOL    HW131130   4.539   3.706   6.691
10077SOL    HW231131   4.449   3.694   6.556
10078SOL     OW31132   6.026   5.372   4.569
10078SOL    HW131133   5.967   5.440   4.527
10078SOL    HW231134   5.971   5.307   4.622
10079SOL     OW31135   4.987   4.597   3.198
10079SOL    HW131136   5.016   4.503   3.219
10079SOL    HW231137   4.994   4.613   3.100
10080SOL     OW31138   5.084   1.821   5.694
10080SOL    HW131139   5.173   1.796   5.655
10080SOL    HW231140   5.048   1.901   5.646
10081SOL     OW31141   1.072   4.723   0.114
10081SOL    HW131142   0.976   4.751   0.109
10081SOL    HW231143   1.124   4.766   0.040
10082SOL     OW31144   1.336   4.572   1.049
10082SOL    HW131145   1.367   4.546   0.957
10082SOL    HW231146   1.410   4.558   1.114
10083SOL     OW31147   2.799   6.181   2.672
10083SOL    HW131148   2.833   6.228   2.591
10083SOL    HW231149   2.700   6.194   2.679
10084SOL     OW31150   1.900   2.802   3.909
10084SOL    HW131151   1.845   2.720   3.896
10084SOL    HW231152   1.918   2.844   3.820
10085SOL     OW31153   4.860   0.022   1.907
10085SOL    HW131154   4.959   0.018   1.894
10085SOL    HW231155   4.818   6.971   1.858
10086SOL     OW31156   3.858   6.994   2.929
10086SOL    HW131157   3.764   6.971   2.904
10086SOL    HW231158   3.862   7.021   3.025
10087SOL     OW31159   1.524   6.079   5.185
10087SOL    HW131160   1.605   6.132   5.210
10087SOL    HW231161   1.452   6.140   5.154
10088SOL     OW31162   6.315   2.546   0.940
10088SOL    HW131163   6.288   2.450   0.953
10088SOL    HW231164   6.240   2.606   0.967
10089SOL     OW31165   4.281   6.830   2.025
10089SOL    HW131166   4.238   6.745   2.053
10089SOL    HW231167   4.273   6.898   2.098
10090SOL     OW31168   1.768   6.053   2.550
10090SOL    HW131169   1.693   6.031   2.612
10090SOL    HW231170   1.854   6.050   2.601
10091SOL     OW31171   5.144   5.164   4.262
10091SOL    HW131172   5.177   5.110   4.184
10091SOL    HW231173   5.216   5.224   4.294
10092SOL     OW31174   0.756   1.494   2.761
10092SOL    HW131175   0.762   1.430   2.684
10092SOL    HW231176   0.693   1.458   2.829
10093SOL     OW31177   4.245   4.166   6.369
10093SOL    HW131178   4.269   4.081   6.322
10093SOL    HW231179   4.322   4.230   6.363
10094SOL     OW31180   3.764   2.086   0.484
10094SOL    HW131181   3.706   2.124   0.556
10094SOL    HW231182   3.849   2.137   0.480
10095SOL     OW31183   4.060   3.548   5.464
10095SOL    HW131184   4.048   3.587   5.373
10095SOL    HW231185   3.977   3.561   5.518
10096SOL     OW31186   6.782   3.818   2.335
10096SOL    HW131187   6.753   3.794   2.428
10096SOL    HW231188   6.857   3.883   2.339
10097SOL     OW31189   1.031   1.533   0.843
10097SOL    HW131190   0.955   1.467   0.841
10097SOL    HW231191   1.117   1.485   0.827
10098SOL     OW31192   3.471   6.347   5.472
10098SOL    HW131193   3.474   6.255   5.510
10098SOL    HW231194   3.390   6.357   5.415
10099SOL     OW31195   0.262   5.413   3.013
10099SOL    HW131196   0.334   5.395   2.945
10099SOL    HW231197   0.298   5.396   3.105
10100SOL     OW31198   4.989   4.596   4.170
10100SOL    HW131199   5.066   4.565   4.113
10100SOL    HW231200   4.991   4.546   4.257
10101SOL     OW31201   0.100   2.426   0.312
10101SOL    HW131202   0.038   2.414   0.390
10101SOL    HW231203   0.110   2.339   0.264
10102SOL     OW31204   6.584   4.853   3.428
10102SOL    HW131205   6.501   4.872   3.481
10102SOL    HW231206   6.632   4.774   3.467
10103SOL     OW31207   0.083   6.626   6.653
10103SOL    HW131208   0.028   6.545   6.632
10103SOL    HW231209   0.027   6.693   6.702
10104SOL     OW31210   3.203   0.651   4.471
10104SOL    HW131211   3.190   0.685   4.564
10104SOL    HW231212   3.145   0.571   4.457
10105SOL     OW31213   3.163   1.484   3.449
10105SOL    HW131214   3.186   1.549   3.377
10105SOL    HW231215   3.201   1.516   3.536
10106SOL     OW31216   5.974   4.190   1.635
10106SOL    HW131217   5.949   4.175   1.539
10106SOL    HW231218   5.984   4.101   1.680
10107SOL     OW31219   5.517   5.406   6.361
10107SOL    HW131220   5.586   5.451   6.303
10107SOL    HW231221   5.485   5.472   6.430
10108SOL     OW31222   2.451   2.510   4.889
10108SOL    HW131223   2.385   2.484   4.819
10108SOL    HW231224   2.418   2.591   4.938
10109SOL     OW31225   1.348   3.379   1.171
10109SOL    HW131226   1.298   3.381   1.258
10109SOL    HW231227   1.348   3.470   1.130
10110SOL     OW31228   6.541   6.150   2.191
10110SOL    HW131229   6.495   6.168   2.278
10110SOL    HW231230   6.569   6.054   2.187
10111SOL     OW31231   6.256   2.453   1.788
10111SOL    HW131232   6.288   2.391   1.861
10111SOL    HW231233   6.334   2.479   1.731
10112SOL     OW31234   6.948   2.877   3.790
10112SOL    HW131235   6.948   2.947   3.861
10112SOL    HW231236   6.933   2.921   3.701
10113SOL     OW31237   6.830   6.461   5.848
10113SOL    HW131238   6.836   6.372   5.892
10113SOL    HW231239   6.740   6.502   5.867
10114SOL     OW31240   5.323   3.542   1.886
10114SOL    HW131241   5.262   3.583   1.953
10114SOL    HW231242   5.410   3.592   1.884
10115SOL     OW31243   3.720   2.872   6.318
10115SOL    HW131244   3.704   2.945   6.252
10115SOL    HW231245   3.638   2.858   6.374
10116SOL     OW31246   0.353   0.154   6.380
10116SOL    HW131247   0.368   0.170   6.477
10116SOL    HW231248   0.430   0.190   6.328
10117SOL     OW31249   0.069   4.432   1.260
10117SOL    HW131250   0.008   4.441   1.182
10117SOL    HW231251   0.154   4.482   1.242
10118SOL     OW31252   4.070   4.780   3.763
10118SOL    HW131253   4.018   4.781   3.849
10118SOL    HW231254   4.066   4.871   3.721
10119SOL     OW31255   6.043   6.091   6.941
10119SOL    HW131256   6.067   6.092   0.013
10119SOL    HW231257   6.032   6.185   6.909
10120SOL     OW31258   2.527   2.487   2.532
10120SOL    HW131259   2.500   2.391   2.533
10120SOL    HW231260   2.609   2.498   2.476
10121SOL     OW31261   6.326   5.637   1.698
10121SOL    HW131262   6.406   5.598   1.652
10121SOL    HW231263   6.347   5.653   1.794
10122SOL     OW31264   2.098   0.235   3.220
10122SOL    HW131265   2.098   0.140   3.253
10122SOL    HW231266   2.028   0.245   3.149
10123SOL     OW31267   6.035   6.328   6.334
10123SOL    HW131268   5.992   6.263   6.271
10123SOL    HW231269   6.134   6.314   6.333
10124SOL     OW31270   2.758   5.262   2.178
10124SOL    HW131271   2.804   5.334   2.230
10124SOL    HW231272   2.659   5.272   2.188
10125SOL     OW31273   1.590   1.010   5.021
10125SOL    HW131274   1.586   0.958   4.936
10125SOL    HW231275   1.663   0.974   5.079
10126SOL     OW31276   6.633   6.299   4.749
10126SOL    HW131277   6.684   6.342   4.674
10126SOL    HW231278   6.616   6.366   4.821
10127SOL     OW31279   2.422   6.902   5.603
10127SOL    HW131280   2.448   6.808   5.580
10127SOL    HW231281   2.503   6.959   5.609
10128SOL     OW31282   2.450   2.105   6.988
10128SOL    HW131283   2.527   2.157   7.025
10128SOL    HW231284   2.480   2.052   6.910
10129SOL     OW31285   6.724   2.334   5.030
10129SOL    HW131286   6.798   2.380   5.079
10129SOL    HW231287   6.726   2.236   5.051
10130SOL     OW31288   1.670   2.117   3.408
10130SOL    HW131289   1.759   2.153   3.437
10130SOL    HW231290   1.683   2.060   3.327
10131SOL     OW31291   1.804   0.296   5.426
10131SOL    HW131292   1.836   0.227   5.491
10131SOL    HW231293   1.705   0.289   5.416
10132SOL     OW31294   5.695   0.670   2.651
10132SOL    HW131295   5.682   0.759   2.695
10132SOL    HW231296   5.728   0.604   2.719
10133SOL     OW31297   4.312   5.714   1.435
10133SOL    HW131298   4.398   5.761   1.412
10133SOL    HW231299   4.238   5.749   1.378
10134SOL     OW31300   0.192   5.980   3.248
10134SOL    HW131301   0.231   6.059   3.199
10134SOL    HW231302   0.108   5.951   3.202
10135SOL     OW31303   6.591   6.405   3.763
10135SOL    HW131304   6.676   6.441   3.802
10135SOL    HW231305   6.573   6.314   3.802
10136SOL     OW31306   4.700   0.914   3.763
10136SOL    HW131307   4.786   0.902   3.813
10136SOL    HW231308   4.624   0.918   3.828
10137SOL     OW31309   6.860   5.600   4.280
10137SOL    HW131310   6.823   5.529   4.340
10137SOL    HW231311   6.960   5.598   4.282
10138SOL     OW31312   0.049   2.095   1.894
10138SOL    HW131313   0.050   2.115   1.992
10138SOL    HW231314   0.090   2.171   1.844
10139SOL     OW31315   4.222   3.058   0.274
10139SOL    HW131316   4.314   3.035   0.305
10139SOL    HW231317   4.211   3.029   0.178
10140SOL     OW31318   6.677   5.977   5.205
10140SOL    HW131319   6.771   5.959   5.235
10140SOL    HW231320   6.661   6.075   5.201
10141SOL     OW31321   1.766   2.120   4.966
10141SOL    HW131322   1.701   2.124   5.042
10141SOL    HW231323   1.795   2.026   4.951
10142SOL     OW31324   4.999   5.850   2.367
10142SOL    HW131325   4.968   5.880   2.277
10142SOL    HW231326   4.952   5.765   2.391
10143SOL     OW31327   5.752   3.511   6.329
10143SOL    HW131328   5.792   3.443   6.267
10143SOL    HW231329   5.662   3.539   6.295
10144SOL     OW31330   3.482   0.516   0.846
10144SOL    HW131331   3.516   0.474   0.763
10144SOL    HW231332   3.511   0.463   0.926
10145SOL     OW31333   6.469   0.110   5.139
10145SOL    HW131334   6.562   0.085   5.164
10145SOL    HW231335   6.468   0.154   5.050
10146SOL     OW31336   1.556   2.657   5.718
10146SOL    HW131337   1.546   2.614   5.628
10146SOL    HW231338   1.643   2.630   5.759
10147SOL     OW31339   3.812   5.324   0.636
10147SOL    HW131340   3.811   5.415   0.677
10147SOL    HW231341   3.784   5.257   0.704
10148SOL     OW31342   0.493   5.305   6.337
10148SOL    HW131343   0.455   5.276   6.249
10148SOL    HW231344   0.512   5.225   6.393
10149SOL     OW31345   3.587   2.964   2.932
10149SOL    HW131346   3.594   2.960   2.832
10149SOL    HW231347   3.675   2.989   2.971
10150SOL     OW31348   4.868   4.425   1.590
10150SOL    HW131349   4.869   4.391   1.684
10150SOL    HW231350   4.774   4.425   1.556
10151SOL     OW31351   0.157   0.823   6.302
10151SOL    HW131352   0.070   0.799   6.347
10151SOL    HW231353   0.140   0.842   6.206
10152SOL     OW31354   4.056   6.415   3.688
10152SOL    HW131355   4.122   6.396   3.616
10152SOL    HW231356   4.037   6.331   3.739
10153SOL     OW31357   5.020   3.626   1.432
10153SOL    HW131358   5.071   3.610   1.516
10153SOL    HW231359   5.080   3.610   1.353
10154SOL     OW31360   4.318   5.158   5.389
10154SOL    HW131361   4.289   5.184   5.297
10154SOL    HW231362   4.241   5.120   5.439
10155SOL     OW31363   4.295   2.037   4.197
10155SOL    HW131364   4.217   2.099   4.204
10155SOL    HW231365   4.266   1.953   4.150
10156SOL     OW31366   3.612   2.278   6.368
10156SOL    HW131367   3.631   2.375   6.387
10156SOL    HW231368   3.673   2.221   6.422
10157SOL     OW31369   1.140   4.638   0.774
10157SOL    HW131370   1.044   4.669   0.770
10157SOL    HW231371   1.199   4.716   0.794
10158SOL     OW31372   5.334   5.056   0.076
10158SOL    HW131373   5.388   5.084   7.023
10158SOL    HW231374   5.341   5.125   0.148
10159SOL     OW31375   3.880   2.790   1.712
10159SOL    HW131376   3.804   2.832   1.663
10159SOL    HW231377   3.870   2.691   1.712
10160SOL     OW31378   0.218   4.040   2.424
10160SOL    HW131379   0.236   4.117   2.484
10160SOL    HW231380   0.304   4.006   2.385
10161SOL     OW31381   6.045   3.246   6.495
10161SOL    HW131382   6.116   3.226   6.563
10161SOL    HW231383   5.956   3.247   6.539
10162SOL     OW31384   1.582   2.002   2.361
10162SOL    HW131385   1.602   2.086   2.310
10162SOL    HW231386   1.666   1.968   2.402
10163SOL     OW31387   3.596   5.046   4.737
10163SOL    HW131388   3.593   5.029   4.835
10163SOL    HW231389   3.653   4.977   4.692
10164SOL     OW31390   0.389   1.095   4.250
10164SOL    HW131391   0.450   1.174   4.242
10164SOL    HW231392   0.296   1.127   4.270
10165SOL     OW31393   1.546   3.331   3.760
10165SOL    HW131394   1.609   3.338   3.683
10165SOL    HW231395   1.506   3.420   3.778
10166SOL     OW31396   3.535   6.254   3.203
10166SOL    HW131397   3.501   6.197   3.128
10166SOL    HW231398   3.614   6.210   3.246
10167SOL     OW31399   3.151   1.928   6.611
10167SOL    HW131400   3.129   2.016   6.569
10167SOL    HW231401   3.246   1.930   6.645
10168SOL     OW31402   1.137   1.365   6.289
10168SOL    HW131403   1.142   1.277   6.243
10168SOL    HW231404   1.067   1.362   6.360
10169SOL     OW31405   4.328   5.455   3.041
10169SOL    HW131406   4.287   5.504   3.118
10169SOL    HW231407   4.356   5.521   2.971
10170SOL     OW31408   4.859   0.018   0.782
10170SOL    HW131409   4.877   0.071   0.699
10170SOL    HW231410   4.766   7.008   0.779
10171SOL     OW31411   1.640   4.362   3.709
10171SOL    HW131412   1.690   4.416   3.640
10171SOL    HW231413   1.588   4.291   3.663
10172SOL     OW31414   0.582   0.755   2.379
10172SOL    HW131415   0.584   0.731   2.476
10172SOL    HW231416   0.489   0.747   2.344
10173SOL     OW31417   4.030   3.453   5.086
10173SOL    HW131418   3.934   3.471   5.061
10173SOL    HW231419   4.037   3.361   5.124
10174SOL     OW31420   5.070   4.680   1.953
10174SOL    HW131421   5.066   4.704   1.856
10174SOL    HW231422   4.987   4.631   1.979
10175SOL     OW31423   6.556   0.117   3.856
10175SOL    HW131424   6.520   0.118   3.949
10175SOL    HW231425   6.567   0.023   3.825
10176SOL     OW31426   0.292   1.447   4.619
10176SOL    HW131427   0.334   1.453   4.710
10176SOL    HW231428   0.277   1.539   4.583
10177SOL     OW31429   3.173   1.395   3.828
10177SOL    HW131430   3.095   1.333   3.831
10177SOL    HW231431   3.239   1.363   3.760
10178SOL     OW31432   0.369   1.323   1.725
10178SOL    HW131433   0.324   1.252   1.780
10178SOL    HW231434   0.354   1.412   1.767
10179SOL     OW31435   0.075   6.145   1.025
10179SOL    HW131436   0.105   6.134   0.930
10179SOL    HW231437   0.024   6.063   1.054
10180SOL     OW31438   3.169   6.918   6.029
10180SOL    HW131439   3.118   6.943   6.111
10180SOL    HW231440   3.178   6.998   5.970
10181SOL     OW31441   6.929   3.618   2.519
10181SOL    HW131442   6.838   3.624   2.479
10181SOL    HW231443   6.935   3.677   2.599
10182SOL     OW31444   4.138   0.141   0.302
10182SOL    HW131445   4.074   0.175   0.233
10182SOL    HW231446   4.175   0.218   0.353
10183SOL     OW31447   3.694   6.214   5.757
10183SOL    HW131448   3.627   6.262   5.813
10183SOL    HW231449   3.771   6.275   5.736
10184SOL     OW31450   5.482   2.800   5.041
10184SOL    HW131451   5.455   2.895   5.058
10184SOL    HW231452   5.426   2.740   5.098
10185SOL     OW31453   2.821   4.697   2.517
10185SOL    HW131454   2.770   4.683   2.432
10185SOL    HW231455   2.881   4.777   2.507
10186SOL     OW31456   3.021   2.883   0.820
10186SOL    HW131457   3.080   2.834   0.755
10186SOL    HW231458   2.940   2.827   0.839
10187SOL     OW31459   2.276   3.729   5.539
10187SOL    HW131460   2.267   3.763   5.446
10187SOL    HW231461   2.186   3.729   5.583
10188SOL     OW31462   2.319   6.847   6.920
10188SOL    HW131463   2.342   6.897   6.837
10188SOL    HW231464   2.231   6.800   6.908
10189SOL     OW31465   2.400   1.765   5.151
10189SOL    HW131466   2.416   1.861   5.172
10189SOL    HW231467   2.488   1.716   5.148
10190SOL     OW31468   3.965   3.808   0.913
10190SOL    HW131469   4.055   3.850   0.904
10190SOL    HW231470   3.913   3.823   0.829
10191SOL     OW31471   5.529   0.539   0.373
10191SOL    HW131472   5.540   0.563   0.276
10191SOL    HW231473   5.442   0.492   0.385
10192SOL     OW31474   1.988   0.731   4.221
10192SOL    HW131475   1.960   0.736   4.125
10192SOL    HW231476   1.942   0.804   4.273
10193SOL     OW31477   3.371   3.661   3.794
10193SOL    HW131478   3.308   3.655   3.717
10193SOL    HW231479   3.443   3.727   3.772
10194SOL     OW31480   3.362   6.037   3.423
10194SOL    HW131481   3.352   6.116   3.483
10194SOL    HW231482   3.339   6.063   3.330
10195SOL     OW31483   5.108   0.635   2.864
10195SOL    HW131484   5.121   0.605   2.959
10195SOL    HW231485   5.197   0.642   2.820
10196SOL     OW31486   5.105   4.037   3.993
10196SOL    HW131487   5.118   3.990   3.905
10196SOL    HW231488   5.009   4.064   4.002
10197SOL     OW31489   4.804   1.781   2.728
10197SOL    HW131490   4.732   1.812   2.789
10197SOL    HW231491   4.834   1.856   2.670
10198SOL     OW31492   3.055   1.557   1.694
10198SOL    HW131493   3.061   1.646   1.737
10198SOL    HW231494   3.118   1.493   1.738
10199SOL     OW31495   1.047   1.917   6.813
10199SOL    HW131496   1.086   1.998   6.857
10199SOL    HW231497   1.102   1.893   6.733
10200SOL     OW31498   5.979   6.530   4.046
10200SOL    HW131499   5.904   6.487   4.096
10200SOL    HW231500   5.943   6.601   3.986
10201SOL     OW31501   1.417   4.583   2.901
10201SOL    HW131502   1.516   4.596   2.909
10201SOL    HW231503   1.370   4.661   2.943
10202SOL     OW31504   0.957   1.979   3.448
10202SOL    HW131505   1.005   1.896   3.419
10202SOL    HW231506   0.861   1.972   3.422
10203SOL     OW31507   0.437   1.833   0.962
10203SOL    HW131508   0.512   1.883   0.919
10203SOL    HW231509   0.400   1.766   0.898
10204SOL     OW31510   2.865   5.960   4.082
10204SOL    HW131511   2.843   5.932   3.989
10204SOL    HW231512   2.837   5.889   4.146
10205SOL     OW31513   3.525   0.354   1.067
10205SOL    HW131514   3.480   0.392   1.148
10205SOL    HW231515   3.620   0.332   1.088
10206SOL     OW31516   5.757   6.368   6.860
10206SOL    HW131517   5.704   6.306   6.801
10206SOL    HW231518   5.854   6.361   6.837
10207SOL     OW31519   4.117   1.628   2.968
10207SOL    HW131520   4.180   1.612   2.891
10207SOL    HW231521   4.120   1.724   2.993
10208SOL     OW31522   6.712   3.551   6.351
10208SOL    HW131523   6.736   3.620   6.282
10208SOL    HW231524   6.615   3.528   6.342
10209SOL     OW31525   3.969   6.361   0.283
10209SOL    HW131526   3.965   6.409   0.196
10209SOL    HW231527   3.885   6.380   0.335
10210SOL     OW31528   5.324   5.295   0.303
10210SOL    HW131529   5.368   5.219   0.350
10210SOL    HW231530   5.231   5.307   0.338
10211SOL     OW31531   3.477   5.790   5.844
10211SOL    HW131532   3.510   5.735   5.921
10211SOL    HW231533   3.540   5.866   5.828
10212SOL     OW31534   6.000   6.572   6.239
10212SOL    HW131535   5.999   6.489   6.294
10212SOL    HW231536   6.095   6.597   6.219
10213SOL     OW31537   4.170   0.114   4.667
10213SOL    HW131538   4.190   0.210   4.683
10213SOL    HW231539   4.153   0.068   4.754
10214SOL     OW31540   0.626   0.350   6.929
10214SOL    HW131541   0.605   0.261   6.969
10214SOL    HW231542   0.718   0.378   6.957
10215SOL     OW31543   4.281   2.833   0.611
10215SOL    HW131544   4.248   2.922   0.644
10215SOL    HW231545   4.365   2.846   0.559
10216SOL     OW31546   5.028   0.230   2.828
10216SOL    HW131547   4.988   0.279   2.750
10216SOL    HW231548   5.074   0.147   2.796
10217SOL     OW31549   3.578   2.265   5.781
10217SOL    HW131550   3.598   2.169   5.761
10217SOL    HW231551   3.523   2.271   5.864
10218SOL     OW31552   3.686   1.533   6.751
10218SOL    HW131553   3.672   1.500   6.658
10218SOL    HW231554   3.692   1.633   6.752
10219SOL     OW31555   1.460   5.359   0.325
10219SOL    HW131556   1.527   5.321   0.390
10219SOL    HW231557   1.374   5.378   0.373
10220SOL     OW31558   4.049   2.175   0.349
10220SOL    HW131559   4.001   2.229   0.280
10220SOL    HW231560   4.134   2.139   0.310
10221SOL     OW31561   2.650   0.946   4.198
10221SOL    HW131562   2.611   0.946   4.290
10221SOL    HW231563   2.703   0.862   4.185
10222SOL     OW31564   1.867   4.216   5.179
10222SOL    HW131565   1.935   4.143   5.175
10222SOL    HW231566   1.904   4.293   5.230
10223SOL     OW31567   0.852   4.805   6.172
10223SOL    HW131568   0.827   4.714   6.140
10223SOL    HW231569   0.815   4.820   6.264
10224SOL     OW31570   2.772   6.768   4.868
10224SOL    HW131571   2.707   6.721   4.809
10224SOL    HW231572   2.834   6.822   4.811
10225SOL     OW31573   4.965   5.982   4.687
10225SOL    HW131574   5.005   5.969   4.596
10225SOL    HW231575   4.996   5.909   4.748
10226SOL     OW31576   6.568   2.825   6.087
10226SOL    HW131577   6.534   2.825   6.181
10226SOL    HW231578   6.668   2.819   6.089
10227SOL     OW31579   4.620   4.977   5.568
10227SOL    HW131580   4.698   5.040   5.561
10227SOL    HW231581   4.596   4.943   5.477
10228SOL     OW31582   0.758   3.048   2.076
10228SOL    HW131583   0.788   3.027   1.983
10228SOL    HW231584   0.833   3.034   2.140
10229SOL     OW31585   2.405   0.425   1.633
10229SOL    HW131586   2.375   0.509   1.589
10229SOL    HW231587   2.474   0.381   1.576
10230SOL     OW31588   5.995   6.628   3.377
10230SOL    HW131589   5.900   6.595   3.375
10230SOL    HW231590   6.002   6.704   3.441
10231SOL     OW31591   4.508   6.370   4.427
10231SOL    HW131592   4.534   6.337   4.518
10231SOL    HW231593   4.527   6.298   4.360
10232SOL     OW31594   3.708   2.133   3.492
10232SOL    HW131595   3.724   2.134   3.393
10232SOL    HW231596   3.614   2.163   3.511
10233SOL     OW31597   5.106   0.017   5.107
10233SOL    HW131598   5.115   6.944   5.093
10233SOL    HW231599   5.131   0.065   5.022
10234SOL     OW31600   4.613   5.484   1.411
10234SOL    HW131601   4.585   5.517   1.321
10234SOL    HW231602   4.534   5.447   1.459
10235SOL     OW31603   5.013   1.131   0.510
10235SOL    HW131604   5.047   1.211   0.559
10235SOL    HW231605   4.996   1.154   0.415
10236SOL     OW31606   1.401   5.721   1.405
10236SOL    HW131607   1.404   5.630   1.446
10236SOL    HW231608   1.355   5.784   1.467
10237SOL     OW31609   5.976   2.287   3.063
10237SOL    HW131610   5.994   2.214   2.997
10237SOL    HW231611   6.001   2.255   3.155
10238SOL     OW31612   4.472   5.943   5.267
10238SOL    HW131613   4.381   5.902   5.264
10238SOL    HW231614   4.485   6.003   5.188
10239SOL     OW31615   5.846   3.123   4.789
10239SOL    HW131616   5.894   3.100   4.874
10239SOL    HW231617   5.780   3.196   4.808
10240SOL     OW31618   4.938   3.523   3.578
10240SOL    HW131619   4.882   3.589   3.527
10240SOL    HW231620   4.992   3.571   3.647
10241SOL     OW31621   1.493   2.175   2.905
10241SOL    HW131622   1.540   2.111   2.845
10241SOL    HW231623   1.555   2.248   2.932
10242SOL     OW31624   1.101   5.100   5.779
10242SOL    HW131625   1.062   5.021   5.826
10242SOL    HW231626   1.200   5.102   5.794
10243SOL     OW31627   0.701   6.365   2.788
10243SOL    HW131628   0.622   6.387   2.732
10243SOL    HW231629   0.706   6.428   2.866
10244SOL     OW31630   1.261   5.589   0.374
10244SOL    HW131631   1.183   5.552   0.322
10244SOL    HW231632   1.268   5.542   0.462
10245SOL     OW31633   2.199   2.571   0.675
10245SOL    HW131634   2.250   2.486   0.689
10245SOL    HW231635   2.238   2.621   0.598
10246SOL     OW31636   2.938   3.669   4.414
10246SOL    HW131637   2.931   3.768   4.426
10246SOL    HW231638   2.931   3.624   4.503
10247SOL     OW31639   0.843   6.086   6.045
10247SOL    HW131640   0.838   6.119   5.951
10247SOL    HW231641   0.884   6.156   6.103
10248SOL     OW31642   6.033   0.803   3.611
10248SOL    HW131643   6.080   0.780   3.695
10248SOL    HW231644   5.940   0.833   3.632
10249SOL     OW31645   5.278   0.709   6.174
10249SOL    HW131646   5.182   0.684   6.162
10249SOL    HW231647   5.299   0.788   6.116
10250SOL     OW31648   4.858   6.340   0.491
10250SOL    HW131649   4.874   6.366   0.396
10250SOL    HW231650   4.878   6.243   0.504
10251SOL     OW31651   3.989   4.570   1.236
10251SOL    HW131652   3.942   4.620   1.163
10251SOL    HW231653   3.977   4.472   1.222
10252SOL     OW31654   0.190   4.133   0.853
10252SOL    HW131655   0.264   4.184   0.808
10252SOL    HW231656   0.136   4.084   0.785
10253SOL     OW31657   3.719   5.150   0.388
10253SOL    HW131658   3.632   5.102   0.374
10253SOL    HW231659   3.712   5.211   0.466
10254SOL     OW31660   2.283   1.441   4.864
10254SOL    HW131661   2.249   1.438   4.958
10254SOL    HW231662   2.284   1.535   4.832
10255SOL     OW31663   3.200   5.813   3.455
10255SOL    HW131664   3.262   5.887   3.430
10255SOL    HW231665   3.249   5.726   3.456
10256SOL     OW31666   5.436   6.680   0.512
10256SOL    HW131667   5.422   6.635   0.423
10256SOL    HW231668   5.452   6.611   0.582
10257SOL     OW31669   1.494   5.550   5.473
10257SOL    HW131670   1.559   5.562   5.397
10257SOL    HW231671   1.545   5.535   5.558
10258SOL     OW31672   4.375   0.974   3.095
10258SOL    HW131673   4.351   1.034   3.018
10258SOL    HW231674   4.474   0.962   3.098
10259SOL     OW31675   0.375   3.223   4.063
10259SOL    HW131676   0.430   3.145   4.032
10259SOL    HW231677   0.295   3.233   4.004
10260SOL     OW31678   0.199   5.811   2.221
10260SOL    HW131679   0.193   5.900   2.176
10260SOL    HW231680   0.121   5.799   2.282
10261SOL     OW31681   2.028   6.895   1.939
10261SOL    HW131682   2.080   6.815   1.968
10261SOL    HW231683   2.069   6.933   1.856
10262SOL     OW31684   1.535   6.587   3.829
10262SOL    HW131685   1.627   6.576   3.867
10262SOL    HW231686   1.486   6.500   3.835
10263SOL     OW31687   6.455   3.358   5.550
10263SOL    HW131688   6.363   3.341   5.515
10263SOL    HW231689   6.457   3.445   5.598
10264SOL     OW31690   0.409   6.691   0.144
10264SOL    HW131691   0.444   6.618   0.085
10264SOL    HW231692   0.340   6.744   0.094
10265SOL     OW31693   4.305   1.829   3.261
10265SOL    HW131694   4.339   1.923   3.265
10265SOL    HW231695   4.206   1.830   3.249
10266SOL     OW31696   3.859   3.860   6.860
10266SOL    HW131697   3.938   3.913   6.891
10266SOL    HW231698   3.829   3.800   6.934
10267SOL     OW31699   6.173   1.217   6.071
10267SOL    HW131700   6.083   1.261   6.077
10267SOL    HW231701   6.244   1.288   6.065
10268SOL     OW31702   6.821   4.088   1.040
10268SOL    HW131703   6.814   3.994   1.007
10268SOL    HW231704   6.885   4.139   0.983
10269SOL     OW31705   3.981   1.942   6.031
10269SOL    HW131706   3.965   1.878   5.955
10269SOL    HW231707   3.895   1.960   6.077
10270SOL     OW31708   2.628   5.704   2.137
10270SOL    HW131709   2.721   5.690   2.105
10270SOL    HW231710   2.620   5.796   2.176
10271SOL     OW31711   2.227   5.227   1.240
10271SOL    HW131712   2.231   5.173   1.324
10271SOL    HW231713   2.191   5.318   1.261
10272SOL     OW31714   1.637   2.043   4.186
10272SOL    HW131715   1.694   2.034   4.268
10272SOL    HW231716   1.613   1.953   4.151
10273SOL     OW31717   4.428   6.956   3.958
10273SOL    HW131718   4.397   6.884   4.021
10273SOL    HW231719   4.349   6.993   3.909
10274SOL     OW31720   2.633   4.650   6.442
10274SOL    HW131721   2.658   4.724   6.505
10274SOL    HW231722   2.708   4.584   6.437
10275SOL     OW31723   0.768   6.695   1.614
10275SOL    HW131724   0.810   6.785   1.601
10275SOL    HW231725   0.833   6.634   1.658
10276SOL     OW31726   0.955   6.699   0.124
10276SOL    HW131727   1.003   6.787   0.125
10276SOL    HW231728   1.021   6.626   0.141
10277SOL     OW31729   0.476   6.037   1.808
10277SOL    HW131730   0.529   6.119   1.785
10277SOL    HW231731   0.452   5.989   1.723
10278SOL     OW31732   6.581   0.385   5.283
10278SOL    HW131733   6.661   0.383   5.223
10278SOL    HW231734   6.583   0.306   5.344
10279SOL     OW31735   3.675   5.933   5.237
10279SOL    HW131736   3.585   5.918   5.196
10279SOL    HW231737   3.685   6.029   5.262
10280SOL     OW31738   3.461   2.860   0.043
10280SOL    HW131739   3.551   2.824   0.067
10280SOL    HW231740   3.454   2.955   0.071
10281SOL     OW31741   5.109   0.280   4.315
10281SOL    HW131742   5.026   0.249   4.362
10281SOL    HW231743   5.166   0.200   4.294
10282SOL     OW31744   1.330   2.761   4.113
10282SOL    HW131745   1.262   2.706   4.065
10282SOL    HW231746   1.397   2.796   4.048
10283SOL     OW31747   1.738   4.199   5.532
10283SOL    HW131748   1.796   4.239   5.461
10283SOL    HW231749   1.642   4.201   5.503
10284SOL     OW31750   4.942   3.532   6.940
10284SOL    HW131751   5.012   3.467   6.910
10284SOL    HW231752   4.944   3.613   6.881
10285SOL     OW31753   5.361   1.366   1.019
10285SOL    HW131754   5.305   1.379   1.101
10285SOL    HW231755   5.312   1.308   0.954
10286SOL     OW31756   3.885   0.533   3.936
10286SOL    HW131757   3.928   0.621   3.958
10286SOL    HW231758   3.828   0.504   4.012
10287SOL     OW31759   1.546   4.573   2.029
10287SOL    HW131760   1.494   4.652   1.996
10287SOL    HW231761   1.615   4.603   2.095
10288SOL     OW31762   4.335   6.112   4.626
10288SOL    HW131763   4.263   6.181   4.621
10288SOL    HW231764   4.424   6.158   4.637
10289SOL     OW31765   3.140   1.557   1.427
10289SOL    HW131766   3.174   1.649   1.408
10289SOL    HW231767   3.110   1.553   1.523
10290SOL     OW31768   3.288   2.980   2.985
10290SOL    HW131769   3.373   2.964   2.937
10290SOL    HW231770   3.299   2.956   3.082
10291SOL     OW31771   4.094   0.757   5.345
10291SOL    HW131772   4.010   0.705   5.328
10291SOL    HW231773   4.072   0.836   5.401
10292SOL     OW31774   0.610   2.438   4.425
10292SOL    HW131775   0.533   2.495   4.396
10292SOL    HW231776   0.692   2.466   4.375
10293SOL     OW31777   2.973   5.238   2.613
10293SOL    HW131778   2.912   5.265   2.687
10293SOL    HW231779   2.939   5.274   2.527
10294SOL     OW31780   6.491   1.114   3.419
10294SOL    HW131781   6.558   1.052   3.459
10294SOL    HW231782   6.463   1.079   3.329
10295SOL     OW31783   1.662   4.314   4.208
10295SOL    HW131784   1.577   4.360   4.237
10295SOL    HW231785   1.695   4.355   4.123
10296SOL     OW31786   6.484   3.354   1.591
10296SOL    HW131787   6.420   3.326   1.663
10296SOL    HW231788   6.578   3.350   1.626
10297SOL     OW31789   2.926   5.072   5.303
10297SOL    HW131790   2.867   5.119   5.237
10297SOL    HW231791   2.882   4.986   5.330
10298SOL     OW31792   6.018   3.185   2.953
10298SOL    HW131793   5.971   3.154   2.870
10298SOL    HW231794   5.950   3.201   3.025
10299SOL     OW31795   4.731   4.092   2.548
10299SOL    HW131796   4.751   4.032   2.626
10299SOL    HW231797   4.749   4.043   2.463
10300SOL     OW31798   0.796   5.735   1.678
10300SOL    HW131799   0.711   5.718   1.728
10300SOL    HW231800   0.865   5.771   1.741
10301SOL     OW31801   4.519   0.810   1.699
10301SOL    HW131802   4.511   0.718   1.661
10301SOL    HW231803   4.531   0.804   1.799
10302SOL     OW31804   2.193   4.185   3.807
10302SOL    HW131805   2.222   4.213   3.899
10302SOL    HW231806   2.273   4.178   3.747
10303SOL     OW31807   4.326   2.884   1.484
10303SOL    HW131808   4.336   2.928   1.573
10303SOL    HW231809   4.355   2.788   1.491
10304SOL     OW31810   6.185   6.260   3.558
10304SOL    HW131811   6.239   6.288   3.479
10304SOL    HW231812   6.228   6.293   3.642
10305SOL     OW31813   1.631   5.337   0.996
10305SOL    HW131814   1.646   5.253   1.049
10305SOL    HW231815   1.599   5.410   1.057
10306SOL     OW31816   4.006   4.152   0.820
10306SOL    HW131817   4.096   4.172   0.859
10306SOL    HW231818   4.015   4.089   0.743
10307SOL     OW31819   2.613   1.805   5.340
10307SOL    HW131820   2.616   1.894   5.386
10307SOL    HW231821   2.640   1.816   5.245
10308SOL     OW31822   2.706   5.078   3.672
10308SOL    HW131823   2.785   5.135   3.695
10308SOL    HW231824   2.738   4.992   3.632
10309SOL     OW31825   0.163   6.107   3.535
10309SOL    HW131826   0.196   6.012   3.530
10309SOL    HW231827   0.163   6.147   3.444
10310SOL     OW31828   3.311   2.979   4.600
10310SOL    HW131829   3.404   2.955   4.629
10310SOL    HW231830   3.264   3.025   4.675
10311SOL     OW31831   0.832   0.385   0.665
10311SOL    HW131832   0.742   0.341   0.664
10311SOL    HW231833   0.829   0.467   0.608
10312SOL     OW31834   2.702   4.676   0.677
10312SOL    HW131835   2.751   4.603   0.630
10312SOL    HW231836   2.614   4.692   0.631
10313SOL     OW31837   6.849   5.632   3.919
10313SOL    HW131838   6.944   5.654   3.942
10313SOL    HW231839   6.789   5.666   3.991
10314SOL     OW31840   6.828   5.654   5.489
10314SOL    HW131841   6.902   5.717   5.512
10314SOL    HW231842   6.857   5.593   5.415
10315SOL     OW31843   4.493   6.686   5.564
10315SOL    HW131844   4.567   6.665   5.499
10315SOL    HW231845   4.412   6.631   5.541
10316SOL     OW31846   0.139   3.669   2.997
10316SOL    HW131847   0.217   3.663   2.934
10316SOL    HW231848   0.172   3.671   3.091
10317SOL     OW31849   4.929   4.683   0.105
10317SOL    HW131850   4.958   4.690   0.010
10317SOL    HW231851   4.834   4.653   0.110
10318SOL     OW31852   5.698   5.417   2.770
10318SOL    HW131853   5.783   5.385   2.727
10318SOL    HW231854   5.718   5.498   2.825
10319SOL     OW31855   5.201   6.666   4.441
10319SOL    HW131856   5.209   6.594   4.372
10319SOL    HW231857   5.282   6.665   4.500
10320SOL     OW31858   4.390   5.857   2.328
10320SOL    HW131859   4.384   5.900   2.418
10320SOL    HW231860   4.485   5.856   2.298
10321SOL     OW31861   4.254   0.006   4.266
10321SOL    HW131862   4.337   0.052   4.298
10321SOL    HW231863   4.221   0.051   4.183
10322SOL     OW31864   0.722   2.452   0.013
10322SOL    HW131865   0.723   2.463   0.112
10322SOL    HW231866   0.708   2.356   7.015
10323SOL     OW31867   0.877   2.458   5.483
10323SOL    HW131868   0.883   2.552   5.517
10323SOL    HW231869   0.914   2.396   5.553
10324SOL     OW31870   3.816   3.036   4.391
10324SOL    HW131871   3.728   3.081   4.375
10324SOL    HW231872   3.829   2.962   4.325
10325SOL     OW31873   6.793   3.427   3.441
10325SOL    HW131874   6.721   3.362   3.417
10325SOL    HW231875   6.794   3.501   3.374
10326SOL     OW31876   5.735   2.011   1.316
10326SOL    HW131877   5.668   1.960   1.262
10326SOL    HW231878   5.748   1.965   1.404
10327SOL     OW31879   5.996   1.159   3.660
10327SOL    HW131880   6.048   1.112   3.731
10327SOL    HW231881   5.910   1.111   3.644
10328SOL     OW31882   6.158   3.747   2.359
10328SOL    HW131883   6.222   3.734   2.283
10328SOL    HW231884   6.074   3.789   2.325
10329SOL     OW31885   3.341   6.054   3.119
10329SOL    HW131886   3.283   6.119   3.068
10329SOL    HW231887   3.349   5.970   3.066
10330SOL     OW31888   3.419   4.008   0.949
10330SOL    HW131889   3.331   4.024   0.994
10330SOL    HW231890   3.431   3.909   0.936
10331SOL     OW31891   5.130   1.206   4.277
10331SOL    HW131892   5.164   1.193   4.370
10331SOL    HW231893   5.031   1.220   4.279
10332SOL     OW31894   1.115   1.824   5.963
10332SOL    HW131895   1.123   1.735   6.009
10332SOL    HW231896   1.136   1.897   6.028
10333SOL     OW31897   6.648   4.795   5.408
10333SOL    HW131898   6.630   4.702   5.441
10333SOL    HW231899   6.575   4.856   5.441
10334SOL     OW31900   0.680   5.112   5.231
10334SOL    HW131901   0.704   5.070   5.143
10334SOL    HW231902   0.609   5.182   5.216
10335SOL     OW31903   3.490   5.306   2.747
10335SOL    HW131904   3.399   5.331   2.779
10335SOL    HW231905   3.546   5.388   2.738
10336SOL     OW31906   4.878   6.804   2.749
10336SOL    HW131907   4.867   6.904   2.752
10336SOL    HW231908   4.867   6.767   2.841
10337SOL     OW31909   0.670   4.023   5.839
10337SOL    HW131910   0.579   4.013   5.800
10337SOL    HW231911   0.664   4.019   5.939
10338SOL     OW31912   2.745   5.248   2.765
10338SOL    HW131913   2.682   5.296   2.704
10338SOL    HW231914   2.701   5.164   2.799
10339SOL     OW31915   2.366   5.147   0.487
10339SOL    HW131916   2.439   5.164   0.553
10339SOL    HW231917   2.293   5.096   0.532
10340SOL     OW31918   1.579   6.728   0.724
10340SOL    HW131919   1.557   6.796   0.654
10340SOL    HW231920   1.590   6.774   0.813
10341SOL     OW31921   0.593   2.323   1.811
10341SOL    HW131922   0.496   2.301   1.811
10341SOL    HW231923   0.646   2.242   1.783
10342SOL     OW31924   3.558   6.358   4.571
10342SOL    HW131925   3.522   6.310   4.491
10342SOL    HW231926   3.631   6.420   4.543
10343SOL     OW31927   2.392   2.527   3.991
10343SOL    HW131928   2.383   2.610   3.937
10343SOL    HW231929   2.344   2.452   3.945
10344SOL     OW31930   4.657   3.838   1.668
10344SOL    HW131931   4.635   3.933   1.694
10344SOL    HW231932   4.746   3.835   1.625
10345SOL     OW31933   3.241   2.430   6.295
10345SOL    HW131934   3.292   2.347   6.317
10345SOL    HW231935   3.220   2.430   6.197
10346SOL     OW31936   6.190   5.394   0.622
10346SOL    HW131937   6.092   5.374   0.611
10346SOL    HW231938   6.214   5.389   0.719
10347SOL     OW31939   4.326   6.964   1.619
10347SOL    HW131940   4.343   6.867   1.635
10347SOL    HW231941   4.412   7.008   1.592
10348SOL     OW31942   6.780   5.109   5.663
10348SOL    HW131943   6.822   5.043   5.602
10348SOL    HW231944   6.696   5.070   5.701
10349SOL     OW31945   6.516   2.442   0.139
10349SOL    HW131946   6.516   2.348   0.173
10349SOL    HW231947   6.437   2.456   0.079
10350SOL     OW31948   2.013   4.847   4.532
10350SOL    HW131949   2.038   4.760   4.574
10350SOL    HW231950   1.928   4.881   4.573
10351SOL     OW31951   3.857   5.054   4.916
10351SOL    HW131952   3.853   5.153   4.903
10351SOL    HW231953   3.771   5.022   4.954
10352SOL     OW31954   6.805   0.988   0.791
10352SOL    HW131955   6.706   1.001   0.783
10352SOL    HW231956   6.828   0.893   0.770
10353SOL     OW31957   6.347   2.357   3.973
10353SOL    HW131958   6.271   2.328   3.914
10353SOL    HW231959   6.330   2.326   4.066
10354SOL     OW31960   6.860   2.847   1.191
10354SOL    HW131961   6.836   2.805   1.278
10354SOL    HW231962   6.787   2.910   1.163
10355SOL     OW31963   0.704   1.938   0.922
10355SOL    HW131964   0.695   1.966   0.827
10355SOL    HW231965   0.790   1.887   0.933
10356SOL     OW31966   5.940   2.570   6.731
10356SOL    HW131967   5.859   2.538   6.781
10356SOL    HW231968   6.021   2.520   6.763
10357SOL     OW31969   1.206   0.284   6.263
10357SOL    HW131970   1.246   0.232   6.188
10357SOL    HW231971   1.235   0.380   6.258
10358SOL     OW31972   0.743   2.460   3.180
10358SOL    HW131973   0.764   2.479   3.084
10358SOL    HW231974   0.784   2.373   3.206
10359SOL     OW31975   0.629   2.176   2.123
10359SOL    HW131976   0.550   2.234   2.105
10359SOL    HW231977   0.649   2.121   2.041
10360SOL     OW31978   5.898   3.902   1.158
10360SOL    HW131979   5.849   3.960   1.092
10360SOL    HW231980   5.994   3.895   1.131
10361SOL     OW31981   6.303   1.704   2.399
10361SOL    HW131982   6.370   1.637   2.366
10361SOL    HW231983   6.348   1.792   2.414
10362SOL     OW31984   1.121   5.706   1.897
10362SOL    HW131985   1.069   5.637   1.947
10362SOL    HW231986   1.061   5.782   1.873
10363SOL     OW31987   5.533   5.022   6.668
10363SOL    HW131988   5.448   4.994   6.713
10363SOL    HW231989   5.526   5.119   6.642
10364SOL     OW31990   5.866   5.874   2.699
10364SOL    HW131991   5.924   5.792   2.709
10364SOL    HW231992   5.781   5.849   2.653
10365SOL     OW31993   6.054   5.294   0.289
10365SOL    HW131994   6.071   5.298   0.190
10365SOL    HW231995   6.140   5.306   0.338
10366SOL     OW31996   2.756   6.796   4.035
10366SOL    HW131997   2.805   6.883   4.039
10366SOL    HW231998   2.725   6.771   4.127
10367SOL     OW31999   5.384   6.567   1.911
10367SOL    HW132000   5.341   6.526   1.991
10367SOL    HW232001   5.388   6.501   1.836
10368SOL     OW32002   0.969   5.919   1.889
10368SOL    HW132003   0.999   5.975   1.812
10368SOL    HW232004   0.912   5.975   1.950
10369SOL     OW32005   2.201   0.335   5.780
10369SOL    HW132006   2.288   0.336   5.829
10369SOL    HW232007   2.169   0.430   5.768
10370SOL     OW32008   2.180   1.831   5.529
10370SOL    HW132009   2.085   1.819   5.558
10370SOL    HW232010   2.232   1.872   5.603
10371SOL     OW32011   4.247   5.593   3.304
10371SOL    HW132012   4.160   5.547   3.323
10371SOL    HW232013   4.287   5.624   3.390
10372SOL     OW32014   2.319   6.562   0.958
10372SOL    HW132015   2.244   6.551   0.893
10372SOL    HW232016   2.291   6.624   1.031
10373SOL     OW32017   6.291   0.692   6.924
10373SOL    HW132018   6.220   0.761   6.907
10373SOL    HW232019   6.352   0.688   6.844
10374SOL     OW32020   3.005   4.836   3.147
10374SOL    HW132021   3.007   4.866   3.051
10374SOL    HW232022   3.098   4.815   3.177
10375SOL     OW32023   2.318   5.390   0.369
10375SOL    HW132024   2.371   5.401   0.285
10375SOL    HW232025   2.341   5.303   0.412
10376SOL     OW32026   2.410   4.755   3.563
10376SOL    HW132027   2.465   4.819   3.510
10376SOL    HW232028   2.433   4.661   3.535
10377SOL     OW32029   2.115   0.984   2.767
10377SOL    HW132030   2.082   0.972   2.861
10377SOL    HW232031   2.080   1.070   2.730
10378SOL     OW32032   0.625   6.449   5.356
10378SOL    HW132033   0.597   6.447   5.260
10378SOL    HW232034   0.664   6.361   5.382
10379SOL     OW32035   2.157   6.604   3.578
10379SOL    HW132036   2.113   6.525   3.536
10379SOL    HW232037   2.087   6.672   3.601
10380SOL     OW32038   3.501   1.152   3.889
10380SOL    HW132039   3.528   1.240   3.848
10380SOL    HW232040   3.403   1.153   3.909
10381SOL     OW32041   4.024   6.432   3.045
10381SOL    HW132042   3.959   6.493   3.001
10381SOL    HW232043   4.104   6.484   3.074
10382SOL     OW32044   4.156   5.550   2.236
10382SOL    HW132045   4.256   5.547   2.231
10382SOL    HW232046   4.120   5.458   2.245
10383SOL     OW32047   0.835   5.121   6.616
10383SOL    HW132048   0.750   5.118   6.669
10383SOL    HW232049   0.911   5.087   6.672
10384SOL     OW32050   4.794   5.834   1.736
10384SOL    HW132051   4.761   5.787   1.818
10384SOL    HW232052   4.782   5.774   1.657
10385SOL     OW32053   4.300   4.904   0.211
10385SOL    HW132054   4.340   4.989   0.246
10385SOL    HW232055   4.372   4.837   0.198
10386SOL     OW32056   0.215   0.654   1.038
10386SOL    HW132057   0.156   0.650   1.119
10386SOL    HW232058   0.161   0.637   0.956
10387SOL     OW32059   4.945   3.350   2.290
10387SOL    HW132060   4.956   3.319   2.196
10387SOL    HW232061   4.936   3.271   2.351
10388SOL     OW32062   2.049   0.209   4.563
10388SOL    HW132063   1.968   0.204   4.505
10388SOL    HW232064   2.050   0.132   4.627
10389SOL     OW32065   0.588   3.779   6.966
10389SOL    HW132066   0.676   3.734   6.955
10389SOL    HW232067   0.521   3.712   7.000
10390SOL     OW32068   1.965   2.471   1.907
10390SOL    HW132069   1.946   2.446   1.812
10390SOL    HW232070   2.064   2.475   1.921
10391SOL     OW32071   6.464   6.819   3.557
10391SOL    HW132072   6.489   6.832   3.653
10391SOL    HW232073   6.397   6.888   3.530
10392SOL     OW32074   6.434   4.437   4.095
10392SOL    HW132075   6.370   4.485   4.155
10392SOL    HW232076   6.406   4.448   4.000
10393SOL     OW32077   2.184   2.474   2.133
10393SOL    HW132078   2.280   2.458   2.155
10393SOL    HW232079   2.127   2.408   2.181
10394SOL     OW32080   3.372   6.734   4.131
10394SOL    HW132081   3.295   6.675   4.105
10394SOL    HW232082   3.399   6.713   4.225
10395SOL     OW32083   0.706   0.625   0.959
10395SOL    HW132084   0.613   0.590   0.952
10395SOL    HW232085   0.749   0.624   0.868
10396SOL     OW32086   3.294   2.043   4.968
10396SOL    HW132087   3.305   2.035   4.868
10396SOL    HW232088   3.250   2.131   4.989
10397SOL     OW32089   4.961   1.882   4.189
10397SOL    HW132090   5.044   1.936   4.181
10397SOL    HW232091   4.975   1.808   4.254
10398SOL     OW32092   5.840   2.265   2.429
10398SOL    HW132093   5.814   2.210   2.350
10398SOL    HW232094   5.790   2.351   2.428
10399SOL     OW32095   0.694   3.663   2.475
10399SOL    HW132096   0.784   3.703   2.488
10399SOL    HW232097   0.624   3.725   2.510
10400SOL     OW32098   2.107   6.492   0.816
10400SOL    HW132099   2.016   6.523   0.840
10400SOL    HW232100   2.103   6.398   0.782
10401SOL     OW32101   0.220   0.760   5.713
10401SOL    HW132102   0.289   0.813   5.763
10401SOL    HW232103   0.266   0.688   5.660
10402SOL     OW32104   6.732   3.630   5.109
10402SOL    HW132105   6.661   3.691   5.143
10402SOL    HW232106   6.816   3.643   5.162
10403SOL     OW32107   3.077   0.068   1.107
10403SOL    HW132108   3.109   7.008   1.148
10403SOL    HW232109   3.147   0.104   1.046
10404SOL     OW32110   6.556   6.817   5.980
10404SOL    HW132111   6.631   6.882   5.991
10404SOL    HW232112   6.469   6.867   5.976
10405SOL     OW32113   0.797   2.704   6.546
10405SOL    HW132114   0.738   2.644   6.491
10405SOL    HW232115   0.873   2.651   6.583
10406SOL     OW32116   1.588   5.064   1.461
10406SOL    HW132117   1.585   5.105   1.553
10406SOL    HW232118   1.495   5.047   1.429
10407SOL     OW32119   2.015   5.607   5.643
10407SOL    HW132120   1.976   5.695   5.618
10407SOL    HW232121   2.113   5.607   5.623
10408SOL     OW32122   4.506   1.049   0.197
10408SOL    HW132123   4.525   1.137   0.241
10408SOL    HW232124   4.484   1.065   0.101
10409SOL     OW32125   6.456   4.433   1.083
10409SOL    HW132126   6.544   4.414   1.040
10409SOL    HW232127   6.384   4.438   1.014
10410SOL     OW32128   4.394   0.083   0.575
10410SOL    HW132129   4.473   0.136   0.607
10410SOL    HW232130   4.312   0.115   0.623
10411SOL     OW32131   2.023   4.675   4.257
10411SOL    HW132132   2.095   4.733   4.219
10411SOL    HW232133   2.017   4.690   4.356
10412SOL     OW32134   5.277   0.072   0.816
10412SOL    HW132135   5.206   0.003   0.805
10412SOL    HW232136   5.366   0.028   0.825
10413SOL     OW32137   6.230   3.117   2.176
10413SOL    HW132138   6.245   3.195   2.237
10413SOL    HW232139   6.260   3.033   2.222
10414SOL     OW32140   4.750   2.690   4.370
10414SOL    HW132141   4.845   2.659   4.366
10414SOL    HW232142   4.738   2.751   4.448
10415SOL     OW32143   0.299   0.882   6.535
10415SOL    HW132144   0.236   0.865   6.459
10415SOL    HW232145   0.258   0.849   6.620
10416SOL     OW32146   5.759   3.094   4.039
10416SOL    HW132147   5.709   3.011   4.064
10416SOL    HW232148   5.788   3.143   4.122
10417SOL     OW32149   2.305   4.162   3.029
10417SOL    HW132150   2.230   4.108   2.991
10417SOL    HW232151   2.272   4.215   3.107
10418SOL     OW32152   1.559   5.872   5.512
10418SOL    HW132153   1.563   5.788   5.459
10418SOL    HW232154   1.475   5.873   5.566
10419SOL     OW32155   1.082   1.192   0.552
10419SOL    HW132156   1.053   1.276   0.506
10419SOL    HW232157   1.053   1.112   0.500
10420SOL     OW32158   0.504   3.065   3.327
10420SOL    HW132159   0.453   2.985   3.293
10420SOL    HW232160   0.601   3.041   3.337
10421SOL     OW32161   0.250   1.177   3.250
10421SOL    HW132162   0.346   1.150   3.263
10421SOL    HW232163   0.214   1.133   3.168
10422SOL     OW32164   5.534   3.722   5.643
10422SOL    HW132165   5.469   3.735   5.717
10422SOL    HW232166   5.488   3.681   5.564
10423SOL     OW32167   5.580   4.052   2.770
10423SOL    HW132168   5.518   4.014   2.701
10423SOL    HW232169   5.562   4.007   2.858
10424SOL     OW32170   5.062   1.321   6.294
10424SOL    HW132171   5.123   1.288   6.367
10424SOL    HW232172   5.008   1.245   6.259
10425SOL     OW32173   2.113   6.145   1.563
10425SOL    HW132174   2.165   6.070   1.603
10425SOL    HW232175   2.175   6.217   1.534
10426SOL     OW32176   6.571   4.030   0.464
10426SOL    HW132177   6.486   4.074   0.490
10426SOL    HW232178   6.645   4.062   0.524
10427SOL     OW32179   4.395   0.807   1.112
10427SOL    HW132180   4.463   0.878   1.093
10427SOL    HW232181   4.439   0.718   1.115
10428SOL     OW32182   4.259   0.919   3.751
10428SOL    HW132183   4.213   0.900   3.838
10428SOL    HW232184   4.230   0.852   3.682
10429SOL     OW32185   5.876   6.360   1.861
10429SOL    HW132186   5.855   6.346   1.764
10429SOL    HW232187   5.793   6.391   1.908
10430SOL     OW32188   4.068   6.244   3.328
10430SOL    HW132189   4.047   6.231   3.231
10430SOL    HW232190   4.038   6.335   3.357
10431SOL     OW32191   2.127   1.017   5.166
10431SOL    HW132192   2.211   1.057   5.203
10431SOL    HW232193   2.111   0.928   5.211
10432SOL     OW32194   4.772   1.622   5.139
10432SOL    HW132195   4.742   1.690   5.073
10432SOL    HW232196   4.801   1.539   5.092
10433SOL     OW32197   2.746   6.842   1.390
10433SOL    HW132198   2.672   6.905   1.414
10433SOL    HW232199   2.765   6.849   1.292
10434SOL     OW32200   2.223   1.948   4.236
10434SOL    HW132201   2.264   1.911   4.319
10434SOL    HW232202   2.183   2.037   4.255
10435SOL     OW32203   5.801   5.656   6.820
10435SOL    HW132204   5.742   5.656   6.901
10435SOL    HW232205   5.852   5.742   6.815
10436SOL     OW32206   1.219   0.078   2.006
10436SOL    HW132207   1.291   0.057   2.073
10436SOL    HW232208   1.144   0.012   2.016
10437SOL     OW32209   6.556   5.023   5.827
10437SOL    HW132210   6.638   4.969   5.844
10437SOL    HW232211   6.483   4.993   5.888
10438SOL     OW32212   3.606   6.890   6.300
10438SOL    HW132213   3.585   6.795   6.278
10438SOL    HW232214   3.586   6.948   6.221
10439SOL     OW32215   4.180   0.758   5.915
10439SOL    HW132216   4.279   0.760   5.905
10439SOL    HW232217   4.155   0.745   6.011
10440SOL     OW32218   2.112   6.226   0.717
10440SOL    HW132219   2.046   6.157   0.746
10440SOL    HW232220   2.132   6.215   0.620
10441SOL     OW32221   3.875   0.550   6.891
10441SOL    HW132222   3.892   0.529   6.987
10441SOL    HW232223   3.867   0.465   6.839
10442SOL     OW32224   4.499   5.965   5.620
10442SOL    HW132225   4.545   5.877   5.631
10442SOL    HW232226   4.480   5.980   5.523
10443SOL     OW32227   6.174   2.765   4.964
10443SOL    HW132228   6.074   2.764   4.963
10443SOL    HW232229   6.206   2.804   5.050
10444SOL     OW32230   3.444   5.000   4.350
10444SOL    HW132231   3.344   5.006   4.357
10444SOL    HW232232   3.469   4.991   4.253
10445SOL     OW32233   5.857   5.722   3.256
10445SOL    HW132234   5.794   5.796   3.235
10445SOL    HW232235   5.890   5.731   3.350
10446SOL     OW32236   0.672   6.406   6.619
10446SOL    HW132237   0.721   6.484   6.580
10446SOL    HW232238   0.582   6.436   6.651
10447SOL     OW32239   6.345   2.018   0.673
10447SOL    HW132240   6.278   1.943   0.671
10447SOL    HW232241   6.329   2.079   0.595
10448SOL     OW32242   3.510   3.985   2.305
10448SOL    HW132243   3.433   3.943   2.258
10448SOL    HW232244   3.519   3.945   2.397
10449SOL     OW32245   1.652   5.332   4.450
10449SOL    HW132246   1.741   5.346   4.494
10449SOL    HW232247   1.600   5.417   4.451
10450SOL     OW32248   0.240   2.814   0.629
10450SOL    HW132249   0.229   2.753   0.551
10450SOL    HW232250   0.274   2.762   0.708
10451SOL     OW32251   2.351   4.431   2.639
10451SOL    HW132252   2.412   4.494   2.592
10451SOL    HW232253   2.387   4.412   2.730
10452SOL     OW32254   0.945   3.504   4.713
10452SOL    HW132255   0.994   3.475   4.795
10452SOL    HW232256   1.000   3.571   4.663
10453SOL     OW32257   5.289   0.315   1.582
10453SOL    HW132258   5.315   0.219   1.597
10453SOL    HW232259   5.240   0.323   1.496
10454SOL     OW32260   4.925   3.522   2.493
10454SOL    HW132261   4.827   3.512   2.514
10454SOL    HW232262   4.950   3.459   2.420
10455SOL     OW32263   0.017   4.473   2.892
10455SOL    HW132264   0.032   4.376   2.873
10455SOL    HW232265   6.971   4.508   2.833
10456SOL     OW32266   3.741   6.037   1.672
10456SOL    HW132267   3.674   6.009   1.741
10456SOL    HW232268   3.790   6.118   1.705
10457SOL     OW32269   3.754   3.260   4.069
10457SOL    HW132270   3.662   3.252   4.108
10457SOL    HW232271   3.789   3.169   4.046
10458SOL     OW32272   6.336   6.550   1.487
10458SOL    HW132273   6.238   6.532   1.482
10458SOL    HW232274   6.364   6.609   1.412
10459SOL     OW32275   6.648   4.759   2.785
10459SOL    HW132276   6.599   4.783   2.701
10459SOL    HW232277   6.600   4.799   2.863
10460SOL     OW32278   1.646   4.487   1.768
10460SOL    HW132279   1.618   4.535   1.851
10460SOL    HW232280   1.652   4.552   1.692
10461SOL     OW32281   2.484   1.332   6.414
10461SOL    HW132282   2.496   1.266   6.340
10461SOL    HW232283   2.500   1.288   6.502
10462SOL     OW32284   5.076   0.036   1.187
10462SOL    HW132285   5.067   0.092   1.105
10462SOL    HW232286   4.987   7.024   1.212
10463SOL     OW32287   3.301   3.716   1.359
10463SOL    HW132288   3.344   3.806   1.351
10463SOL    HW232289   3.357   3.648   1.312
10464SOL     OW32290   5.260   6.687   1.326
10464SOL    HW132291   5.219   6.651   1.410
10464SOL    HW232292   5.253   6.787   1.325
10465SOL     OW32293   6.849   5.031   5.004
10465SOL    HW132294   6.752   5.041   5.025
10465SOL    HW232295   6.875   5.095   4.932
10466SOL     OW32296   5.011   6.237   6.529
10466SOL    HW132297   5.008   6.336   6.521
10466SOL    HW232298   5.105   6.205   6.512
10467SOL     OW32299   4.430   1.126   3.718
10467SOL    HW132300   4.499   1.139   3.790
10467SOL    HW232301   4.376   1.044   3.738
10468SOL     OW32302   3.363   5.584   3.436
10468SOL    HW132303   3.359   5.488   3.408
10468SOL    HW232304   3.376   5.642   3.356
10469SOL     OW32305   1.338   5.412   6.917
10469SOL    HW132306   1.328   5.419   6.818
10469SOL    HW232307   1.273   5.473   6.962
10470SOL     OW32308   2.982   1.694   4.120
10470SOL    HW132309   3.004   1.774   4.174
10470SOL    HW232310   3.055   1.677   4.054
10471SOL     OW32311   4.573   4.191   0.371
10471SOL    HW132312   4.526   4.211   0.285
10471SOL    HW232313   4.565   4.270   0.433
10472SOL     OW32314   4.360   1.635   3.439
10472SOL    HW132315   4.340   1.712   3.379
10472SOL    HW232316   4.324   1.652   3.530
10473SOL     OW32317   4.927   5.486   0.139
10473SOL    HW132318   5.013   5.526   0.107
10473SOL    HW232319   4.879   5.444   0.062
10474SOL     OW32320   5.373   1.059   3.922
10474SOL    HW132321   5.470   1.060   3.948
10474SOL    HW232322   5.340   1.152   3.910
10475SOL     OW32323   4.664   6.441   1.867
10475SOL    HW132324   4.700   6.451   1.774
10475SOL    HW232325   4.658   6.344   1.891
10476SOL     OW32326   0.422   4.723   6.863
10476SOL    HW132327   0.370   4.730   6.948
10476SOL    HW232328   0.374   4.770   6.790
10477SOL     OW32329   4.579   4.767   5.023
10477SOL    HW132330   4.642   4.843   5.006
10477SOL    HW232331   4.503   4.771   4.959
10478SOL     OW32332   0.296   6.069   2.764
10478SOL    HW132333   0.290   6.160   2.805
10478SOL    HW232334   0.208   6.023   2.771
10479SOL     OW32335   1.552   5.004   2.446
10479SOL    HW132336   1.501   4.996   2.532
10479SOL    HW232337   1.646   5.030   2.465
10480SOL     OW32338   5.685   0.309   1.804
10480SOL    HW132339   5.596   0.353   1.793
10480SOL    HW232340   5.676   0.211   1.783
10481SOL     OW32341   2.628   1.177   4.785
10481SOL    HW132342   2.704   1.136   4.836
10481SOL    HW232343   2.661   1.258   4.737
10482SOL     OW32344   0.954   5.841   6.413
10482SOL    HW132345   1.027   5.910   6.410
10482SOL    HW232346   0.946   5.805   6.506
10483SOL     OW32347   6.525   5.073   0.796
10483SOL    HW132348   6.519   5.156   0.739
10483SOL    HW232349   6.578   5.093   0.878
10484SOL     OW32350   5.936   2.131   1.160
10484SOL    HW132351   6.007   2.176   1.214
10484SOL    HW232352   5.866   2.093   1.220
10485SOL     OW32353   3.186   4.053   3.866
10485SOL    HW132354   3.246   4.131   3.882
10485SOL    HW232355   3.155   4.016   3.954
10486SOL     OW32356   6.057   5.356   5.405
10486SOL    HW132357   6.095   5.292   5.472
10486SOL    HW232358   5.959   5.338   5.394
10487SOL     OW32359   5.260   2.864   3.088
10487SOL    HW132360   5.163   2.865   3.114
10487SOL    HW232361   5.286   2.770   3.065
10488SOL     OW32362   0.617   2.372   4.697
10488SOL    HW132363   0.568   2.285   4.694
10488SOL    HW232364   0.605   2.421   4.611
10489SOL     OW32365   5.839   4.160   4.399
10489SOL    HW132366   5.813   4.234   4.337
10489SOL    HW232367   5.766   4.146   4.465
10490SOL     OW32368   5.602   6.381   6.458
10490SOL    HW132369   5.686   6.422   6.495
10490SOL    HW232370   5.598   6.397   6.360
10491SOL     OW32371   1.916   3.158   5.707
10491SOL    HW132372   1.934   3.098   5.629
10491SOL    HW232373   1.999   3.165   5.763
10492SOL     OW32374   2.990   6.029   0.765
10492SOL    HW132375   2.891   6.019   0.767
10492SOL    HW232376   3.019   6.064   0.677
10493SOL     OW32377   4.089   5.442   1.731
10493SOL    HW132378   4.055   5.353   1.762
10493SOL    HW232379   4.100   5.440   1.632
10494SOL     OW32380   0.501   4.775   4.310
10494SOL    HW132381   0.452   4.814   4.232
10494SOL    HW232382   0.587   4.825   4.324
10495SOL     OW32383   0.046   6.688   0.486
10495SOL    HW132384   0.111   6.677   0.561
10495SOL    HW232385   0.007   6.780   0.488
10496SOL     OW32386   0.174   4.756   6.272
10496SOL    HW132387   0.120   4.733   6.191
10496SOL    HW232388   0.209   4.849   6.263
10497SOL     OW32389   3.074   0.024   1.658
10497SOL    HW132390   3.172   0.029   1.677
10497SOL    HW232391   3.045   0.107   1.611
10498SOL     OW32392   3.930   3.663   6.681
10498SOL    HW132393   3.909   3.743   6.738
10498SOL    HW232394   4.004   3.686   6.619
10499SOL     OW32395   4.966   3.808   2.970
10499SOL    HW132396   4.938   3.712   2.967
10499SOL    HW232397   4.888   3.865   2.993
10500SOL     OW32398   1.155   3.238   5.304
10500SOL    HW132399   1.230   3.304   5.310
10500SOL    HW232400   1.120   3.234   5.210
10501SOL     OW32401   3.926   4.830   3.040
10501SOL    HW132402   3.837   4.865   3.071
10501SOL    HW232403   3.934   4.840   2.941
10502SOL     OW32404   3.368   3.511   2.746
10502SOL    HW132405   3.324   3.540   2.661
10502SOL    HW232406   3.335   3.420   2.772
10503SOL     OW32407   6.865   1.307   6.433
10503SOL    HW132408   6.952   1.325   6.477
10503SOL    HW232409   6.790   1.326   6.497
10504SOL     OW32410   1.217   3.930   6.017
10504SOL    HW132411   1.224   4.009   5.956
10504SOL    HW232412   1.263   3.852   5.975
10505SOL     OW32413   6.307   6.975   0.867
10505SOL    HW132414   6.377   6.907   0.843
10505SOL    HW232415   6.303   6.985   0.967
10506SOL     OW32416   1.530   4.435   5.774
10506SOL    HW132417   1.584   4.461   5.694
10506SOL    HW232418   1.433   4.429   5.748
10507SOL     OW32419   0.801   6.476   6.214
10507SOL    HW132420   0.725   6.446   6.157
10507SOL    HW232421   0.839   6.561   6.177
10508SOL     OW32422   1.495   6.047   6.849
10508SOL    HW132423   1.568   6.040   6.780
10508SOL    HW232424   1.481   5.958   6.892
10509SOL     OW32425   4.637   2.651   3.090
10509SOL    HW132426   4.694   2.707   3.150
10509SOL    HW232427   4.564   2.608   3.144
10510SOL     OW32428   5.583   5.836   3.246
10510SOL    HW132429   5.578   5.741   3.216
10510SOL    HW232430   5.546   5.843   3.339
10511SOL     OW32431   4.294   1.777   1.268
10511SOL    HW132432   4.266   1.683   1.287
10511SOL    HW232433   4.338   1.815   1.350
10512SOL     OW32434   4.092   1.403   6.035
10512SOL    HW132435   4.089   1.484   5.976
10512SOL    HW232436   4.182   1.360   6.028
10513SOL     OW32437   3.579   3.489   0.901
10513SOL    HW132438   3.547   3.406   0.947
10513SOL    HW232439   3.605   3.467   0.806
10514SOL     OW32440   1.203   5.203   1.656
10514SOL    HW132441   1.210   5.208   1.557
10514SOL    HW232442   1.249   5.120   1.689
10515SOL     OW32443   2.122   3.232   4.780
10515SOL    HW132444   2.110   3.331   4.784
10515SOL    HW232445   2.033   3.189   4.764
10516SOL     OW32446   5.688   1.840   2.076
10516SOL    HW132447   5.659   1.761   2.130
10516SOL    HW232448   5.629   1.850   1.996
10517SOL     OW32449   0.924   2.801   2.116
10517SOL    HW132450   0.864   2.850   2.180
10517SOL    HW232451   0.868   2.761   2.044
10518SOL     OW32452   0.527   5.827   2.021
10518SOL    HW132453   0.441   5.789   1.988
10518SOL    HW232454   0.560   5.896   1.956
10519SOL     OW32455   3.206   6.877   1.249
10519SOL    HW132456   3.243   6.793   1.208
10519SOL    HW232457   3.266   6.905   1.324
10520SOL     OW32458   1.829   2.095   6.297
10520SOL    HW132459   1.814   2.107   6.199
10520SOL    HW232460   1.905   2.152   6.327
10521SOL     OW32461   6.428   2.643   3.092
10521SOL    HW132462   6.391   2.706   3.024
10521SOL    HW232463   6.393   2.551   3.075
10522SOL     OW32464   5.300   1.330   3.894
10522SOL    HW132465   5.278   1.377   3.808
10522SOL    HW232466   5.282   1.392   3.970
10523SOL     OW32467   0.931   4.328   1.914
10523SOL    HW132468   1.024   4.304   1.940
10523SOL    HW232469   0.883   4.246   1.883
10524SOL     OW32470   6.837   5.874   4.688
10524SOL    HW132471   6.855   5.895   4.592
10524SOL    HW232472   6.902   5.806   4.720
10525SOL     OW32473   5.056   1.016   4.113
10525SOL    HW132474   5.117   1.087   4.147
10525SOL    HW232475   5.009   1.048   4.031
10526SOL     OW32476   1.453   5.851   6.119
10526SOL    HW132477   1.496   5.790   6.052
10526SOL    HW232478   1.371   5.893   6.080
10527SOL     OW32479   0.012   6.241   5.424
10527SOL    HW132480   6.989   6.166   5.469
10527SOL    HW232481   6.995   6.328   5.448
10528SOL     OW32482   2.030   5.124   5.019
10528SOL    HW132483   2.080   5.185   5.081
10528SOL    HW232484   1.962   5.072   5.070
10529SOL     OW32485   0.381   5.104   0.975
10529SOL    HW132486   0.283   5.106   0.952
10529SOL    HW232487   0.431   5.054   0.905
10530SOL     OW32488   0.109   0.062   0.801
10530SOL    HW132489   0.027   0.093   0.753
10530SOL    HW232490   0.087   7.010   0.860
10531SOL     OW32491   3.848   2.274   5.925
10531SOL    HW132492   3.776   2.287   5.857
10531SOL    HW232493   3.916   2.210   5.889
10532SOL     OW32494   4.614   5.974   5.928
10532SOL    HW132495   4.540   6.034   5.897
10532SOL    HW232496   4.594   5.880   5.901
10533SOL     OW32497   4.024   6.783   3.258
10533SOL    HW132498   4.054   6.693   3.291
10533SOL    HW232499   4.086   6.815   3.186
10534SOL     OW32500   1.734   6.162   3.978
10534SOL    HW132501   1.781   6.081   4.012
10534SOL    HW232502   1.692   6.142   3.889
10535SOL     OW32503   3.969   2.045   2.480
10535SOL    HW132504   4.054   2.082   2.444
10535SOL    HW232505   3.896   2.057   2.412
10536SOL     OW32506   5.891   3.993   5.092
10536SOL    HW132507   5.987   3.994   5.120
10536SOL    HW232508   5.886   3.978   4.993
10537SOL     OW32509   3.974   1.433   3.674
10537SOL    HW132510   3.880   1.403   3.659
10537SOL    HW232511   4.037   1.361   3.643
10538SOL     OW32512   6.704   2.543   3.130
10538SOL    HW132513   6.615   2.571   3.094
10538SOL    HW232514   6.692   2.462   3.188
10539SOL     OW32515   0.003   6.634   2.959
10539SOL    HW132516   6.998   6.558   3.017
10539SOL    HW232517   7.008   6.721   3.004
10540SOL     OW32518   1.501   4.108   6.833
10540SOL    HW132519   1.416   4.102   6.781
10540SOL    HW232520   1.481   4.133   6.927
10541SOL     OW32521   3.068   2.835   5.558
10541SOL    HW132522   3.106   2.743   5.561
10541SOL    HW232523   3.041   2.857   5.464
10542SOL     OW32524   4.843   6.510   2.971
10542SOL    HW132525   4.872   6.597   3.010
10542SOL    HW232526   4.838   6.518   2.871
10543SOL     OW32527   2.253   2.764   3.874
10543SOL    HW132528   2.229   2.781   3.969
10543SOL    HW232529   2.267   2.852   3.827
10544SOL     OW32530   2.694   1.481   2.687
10544SOL    HW132531   2.622   1.430   2.734
10544SOL    HW232532   2.733   1.548   2.750
10545SOL     OW32533   2.110   3.044   2.099
10545SOL    HW132534   2.176   3.003   2.162
10545SOL    HW232535   2.063   3.119   2.145
10546SOL     OW32536   2.708   6.832   6.271
10546SOL    HW132537   2.785   6.896   6.270
10546SOL    HW232538   2.716   6.771   6.350
10547SOL     OW32539   3.536   6.401   5.892
10547SOL    HW132540   3.577   6.415   5.982
10547SOL    HW232541   3.511   6.489   5.853
10548SOL     OW32542   0.950   6.439   3.451
10548SOL    HW132543   0.995   6.468   3.535
10548SOL    HW232544   0.880   6.506   3.426
10549SOL     OW32545   6.998   1.010   2.743
10549SOL    HW132546   0.059   1.051   2.715
10549SOL    HW232547   6.943   0.988   2.662
10550SOL     OW32548   5.308   5.600   3.276
10550SOL    HW132549   5.344   5.594   3.369
10550SOL    HW232550   5.218   5.555   3.272
10551SOL     OW32551   4.034   0.731   4.839
10551SOL    HW132552   3.974   0.810   4.828
10551SOL    HW232553   4.095   0.746   4.917
10552SOL     OW32554   3.039   0.264   3.370
10552SOL    HW132555   3.096   0.279   3.289
10552SOL    HW232556   2.994   0.175   3.364
10553SOL     OW32557   5.860   5.868   1.121
10553SOL    HW132558   5.931   5.814   1.167
10553SOL    HW232559   5.794   5.901   1.187
10554SOL     OW32560   6.050   6.301   2.189
10554SOL    HW132561   6.039   6.309   2.090
10554SOL    HW232562   6.065   6.392   2.228
10555SOL     OW32563   3.283   3.165   1.513
10555SOL    HW132564   3.286   3.169   1.413
10555SOL    HW232565   3.201   3.115   1.541
10556SOL     OW32566   2.612   1.730   1.702
10556SOL    HW132567   2.601   1.695   1.795
10556SOL    HW232568   2.668   1.666   1.649
10557SOL     OW32569   1.770   4.332   2.927
10557SOL    HW132570   1.743   4.406   2.989
10557SOL    HW232571   1.864   4.304   2.947
10558SOL     OW32572   4.050   4.810   4.600
10558SOL    HW132573   3.977   4.764   4.650
10558SOL    HW232574   4.139   4.780   4.635
10559SOL     OW32575   3.582   6.223   1.975
10559SOL    HW132576   3.583   6.160   2.052
10559SOL    HW232577   3.670   6.222   1.928
10560SOL     OW32578   5.576   6.971   3.549
10560SOL    HW132579   5.550   6.899   3.614
10560SOL    HW232580   5.598   6.929   3.461
10561SOL     OW32581   0.830   5.116   6.348
10561SOL    HW132582   0.827   5.132   6.447
10561SOL    HW232583   0.827   5.204   6.300
10562SOL     OW32584   4.109   5.825   2.674
10562SOL    HW132585   4.206   5.851   2.671
10562SOL    HW232586   4.079   5.796   2.582
10563SOL     OW32587   1.223   6.443   2.553
10563SOL    HW132588   1.248   6.446   2.650
10563SOL    HW232589   1.258   6.358   2.512
10564SOL     OW32590   5.537   4.271   3.051
10564SOL    HW132591   5.479   4.280   2.969
10564SOL    HW232592   5.560   4.175   3.065
10565SOL     OW32593   0.088   1.386   5.132
10565SOL    HW132594   0.110   1.351   5.223
10565SOL    HW232595   7.021   1.359   5.107
10566SOL     OW32596   3.458   1.775   1.106
10566SOL    HW132597   3.436   1.820   1.020
10566SOL    HW232598   3.393   1.702   1.124
10567SOL     OW32599   2.392   2.018   6.306
10567SOL    HW132600   2.416   2.093   6.368
10567SOL    HW232601   2.426   2.039   6.214
10568SOL     OW32602   4.931   2.259   6.034
10568SOL    HW132603   4.943   2.165   6.001
10568SOL    HW232604   4.943   2.323   5.958
10569SOL     OW32605   5.600   0.723   0.549
10569SOL    HW132606   5.580   0.651   0.482
10569SOL    HW232607   5.697   0.747   0.543
10570SOL     OW32608   1.704   3.512   3.324
10570SOL    HW132609   1.751   3.460   3.253
10570SOL    HW232610   1.606   3.505   3.312
10571SOL     OW32611   6.918   4.546   5.682
10571SOL    HW132612   6.976   4.509   5.610
10571SOL    HW232613   6.962   4.534   5.770
10572SOL     OW32614   6.573   4.270   0.764
10572SOL    HW132615   6.571   4.324   0.848
10572SOL    HW232616   6.594   4.330   0.687
10573SOL     OW32617   6.903   2.200   3.499
10573SOL    HW132618   6.809   2.178   3.526
10573SOL    HW232619   6.915   2.181   3.402
10574SOL     OW32620   6.191   2.162   2.914
10574SOL    HW132621   6.120   2.183   2.847
10574SOL    HW232622   6.219   2.246   2.960
10575SOL     OW32623   5.604   7.004   2.490
10575SOL    HW132624   5.599   7.021   2.588
10575SOL    HW232625   5.647   0.056   2.444
10576SOL     OW32626   1.142   3.686   4.506
10576SOL    HW132627   1.215   3.618   4.506
10576SOL    HW232628   1.107   3.698   4.413
10577SOL     OW32629   4.071   4.428   0.519
10577SOL    HW132630   4.001   4.464   0.581
10577SOL    HW232631   4.161   4.452   0.554
10578SOL     OW32632   0.824   3.426   2.249
10578SOL    HW132633   0.752   3.490   2.276
10578SOL    HW232634   0.859   3.378   2.329
10579SOL     OW32635   0.436   3.164   0.074
10579SOL    HW132636   0.387   3.248   0.049
10579SOL    HW232637   0.518   3.155   0.016
10580SOL     OW32638   5.766   6.799   6.738
10580SOL    HW132639   5.809   6.754   6.660
10580SOL    HW232640   5.725   6.730   6.797
10581SOL     OW32641   4.323   0.676   3.470
10581SOL    HW132642   4.314   0.756   3.411
10581SOL    HW232643   4.403   0.687   3.528
10582SOL     OW32644   6.504   3.234   6.513
10582SOL    HW132645   6.573   3.259   6.580
10582SOL    HW232646   6.427   3.189   6.559
10583SOL     OW32647   3.713   2.009   5.694
10583SOL    HW132648   3.803   1.966   5.684
10583SOL    HW232649   3.685   2.048   5.606
10584SOL     OW32650   0.546   0.227   3.123
10584SOL    HW132651   0.467   0.278   3.157
10584SOL    HW232652   0.615   0.221   3.194
10585SOL     OW32653   1.538   1.016   5.391
10585SOL    HW132654   1.633   0.993   5.372
10585SOL    HW232655   1.481   0.935   5.378
10586SOL     OW32656   4.600   4.163   5.610
10586SOL    HW132657   4.502   4.151   5.590
10586SOL    HW232658   4.613   4.246   5.665
10587SOL     OW32659   2.164   5.081   5.287
10587SOL    HW132660   2.238   5.146   5.304
10587SOL    HW232661   2.076   5.124   5.308
10588SOL     OW32662   1.771   4.155   3.790
10588SOL    HW132663   1.704   4.080   3.791
10588SOL    HW232664   1.722   4.243   3.792
10589SOL     OW32665   6.235   0.154   4.010
10589SOL    HW132666   6.311   0.155   4.075
10589SOL    HW232667   6.213   0.248   3.983
10590SOL     OW32668   0.954   5.076   2.702
10590SOL    HW132669   0.949   4.982   2.735
10590SOL    HW232670   0.875   5.096   2.645
10591SOL     OW32671   0.087   3.636   2.308
10591SOL    HW132672   0.037   3.636   2.394
10591SOL    HW232673   0.184   3.619   2.326
10592SOL     OW32674   0.548   2.782   4.290
10592SOL    HW132675   0.508   2.693   4.268
10592SOL    HW232676   0.616   2.770   4.363
10593SOL     OW32677   3.030   6.010   3.602
10593SOL    HW132678   3.109   5.952   3.582
10593SOL    HW232679   3.046   6.102   3.567
10594SOL     OW32680   3.691   5.783   3.773
10594SOL    HW132681   3.633   5.739   3.841
10594SOL    HW232682   3.636   5.849   3.721
10595SOL     OW32683   4.688   6.691   0.862
10595SOL    HW132684   4.773   6.661   0.818
10595SOL    HW232685   4.665   6.627   0.936
10596SOL     OW32686   5.152   3.864   0.441
10596SOL    HW132687   5.154   3.769   0.474
10596SOL    HW232688   5.067   3.907   0.469
10597SOL     OW32689   2.092   6.889   4.914
10597SOL    HW132690   2.157   6.957   4.948
10597SOL    HW232691   2.091   6.810   4.976
10598SOL     OW32692   3.160   0.711   0.286
10598SOL    HW132693   3.081   0.696   0.345
10598SOL    HW232694   3.135   0.772   0.211
10599SOL     OW32695   1.109   2.618   0.849
10599SOL    HW132696   1.113   2.665   0.761
10599SOL    HW232697   1.162   2.534   0.845
10600SOL     OW32698   4.078   1.219   1.706
10600SOL    HW132699   4.004   1.214   1.773
10600SOL    HW232700   4.165   1.202   1.751
10601SOL     OW32701   1.997   1.083   4.551
10601SOL    HW132702   1.987   1.155   4.482
10601SOL    HW232703   1.923   1.090   4.618
10602SOL     OW32704   6.431   6.881   1.381
10602SOL    HW132705   6.525   6.912   1.393
10602SOL    HW232706   6.428   6.808   1.313
10603SOL     OW32707   5.823   0.503   2.878
10603SOL    HW132708   5.865   0.416   2.850
10603SOL    HW232709   5.883   0.549   2.942
10604SOL     OW32710   4.693   1.868   5.044
10604SOL    HW132711   4.726   1.958   5.016
10604SOL    HW232712   4.597   1.858   5.019
10605SOL     OW32713   3.686   1.744   1.282
10605SOL    HW132714   3.654   1.739   1.377
10605SOL    HW232715   3.609   1.766   1.222
10606SOL     OW32716   6.608   1.444   0.325
10606SOL    HW132717   6.617   1.391   0.410
10606SOL    HW232718   6.685   1.507   0.317
10607SOL     OW32719   3.195   4.254   0.947
10607SOL    HW132720   3.147   4.338   0.970
10607SOL    HW232721   3.219   4.254   0.850
10608SOL     OW32722   5.473   3.940   3.871
10608SOL    HW132723   5.541   3.995   3.823
10608SOL    HW232724   5.515   3.894   3.949
10609SOL     OW32725   5.816   0.166   6.563
10609SOL    HW132726   5.879   0.142   6.489
10609SOL    HW232727   5.724   0.132   6.541
10610SOL     OW32728   0.559   1.411   3.317
10610SOL    HW132729   0.560   1.312   3.305
10610SOL    HW232730   0.475   1.448   3.279
10611SOL     OW32731   4.209   5.209   5.148
10611SOL    HW132732   4.229   5.293   5.097
10611SOL    HW232733   4.202   5.133   5.084
10612SOL     OW32734   6.338   2.551   3.555
10612SOL    HW132735   6.273   2.608   3.605
10612SOL    HW232736   6.388   2.494   3.619
10613SOL     OW32737   4.738   5.737   4.524
10613SOL    HW132738   4.766   5.688   4.442
10613SOL    HW232739   4.786   5.699   4.603
10614SOL     OW32740   3.953   2.224   6.472
10614SOL    HW132741   3.914   2.249   6.384
10614SOL    HW232742   4.045   2.188   6.459
10615SOL     OW32743   2.538   2.581   5.289
10615SOL    HW132744   2.623   2.633   5.304
10615SOL    HW232745   2.483   2.626   5.219
10616SOL     OW32746   1.599   5.940   0.323
10616SOL    HW132747   1.550   5.861   0.285
10616SOL    HW232748   1.633   5.917   0.414
10617SOL     OW32749   1.467   2.935   1.140
10617SOL    HW132750   1.447   3.033   1.146
10617SOL    HW232751   1.494   2.912   1.046
10618SOL     OW32752   1.293   5.200   4.498
10618SOL    HW132753   1.305   5.276   4.562
10618SOL    HW232754   1.265   5.236   4.409
10619SOL     OW32755   0.834   2.944   1.818
10619SOL    HW132756   0.806   2.886   1.895
10619SOL    HW232757   0.795   2.909   1.733
10620SOL     OW32758   3.357   1.054   5.866
10620SOL    HW132759   3.439   0.997   5.869
10620SOL    HW232760   3.383   1.150   5.878
10621SOL     OW32761   0.991   4.194   2.992
10621SOL    HW132762   0.982   4.192   3.092
10621SOL    HW232763   1.075   4.147   2.965
10622SOL     OW32764   4.505   2.222   7.000
10622SOL    HW132765   4.421   2.274   6.982
10622SOL    HW232766   4.519   2.214   0.073
10623SOL     OW32767   5.290   5.584   5.682
10623SOL    HW132768   5.240   5.646   5.742
10623SOL    HW232769   5.241   5.575   5.595
10624SOL     OW32770   0.432   1.955   6.575
10624SOL    HW132771   0.413   2.052   6.590
10624SOL    HW232772   0.530   1.940   6.579
10625SOL     OW32773   6.726   5.708   0.817
10625SOL    HW132774   6.750   5.634   0.755
10625SOL    HW232775   6.764   5.690   0.907
10626SOL     OW32776   5.940   2.867   2.030
10626SOL    HW132777   6.004   2.803   1.990
10626SOL    HW232778   5.892   2.917   1.957
10627SOL     OW32779   5.788   4.667   5.153
10627SOL    HW132780   5.700   4.700   5.119
10627SOL    HW232781   5.818   4.590   5.097
10628SOL     OW32782   2.961   6.353   0.518
10628SOL    HW132783   2.894   6.333   0.589
10628SOL    HW232784   2.984   6.450   0.520
10629SOL     OW32785   4.683   5.077   3.992
10629SOL    HW132786   4.626   5.149   3.952
10629SOL    HW232787   4.628   4.995   4.008
10630SOL     OW32788   4.036   1.105   1.210
10630SOL    HW132789   4.018   1.047   1.290
10630SOL    HW232790   4.089   1.185   1.238
10631SOL     OW32791   3.187   5.557   2.185
10631SOL    HW132792   3.144   5.562   2.275
10631SOL    HW232793   3.118   5.538   2.115
10632SOL     OW32794   5.489   6.824   4.444
10632SOL    HW132795   5.508   6.843   4.540
10632SOL    HW232796   5.540   6.742   4.416
10633SOL     OW32797   2.516   3.318   0.172
10633SOL    HW132798   2.592   3.360   0.222
10633SOL    HW232799   2.543   3.303   0.077
10634SOL     OW32800   0.117   4.277   6.822
10634SOL    HW132801   0.149   4.208   6.758
10634SOL    HW232802   0.068   4.233   6.897
10635SOL     OW32803   3.202   5.752   6.525
10635SOL    HW132804   3.190   5.686   6.599
10635SOL    HW232805   3.118   5.804   6.513
10636SOL     OW32806   6.391   2.944   0.471
10636SOL    HW132807   6.352   3.029   0.505
10636SOL    HW232808   6.485   2.960   0.441
10637SOL     OW32809   2.557   0.752   6.308
10637SOL    HW132810   2.590   0.664   6.273
10637SOL    HW232811   2.612   0.779   6.386
10638SOL     OW32812   4.716   5.382   0.844
10638SOL    HW132813   4.775   5.340   0.913
10638SOL    HW232814   4.694   5.476   0.871
10639SOL     OW32815   6.775   5.056   1.174
10639SOL    HW132816   6.746   4.962   1.155
10639SOL    HW232817   6.873   5.057   1.195
10640SOL     OW32818   4.028   6.319   4.156
10640SOL    HW132819   4.104   6.306   4.092
10640SOL    HW232820   3.991   6.411   4.144
10641SOL     OW32821   1.054   1.345   2.870
10641SOL    HW132822   1.095   1.436   2.882
10641SOL    HW232823   1.028   1.333   2.774
10642SOL     OW32824   6.922   2.324   6.464
10642SOL    HW132825   6.954   2.359   6.552
10642SOL    HW232826   6.864   2.393   6.420
10643SOL     OW32827   2.123   4.945   5.795
10643SOL    HW132828   2.109   4.920   5.699
10643SOL    HW232829   2.163   4.868   5.844
10644SOL     OW32830   0.146   3.033   3.245
10644SOL    HW132831   0.084   3.082   3.306
10644SOL    HW232832   0.156   3.084   3.160
10645SOL     OW32833   2.341   2.406   2.954
10645SOL    HW132834   2.367   2.463   3.032
10645SOL    HW232835   2.396   2.323   2.954
10646SOL     OW32836   5.321   0.431   3.865
10646SOL    HW132837   5.280   0.346   3.897
10646SOL    HW232838   5.421   0.425   3.872
10647SOL     OW32839   3.924   5.296   5.159
10647SOL    HW132840   4.011   5.251   5.179
10647SOL    HW232841   3.941   5.385   5.116
10648SOL     OW32842   4.936   4.296   5.318
10648SOL    HW132843   4.971   4.234   5.248
10648SOL    HW232844   4.986   4.382   5.315
10649SOL     OW32845   6.279   3.176   2.915
10649SOL    HW132846   6.313   3.174   3.009
10649SOL    HW232847   6.181   3.154   2.915
10650SOL     OW32848   0.569   0.160   2.391
10650SOL    HW132849   0.488   0.106   2.416
10650SOL    HW232850   0.649   0.100   2.387
10651SOL     OW32851   2.864   5.457   5.900
10651SOL    HW132852   2.846   5.554   5.881
10651SOL    HW232853   2.939   5.426   5.841
10652SOL     OW32854   1.957   0.405   6.705
10652SOL    HW132855   1.881   0.420   6.769
10652SOL    HW232856   2.012   0.488   6.699
10653SOL     OW32857   5.292   5.772   4.417
10653SOL    HW132858   5.349   5.777   4.335
10653SOL    HW232859   5.227   5.849   4.416
10654SOL     OW32860   6.433   2.048   3.841
10654SOL    HW132861   6.422   2.103   3.758
10654SOL    HW232862   6.518   1.997   3.836
10655SOL     OW32863   0.158   4.917   0.842
10655SOL    HW132864   0.197   4.837   0.796
10655SOL    HW232865   0.148   4.991   0.776
10656SOL     OW32866   5.281   1.755   5.143
10656SOL    HW132867   5.304   1.757   5.045
10656SOL    HW232868   5.365   1.768   5.197
10657SOL     OW32869   5.265   0.578   5.278
10657SOL    HW132870   5.314   0.650   5.326
10657SOL    HW232871   5.221   0.517   5.344
10658SOL     OW32872   0.974   2.174   5.093
10658SOL    HW132873   1.074   2.176   5.085
10658SOL    HW232874   0.944   2.247   5.154
10659SOL     OW32875   0.146   5.699   0.821
10659SOL    HW132876   0.178   5.716   0.728
10659SOL    HW232877   0.225   5.688   0.882
10660SOL     OW32878   5.839   3.374   6.090
10660SOL    HW132879   5.746   3.336   6.095
10660SOL    HW232880   5.897   3.313   6.036
10661SOL     OW32881   3.392   5.074   5.127
10661SOL    HW132882   3.309   5.047   5.080
10661SOL    HW232883   3.394   5.032   5.218
10662SOL     OW32884   3.092   1.402   1.057
10662SOL    HW132885   2.994   1.408   1.040
10662SOL    HW232886   3.120   1.306   1.054
10663SOL     OW32887   0.674   2.272   3.524
10663SOL    HW132888   0.771   2.296   3.533
10663SOL    HW232889   0.623   2.354   3.495
10664SOL     OW32890   1.647   5.849   4.489
10664SOL    HW132891   1.620   5.943   4.470
10664SOL    HW232892   1.747   5.841   4.484
10665SOL     OW32893   3.426   3.161   0.631
10665SOL    HW132894   3.476   3.146   0.546
10665SOL    HW232895   3.401   3.258   0.638
10666SOL     OW32896   4.113   3.597   1.338
10666SOL    HW132897   4.049   3.558   1.404
10666SOL    HW232898   4.126   3.532   1.262
10667SOL     OW32899   5.792   2.820   4.563
10667SOL    HW132900   5.697   2.808   4.534
10667SOL    HW232901   5.802   2.791   4.658
10668SOL     OW32902   3.442   2.745   6.086
10668SOL    HW132903   3.398   2.765   6.173
10668SOL    HW232904   3.515   2.678   6.099
10669SOL     OW32905   6.527   1.993   1.329
10669SOL    HW132906   6.441   1.965   1.286
10669SOL    HW232907   6.581   1.912   1.352
10670SOL     OW32908   4.964   3.775   4.213
10670SOL    HW132909   4.978   3.841   4.140
10670SOL    HW232910   4.866   3.769   4.235
10671SOL     OW32911   1.660   3.233   4.876
10671SOL    HW132912   1.583   3.179   4.909
10671SOL    HW232913   1.746   3.195   4.911
10672SOL     OW32914   6.186   4.045   2.033
10672SOL    HW132915   6.088   4.034   2.052
10672SOL    HW232916   6.234   3.961   2.059
10673SOL     OW32917   2.496   1.609   0.983
10673SOL    HW132918   2.456   1.521   0.955
10673SOL    HW232919   2.473   1.627   1.078
10674SOL     OW32920   3.777   3.590   4.182
10674SOL    HW132921   3.718   3.572   4.261
10674SOL    HW232922   3.727   3.570   4.098
10675SOL     OW32923   3.571   7.008   5.449
10675SOL    HW132924   3.498   6.999   5.517
10675SOL    HW232925   3.650   6.954   5.478
10676SOL     OW32926   1.263   0.313   5.826
10676SOL    HW132927   1.183   0.353   5.871
10676SOL    HW232928   1.274   0.353   5.735
10677SOL     OW32929   0.681   2.181   6.947
10677SOL    HW132930   0.721   2.159   6.858
10677SOL    HW232931   0.692   2.103   7.009
10678SOL     OW32932   4.014   5.258   2.661
10678SOL    HW132933   4.108   5.237   2.689
10678SOL    HW232934   3.982   5.190   2.595
10679SOL     OW32935   4.885   4.175   0.299
10679SOL    HW132936   4.938   4.108   0.247
10679SOL    HW232937   4.799   4.133   0.328
10680SOL     OW32938   3.998   1.490   5.760
10680SOL    HW132939   3.951   1.402   5.759
10680SOL    HW232940   4.053   1.500   5.677
10681SOL     OW32941   2.561   3.243   5.333
10681SOL    HW132942   2.467   3.276   5.322
10681SOL    HW232943   2.567   3.148   5.303
10682SOL     OW32944   5.232   4.204   6.532
10682SOL    HW132945   5.279   4.121   6.562
10682SOL    HW232946   5.254   4.222   6.436
10683SOL     OW32947   2.614   0.414   3.757
10683SOL    HW132948   2.516   0.409   3.772
10683SOL    HW232949   2.654   0.323   3.771
10684SOL     OW32950   4.609   4.788   1.796
10684SOL    HW132951   4.671   4.740   1.734
10684SOL    HW232952   4.515   4.756   1.781
10685SOL     OW32953   0.966   6.721   2.432
10685SOL    HW132954   0.917   6.803   2.462
10685SOL    HW232955   1.054   6.716   2.479
10686SOL     OW32956   2.617   0.743   6.902
10686SOL    HW132957   2.523   0.733   6.934
10686SOL    HW232958   2.631   0.836   6.867
10687SOL     OW32959   0.814   3.293   3.607
10687SOL    HW132960   0.862   3.378   3.628
10687SOL    HW232961   0.879   3.224   3.575
10688SOL     OW32962   5.059   1.063   3.005
10688SOL    HW132963   5.079   1.060   3.103
10688SOL    HW232964   5.031   1.156   2.979
10689SOL     OW32965   0.843   0.066   2.163
10689SOL    HW132966   0.902   7.016   2.134
10689SOL    HW232967   0.868   0.094   2.255
10690SOL     OW32968   0.889   6.358   3.951
10690SOL    HW132969   0.897   6.259   3.960
10690SOL    HW232970   0.803   6.381   3.904
10691SOL     OW32971   3.856   6.908   2.161
10691SOL    HW132972   3.916   6.987   2.173
10691SOL    HW232973   3.778   6.934   2.103
10692SOL     OW32974   2.716   1.637   4.736
10692SOL    HW132975   2.681   1.675   4.650
10692SOL    HW232976   2.664   1.676   4.812
10693SOL     OW32977   1.470   5.760   6.907
10693SOL    HW132978   1.404   5.699   6.951
10693SOL    HW232979   1.558   5.756   6.955
10694SOL     OW32980   4.948   0.675   5.207
10694SOL    HW132981   4.999   0.624   5.138
10694SOL    HW232982   4.999   0.674   5.294
10695SOL     OW32983   5.505   4.633   2.015
10695SOL    HW132984   5.583   4.660   1.959
10695SOL    HW232985   5.537   4.587   2.098
10696SOL     OW32986   6.214   4.819   4.075
10696SOL    HW132987   6.123   4.858   4.088
10696SOL    HW232988   6.273   4.885   4.029
10697SOL     OW32989   2.487   5.182   5.074
10697SOL    HW132990   2.525   5.258   5.020
10697SOL    HW232991   2.402   5.152   5.032
10698SOL     OW32992   3.500   3.524   0.107
10698SOL    HW132993   3.428   3.457   0.125
10698SOL    HW232994   3.568   3.483   0.046
10699SOL     OW32995   3.591   2.642   0.709
10699SOL    HW132996   3.667   2.578   0.701
10699SOL    HW232997   3.524   2.607   0.775
10700SOL     OW32998   4.755   0.795   1.542
10700SOL    HW132999   4.678   0.841   1.585
10700SOL    HW233000   4.835   0.801   1.602
10701SOL     OW33001   3.237   0.084   6.447
10701SOL    HW133002   3.241   0.014   6.519
10701SOL    HW233003   3.313   0.148   6.459
10702SOL     OW33004   5.784   2.366   1.588
10702SOL    HW133005   5.866   2.334   1.635
10702SOL    HW233006   5.810   2.423   1.511
10703SOL     OW33007   0.478   2.551   5.646
10703SOL    HW133008   0.414   2.586   5.715
10703SOL    HW233009   0.428   2.500   5.576
10704SOL     OW33010   4.699   6.765   2.210
10704SOL    HW133011   4.662   6.765   2.303
10704SOL    HW233012   4.798   6.781   2.214
10705SOL     OW33013   5.472   3.669   0.932
10705SOL    HW133014   5.445   3.688   1.026
10705SOL    HW233015   5.571   3.671   0.924
10706SOL     OW33016   3.722   0.604   1.303
10706SOL    HW133017   3.626   0.631   1.304
10706SOL    HW233018   3.778   0.679   1.266
10707SOL     OW33019   5.195   0.006   3.750
10707SOL    HW133020   5.112   0.060   3.761
10707SOL    HW233021   5.214   7.018   3.653
10708SOL     OW33022   4.083   1.350   2.011
10708SOL    HW133023   4.146   1.273   2.021
10708SOL    HW233024   3.988   1.316   2.012
10709SOL     OW33025   5.778   4.865   3.301
10709SOL    HW133026   5.845   4.888   3.230
10709SOL    HW233027   5.700   4.926   3.294
10710SOL     OW33028   4.540   1.983   3.878
10710SOL    HW133029   4.599   1.903   3.866
10710SOL    HW233030   4.575   2.040   3.952
10711SOL     OW33031   3.368   6.875   2.235
10711SOL    HW133032   3.417   6.795   2.202
10711SOL    HW233033   3.272   6.871   2.206
10712SOL     OW33034   5.721   0.255   3.201
10712SOL    HW133035   5.691   0.266   3.296
10712SOL    HW233036   5.689   0.167   3.166
10713SOL     OW33037   1.767   4.148   1.661
10713SOL    HW133038   1.720   4.156   1.574
10713SOL    HW233039   1.700   4.130   1.734
10714SOL     OW33040   2.961   3.892   5.154
10714SOL    HW133041   2.909   3.961   5.204
10714SOL    HW233042   2.967   3.808   5.208
10715SOL     OW33043   5.979   0.806   1.919
10715SOL    HW133044   5.887   0.793   1.880
10715SOL    HW233045   6.025   0.717   1.924
10716SOL     OW33046   5.033   1.208   3.282
10716SOL    HW133047   5.114   1.266   3.285
10716SOL    HW233048   4.955   1.261   3.247
10717SOL     OW33049   2.269   2.300   6.265
10717SOL    HW133050   2.312   2.369   6.324
10717SOL    HW233051   2.295   2.316   6.170
10718SOL     OW33052   2.037   5.447   5.433
10718SOL    HW133053   2.032   5.530   5.377
10718SOL    HW233054   2.005   5.467   5.525
10719SOL     OW33055   6.689   5.764   4.128
10719SOL    HW133056   6.741   5.726   4.205
10719SOL    HW233057   6.716   5.859   4.114
10720SOL     OW33058   6.980   5.019   3.650
10720SOL    HW133059   6.935   4.931   3.637
10720SOL    HW233060   6.982   5.069   3.563
10721SOL     OW33061   5.419   3.275   5.617
10721SOL    HW133062   5.372   3.360   5.642
10721SOL    HW233063   5.500   3.263   5.674
10722SOL     OW33064   6.819   4.244   5.928
10722SOL    HW133065   6.821   4.342   5.949
10722SOL    HW233066   6.747   4.224   5.862
10723SOL     OW33067   5.783   0.048   0.786
10723SOL    HW133068   5.749   0.141   0.780
10723SOL    HW233069   5.722   7.020   0.845
10724SOL     OW33070   6.675   6.260   0.236
10724SOL    HW133071   6.642   6.352   0.218
10724SOL    HW233072   6.765   6.264   0.280
10725SOL     OW33073   2.284   5.885   5.499
10725SOL    HW133074   2.303   5.963   5.439
10725SOL    HW233075   2.186   5.873   5.509
10726SOL     OW33076   4.878   1.476   4.155
10726SOL    HW133077   4.817   1.554   4.172
10726SOL    HW233078   4.845   1.396   4.204
10727SOL     OW33079   1.961   6.462   5.345
10727SOL    HW133080   1.954   6.390   5.415
10727SOL    HW233081   2.050   6.507   5.352
10728SOL     OW33082   5.112   6.512   0.419
10728SOL    HW133083   5.126   6.601   0.462
10728SOL    HW233084   5.115   6.440   0.488
10729SOL     OW33085   6.460   2.919   1.179
10729SOL    HW133086   6.490   3.005   1.219
10729SOL    HW233087   6.379   2.935   1.122
10730SOL     OW33088   4.396   0.325   2.649
10730SOL    HW133089   4.392   0.423   2.669
10730SOL    HW233090   4.487   0.302   2.614
10731SOL     OW33091   4.653   0.259   1.130
10731SOL    HW133092   4.610   0.272   1.220
10731SOL    HW233093   4.715   0.335   1.112
10732SOL     OW33094   0.634   4.506   5.396
10732SOL    HW133095   0.577   4.555   5.461
10732SOL    HW233096   0.659   4.568   5.321
10733SOL     OW33097   6.756   2.734   6.650
10733SOL    HW133098   6.697   2.694   6.721
10733SOL    HW233099   6.852   2.717   6.673
10734SOL     OW33100   0.070   2.525   1.877
10734SOL    HW133101   0.157   2.517   1.827
10734SOL    HW233102   0.016   2.599   1.838
10735SOL     OW33103   0.097   4.185   2.842
10735SOL    HW133104   0.049   4.102   2.815
10735SOL    HW233105   0.148   4.169   2.927
10736SOL     OW33106   2.569   0.724   3.385
10736SOL    HW133107   2.663   0.758   3.386
10736SOL    HW233108   2.523   0.750   3.470
10737SOL     OW33109   6.838   2.244   1.789
10737SOL    HW133110   6.862   2.253   1.692
10737SOL    HW233111   6.886   2.166   1.828
10738SOL     OW33112   4.364   0.057   3.556
10738SOL    HW133113   4.301   0.013   3.492
10738SOL    HW233114   4.433   0.108   3.505
10739SOL     OW33115   2.074   1.597   1.785
10739SOL    HW133116   2.053   1.677   1.728
10739SOL    HW233117   2.165   1.563   1.763
10740SOL     OW33118   5.102   5.006   3.165
10740SOL    HW133119   5.003   5.008   3.170
10740SOL    HW233120   5.131   5.026   3.071
10741SOL     OW33121   4.028   0.853   3.287
10741SOL    HW133122   3.965   0.930   3.302
10741SOL    HW233123   4.120   0.888   3.270
10742SOL     OW33124   6.859   5.554   0.621
10742SOL    HW133125   6.934   5.515   0.675
10742SOL    HW233126   6.809   5.479   0.577
10743SOL     OW33127   2.387   1.692   4.874
10743SOL    HW133128   2.387   1.748   4.957
10743SOL    HW233129   2.409   1.750   4.796
10744SOL     OW33130   4.220   1.504   0.905
10744SOL    HW133131   4.313   1.512   0.941
10744SOL    HW233132   4.223   1.458   0.816
10745SOL     OW33133   6.842   5.745   6.138
10745SOL    HW133134   6.906   5.805   6.185
10745SOL    HW233135   6.829   5.777   6.044
10746SOL     OW33136   0.395   4.289   5.897
10746SOL    HW133137   0.394   4.283   5.997
10746SOL    HW233138   0.305   4.266   5.861
10747SOL     OW33139   3.253   1.482   4.418
10747SOL    HW133140   3.194   1.461   4.340
10747SOL    HW233141   3.196   1.503   4.498
10748SOL     OW33142   5.182   1.123   2.638
10748SOL    HW133143   5.123   1.053   2.678
10748SOL    HW233144   5.128   1.205   2.620
10749SOL     OW33145   2.291   6.811   6.364
10749SOL    HW133146   2.271   6.823   6.461
10749SOL    HW233147   2.349   6.886   6.333
10750SOL     OW33148   4.206   0.676   6.668
10750SOL    HW133149   4.219   0.641   6.761
10750SOL    HW233150   4.277   0.744   6.649
10751SOL     OW33151   2.606   4.759   3.869
10751SOL    HW133152   2.555   4.844   3.858
10751SOL    HW233153   2.672   4.769   3.943
10752SOL     OW33154   4.876   5.128   3.812
10752SOL    HW133155   4.964   5.146   3.855
10752SOL    HW233156   4.806   5.118   3.883
10753SOL     OW33157   6.735   3.285   4.812
10753SOL    HW133158   6.689   3.260   4.727
10753SOL    HW233159   6.833   3.295   4.795
10754SOL     OW33160   1.953   0.217   2.294
10754SOL    HW133161   2.015   0.195   2.369
10754SOL    HW233162   1.942   0.137   2.235
10755SOL     OW33163   6.534   5.877   2.189
10755SOL    HW133164   6.592   5.872   2.271
10755SOL    HW233165   6.578   5.828   2.114
10756SOL     OW33166   0.218   0.086   5.151
10756SOL    HW133167   0.157   0.099   5.073
10756SOL    HW233168   0.293   0.026   5.125
10757SOL     OW33169   2.763   3.470   1.023
10757SOL    HW133170   2.770   3.482   1.122
10757SOL    HW233171   2.799   3.380   0.998
10758SOL     OW33172   0.601   5.688   4.358
10758SOL    HW133173   0.585   5.607   4.302
10758SOL    HW233174   0.671   5.745   4.316
10759SOL     OW33175   0.355   2.814   6.745
10759SOL    HW133176   0.311   2.832   6.833
10759SOL    HW233177   0.293   2.840   6.671
10760SOL     OW33178   6.189   1.084   3.859
10760SOL    HW133179   6.196   0.994   3.902
10760SOL    HW233180   6.269   1.100   3.802
10761SOL     OW33181   2.743   4.915   5.484
10761SOL    HW133182   2.779   4.842   5.426
10761SOL    HW233183   2.659   4.951   5.444
10762SOL     OW33184   3.526   0.560   4.556
10762SOL    HW133185   3.468   0.479   4.550
10762SOL    HW233186   3.530   0.591   4.650
10763SOL     OW33187   4.307   6.417   3.571
10763SOL    HW133188   4.361   6.346   3.528
10763SOL    HW233189   4.363   6.466   3.638
10764SOL     OW33190   5.728   0.362   4.805
10764SOL    HW133191   5.806   0.315   4.763
10764SOL    HW233192   5.757   0.451   4.839
10765SOL     OW33193   5.207   3.717   0.855
10765SOL    HW133194   5.298   3.684   0.877
10765SOL    HW233195   5.138   3.659   0.899
10766SOL     OW33196   4.133   2.994   1.287
10766SOL    HW133197   4.194   2.966   1.361
10766SOL    HW233198   4.058   2.928   1.279
10767SOL     OW33199   3.742   1.023   2.080
10767SOL    HW133200   3.780   0.933   2.057
10767SOL    HW233201   3.643   1.020   2.074
10768SOL     OW33202   6.741   4.843   0.582
10768SOL    HW133203   6.642   4.847   0.571
10768SOL    HW233204   6.774   4.932   0.613
10769SOL     OW33205   1.496   3.941   5.850
10769SOL    HW133206   1.521   3.874   5.920
10769SOL    HW233207   1.559   3.933   5.773
10770SOL     OW33208   4.489   6.207   3.511
10770SOL    HW133209   4.527   6.155   3.588
10770SOL    HW233210   4.499   6.152   3.427
10771SOL     OW33211   2.583   1.278   3.377
10771SOL    HW133212   2.656   1.211   3.361
10771SOL    HW233213   2.612   1.343   3.447
10772SOL     OW33214   5.673   5.295   3.834
10772SOL    HW133215   5.618   5.299   3.751
10772SOL    HW233216   5.615   5.272   3.912
10773SOL     OW33217   5.272   4.673   3.786
10773SOL    HW133218   5.304   4.725   3.706
10773SOL    HW233219   5.283   4.729   3.868
10774SOL     OW33220   1.013   0.837   3.652
10774SOL    HW133221   1.056   0.897   3.585
10774SOL    HW233222   1.067   0.754   3.662
10775SOL     OW33223   0.652   3.697   2.205
10775SOL    HW133224   0.646   3.685   2.304
10775SOL    HW233225   0.708   3.777   2.184
10776SOL     OW33226   1.609   0.407   6.438
10776SOL    HW133227   1.606   0.357   6.351
10776SOL    HW233228   1.649   0.498   6.422
10777SOL     OW33229   2.942   6.100   1.601
10777SOL    HW133230   2.902   6.097   1.509
10777SOL    HW233231   3.025   6.156   1.598
10778SOL     OW33232   6.416   5.667   2.988
10778SOL    HW133233   6.374   5.652   3.078
10778SOL    HW233234   6.501   5.615   2.981
10779SOL     OW33235   5.317   2.541   3.543
10779SOL    HW133236   5.397   2.598   3.526
10779SOL    HW233237   5.337   2.447   3.516
10780SOL     OW33238   0.302   0.885   2.710
10780SOL    HW133239   0.286   0.815   2.641
10780SOL    HW233240   0.270   0.853   2.799
10781SOL     OW33241   3.837   0.196   4.538
10781SOL    HW133242   3.742   0.169   4.555
10781SOL    HW233243   3.855   0.193   4.439
10782SOL     OW33244   6.428   5.400   4.159
10782SOL    HW133245   6.456   5.406   4.255
10782SOL    HW233246   6.494   5.345   4.108
10783SOL     OW33247   6.718   1.907   3.288
10783SOL    HW133248   6.772   1.986   3.258
10783SOL    HW233249   6.778   1.833   3.316
10784SOL     OW33250   2.944   1.239   4.474
10784SOL    HW133251   3.041   1.235   4.496
10784SOL    HW233252   2.895   1.288   4.547
10785SOL     OW33253   0.919   3.830   6.388
10785SOL    HW133254   0.819   3.820   6.380
10785SOL    HW233255   0.949   3.796   6.478
10786SOL     OW33256   0.568   5.080   3.185
10786SOL    HW133257   0.584   5.036   3.097
10786SOL    HW233258   0.506   5.023   3.240
10787SOL     OW33259   1.710   2.313   5.717
10787SOL    HW133260   1.769   2.233   5.729
10787SOL    HW233261   1.765   2.396   5.726
10788SOL     OW33262   5.828   4.030   6.543
10788SOL    HW133263   5.889   4.037   6.464
10788SOL    HW233264   5.735   4.008   6.511
10789SOL     OW33265   6.281   1.581   0.189
10789SOL    HW133266   6.266   1.643   0.112
10789SOL    HW233267   6.212   1.509   0.188
10790SOL     OW33268   6.934   6.126   2.916
10790SOL    HW133269   6.943   6.055   2.986
10790SOL    HW233270   6.926   6.215   2.961
10791SOL     OW33271   0.231   6.473   3.077
10791SOL    HW133272   0.221   6.410   3.000
10791SOL    HW233273   0.164   6.450   3.147
10792SOL     OW33274   3.884   4.194   5.310
10792SOL    HW133275   3.834   4.278   5.332
10792SOL    HW233276   3.974   4.197   5.353
10793SOL     OW33277   5.868   3.478   4.661
10793SOL    HW133278   5.794   3.438   4.715
10793SOL    HW233279   5.920   3.405   4.617
10794SOL     OW33280   2.945   3.854   3.624
10794SOL    HW133281   2.950   3.865   3.723
10794SOL    HW233282   2.857   3.889   3.591
10795SOL     OW33283   0.393   4.463   3.488
10795SOL    HW133284   0.405   4.368   3.461
10795SOL    HW233285   0.453   4.521   3.433
10796SOL     OW33286   2.137   6.354   5.006
10796SOL    HW133287   2.130   6.416   4.928
10796SOL    HW233288   2.048   6.349   5.053
10797SOL     OW33289   3.768   2.786   0.379
10797SOL    HW133290   3.710   2.860   0.415
10797SOL    HW233291   3.861   2.820   0.367
10798SOL     OW33292   6.991   1.792   0.624
10798SOL    HW133293   6.963   1.772   0.718
10798SOL    HW233294   0.042   1.856   0.625
10799SOL     OW33295   4.015   1.576   1.861
10799SOL    HW133296   4.104   1.584   1.816
10799SOL    HW233297   4.022   1.512   1.937
10800SOL     OW33298   1.263   0.185   1.613
10800SOL    HW133299   1.343   0.133   1.644
10800SOL    HW233300   1.276   0.282   1.632
10801SOL     OW33301   1.480   0.754   1.356
10801SOL    HW133302   1.509   0.711   1.270
10801SOL    HW233303   1.492   0.689   1.431
10802SOL     OW33304   6.646   0.234   3.440
10802SOL    HW133305   6.673   0.138   3.447
10802SOL    HW233306   6.709   0.290   3.494
10803SOL     OW33307   2.500   5.240   6.403
10803SOL    HW133308   2.524   5.177   6.329
10803SOL    HW233309   2.481   5.189   6.486
10804SOL     OW33310   0.036   3.758   4.266
10804SOL    HW133311   6.974   3.797   4.239
10804SOL    HW233312   0.103   3.831   4.280
10805SOL     OW33313   6.793   1.577   5.593
10805SOL    HW133314   6.827   1.483   5.594
10805SOL    HW233315   6.777   1.607   5.687
10806SOL     OW33316   1.933   4.516   0.025
10806SOL    HW133317   1.970   4.435   7.005
10806SOL    HW233318   1.838   4.499   0.051
10807SOL     OW33319   3.139   6.724   4.737
10807SOL    HW133320   3.175   6.672   4.660
10807SOL    HW233321   3.214   6.761   4.791
10808SOL     OW33322   0.510   3.288   6.148
10808SOL    HW133323   0.450   3.338   6.085
10808SOL    HW233324   0.588   3.251   6.098
10809SOL     OW33325   1.919   6.893   4.467
10809SOL    HW133326   2.002   6.848   4.499
10809SOL    HW233327   1.862   6.917   4.546
10810SOL     OW33328   6.797   0.032   4.583
10810SOL    HW133329   6.860   0.068   4.652
10810SOL    HW233330   6.708   0.075   4.594
10811SOL     OW33331   4.835   4.994   4.766
10811SOL    HW133332   4.849   4.933   4.843
10811SOL    HW233333   4.897   4.969   4.691
10812SOL     OW33334   6.212   3.036   0.174
10812SOL    HW133335   6.178   3.100   0.104
10812SOL    HW233336   6.139   2.975   0.202
10813SOL     OW33337   0.026   4.086   5.950
10813SOL    HW133338   0.015   4.076   6.049
10813SOL    HW233339   6.962   4.104   5.909
10814SOL     OW33340   2.727   0.870   1.254
10814SOL    HW133341   2.789   0.883   1.331
10814SOL    HW233342   2.777   0.836   1.175
10815SOL     OW33343   5.299   0.973   4.828
10815SOL    HW133344   5.344   1.042   4.886
10815SOL    HW233345   5.369   0.923   4.776
10816SOL     OW33346   4.051   3.459   3.939
10816SOL    HW133347   4.047   3.420   4.031
10816SOL    HW233348   3.961   3.492   3.912
10817SOL     OW33349   2.272   6.110   3.618
10817SOL    HW133350   2.358   6.122   3.569
10817SOL    HW233351   2.253   6.192   3.672
10818SOL     OW33352   3.808   4.683   6.575
10818SOL    HW133353   3.868   4.629   6.515
10818SOL    HW233354   3.719   4.694   6.532
10819SOL     OW33355   6.545   6.332   5.679
10819SOL    HW133356   6.540   6.237   5.646
10819SOL    HW233357   6.590   6.389   5.610
10820SOL     OW33358   2.129   4.289   5.932
10820SOL    HW133359   2.083   4.201   5.946
10820SOL    HW233360   2.142   4.334   6.020
10821SOL     OW33361   4.960   5.732   3.088
10821SOL    HW133362   5.009   5.647   3.107
10821SOL    HW233363   4.866   5.711   3.062
10822SOL     OW33364   5.132   1.432   2.295
10822SOL    HW133365   5.050   1.411   2.241
10822SOL    HW233366   5.179   1.347   2.317
10823SOL     OW33367   5.529   6.748   1.790
10823SOL    HW133368   5.482   6.685   1.853
10823SOL    HW233369   5.525   6.711   1.697
10824SOL     OW33370   1.134   2.538   3.451
10824SOL    HW133371   1.178   2.622   3.418
10824SOL    HW233372   1.121   2.544   3.550
10825SOL     OW33373   0.725   2.059   0.375
10825SOL    HW133374   0.771   2.009   0.302
10825SOL    HW233375   0.647   2.109   0.338
10826SOL     OW33376   0.704   3.147   2.875
10826SOL    HW133377   0.716   3.152   2.974
10826SOL    HW233378   0.728   3.055   2.843
10827SOL     OW33379   6.500   3.610   4.741
10827SOL    HW133380   6.418   3.651   4.782
10827SOL    HW233381   6.490   3.609   4.641
10828SOL     OW33382   6.142   4.685   5.428
10828SOL    HW133383   6.056   4.634   5.427
10828SOL    HW233384   6.140   4.752   5.503
10829SOL     OW33385   4.039   3.213   5.218
10829SOL    HW133386   3.980   3.132   5.227
10829SOL    HW233387   4.082   3.232   5.306
10830SOL     OW33388   4.057   2.081   3.494
10830SOL    HW133389   4.015   2.091   3.585
10830SOL    HW233390   4.148   2.121   3.495
10831SOL     OW33391   4.114   0.640   3.650
10831SOL    HW133392   4.181   0.635   3.576
10831SOL    HW233393   4.044   0.570   3.637
10832SOL     OW33394   6.597   3.747   0.441
10832SOL    HW133395   6.604   3.845   0.458
10832SOL    HW233396   6.517   3.710   0.488
10833SOL     OW33397   0.196   1.335   6.293
10833SOL    HW133398   0.241   1.256   6.334
10833SOL    HW233399   0.209   1.415   6.352
10834SOL     OW33400   7.012   6.787   1.438
10834SOL    HW133401   0.070   6.732   1.427
10834SOL    HW233402   6.934   6.726   1.454
10835SOL     OW33403   0.085   2.196   5.544
10835SOL    HW133404   0.030   2.279   5.549
10835SOL    HW233405   0.102   2.174   5.448
10836SOL     OW33406   6.928   1.084   4.021
10836SOL    HW133407   6.851   1.029   4.053
10836SOL    HW233408   6.927   1.088   3.921
10837SOL     OW33409   0.843   3.010   2.618
10837SOL    HW133410   0.793   2.952   2.554
10837SOL    HW233411   0.839   2.970   2.710
10838SOL     OW33412   0.363   5.463   2.064
10838SOL    HW133413   0.368   5.406   2.146
10838SOL    HW233414   0.443   5.523   2.061
10839SOL     OW33415   5.108   2.361   1.100
10839SOL    HW133416   5.070   2.422   1.030
10839SOL    HW233417   5.207   2.355   1.088
10840SOL     OW33418   2.657   0.356   1.500
10840SOL    HW133419   2.670   0.444   1.455
10840SOL    HW233420   2.602   0.296   1.441
10841SOL     OW33421   2.154   5.231   4.616
10841SOL    HW133422   2.212   5.299   4.571
10841SOL    HW233423   2.100   5.275   4.688
10842SOL     OW33424   5.268   4.499   1.382
10842SOL    HW133425   5.186   4.442   1.380
10842SOL    HW233426   5.258   4.575   1.318
10843SOL     OW33427   2.291   2.195   1.208
10843SOL    HW133428   2.377   2.148   1.228
10843SOL    HW233429   2.259   2.241   1.291
10844SOL     OW33430   1.615   5.274   4.753
10844SOL    HW133431   1.713   5.264   4.734
10844SOL    HW233432   1.566   5.194   4.720
10845SOL     OW33433   3.988   0.525   5.051
10845SOL    HW133434   4.013   0.573   4.967
10845SOL    HW233435   4.008   0.583   5.130
10846SOL     OW33436   5.421   7.004   6.677
10846SOL    HW133437   5.455   6.960   6.760
10846SOL    HW233438   5.362   6.941   6.627
10847SOL     OW33439   2.819   0.959   6.229
10847SOL    HW133440   2.889   0.900   6.269
10847SOL    HW233441   2.761   0.906   6.168
10848SOL     OW33442   1.613   4.868   2.028
10848SOL    HW133443   1.576   4.927   1.957
10848SOL    HW233444   1.701   4.831   1.999
10849SOL     OW33445   2.494   6.529   3.845
10849SOL    HW133446   2.571   6.582   3.810
10849SOL    HW233447   2.426   6.591   3.883
10850SOL     OW33448   3.515   5.195   0.939
10850SOL    HW133449   3.421   5.229   0.940
10850SOL    HW233450   3.533   5.151   0.851
10851SOL     OW33451   1.732   4.656   0.341
10851SOL    HW133452   1.810   4.595   0.353
10851SOL    HW233453   1.762   4.741   0.298
10852SOL     OW33454   2.439   1.444   2.298
10852SOL    HW133455   2.410   1.355   2.334
10852SOL    HW233456   2.538   1.453   2.308
10853SOL     OW33457   3.063   1.328   6.119
10853SOL    HW133458   3.141   1.265   6.120
10853SOL    HW233459   3.095   1.421   6.140
10854SOL     OW33460   3.092   6.684   5.137
10854SOL    HW133461   3.009   6.631   5.120
10854SOL    HW233462   3.171   6.636   5.099
10855SOL     OW33463   3.587   1.573   0.079
10855SOL    HW133464   3.530   1.610   0.006
10855SOL    HW233465   3.571   1.475   0.088
10856SOL     OW33466   0.282   0.704   0.142
10856SOL    HW133467   0.359   0.644   0.119
10856SOL    HW233468   0.228   0.722   0.059
10857SOL     OW33469   6.395   2.339   2.566
10857SOL    HW133470   6.491   2.324   2.545
10857SOL    HW233471   6.367   2.274   2.637
10858SOL     OW33472   2.633   6.143   1.855
10858SOL    HW133473   2.731   6.157   1.845
10858SOL    HW233474   2.612   6.045   1.848
10859SOL     OW33475   1.624   5.472   3.550
10859SOL    HW133476   1.578   5.540   3.495
10859SOL    HW233477   1.708   5.511   3.588
10860SOL     OW33478   6.820   3.271   3.133
10860SOL    HW133479   6.756   3.276   3.056
10860SOL    HW233480   6.901   3.220   3.104
10861SOL     OW33481   3.752   2.880   4.876
10861SOL    HW133482   3.706   2.925   4.952
10861SOL    HW233483   3.810   2.807   4.910
10862SOL     OW33484   0.626   0.972   4.583
10862SOL    HW133485   0.688   0.927   4.648
10862SOL    HW233486   0.617   1.069   4.607
10863SOL     OW33487   3.149   6.091   4.430
10863SOL    HW133488   3.090   6.012   4.446
10863SOL    HW233489   3.189   6.084   4.338
10864SOL     OW33490   3.505   5.798   3.282
10864SOL    HW133491   3.476   5.867   3.348
10864SOL    HW233492   3.587   5.830   3.234
10865SOL     OW33493   6.155   1.955   6.090
10865SOL    HW133494   6.223   2.012   6.044
10865SOL    HW233495   6.073   1.947   6.032
10866SOL     OW33496   4.846   5.291   1.066
10866SOL    HW133497   4.941   5.271   1.040
10866SOL    HW233498   4.818   5.229   1.138
10867SOL     OW33499   3.389   2.002   0.112
10867SOL    HW133500   3.296   2.007   0.077
10867SOL    HW233501   3.437   2.087   0.090
10868SOL     OW33502   2.335   1.893   2.703
10868SOL    HW133503   2.256   1.833   2.713
10868SOL    HW233504   2.309   1.987   2.728
10869NA      NA33505   6.480   2.656   5.967
10870NA      NA33506   4.551   4.550   5.120
10871NA      NA33507   2.424   3.424   1.596
10872NA      NA33508   4.904   3.669   5.244
10873NA      NA33509   4.240   2.470   5.329
10874NA      NA33510   3.703   4.761   1.717
10875NA      NA33511   6.705   6.070   4.740
10876NA      NA33512   3.779   4.012   5.172
10877NA      NA33513   4.513   0.040   7.014
10878NA      NA33514   3.381   0.185   4.900
10879NA      NA33515   0.070   4.947   2.834
10880NA      NA33516   2.705   0.651   2.730
10881NA      NA33517   3.838   3.962   1.306
10882NA      NA33518   3.700   3.356   2.956
   7.02566   7.02566   7.02566
