Generated by trjconv : CNT in water t= 453.00000
33518
    1C        C    1   2.845   2.769   4.748
    1C        C    2   2.901   2.722   4.868
    1C        C    3   2.842   2.772   4.985
    1C        C    4   2.852   2.778   4.260
    1C        C    5   2.903   2.730   4.383
    1C        C    6   2.847   2.774   4.505
    1C        C    7   3.013   2.641   4.625
    1C        C    8   2.899   2.725   4.626
    1C        C    9   3.079   2.606   4.745
    1C        C   10   3.014   2.637   4.866
    1C        C   11   3.183   2.498   4.977
    1C        C   12   3.058   2.561   4.976
    1C        C   13   2.857   2.777   3.774
    1C        C   14   2.910   2.731   3.896
    1C        C   15   2.854   2.776   4.017
    1C        C   16   3.020   2.645   4.140
    1C        C   17   2.908   2.730   4.139
    1C        C   18   3.084   2.615   4.263
    1C        C   19   3.020   2.651   4.384
    1C        C   20   3.211   2.557   4.504
    1C        C   21   3.080   2.610   4.505
    1C        C   22   3.282   2.536   4.624
    1C        C   23   3.209   2.548   4.745
    1C        C   24   3.412   2.477   4.868
    1C        C   25   3.272   2.506   4.865
    1C        C   26   3.491   2.476   4.984
    1C        C   27   2.860   2.778   3.284
    1C        C   28   2.913   2.730   3.406
    1C        C   29   2.861   2.778   3.528
    1C        C   30   3.021   2.642   3.651
    1C        C   31   2.908   2.726   3.652
    1C        C   32   3.085   2.610   3.773
    1C        C   33   3.021   2.643   3.895
    1C        C   34   3.210   2.552   4.018
    1C        C   35   3.078   2.604   4.018
    1C        C   36   3.279   2.535   4.139
    1C        C   37   3.213   2.558   4.262
    1C        C   38   3.419   2.507   4.381
    1C        C   39   3.280   2.531   4.384
    1C        C   40   3.491   2.502   4.503
    1C        C   41   3.420   2.507   4.626
    1C        C   42   3.629   2.481   4.746
    1C        C   43   3.487   2.479   4.747
    1C        C   44   3.705   2.490   4.864
    1C        C   45   3.630   2.476   4.982
    1C        C   46   2.844   2.760   2.795
    1C        C   47   2.901   2.718   2.917
    1C        C   48   2.849   2.768   3.038
    1C        C   49   3.021   2.645   3.163
    1C        C   50   2.906   2.728   3.160
    1C        C   51   3.086   2.608   3.282
    1C        C   52   3.026   2.645   3.405
    1C        C   53   3.211   2.548   3.528
    1C        C   54   3.083   2.608   3.528
    1C        C   55   3.278   2.524   3.650
    1C        C   56   3.212   2.548   3.772
    1C        C   57   3.416   2.503   3.897
    1C        C   58   3.276   2.525   3.896
    1C        C   59   3.489   2.500   4.017
    1C        C   60   3.417   2.502   4.139
    1C        C   61   3.630   2.495   4.261
    1C        C   62   3.489   2.489   4.260
    1C        C   63   3.703   2.506   4.382
    1C        C   64   3.632   2.500   4.504
    1C        C   65   3.836   2.545   4.625
    1C        C   66   3.700   2.508   4.627
    1C        C   67   3.904   2.567   4.747
    1C        C   68   3.840   2.531   4.867
    1C        C   69   4.050   2.591   4.979
    1C        C   70   3.923   2.532   4.981
    1C        C   71   2.824   2.734   2.309
    1C        C   72   2.884   2.692   2.430
    1C        C   73   2.839   2.754   2.549
    1C        C   74   3.010   2.631   2.675
    1C        C   75   2.892   2.708   2.672
    1C        C   76   3.075   2.598   2.796
    1C        C   77   3.019   2.640   2.919
    1C        C   78   3.212   2.550   3.039
    1C        C   79   3.083   2.609   3.041
    1C        C   80   3.280   2.529   3.161
    1C        C   81   3.215   2.549   3.284
    1C        C   82   3.419   2.498   3.403
    1C        C   83   3.281   2.525   3.407
    1C        C   84   3.487   2.492   3.527
    1C        C   85   3.418   2.501   3.649
    1C        C   86   3.626   2.493   3.772
    1C        C   87   3.484   2.494   3.774
    1C        C   88   3.698   2.506   3.892
    1C        C   89   3.630   2.500   4.016
    1C        C   90   3.836   2.543   4.137
    1C        C   91   3.700   2.503   4.139
    1C        C   92   3.905   2.567   4.258
    1C        C   93   3.840   2.539   4.381
    1C        C   94   4.029   2.634   4.503
    1C        C   95   3.905   2.565   4.503
    1C        C   96   4.090   2.676   4.622
    1C        C   97   4.031   2.631   4.742
    1C        C   98   4.190   2.771   4.861
    1C        C   99   4.099   2.661   4.864
    1C        C  100   4.216   2.842   4.979
    1C        C  101   2.832   2.739   2.072
    1C        C  102   2.994   2.594   2.193
    1C        C  103   2.877   2.677   2.190
    1C        C  104   3.066   2.574   2.314
    1C        C  105   3.005   2.619   2.432
    1C        C  106   3.201   2.536   2.556
    1C        C  107   3.073   2.595   2.554
    1C        C  108   3.273   2.516   2.676
    1C        C  109   3.204   2.541   2.797
    1C        C  110   3.414   2.491   2.915
    1C        C  111   3.276   2.520   2.917
    1C        C  112   3.486   2.485   3.036
    1C        C  113   3.418   2.496   3.159
    1C        C  114   3.631   2.488   3.281
    1C        C  115   3.490   2.489   3.281
    1C        C  116   3.698   2.501   3.404
    1C        C  117   3.629   2.496   3.527
    1C        C  118   3.833   2.544   3.648
    1C        C  119   3.698   2.503   3.651
    1C        C  120   3.899   2.571   3.770
    1C        C  121   3.833   2.547   3.893
    1C        C  122   4.026   2.636   4.015
    1C        C  123   3.901   2.569   4.015
    1C        C  124   4.084   2.679   4.136
    1C        C  125   4.027   2.638   4.259
    1C        C  126   4.194   2.768   4.378
    1C        C  127   4.085   2.678   4.381
    1C        C  128   4.245   2.822   4.498
    1C        C  129   4.195   2.771   4.620
    1C        C  130   4.330   2.937   4.740
    1C        C  131   4.247   2.822   4.741
    1C        C  132   4.361   3.004   4.861
    1C        C  133   4.288   2.961   4.972
    1C        C  134   3.176   2.469   2.081
    1C        C  135   3.045   2.517   2.084
    1C        C  136   3.259   2.473   2.194
    1C        C  137   3.197   2.517   2.313
    1C        C  138   3.407   2.481   2.430
    1C        C  139   3.269   2.509   2.434
    1C        C  140   3.482   2.479   2.550
    1C        C  141   3.411   2.488   2.672
    1C        C  142   3.625   2.489   2.791
    1C        C  143   3.484   2.481   2.792
    1C        C  144   3.698   2.495   2.912
    1C        C  145   3.627   2.489   3.034
    1C        C  146   3.833   2.537   3.157
    1C        C  147   3.697   2.498   3.156
    1C        C  148   3.901   2.561   3.279
    1C        C  149   3.833   2.542   3.401
    1C        C  150   4.026   2.626   3.524
    1C        C  151   3.897   2.569   3.524
    1C        C  152   4.087   2.666   3.645
    1C        C  153   4.025   2.635   3.768
    1C        C  154   4.192   2.764   3.889
    1C        C  155   4.083   2.674   3.891
    1C        C  156   4.244   2.812   4.011
    1C        C  157   4.194   2.767   4.135
    1C        C  158   4.339   2.924   4.255
    1C        C  159   4.247   2.817   4.256
    1C        C  160   4.375   2.990   4.375
    1C        C  161   4.332   2.934   4.497
    1C        C  162   4.443   3.117   4.616
    1C        C  163   4.373   2.994   4.618
    1C        C  164   4.471   3.186   4.736
    1C        C  165   4.439   3.121   4.857
    1C        C  166   4.516   3.321   4.974
    1C        C  167   4.484   3.185   4.973
    1C        C  168   3.477   2.439   2.075
    1C        C  169   3.399   2.452   2.190
    1C        C  170   3.617   2.459   2.308
    1C        C  171   3.475   2.456   2.309
    1C        C  172   3.692   2.487   2.424
    1C        C  173   3.623   2.484   2.547
    1C        C  174   3.831   2.533   2.668
    1C        C  175   3.694   2.499   2.668
    1C        C  176   3.900   2.554   2.790
    1C        C  177   3.835   2.531   2.913
    1C        C  178   4.026   2.623   3.035
    1C        C  179   3.900   2.560   3.035
    1C        C  180   4.087   2.664   3.156
    1C        C  181   4.028   2.624   3.278
    1C        C  182   4.198   2.748   3.400
    1C        C  183   4.088   2.659   3.401
    1C        C  184   4.244   2.803   3.521
    1C        C  185   4.196   2.756   3.645
    1C        C  186   4.335   2.917   3.765
    1C        C  187   4.248   2.806   3.766
    1C        C  188   4.370   2.980   3.887
    1C        C  189   4.336   2.920   4.010
    1C        C  190   4.444   3.104   4.126
    1C        C  191   4.377   2.980   4.131
    1C        C  192   4.467   3.175   4.246
    1C        C  193   4.437   3.117   4.371
    1C        C  194   4.512   3.315   4.491
    1C        C  195   4.473   3.180   4.493
    1C        C  196   4.527   3.387   4.612
    1C        C  197   4.510   3.322   4.736
    1C        C  198   4.559   3.535   4.851
    1C        C  199   4.537   3.393   4.856
    1C        C  200   4.582   3.619   4.964
    1C        C  201   3.616   2.425   2.073
    1C        C  202   3.828   2.509   2.183
    1C        C  203   3.693   2.460   2.188
    1C        C  204   3.899   2.536   2.303
    1C        C  205   3.830   2.518   2.425
    1C        C  206   4.020   2.621   2.545
    1C        C  207   3.896   2.554   2.545
    1C        C  208   4.080   2.662   2.666
    1C        C  209   4.024   2.622   2.789
    1C        C  210   4.193   2.748   2.909
    1C        C  211   4.085   2.658   2.912
    1C        C  212   4.248   2.798   3.029
    1C        C  213   4.198   2.752   3.153
    1C        C  214   4.331   2.913   3.273
    1C        C  215   4.244   2.801   3.277
    1C        C  216   4.367   2.971   3.397
    1C        C  217   4.329   2.916   3.521
    1C        C  218   4.433   3.103   3.640
    1C        C  219   4.373   2.975   3.642
    1C        C  220   4.462   3.170   3.761
    1C        C  221   4.438   3.104   3.883
    1C        C  222   4.498   3.308   4.003
    1C        C  223   4.466   3.171   4.004
    1C        C  224   4.515   3.379   4.125
    1C        C  225   4.507   3.311   4.248
    1C        C  226   4.525   3.525   4.366
    1C        C  227   4.518   3.384   4.368
    1C        C  228   4.520   3.598   4.488
    1C        C  229   4.533   3.528   4.610
    1C        C  230   4.502   3.742   4.728
    1C        C  231   4.538   3.604   4.728
    1C        C  232   4.497   3.817   4.847
    1C        C  233   4.549   3.755   4.962
    1C        C  234   4.017   2.610   2.065
    1C        C  235   3.892   2.550   2.065
    1C        C  236   4.079   2.655   2.183
    1C        C  237   4.021   2.609   2.303
    1C        C  238   4.195   2.739   2.422
    1C        C  239   4.084   2.649   2.422
    1C        C  240   4.249   2.790   2.542
    1C        C  241   4.196   2.743   2.664
    1C        C  242   4.339   2.900   2.786
    1C        C  243   4.249   2.791   2.786
    1C        C  244   4.374   2.965   2.906
    1C        C  245   4.330   2.913   3.030
    1C        C  246   4.434   3.098   3.150
    1C        C  247   4.368   2.973   3.152
    1C        C  248   4.455   3.164   3.273
    1C        C  249   4.427   3.099   3.395
    1C        C  250   4.498   3.302   3.515
    1C        C  251   4.453   3.168   3.516
    1C        C  252   4.513   3.373   3.637
    1C        C  253   4.502   3.306   3.761
    1C        C  254   4.522   3.519   3.877
    1C        C  255   4.517   3.378   3.882
    1C        C  256   4.523   3.589   4.000
    1C        C  257   4.528   3.520   4.123
    1C        C  258   4.494   3.732   4.240
    1C        C  259   4.524   3.594   4.243
    1C        C  260   4.470   3.801   4.361
    1C        C  261   4.488   3.736   4.484
    1C        C  262   4.421   3.938   4.604
    1C        C  263   4.469   3.805   4.606
    1C        C  264   4.397   4.009   4.723
    1C        C  265   4.438   3.946   4.843
    1C        C  266   4.325   4.132   4.958
    1C        C  267   4.394   4.011   4.958
    1C        C  268   4.259   2.776   2.064
    1C        C  269   4.197   2.733   2.182
    1C        C  270   4.346   2.892   2.299
    1C        C  271   4.250   2.787   2.301
    1C        C  272   4.386   2.952   2.420
    1C        C  273   4.339   2.898   2.542
    1C        C  274   4.438   3.087   2.661
    1C        C  275   4.379   2.959   2.663
    1C        C  276   4.470   3.152   2.782
    1C        C  277   4.443   3.088   2.905
    1C        C  278   4.503   3.294   3.026
    1C        C  279   4.467   3.157   3.026
    1C        C  280   4.512   3.367   3.147
    1C        C  281   4.491   3.301   3.270
    1C        C  282   4.519   3.510   3.390
    1C        C  283   4.509   3.369   3.392
    1C        C  284   4.519   3.584   3.511
    1C        C  285   4.519   3.514   3.634
    1C        C  286   4.495   3.728   3.752
    1C        C  287   4.516   3.588   3.754
    1C        C  288   4.478   3.796   3.875
    1C        C  289   4.495   3.727   3.998
    1C        C  290   4.426   3.931   4.117
    1C        C  291   4.481   3.801   4.117
    1C        C  292   4.393   3.997   4.238
    1C        C  293   4.424   3.935   4.361
    1C        C  294   4.320   4.123   4.479
    1C        C  295   4.395   4.003   4.481
    1C        C  296   4.282   4.187   4.599
    1C        C  297   4.326   4.132   4.721
    1C        C  298   4.200   4.313   4.841
    1C        C  299   4.282   4.195   4.841
    1C        C  300   4.172   4.399   4.951
    1C        C  301   4.351   2.880   2.063
    1C        C  302   4.472   3.067   2.179
    1C        C  303   4.398   2.944   2.178
    1C        C  304   4.485   3.143   2.299
    1C        C  305   4.448   3.079   2.420
    1C        C  306   4.508   3.287   2.538
    1C        C  307   4.473   3.150   2.540
    1C        C  308   4.517   3.359   2.659
    1C        C  309   4.507   3.289   2.782
    1C        C  310   4.522   3.502   2.901
    1C        C  311   4.519   3.361   2.903
    1C        C  312   4.520   3.576   3.021
    1C        C  313   4.521   3.508   3.146
    1C        C  314   4.489   3.718   3.264
    1C        C  315   4.520   3.580   3.267
    1C        C  316   4.476   3.789   3.385
    1C        C  317   4.502   3.724   3.507
    1C        C  318   4.425   3.923   3.628
    1C        C  319   4.477   3.792   3.628
    1C        C  320   4.393   3.987   3.750
    1C        C  321   4.424   3.926   3.874
    1C        C  322   4.314   4.110   3.991
    1C        C  323   4.392   3.992   3.994
    1C        C  324   4.274   4.168   4.113
    1C        C  325   4.320   4.118   4.237
    1C        C  326   4.179   4.280   4.354
    1C        C  327   4.279   4.180   4.357
    1C        C  328   4.132   4.335   4.476
    1C        C  329   4.188   4.292   4.599
    1C        C  330   4.025   4.434   4.715
    1C        C  331   4.144   4.355   4.717
    1C        C  332   3.970   4.488   4.833
    1C        C  333   4.051   4.470   4.946
    1C        C  334   4.566   3.267   2.067
    1C        C  335   4.537   3.130   2.068
    1C        C  336   4.534   3.351   2.174
    1C        C  337   4.512   3.282   2.295
    1C        C  338   4.519   3.498   2.414
    1C        C  339   4.517   3.356   2.415
    1C        C  340   4.519   3.571   2.535
    1C        C  341   4.526   3.500   2.657
    1C        C  342   4.490   3.710   2.775
    1C        C  343   4.518   3.571   2.778
    1C        C  344   4.475   3.781   2.896
    1C        C  345   4.494   3.715   3.019
    1C        C  346   4.424   3.917   3.140
    1C        C  347   4.471   3.784   3.140
    1C        C  348   4.392   3.983   3.261
    1C        C  349   4.426   3.922   3.383
    1C        C  350   4.321   4.105   3.504
    1C        C  351   4.399   3.988   3.505
    1C        C  352   4.272   4.161   3.624
    1C        C  353   4.319   4.107   3.746
    1C        C  354   4.174   4.266   3.868
    1C        C  355   4.269   4.161   3.867
    1C        C  356   4.122   4.318   3.989
    1C        C  357   4.178   4.272   4.110
    1C        C  358   4.009   4.403   4.235
    1C        C  359   4.123   4.320   4.231
    1C        C  360   3.952   4.451   4.355
    1C        C  361   4.019   4.419   4.475
    1C        C  362   3.828   4.518   4.593
    1C        C  363   3.958   4.464   4.595
    1C        C  364   3.763   4.550   4.715
    1C        C  365   3.840   4.543   4.833
    1C        C  366   3.631   4.599   4.952
    1C        C  367   3.768   4.575   4.949
    1C        C  368   4.508   3.566   2.053
    1C        C  369   4.523   3.492   2.171
    1C        C  370   4.503   3.707   2.288
    1C        C  371   4.519   3.567   2.291
    1C        C  372   4.487   3.781   2.407
    1C        C  373   4.498   3.710   2.529
    1C        C  374   4.423   3.908   2.650
    1C        C  375   4.475   3.777   2.651
    1C        C  376   4.390   3.972   2.772
    1C        C  377   4.424   3.913   2.895
    1C        C  378   4.319   4.097   3.013
    1C        C  379   4.400   3.981   3.016
    1C        C  380   4.270   4.151   3.134
    1C        C  381   4.316   4.102   3.259
    1C        C  382   4.171   4.254   3.378
    1C        C  383   4.274   4.158   3.382
    1C        C  384   4.121   4.308   3.499
    1C        C  385   4.173   4.262   3.622
    1C        C  386   4.003   4.387   3.746
    1C        C  387   4.122   4.310   3.745
    1C        C  388   3.942   4.427   3.866
    1C        C  389   4.003   4.395   3.989
    1C        C  390   3.818   4.493   4.109
    1C        C  391   3.947   4.434   4.112
    1C        C  392   3.750   4.516   4.230
    1C        C  393   3.821   4.504   4.352
    1C        C  394   3.618   4.565   4.475
    1C        C  395   3.756   4.537   4.473
    1C        C  396   3.548   4.565   4.598
    1C        C  397   3.623   4.565   4.718
    1C        C  398   3.412   4.559   4.842
    1C        C  399   3.551   4.583   4.838
    1C        C  400   3.345   4.522   4.960
    1C        C  401   4.506   3.705   2.053
    1C        C  402   4.454   3.918   2.165
    1C        C  403   4.495   3.783   2.169
    1C        C  404   4.413   3.980   2.285
    1C        C  405   4.434   3.912   2.407
    1C        C  406   4.323   4.095   2.527
    1C        C  407   4.399   3.976   2.528
    1C        C  408   4.275   4.149   2.648
    1C        C  409   4.315   4.092   2.771
    1C        C  410   4.171   4.250   2.888
    1C        C  411   4.273   4.152   2.892
    1C        C  412   4.124   4.302   3.011
    1C        C  413   4.174   4.255   3.134
    1C        C  414   3.999   4.377   3.255
    1C        C  415   4.116   4.297   3.255
    1C        C  416   3.941   4.416   3.378
    1C        C  417   4.005   4.388   3.501
    1C        C  418   3.814   4.482   3.623
    1C        C  419   3.942   4.422   3.623
    1C        C  420   3.745   4.509   3.743
    1C        C  421   3.815   4.490   3.864
    1C        C  422   3.610   4.539   3.988
    1C        C  423   3.749   4.513   3.987
    1C        C  424   3.541   4.545   4.111
    1C        C  425   3.612   4.543   4.233
    1C        C  426   3.402   4.559   4.358
    1C        C  427   3.543   4.561   4.355
    1C        C  428   3.331   4.557   4.481
    1C        C  429   3.407   4.561   4.600
    1C        C  430   3.198   4.524   4.725
    1C        C  431   3.338   4.552   4.723
    1C        C  432   3.127   4.498   4.845
    1C        C  433   3.208   4.496   4.959
    1C        C  434   4.378   4.127   2.048
    1C        C  435   4.447   4.005   2.056
    1C        C  436   4.302   4.163   2.164
    1C        C  437   4.339   4.101   2.287
    1C        C  438   4.182   4.252   2.402
    1C        C  439   4.285   4.156   2.405
    1C        C  440   4.121   4.293   2.523
    1C        C  441   4.176   4.250   2.646
    1C        C  442   4.002   4.377   2.767
    1C        C  443   4.116   4.294   2.766
    1C        C  444   3.942   4.414   2.890
    1C        C  445   4.004   4.377   3.012
    1C        C  446   3.812   4.474   3.133
    1C        C  447   3.941   4.415   3.132
    1C        C  448   3.744   4.493   3.255
    1C        C  449   3.813   4.474   3.377
    1C        C  450   3.609   4.530   3.500
    1C        C  451   3.748   4.502   3.500
    1C        C  452   3.538   4.547   3.621
    1C        C  453   3.607   4.541   3.744
    1C        C  454   3.397   4.548   3.866
    1C        C  455   3.538   4.548   3.867
    1C        C  456   3.330   4.543   3.990
    1C        C  457   3.400   4.550   4.113
    1C        C  458   3.194   4.512   4.238
    1C        C  459   3.331   4.548   4.237
    1C        C  460   3.129   4.489   4.362
    1C        C  461   3.193   4.523   4.483
    1C        C  462   2.999   4.440   4.607
    1C        C  463   3.127   4.499   4.605
    1C        C  464   2.932   4.406   4.727
    1C        C  465   2.992   4.450   4.848
    1C        C  466   2.802   4.340   4.960
    1C        C  467   2.907   4.433   4.962
    1C        C  468   4.123   4.286   2.047
    1C        C  469   4.186   4.248   2.166
    1C        C  470   4.008   4.381   2.282
    1C        C  471   4.128   4.304   2.282
    1C        C  472   3.942   4.411   2.403
    1C        C  473   4.003   4.371   2.524
    1C        C  474   3.810   4.465   2.646
    1C        C  475   3.941   4.411   2.645
    1C        C  476   3.745   4.496   2.768
    1C        C  477   3.816   4.478   2.888
    1C        C  478   3.607   4.521   3.010
    1C        C  479   3.747   4.496   3.010
    1C        C  480   3.537   4.534   3.131
    1C        C  481   3.605   4.520   3.254
    1C        C  482   3.398   4.545   3.379
    1C        C  483   3.539   4.534   3.378
    1C        C  484   3.326   4.541   3.500
    1C        C  485   3.397   4.552   3.622
    1C        C  486   3.188   4.511   3.746
    1C        C  487   3.325   4.543   3.744
    1C        C  488   3.128   4.486   3.872
    1C        C  489   3.193   4.510   3.995
    1C        C  490   3.007   4.416   4.118
    1C        C  491   3.125   4.493   4.117
    1C        C  492   2.947   4.382   4.242
    1C        C  493   3.003   4.427   4.364
    1C        C  494   2.834   4.302   4.487
    1C        C  495   2.942   4.393   4.487
    1C        C  496   2.784   4.251   4.609
    1C        C  497   2.825   4.312   4.730
    1C        C  498   2.670   4.161   4.850
    1C        C  499   2.757   4.272   4.847
    1C        C  500   2.594   4.119   4.960
    1C        C  501   4.003   4.358   2.044
    1C        C  502   3.816   4.469   2.159
    1C        C  503   3.943   4.409   2.160
    1C        C  504   3.744   4.488   2.279
    1C        C  505   3.809   4.459   2.401
    1C        C  506   3.605   4.510   2.522
    1C        C  507   3.744   4.485   2.523
    1C        C  508   3.534   4.522   2.644
    1C        C  509   3.607   4.524   2.765
    1C        C  510   3.395   4.530   2.889
    1C        C  511   3.537   4.531   2.888
    1C        C  512   3.325   4.526   3.011
    1C        C  513   3.395   4.535   3.133
    1C        C  514   3.191   4.496   3.257
    1C        C  515   3.327   4.533   3.257
    1C        C  516   3.125   4.473   3.380
    1C        C  517   3.190   4.503   3.501
    1C        C  518   2.999   4.416   3.629
    1C        C  519   3.122   4.485   3.624
    1C        C  520   2.942   4.375   3.752
    1C        C  521   3.004   4.417   3.871
    1C        C  522   2.848   4.278   4.000
    1C        C  523   2.952   4.373   3.995
    1C        C  524   2.798   4.231   4.124
    1C        C  525   2.844   4.286   4.246
    1C        C  526   2.704   4.128   4.367
    1C        C  527   2.789   4.241   4.368
    1C        C  528   2.664   4.073   4.490
    1C        C  529   2.696   4.140   4.610
    1C        C  530   2.591   3.957   4.734
    1C        C  531   2.644   4.089   4.731
    1C        C  532   2.546   3.902   4.856
    1C        C  533   2.536   3.992   4.967
    1C        C  534   3.618   4.559   2.041
    1C        C  535   3.749   4.508   2.042
    1C        C  536   3.535   4.542   2.156
    1C        C  537   3.606   4.522   2.278
    1C        C  538   3.394   4.518   2.401
    1C        C  539   3.535   4.524   2.400
    1C        C  540   3.323   4.504   2.522
    1C        C  541   3.393   4.516   2.644
    1C        C  542   3.187   4.486   2.768
    1C        C  543   3.324   4.518   2.767
    1C        C  544   3.121   4.466   2.891
    1C        C  545   3.188   4.491   3.013
    1C        C  546   2.998   4.403   3.134
    1C        C  547   3.122   4.470   3.136
    1C        C  548   2.943   4.366   3.259
    1C        C  549   2.999   4.410   3.382
    1C        C  550   2.835   4.282   3.507
    1C        C  551   2.940   4.377   3.506
    1C        C  552   2.786   4.233   3.629
    1C        C  553   2.836   4.282   3.752
    1C        C  554   2.711   4.118   3.878
    1C        C  555   2.797   4.230   3.877
    1C        C  556   2.670   4.061   4.001
    1C        C  557   2.706   4.124   4.122
    1C        C  558   2.605   3.940   4.246
    1C        C  559   2.666   4.068   4.245
    1C        C  560   2.576   3.879   4.369
    1C        C  561   2.598   3.948   4.491
    1C        C  562   2.533   3.749   4.617
    1C        C  563   2.573   3.884   4.614
    1C        C  564   2.517   3.681   4.739
    1C        C  565   2.524   3.760   4.857
    1C        C  566   2.523   3.543   4.978
    1C        C  567   2.521   3.682   4.973
    1C        C  568   3.329   4.485   2.040
    1C        C  569   3.394   4.520   2.159
    1C        C  570   3.183   4.480   2.279
    1C        C  571   3.320   4.517   2.280
    1C        C  572   3.116   4.461   2.402
    1C        C  573   3.183   4.486   2.523
    1C        C  574   2.991   4.401   2.649
    1C        C  575   3.117   4.464   2.647
    1C        C  576   2.932   4.360   2.770
    1C        C  577   2.995   4.403   2.889
    1C        C  578   2.832   4.270   3.018
    1C        C  579   2.939   4.362   3.012
    1C        C  580   2.785   4.219   3.141
    1C        C  581   2.839   4.271   3.261
    1C        C  582   2.700   4.117   3.385
    1C        C  583   2.785   4.230   3.385
    1C        C  584   2.668   4.057   3.509
    1C        C  585   2.707   4.115   3.632
    1C        C  586   2.600   3.937   3.756
    1C        C  587   2.672   4.058   3.756
    1C        C  588   2.577   3.871   3.879
    1C        C  589   2.607   3.934   4.002
    1C        C  590   2.538   3.735   4.128
    1C        C  591   2.583   3.869   4.125
    1C        C  592   2.522   3.672   4.253
    1C        C  593   2.539   3.743   4.374
    1C        C  594   2.507   3.535   4.497
    1C        C  595   2.519   3.675   4.496
    1C        C  596   2.516   3.464   4.620
    1C        C  597   2.514   3.539   4.740
    1C        C  598   2.529   3.325   4.861
    1C        C  599   2.518   3.466   4.861
    1C        C  600   2.530   3.249   4.979
    1C        C  601   3.197   4.444   2.040
    1C        C  602   2.985   4.397   2.159
    1C        C  603   3.119   4.446   2.157
    1C        C  604   2.928   4.359   2.284
    1C        C  605   2.988   4.400   2.405
    1C        C  606   2.825   4.268   2.528
    1C        C  607   2.929   4.363   2.528
    1C        C  608   2.775   4.217   2.650
    1C        C  609   2.828   4.263   2.773
    1C        C  610   2.689   4.110   2.896
    1C        C  611   2.778   4.220   2.897
    1C        C  612   2.651   4.054   3.020
    1C        C  613   2.694   4.111   3.142
    1C        C  614   2.594   3.928   3.266
    1C        C  615   2.659   4.053   3.266
    1C        C  616   2.572   3.869   3.393
    1C        C  617   2.602   3.932   3.516
    1C        C  618   2.535   3.729   3.640
    1C        C  619   2.575   3.865   3.637
    1C        C  620   2.520   3.663   3.763
    1C        C  621   2.537   3.736   3.883
    1C        C  622   2.509   3.526   4.009
    1C        C  623   2.522   3.667   4.005
    1C        C  624   2.513   3.457   4.132
    1C        C  625   2.514   3.531   4.253
    1C        C  626   2.538   3.323   4.379
    1C        C  627   2.512   3.462   4.376
    1C        C  628   2.552   3.252   4.500
    1C        C  629   2.536   3.325   4.620
    1C        C  630   2.592   3.118   4.742
    1C        C  631   2.548   3.253   4.742
    1C        C  632   2.616   3.049   4.864
    1C        C  633   2.568   3.114   4.982
    1C        C  634   2.784   4.305   2.057
    1C        C  635   2.891   4.395   2.051
    1C        C  636   2.752   4.227   2.168
    1C        C  637   2.815   4.272   2.286
    1C        C  638   2.683   4.106   2.408
    1C        C  639   2.770   4.217   2.408
    1C        C  640   2.647   4.046   2.530
    1C        C  641   2.690   4.104   2.652
    1C        C  642   2.590   3.920   2.779
    1C        C  643   2.656   4.045   2.775
    1C        C  644   2.569   3.855   2.903
    1C        C  645   2.587   3.928   3.022
    1C        C  646   2.526   3.726   3.148
    1C        C  647   2.565   3.861   3.145
    1C        C  648   2.513   3.661   3.274
    1C        C  649   2.536   3.733   3.394
    1C        C  650   2.510   3.522   3.520
    1C        C  651   2.521   3.663   3.516
    1C        C  652   2.517   3.452   3.642
    1C        C  653   2.513   3.521   3.765
    1C        C  654   2.532   3.313   3.889
    1C        C  655   2.507   3.453   3.889
    1C        C  656   2.552   3.247   4.013
    1C        C  657   2.540   3.318   4.134
    1C        C  658   2.609   3.122   4.257
    1C        C  659   2.558   3.254   4.258
    1C        C  660   2.632   3.055   4.379
    1C        C  661   2.594   3.117   4.501
    1C        C  662   2.710   2.939   4.627
    1C        C  663   2.624   3.051   4.622
    1C        C  664   2.750   2.875   4.747
    1C        C  665   2.700   2.932   4.867
    1C        C  666   2.751   2.877   4.986
    1C        C  667   2.677   4.021   2.052
    1C        C  668   2.685   4.102   2.166
    1C        C  669   2.594   3.909   2.292
    1C        C  670   2.648   4.041   2.288
    1C        C  671   2.561   3.847   2.415
    1C        C  672   2.586   3.918   2.534
    1C        C  673   2.517   3.721   2.662
    1C        C  674   2.555   3.857   2.657
    1C        C  675   2.514   3.650   2.784
    1C        C  676   2.534   3.718   2.906
    1C        C  677   2.503   3.510   3.031
    1C        C  678   2.516   3.651   3.029
    1C        C  679   2.503   3.444   3.156
    1C        C  680   2.505   3.520   3.275
    1C        C  681   2.529   3.311   3.401
    1C        C  682   2.508   3.450   3.398
    1C        C  683   2.546   3.241   3.522
    1C        C  684   2.533   3.311   3.644
    1C        C  685   2.604   3.114   3.771
    1C        C  686   2.550   3.245   3.767
    1C        C  687   2.638   3.052   3.894
    1C        C  688   2.605   3.116   4.015
    1C        C  689   2.712   2.933   4.139
    1C        C  690   2.636   3.052   4.137
    1C        C  691   2.755   2.881   4.263
    1C        C  692   2.713   2.939   4.384
    1C        C  693   2.759   2.885   4.506
    1C        C  694   2.632   3.889   2.056
    1C        C  695   2.527   3.703   2.175
    1C        C  696   2.576   3.836   2.173
    1C        C  697   2.504   3.639   2.298
    1C        C  698   2.518   3.712   2.418
    1C        C  699   2.489   3.506   2.542
    1C        C  700   2.502   3.647   2.543
    1C        C  701   2.496   3.436   2.664
    1C        C  702   2.500   3.509   2.785
    1C        C  703   2.528   3.301   2.912
    1C        C  704   2.505   3.441   2.908
    1C        C  705   2.544   3.234   3.035
    1C        C  706   2.525   3.305   3.155
    1C        C  707   2.598   3.109   3.279
    1C        C  708   2.545   3.240   3.279
    1C        C  709   2.635   3.050   3.402
    1C        C  710   2.603   3.112   3.525
    1C        C  711   2.719   2.937   3.647
    1C        C  712   2.638   3.053   3.649
    1C        C  713   2.766   2.884   3.769
    1C        C  714   2.722   2.938   3.892
    1C        C  715   2.760   2.882   4.016
    1C        C  716   2.451   3.498   2.065
    1C        C  717   2.492   3.632   2.060
    1C        C  718   2.463   3.421   2.185
    1C        C  719   2.479   3.499   2.302
    1C        C  720   2.510   3.290   2.423
    1C        C  721   2.481   3.428   2.424
    1C        C  722   2.532   3.225   2.546
    1C        C  723   2.520   3.297   2.667
    1C        C  724   2.597   3.101   2.790
    1C        C  725   2.539   3.230   2.790
    1C        C  726   2.624   3.038   2.913
    1C        C  727   2.589   3.100   3.035
    1C        C  728   2.708   2.926   3.160
    1C        C  729   2.626   3.041   3.158
    1C        C  730   2.760   2.877   3.282
    1C        C  731   2.717   2.935   3.404
    1C        C  732   2.764   2.880   3.526
    1C        C  733   2.483   3.198   2.070
    1C        C  734   2.485   3.279   2.184
    1C        C  735   2.581   3.085   2.306
    1C        C  736   2.521   3.213   2.305
    1C        C  737   2.613   3.022   2.428
    1C        C  738   2.585   3.094   2.546
    1C        C  739   2.701   2.916   2.671
    1C        C  740   2.624   3.034   2.668
    1C        C  741   2.745   2.861   2.794
    1C        C  742   2.707   2.924   2.914
    1C        C  743   2.751   2.870   3.037
    1C        C  744   2.540   3.071   2.075
    1C        C  745   2.685   2.899   2.186
    1C        C  746   2.606   3.015   2.185
    1C        C  747   2.733   2.843   2.307
    1C        C  748   2.692   2.905   2.427
    1C        C  749   2.746   2.860   2.549
    1C        C  750   2.738   2.840   2.070
    1C        C  751   3.665   2.339   1.962
    1C        O  752   3.714   2.228   1.994
    1C        O  753   3.637   2.355   1.826
    1C        C  754   4.628   3.052   1.981
    1C        O  755   4.626   3.066   1.856
    1C        O  756   4.754   3.010   2.025
    1C        C  757   4.452   4.220   1.961
    1C        O  758   4.525   4.310   2.010
    1C        O  759   4.502   4.194   1.832
    1C        C  760   3.608   4.669   1.943
    1C        O  761   3.671   4.777   1.964
    1C        O  762   3.619   4.638   1.807
    1C        C  763   2.895   4.489   1.937
    1C        O  764   2.937   4.444   1.827
    1C        O  765   2.792   4.583   1.924
    1C        C  766   2.348   3.480   1.960
    1C        O  767   2.388   3.445   1.845
    1C        O  768   2.211   3.481   1.989
    1C        C  769   4.658   3.578   5.084
    1C        O  770   4.608   3.587   5.199
    1C        O  771   4.798   3.576   5.082
    1C        C  772   4.279   4.472   5.023
    1C        O  773   4.282   4.490   5.148
    1C        O  774   4.356   4.580   4.979
    1C        C  775   4.138   2.539   5.086
    1C        O  776   4.168   2.417   5.091
    1C        O  777   4.104   2.581   5.215
    1C        C  778   2.917   4.523   5.079
    1C        O  779   2.830   4.614   5.077
    1C        O  780   2.963   4.482   5.205
    1C        C  781   2.489   3.037   5.080
    1C        O  782   2.379   2.986   5.044
    1C        O  783   2.483   3.069   5.215
    1C        C  784   2.423   3.979   5.062
    1C        O  785   2.307   4.019   5.033
    1C        O  786   2.440   3.965   5.200
    1C        C  787   2.955   2.453   1.985
    1C        O  788   2.982   2.448   1.862
    1C        O  789   2.879   2.342   2.018
    1C        C  790   3.168   2.370   5.051
    1C        O  791   3.172   2.259   4.991
    1C        O  792   3.170   2.365   5.190
    1C        H  793   4.292   3.019   5.062
    1C        H  794   4.249   2.780   5.059
    1C        H  795   4.490   3.128   5.064
    1C        H  796   4.475   3.373   5.058
    1C        H  797   4.582   3.816   5.044
    1C        H  798   4.364   3.942   5.035
    1C        H  799   4.299   4.178   5.051
    1C        H  800   4.043   4.546   5.021
    1C        H  801   3.826   4.585   5.039
    1C        H  802   3.585   4.635   5.041
    1C        H  803   3.402   4.476   5.038
    1C        H  804   3.158   4.490   5.053
    1C        H  805   3.877   2.523   5.077
    1C        H  806   3.677   2.401   5.042
    1C        H  807   2.992   2.543   5.058
    1C        H  808   3.440   2.478   5.078
    1C        H  809   2.842   2.699   5.064
    1C        H  810   2.697   2.896   5.076
    1C        H  811   2.469   3.287   5.058
    1C        H  812   2.532   3.500   5.075
    1C        H  813   2.507   3.731   5.067
    1C        H  814   2.580   4.191   5.038
    1C        H  815   2.756   4.323   5.055
    1C        H  816   2.718   2.885   1.975
    1C        H  817   2.879   2.716   1.978
    1C        H  818   3.211   2.406   2.002
    1C        H  819   3.434   2.482   1.986
    1C        H  820   3.839   2.560   1.972
    1C        H  821   4.081   2.577   1.986
    1C        H  822   4.250   2.717   1.975
    1C        H  823   4.366   2.929   1.968
    1C        H  824   4.618   3.302   1.981
    1C        H  825   4.522   3.514   1.960
    1C        H  826   4.554   3.754   1.971
    1C        H  827   3.803   4.513   1.950
    1C        H  828   3.987   4.411   1.953
    1C        H  829   4.162   4.266   1.950
    1C        H  830   4.477   3.964   1.962
    1C        H  831   2.609   3.849   1.959
    1C        H  832   2.653   4.073   1.962
    1C        H  833   2.708   4.329   1.985
    1C        H  834   3.373   4.523   1.950
    1C        H  835   3.160   4.383   1.960
    1C        H  836   2.512   3.013   1.989
    1C        H  837   2.424   3.220   1.984
    1C        H  838   2.526   3.658   1.962
    2V3OU   H29  839   2.800   3.541   5.110
    2V3OU   C27  840   2.785   3.503   5.214
    2V3OU   H27  841   2.733   3.572   5.285
    2V3OU   H28  842   2.728   3.407   5.205
    2V3OU   O11  843   2.911   3.474   5.276
    2V3OU   C15  844   2.922   3.400   5.392
    2V3OU   C13  845   3.054   3.379   5.437
    2V3OU   C14  846   3.079   3.273   5.525
    2V3OU   C16  847   2.973   3.194   5.567
    2V3OU    H6  848   2.991   3.112   5.638
    2V3OU   C12  849   3.219   3.228   5.540
    2V3OU    O2  850   3.249   3.137   5.621
    2V3OU   C10  851   3.326   3.309   5.480
    2V3OU    C8  852   3.459   3.273   5.503
    2V3OU   O10  853   3.488   3.151   5.556
    2V3OU   H26  854   3.412   3.122   5.610
    2V3OU    C6  855   3.565   3.357   5.458
    2V3OU    C5  856   3.538   3.471   5.383
    2V3OU    C4  857   3.702   3.298   5.448
    2V3OU    H4  858   3.724   3.233   5.538
    2V3OU    H5  859   3.711   3.239   5.352
    2V3OU    C2  860   3.816   3.400   5.454
    2V3OU    O6  861   3.806   3.476   5.575
    2V3OU   H21  862   3.761   3.558   5.550
    2V3OU    C3  863   3.783   3.494   5.339
    2V3OU    H2  864   3.863   3.571   5.326
    2V3OU    H3  865   3.790   3.442   5.240
    2V3OU   C25  866   3.949   3.325   5.442
    2V3OU    O7  867   4.005   3.293   5.338
    2V3OU   C26  868   4.035   3.294   5.563
    2V3OU   H22  869   4.073   3.379   5.626
    2V3OU   H23  870   4.123   3.231   5.533
    2V3OU    O8  871   3.967   3.214   5.657
    2V3OU   H24  872   3.925   3.269   5.725
    2V3OU    C1  873   3.649   3.566   5.350
    2V3OU    H1  874   3.633   3.619   5.252
    2V3OU    O3  875   3.659   3.657   5.460
    2V3OU   C19  876   3.621   3.794   5.445
    2V3OU    H9  877   3.524   3.806   5.388
    2V3OU    O4  878   3.717   3.844   5.354
    2V3OU   C20  879   3.846   3.871   5.409
    2V3OU   H10  880   3.896   3.770   5.419
    2V3OU   C24  881   3.612   3.860   5.582
    2V3OU   H16  882   3.547   3.792   5.643
    2V3OU   H17  883   3.564   3.961   5.569
    2V3OU   C23  884   3.753   3.874   5.638
    2V3OU   H15  885   3.788   3.766   5.652
    2V3OU    N1  886   3.742   3.957   5.756
    2V3OU   H19  887   3.810   3.934   5.825
    2V3OU   H20  888   3.651   3.938   5.795
    2V3OU   C21  889   3.855   3.944   5.543
    2V3OU   H11  890   3.956   3.919   5.585
    2V3OU    O5  891   3.833   4.084   5.541
    2V3OU   H18  892   3.783   4.097   5.623
    2V3OU   C22  893   3.915   3.947   5.296
    2V3OU   H12  894   3.870   4.049   5.289
    2V3OU   H13  895   3.901   3.894   5.199
    2V3OU   H14  896   4.024   3.957   5.320
    2V3OU   C11  897   3.159   3.469   5.387
    2V3OU    O1  898   3.129   3.585   5.348
    2V3OU    C9  899   3.299   3.428   5.408
    2V3OU    C7  900   3.402   3.506   5.356
    2V3OU    O9  901   3.385   3.617   5.277
    2V3OU   H25  902   3.289   3.635   5.269
    2V3OU   C17  903   2.818   3.320   5.445
    2V3OU    H7  904   2.715   3.348   5.423
    2V3OU   C18  905   2.839   3.216   5.535
    2V3OU    H8  906   2.759   3.150   5.570
    3SOL     OW  907   3.996   3.716   4.164
    3SOL    HW1  908   3.915   3.749   4.117
    3SOL    HW2  909   4.028   3.632   4.120
    4SOL     OW  910   6.883   0.273   6.966
    4SOL    HW1  911   6.857   0.264   6.870
    4SOL    HW2  912   6.805   0.306   7.018
    5SOL     OW  913   5.301   2.166   0.921
    5SOL    HW1  914   5.380   2.191   0.977
    5SOL    HW2  915   5.308   2.209   0.832
    6SOL     OW  916   6.005   0.505   2.566
    6SOL    HW1  917   5.926   0.454   2.602
    6SOL    HW2  918   6.067   0.442   2.521
    7SOL     OW  919   1.263   4.389   4.489
    7SOL    HW1  920   1.191   4.431   4.433
    7SOL    HW2  921   1.320   4.331   4.432
    8SOL     OW  922   1.730   3.822   5.151
    8SOL    HW1  923   1.766   3.833   5.058
    8SOL    HW2  924   1.800   3.847   5.217
    9SOL     OW  925   0.058   0.863   6.335
    9SOL    HW1  926   0.013   0.811   6.408
    9SOL    HW2  927   7.019   0.875   6.259
   10SOL     OW  928   4.926   4.519   2.556
   10SOL    HW1  929   4.993   4.448   2.576
   10SOL    HW2  930   4.891   4.557   2.642
   11SOL     OW  931   2.468   1.668   0.192
   11SOL    HW1  932   2.504   1.746   0.141
   11SOL    HW2  933   2.505   1.669   0.285
   12SOL     OW  934   3.446   4.907   3.370
   12SOL    HW1  935   3.521   4.864   3.420
   12SOL    HW2  936   3.482   4.963   3.296
   13SOL     OW  937   5.232   6.313   1.336
   13SOL    HW1  938   5.219   6.221   1.373
   13SOL    HW2  939   5.195   6.380   1.400
   14SOL     OW  940   4.456   5.495   4.813
   14SOL    HW1  941   4.484   5.411   4.766
   14SOL    HW2  942   4.536   5.538   4.855
   15SOL     OW  943   6.781   6.432   5.991
   15SOL    HW1  944   6.707   6.365   5.980
   15SOL    HW2  945   6.863   6.386   6.025
   16SOL     OW  946   1.002   3.936   4.710
   16SOL    HW1  947   1.027   3.861   4.771
   16SOL    HW2  948   1.070   4.009   4.718
   17SOL     OW  949   6.513   1.987   4.944
   17SOL    HW1  950   6.456   1.908   4.964
   17SOL    HW2  951   6.514   2.004   4.846
   18SOL     OW  952   2.343   1.186   5.824
   18SOL    HW1  953   2.284   1.148   5.895
   18SOL    HW2  954   2.432   1.209   5.862
   19SOL     OW  955   2.543   0.599   3.271
   19SOL    HW1  956   2.525   0.506   3.239
   19SOL    HW2  957   2.640   0.620   3.262
   20SOL     OW  958   6.616   1.746   5.619
   20SOL    HW1  959   6.563   1.708   5.544
   20SOL    HW2  960   6.555   1.788   5.686
   21SOL     OW  961   2.941   4.874   3.249
   21SOL    HW1  962   2.922   4.971   3.263
   21SOL    HW2  963   3.009   4.843   3.315
   22SOL     OW  964   1.594   0.261   6.390
   22SOL    HW1  965   1.524   0.318   6.347
   22SOL    HW2  966   1.558   0.223   6.476
   23SOL     OW  967   6.092   4.677   1.303
   23SOL    HW1  968   6.007   4.703   1.257
   23SOL    HW2  969   6.081   4.684   1.402
   24SOL     OW  970   4.685   1.038   0.854
   24SOL    HW1  971   4.779   1.004   0.856
   24SOL    HW2  972   4.637   0.999   0.775
   25SOL     OW  973   1.258   1.268   4.769
   25SOL    HW1  974   1.200   1.290   4.691
   25SOL    HW2  975   1.216   1.193   4.820
   26SOL     OW  976   1.242   2.857   6.977
   26SOL    HW1  977   1.311   2.874   6.906
   26SOL    HW2  978   1.234   2.758   6.992
   27SOL     OW  979   6.167   1.183   1.211
   27SOL    HW1  980   6.194   1.087   1.205
   27SOL    HW2  981   6.172   1.225   1.120
   28SOL     OW  982   2.440   0.970   5.367
   28SOL    HW1  983   2.409   0.991   5.460
   28SOL    HW2  984   2.529   1.013   5.351
   29SOL     OW  985   0.633   0.042   0.869
   29SOL    HW1  986   0.596   6.974   0.876
   29SOL    HW2  987   0.726   0.044   0.906
   30SOL     OW  988   4.651   0.312   4.955
   30SOL    HW1  989   4.698   0.321   5.043
   30SOL    HW2  990   4.657   0.399   4.905
   31SOL     OW  991   1.220   3.828   5.667
   31SOL    HW1  992   1.294   3.800   5.606
   31SOL    HW2  993   1.207   3.759   5.738
   32SOL     OW  994   2.987   0.143   0.881
   32SOL    HW1  995   2.953   0.080   0.950
   32SOL    HW2  996   3.066   0.194   0.917
   33SOL     OW  997   1.312   5.356   6.351
   33SOL    HW1  998   1.318   5.417   6.429
   33SOL    HW2  999   1.346   5.265   6.377
   34SOL     OW 1000   2.056   5.274   5.521
   34SOL    HW1 1001   2.086   5.275   5.617
   34SOL    HW2 1002   2.100   5.350   5.472
   35SOL     OW 1003   2.590   3.457   7.016
   35SOL    HW1 1004   2.613   3.361   0.004
   35SOL    HW2 1005   2.512   3.465   6.954
   36SOL     OW 1006   4.372   1.330   4.563
   36SOL    HW1 1007   4.434   1.322   4.485
   36SOL    HW2 1008   4.382   1.251   4.623
   37SOL     OW 1009   2.931   0.341   4.436
   37SOL    HW1 1010   2.957   0.246   4.421
   37SOL    HW2 1011   2.835   0.345   4.465
   38SOL     OW 1012   7.002   4.274   2.836
   38SOL    HW1 1013   6.989   4.226   2.923
   38SOL    HW2 1014   0.025   4.360   2.853
   39SOL     OW 1015   6.799   5.460   6.910
   39SOL    HW1 1016   6.774   5.553   6.883
   39SOL    HW2 1017   6.730   5.423   6.973
   40SOL     OW 1018   3.707   1.067   6.852
   40SOL    HW1 1019   3.719   0.968   6.848
   40SOL    HW2 1020   3.762   1.110   6.781
   41SOL     OW 1021   5.659   3.781   1.855
   41SOL    HW1 1022   5.627   3.868   1.894
   41SOL    HW2 1023   5.756   3.789   1.830
   42SOL     OW 1024   2.443   5.621   6.399
   42SOL    HW1 1025   2.360   5.573   6.427
   42SOL    HW2 1026   2.473   5.587   6.309
   43SOL     OW 1027   3.790   6.929   4.773
   43SOL    HW1 1028   3.850   6.957   4.848
   43SOL    HW2 1029   3.843   6.878   4.706
   44SOL     OW 1030   0.009   0.984   5.813
   44SOL    HW1 1031   0.067   1.064   5.827
   44SOL    HW2 1032   6.956   1.009   5.757
   45SOL     OW 1033   2.831   5.644   0.255
   45SOL    HW1 1034   2.918   5.648   0.206
   45SOL    HW2 1035   2.818   5.552   0.292
   46SOL     OW 1036   0.470   2.947   4.048
   46SOL    HW1 1037   0.533   2.983   3.978
   46SOL    HW2 1038   0.380   2.987   4.035
   47SOL     OW 1039   6.076   2.796   0.899
   47SOL    HW1 1040   6.102   2.884   0.861
   47SOL    HW2 1041   6.157   2.750   0.936
   48SOL     OW 1042   6.446   3.500   1.143
   48SOL    HW1 1043   6.523   3.446   1.178
   48SOL    HW2 1044   6.447   3.590   1.185
   49SOL     OW 1045   4.121   4.217   0.208
   49SOL    HW1 1046   4.207   4.269   0.207
   49SOL    HW2 1047   4.140   4.122   0.232
   50SOL     OW 1048   6.573   2.947   7.019
   50SOL    HW1 1049   6.490   2.999   6.999
   50SOL    HW2 1050   6.577   2.928   0.092
   51SOL     OW 1051   2.338   5.842   3.087
   51SOL    HW1 1052   2.419   5.897   3.108
   51SOL    HW2 1053   2.367   5.759   3.038
   52SOL     OW 1054   5.998   2.348   1.301
   52SOL    HW1 1055   5.919   2.287   1.302
   52SOL    HW2 1056   5.971   2.438   1.266
   53SOL     OW 1057   4.240   0.076   2.177
   53SOL    HW1 1058   4.228   0.131   2.094
   53SOL    HW2 1059   4.318   0.111   2.229
   54SOL     OW 1060   5.509   0.096   6.684
   54SOL    HW1 1061   5.434   0.162   6.695
   54SOL    HW2 1062   5.479   0.023   6.624
   55SOL     OW 1063   0.818   3.291   6.591
   55SOL    HW1 1064   0.829   3.268   6.687
   55SOL    HW2 1065   0.848   3.386   6.576
   56SOL     OW 1066   0.983   2.870   6.895
   56SOL    HW1 1067   0.925   2.939   6.938
   56SOL    HW2 1068   1.076   2.878   6.931
   57SOL     OW 1069   4.548   6.560   0.090
   57SOL    HW1 1070   4.612   6.496   0.133
   57SOL    HW2 1071   4.585   6.653   0.097
   58SOL     OW 1072   0.578   0.466   6.919
   58SOL    HW1 1073   0.487   0.455   6.879
   58SOL    HW2 1074   0.610   0.559   6.902
   59SOL     OW 1075   4.985   3.085   5.937
   59SOL    HW1 1076   5.072   3.062   5.893
   59SOL    HW2 1077   4.975   3.184   5.942
   60SOL     OW 1078   5.152   0.892   2.903
   60SOL    HW1 1079   5.250   0.908   2.890
   60SOL    HW2 1080   5.102   0.932   2.826
   61SOL     OW 1081   6.717   5.794   4.458
   61SOL    HW1 1082   6.624   5.770   4.486
   61SOL    HW2 1083   6.716   5.825   4.362
   62SOL     OW 1084   6.296   2.553   2.365
   62SOL    HW1 1085   6.203   2.572   2.333
   62SOL    HW2 1086   6.294   2.525   2.461
   63SOL     OW 1087   4.208   6.646   5.167
   63SOL    HW1 1088   4.218   6.564   5.110
   63SOL    HW2 1089   4.201   6.618   5.263
   64SOL     OW 1090   0.791   4.030   5.776
   64SOL    HW1 1091   0.794   4.092   5.853
   64SOL    HW2 1092   0.712   3.969   5.785
   65SOL     OW 1093   0.740   6.847   5.289
   65SOL    HW1 1094   0.737   6.748   5.301
   65SOL    HW2 1095   0.762   6.891   5.376
   66SOL     OW 1096   4.168   0.512   2.244
   66SOL    HW1 1097   4.091   0.576   2.242
   66SOL    HW2 1098   4.168   0.463   2.331
   67SOL     OW 1099   0.260   2.736   1.486
   67SOL    HW1 1100   0.235   2.660   1.426
   67SOL    HW2 1101   0.277   2.701   1.579
   68SOL     OW 1102   6.841   1.825   5.183
   68SOL    HW1 1103   6.835   1.908   5.129
   68SOL    HW2 1104   6.750   1.796   5.212
   69SOL     OW 1105   0.568   6.043   6.280
   69SOL    HW1 1106   0.530   5.957   6.316
   69SOL    HW2 1107   0.660   6.056   6.316
   70SOL     OW 1108   5.357   3.384   4.309
   70SOL    HW1 1109   5.423   3.416   4.242
   70SOL    HW2 1110   5.264   3.403   4.277
   71SOL     OW 1111   5.141   1.692   4.975
   71SOL    HW1 1112   5.223   1.715   5.028
   71SOL    HW2 1113   5.066   1.671   5.037
   72SOL     OW 1114   0.019   0.717   3.744
   72SOL    HW1 1115   0.052   0.628   3.773
   72SOL    HW2 1116   0.052   0.737   3.652
   73SOL     OW 1117   2.952   1.030   1.187
   73SOL    HW1 1118   2.901   1.002   1.268
   73SOL    HW2 1119   2.959   0.953   1.123
   74SOL     OW 1120   2.606   2.038   0.628
   74SOL    HW1 1121   2.526   2.004   0.677
   74SOL    HW2 1122   2.673   1.964   0.620
   75SOL     OW 1123   3.533   3.766   0.479
   75SOL    HW1 1124   3.553   3.820   0.560
   75SOL    HW2 1125   3.513   3.671   0.507
   76SOL     OW 1126   3.314   4.701   5.384
   76SOL    HW1 1127   3.334   4.780   5.442
   76SOL    HW2 1128   3.225   4.662   5.408
   77SOL     OW 1129   0.636   4.555   4.581
   77SOL    HW1 1130   0.580   4.616   4.638
   77SOL    HW2 1131   0.685   4.609   4.513
   78SOL     OW 1132   4.689   1.971   1.040
   78SOL    HW1 1133   4.778   1.983   0.995
   78SOL    HW2 1134   4.702   1.972   1.139
   79SOL     OW 1135   1.043   4.486   3.072
   79SOL    HW1 1136   1.113   4.471   3.002
   79SOL    HW2 1137   1.042   4.582   3.098
   80SOL     OW 1138   4.030   0.892   5.051
   80SOL    HW1 1139   3.995   0.984   5.067
   80SOL    HW2 1140   4.107   0.896   4.987
   81SOL     OW 1141   4.186   5.969   1.503
   81SOL    HW1 1142   4.244   6.044   1.472
   81SOL    HW2 1143   4.090   5.998   1.503
   82SOL     OW 1144   2.498   6.177   1.897
   82SOL    HW1 1145   2.469   6.189   1.992
   82SOL    HW2 1146   2.564   6.248   1.874
   83SOL     OW 1147   5.160   0.718   4.602
   83SOL    HW1 1148   5.163   0.661   4.684
   83SOL    HW2 1149   5.180   0.813   4.626
   84SOL     OW 1150   5.172   2.563   2.264
   84SOL    HW1 1151   5.247   2.519   2.214
   84SOL    HW2 1152   5.129   2.496   2.324
   85SOL     OW 1153   2.211   6.958   4.422
   85SOL    HW1 1154   2.162   6.898   4.359
   85SOL    HW2 1155   2.226   6.911   4.509
   86SOL     OW 1156   6.152   0.543   0.054
   86SOL    HW1 1157   6.190   0.605   7.011
   86SOL    HW2 1158   6.226   0.506   0.110
   87SOL     OW 1159   2.555   4.365   6.547
   87SOL    HW1 1160   2.566   4.328   6.454
   87SOL    HW2 1161   2.567   4.464   6.545
   88SOL     OW 1162   3.935   3.952   0.465
   88SOL    HW1 1163   4.028   3.958   0.499
   88SOL    HW2 1164   3.933   3.894   0.383
   89SOL     OW 1165   3.106   3.874   4.229
   89SOL    HW1 1166   3.205   3.886   4.237
   89SOL    HW2 1167   3.059   3.929   4.299
   90SOL     OW 1168   4.907   3.674   2.384
   90SOL    HW1 1169   4.813   3.644   2.367
   90SOL    HW2 1170   4.934   3.740   2.314
   91SOL     OW 1171   4.429   5.337   5.309
   91SOL    HW1 1172   4.462   5.250   5.344
   91SOL    HW2 1173   4.387   5.324   5.219
   92SOL     OW 1174   5.721   3.557   6.251
   92SOL    HW1 1175   5.807   3.548   6.302
   92SOL    HW2 1176   5.742   3.571   6.154
   93SOL     OW 1177   2.959   3.165   2.156
   93SOL    HW1 1178   2.880   3.116   2.191
   93SOL    HW2 1179   3.042   3.114   2.177
   94SOL     OW 1180   3.133   1.627   5.087
   94SOL    HW1 1181   3.056   1.635   5.024
   94SOL    HW2 1182   3.117   1.550   5.149
   95SOL     OW 1183   0.985   0.824   3.927
   95SOL    HW1 1184   1.080   0.826   3.959
   95SOL    HW2 1185   0.932   0.762   3.985
   96SOL     OW 1186   6.070   4.702   0.381
   96SOL    HW1 1187   6.068   4.715   0.480
   96SOL    HW2 1188   6.160   4.730   0.346
   97SOL     OW 1189   2.083   5.028   5.893
   97SOL    HW1 1190   2.163   5.008   5.836
   97SOL    HW2 1191   2.044   4.942   5.927
   98SOL     OW 1192   1.723   2.342   3.181
   98SOL    HW1 1193   1.743   2.278   3.107
   98SOL    HW2 1194   1.799   2.407   3.191
   99SOL     OW 1195   3.726   3.531   4.968
   99SOL    HW1 1196   3.655   3.592   5.003
   99SOL    HW2 1197   3.808   3.583   4.947
  100SOL     OW 1198   6.577   1.433   4.680
  100SOL    HW1 1199   6.597   1.517   4.630
  100SOL    HW2 1200   6.498   1.388   4.639
  101SOL     OW 1201   6.445   3.525   2.526
  101SOL    HW1 1202   6.456   3.426   2.519
  101SOL    HW2 1203   6.381   3.557   2.456
  102SOL     OW 1204   4.444   6.879   0.141
  102SOL    HW1 1205   4.480   6.933   0.066
  102SOL    HW2 1206   4.488   6.907   0.227
  103SOL     OW 1207   3.513   1.001   2.271
  103SOL    HW1 1208   3.594   1.052   2.299
  103SOL    HW2 1209   3.436   1.024   2.331
  104SOL     OW 1210   6.796   4.573   2.353
  104SOL    HW1 1211   6.749   4.485   2.360
  104SOL    HW2 1212   6.817   4.592   2.257
  105SOL     OW 1213   6.462   1.161   5.348
  105SOL    HW1 1214   6.380   1.113   5.380
  105SOL    HW2 1215   6.435   1.245   5.303
  106SOL     OW 1216   4.992   5.208   1.890
  106SOL    HW1 1217   5.005   5.202   1.791
  106SOL    HW2 1218   4.897   5.187   1.913
  107SOL     OW 1219   5.841   6.934   1.082
  107SOL    HW1 1220   5.765   6.994   1.058
  107SOL    HW2 1221   5.925   6.970   1.042
  108SOL     OW 1222   2.427   1.454   4.307
  108SOL    HW1 1223   2.414   1.538   4.360
  108SOL    HW2 1224   2.359   1.386   4.335
  109SOL     OW 1225   1.802   1.103   4.342
  109SOL    HW1 1226   1.854   1.018   4.349
  109SOL    HW2 1227   1.706   1.084   4.363
  110SOL     OW 1228   3.593   4.237   5.624
  110SOL    HW1 1229   3.603   4.231   5.525
  110SOL    HW2 1230   3.548   4.154   5.658
  111SOL     OW 1231   6.181   2.001   1.492
  111SOL    HW1 1232   6.252   1.938   1.459
  111SOL    HW2 1233   6.177   1.997   1.592
  112SOL     OW 1234   4.932   6.390   6.617
  112SOL    HW1 1235   4.991   6.340   6.554
  112SOL    HW2 1236   4.984   6.466   6.657
  113SOL     OW 1237   0.591   6.131   2.148
  113SOL    HW1 1238   0.629   6.056   2.094
  113SOL    HW2 1239   0.659   6.162   2.214
  114SOL     OW 1240   0.470   3.459   2.772
  114SOL    HW1 1241   0.503   3.445   2.865
  114SOL    HW2 1242   0.372   3.480   2.774
  115SOL     OW 1243   5.385   0.292   3.661
  115SOL    HW1 1244   5.376   0.386   3.696
  115SOL    HW2 1245   5.389   0.294   3.561
  116SOL     OW 1246   0.424   5.171   0.256
  116SOL    HW1 1247   0.342   5.187   0.311
  116SOL    HW2 1248   0.502   5.217   0.299
  117SOL     OW 1249   2.029   2.379   0.553
  117SOL    HW1 1250   1.992   2.297   0.511
  117SOL    HW2 1251   2.079   2.354   0.637
  118SOL     OW 1252   0.947   2.230   3.794
  118SOL    HW1 1253   0.941   2.285   3.710
  118SOL    HW2 1254   0.856   2.200   3.821
  119SOL     OW 1255   6.101   6.924   5.997
  119SOL    HW1 1256   6.043   6.917   5.915
  119SOL    HW2 1257   6.195   6.900   5.974
  120SOL     OW 1258   5.010   2.697   4.908
  120SOL    HW1 1259   4.937   2.764   4.921
  120SOL    HW2 1260   5.049   2.708   4.816
  121SOL     OW 1261   0.944   4.754   6.728
  121SOL    HW1 1262   1.040   4.781   6.732
  121SOL    HW2 1263   0.937   4.655   6.727
  122SOL     OW 1264   0.204   4.194   6.513
  122SOL    HW1 1265   0.233   4.289   6.528
  122SOL    HW2 1266   0.272   4.147   6.456
  123SOL     OW 1267   0.812   1.844   1.920
  123SOL    HW1 1268   0.824   1.943   1.933
  123SOL    HW2 1269   0.882   1.810   1.858
  124SOL     OW 1270   2.182   2.738   0.664
  124SOL    HW1 1271   2.118   2.663   0.685
  124SOL    HW2 1272   2.271   2.717   0.703
  125SOL     OW 1273   4.080   3.621   0.409
  125SOL    HW1 1274   4.045   3.527   0.417
  125SOL    HW2 1275   4.105   3.655   0.500
  126SOL     OW 1276   4.017   3.856   4.709
  126SOL    HW1 1277   4.067   3.776   4.743
  126SOL    HW2 1278   4.007   3.848   4.610
  127SOL     OW 1279   0.644   5.623   5.682
  127SOL    HW1 1280   0.696   5.708   5.680
  127SOL    HW2 1281   0.546   5.643   5.681
  128SOL     OW 1282   4.365   3.263   6.936
  128SOL    HW1 1283   4.369   3.200   6.857
  128SOL    HW2 1284   4.372   3.210   7.020
  129SOL     OW 1285   1.281   5.280   1.894
  129SOL    HW1 1286   1.228   5.201   1.923
  129SOL    HW2 1287   1.293   5.278   1.795
  130SOL     OW 1288   6.434   2.795   4.418
  130SOL    HW1 1289   6.371   2.872   4.429
  130SOL    HW2 1290   6.524   2.830   4.391
  131SOL     OW 1291   0.567   2.418   3.677
  131SOL    HW1 1292   0.569   2.513   3.645
  131SOL    HW2 1293   0.472   2.387   3.683
  132SOL     OW 1294   4.029   3.209   2.287
  132SOL    HW1 1295   4.114   3.216   2.235
  132SOL    HW2 1296   3.951   3.222   2.225
  133SOL     OW 1297   5.530   6.502   6.487
  133SOL    HW1 1298   5.563   6.462   6.402
  133SOL    HW2 1299   5.581   6.585   6.507
  134SOL     OW 1300   5.494   1.680   1.513
  134SOL    HW1 1301   5.585   1.649   1.542
  134SOL    HW2 1302   5.468   1.633   1.429
  135SOL     OW 1303   4.980   2.849   3.572
  135SOL    HW1 1304   4.984   2.749   3.574
  135SOL    HW2 1305   5.055   2.886   3.627
  136SOL     OW 1306   3.415   6.793   6.581
  136SOL    HW1 1307   3.410   6.882   6.535
  136SOL    HW2 1308   3.329   6.744   6.570
  137SOL     OW 1309   3.280   3.318   5.848
  137SOL    HW1 1310   3.265   3.242   5.784
  137SOL    HW2 1311   3.244   3.293   5.938
  138SOL     OW 1312   1.096   5.414   6.618
  138SOL    HW1 1313   1.104   5.340   6.684
  138SOL    HW2 1314   1.062   5.378   6.531
  139SOL     OW 1315   1.937   6.292   0.922
  139SOL    HW1 1316   1.964   6.360   0.990
  139SOL    HW2 1317   1.975   6.317   0.833
  140SOL     OW 1318   3.179   0.267   1.017
  140SOL    HW1 1319   3.275   0.260   0.991
  140SOL    HW2 1320   3.161   0.208   1.096
  141SOL     OW 1321   7.022   2.513   0.483
  141SOL    HW1 1322   0.040   2.475   0.564
  141SOL    HW2 1323   6.985   2.604   0.504
  142SOL     OW 1324   1.115   4.303   1.562
  142SOL    HW1 1325   1.149   4.282   1.470
  142SOL    HW2 1326   1.112   4.402   1.575
  143SOL     OW 1327   5.018   6.063   2.156
  143SOL    HW1 1328   5.116   6.072   2.140
  143SOL    HW2 1329   4.973   6.033   2.072
  144SOL     OW 1330   3.323   5.143   4.062
  144SOL    HW1 1331   3.403   5.085   4.049
  144SOL    HW2 1332   3.253   5.093   4.112
  145SOL     OW 1333   6.854   4.949   3.053
  145SOL    HW1 1334   6.899   4.907   3.132
  145SOL    HW2 1335   6.916   5.016   3.011
  146SOL     OW 1336   5.434   0.881   6.140
  146SOL    HW1 1337   5.457   0.868   6.044
  146SOL    HW2 1338   5.517   0.868   6.196
  147SOL     OW 1339   5.166   0.808   5.197
  147SOL    HW1 1340   5.106   0.864   5.254
  147SOL    HW2 1341   5.133   0.714   5.196
  148SOL     OW 1342   0.757   5.438   0.770
  148SOL    HW1 1343   0.789   5.414   0.679
  148SOL    HW2 1344   0.692   5.514   0.764
  149SOL     OW 1345   1.939   2.703   5.367
  149SOL    HW1 1346   1.973   2.768   5.298
  149SOL    HW2 1347   2.013   2.641   5.393
  150SOL     OW 1348   4.236   1.353   5.062
  150SOL    HW1 1349   4.259   1.450   5.069
  150SOL    HW2 1350   4.221   1.316   5.154
  151SOL     OW 1351   3.888   3.117   0.895
  151SOL    HW1 1352   3.913   3.026   0.863
  151SOL    HW2 1353   3.831   3.163   0.827
  152SOL     OW 1354   0.591   2.417   1.048
  152SOL    HW1 1355   0.624   2.381   1.136
  152SOL    HW2 1356   0.573   2.515   1.057
  153SOL     OW 1357   2.916   1.204   3.578
  153SOL    HW1 1358   2.983   1.134   3.553
  153SOL    HW2 1359   2.843   1.162   3.632
  154SOL     OW 1360   6.388   1.447   2.548
  154SOL    HW1 1361   6.414   1.508   2.622
  154SOL    HW2 1362   6.405   1.352   2.576
  155SOL     OW 1363   0.474   6.684   2.096
  155SOL    HW1 1364   0.506   6.743   2.170
  155SOL    HW2 1365   0.475   6.734   2.010
  156SOL     OW 1366   5.150   2.627   0.616
  156SOL    HW1 1367   5.054   2.608   0.595
  156SOL    HW2 1368   5.157   2.671   0.706
  157SOL     OW 1369   3.387   5.459   0.474
  157SOL    HW1 1370   3.448   5.526   0.516
  157SOL    HW2 1371   3.343   5.404   0.545
  158SOL     OW 1372   0.184   2.752   3.419
  158SOL    HW1 1373   0.194   2.685   3.346
  158SOL    HW2 1374   0.204   2.709   3.507
  159SOL     OW 1375   6.094   4.830   0.648
  159SOL    HW1 1376   6.075   4.766   0.722
  159SOL    HW2 1377   6.027   4.905   0.651
  160SOL     OW 1378   6.361   0.100   2.115
  160SOL    HW1 1379   6.339   0.195   2.094
  160SOL    HW2 1380   6.391   0.054   2.032
  161SOL     OW 1381   0.309   6.246   0.799
  161SOL    HW1 1382   0.399   6.289   0.788
  161SOL    HW2 1383   0.248   6.277   0.726
  162SOL     OW 1384   4.586   6.975   6.935
  162SOL    HW1 1385   4.574   0.046   6.959
  162SOL    HW2 1386   4.535   6.955   6.851
  163SOL     OW 1387   0.208   4.208   3.047
  163SOL    HW1 1388   0.224   4.188   2.950
  163SOL    HW2 1389   0.118   4.173   3.073
  164SOL     OW 1390   2.366   2.309   3.786
  164SOL    HW1 1391   2.457   2.342   3.813
  164SOL    HW2 1392   2.374   2.256   3.701
  165SOL     OW 1393   0.145   6.029   3.387
  165SOL    HW1 1394   0.215   6.008   3.455
  165SOL    HW2 1395   0.174   6.106   3.331
  166SOL     OW 1396   6.642   4.390   3.428
  166SOL    HW1 1397   6.724   4.391   3.485
  166SOL    HW2 1398   6.610   4.296   3.417
  167SOL     OW 1399   3.191   2.344   0.064
  167SOL    HW1 1400   3.273   2.394   0.035
  167SOL    HW2 1401   3.123   2.409   0.097
  168SOL     OW 1402   5.165   4.133   1.439
  168SOL    HW1 1403   5.168   4.065   1.366
  168SOL    HW2 1404   5.148   4.088   1.526
  169SOL     OW 1405   4.894   2.334   0.832
  169SOL    HW1 1406   4.808   2.327   0.883
  169SOL    HW2 1407   4.959   2.266   0.866
  170SOL     OW 1408   6.987   6.085   2.306
  170SOL    HW1 1409   6.968   6.133   2.220
  170SOL    HW2 1410   6.960   5.990   2.297
  171SOL     OW 1411   3.526   4.163   0.283
  171SOL    HW1 1412   3.433   4.134   0.309
  171SOL    HW2 1413   3.570   4.090   0.232
  172SOL     OW 1414   0.101   2.134   6.489
  172SOL    HW1 1415   0.061   2.080   6.415
  172SOL    HW2 1416   0.145   2.072   6.555
  173SOL     OW 1417   6.993   1.732   4.082
  173SOL    HW1 1418   7.012   1.827   4.058
  173SOL    HW2 1419   6.900   1.708   4.051
  174SOL     OW 1420   5.703   5.433   5.413
  174SOL    HW1 1421   5.654   5.392   5.490
  174SOL    HW2 1422   5.737   5.361   5.353
  175SOL     OW 1423   0.562   0.157   1.082
  175SOL    HW1 1424   0.582   0.099   1.003
  175SOL    HW2 1425   0.483   0.214   1.062
  176SOL     OW 1426   6.062   4.293   1.448
  176SOL    HW1 1427   6.152   4.334   1.432
  176SOL    HW2 1428   5.994   4.365   1.462
  177SOL     OW 1429   6.063   2.815   4.480
  177SOL    HW1 1430   6.116   2.898   4.461
  177SOL    HW2 1431   5.979   2.840   4.527
  178SOL     OW 1432   2.023   6.315   6.093
  178SOL    HW1 1433   2.102   6.358   6.136
  178SOL    HW2 1434   2.008   6.224   6.131
  179SOL     OW 1435   2.934   4.693   1.216
  179SOL    HW1 1436   3.022   4.741   1.224
  179SOL    HW2 1437   2.933   4.638   1.132
  180SOL     OW 1438   3.986   1.157   0.571
  180SOL    HW1 1439   3.991   1.220   0.494
  180SOL    HW2 1440   4.076   1.118   0.588
  181SOL     OW 1441   3.265   2.307   5.777
  181SOL    HW1 1442   3.335   2.277   5.842
  181SOL    HW2 1443   3.309   2.348   5.697
  182SOL     OW 1444   4.262   2.849   7.013
  182SOL    HW1 1445   4.294   2.900   6.933
  182SOL    HW2 1446   4.182   2.794   6.988
  183SOL     OW 1447   3.275   1.368   3.306
  183SOL    HW1 1448   3.328   1.425   3.369
  183SOL    HW2 1449   3.182   1.358   3.340
  184SOL     OW 1450   5.306   6.089   3.572
  184SOL    HW1 1451   5.257   6.002   3.559
  184SOL    HW2 1452   5.335   6.124   3.483
  185SOL     OW 1453   6.770   0.706   3.819
  185SOL    HW1 1454   6.861   0.730   3.786
  185SOL    HW2 1455   6.722   0.653   3.750
  186SOL     OW 1456   4.440   6.413   3.593
  186SOL    HW1 1457   4.442   6.511   3.609
  186SOL    HW2 1458   4.533   6.377   3.592
  187SOL     OW 1459   4.113   6.470   1.803
  187SOL    HW1 1460   4.082   6.424   1.886
  187SOL    HW2 1461   4.100   6.410   1.725
  188SOL     OW 1462   1.599   3.447   3.495
  188SOL    HW1 1463   1.680   3.499   3.521
  188SOL    HW2 1464   1.542   3.431   3.576
  189SOL     OW 1465   6.096   4.862   6.196
  189SOL    HW1 1466   6.165   4.924   6.159
  189SOL    HW2 1467   6.020   4.853   6.132
  190SOL     OW 1468   5.816   0.670   6.979
  190SOL    HW1 1469   5.845   0.643   6.887
  190SOL    HW2 1470   5.838   0.597   0.018
  191SOL     OW 1471   0.033   1.256   5.041
  191SOL    HW1 1472   0.032   1.261   4.941
  191SOL    HW2 1473   6.966   1.269   5.076
  192SOL     OW 1474   0.558   5.621   0.798
  192SOL    HW1 1475   0.461   5.596   0.796
  192SOL    HW2 1476   0.575   5.695   0.733
  193SOL     OW 1477   2.931   6.010   6.967
  193SOL    HW1 1478   2.917   6.080   0.012
  193SOL    HW2 1479   2.848   5.954   6.959
  194SOL     OW 1480   4.111   6.484   2.400
  194SOL    HW1 1481   4.027   6.431   2.388
  194SOL    HW2 1482   4.190   6.424   2.393
  195SOL     OW 1483   3.942   1.032   0.961
  195SOL    HW1 1484   3.881   1.077   1.026
  195SOL    HW2 1485   4.032   1.017   1.002
  196SOL     OW 1486   3.152   1.827   0.113
  196SOL    HW1 1487   3.114   1.876   0.191
  196SOL    HW2 1488   3.244   1.860   0.093
  197SOL     OW 1489   2.288   6.850   0.415
  197SOL    HW1 1490   2.251   6.914   0.348
  197SOL    HW2 1491   2.225   6.774   0.427
  198SOL     OW 1492   4.355   0.643   6.343
  198SOL    HW1 1493   4.371   0.550   6.308
  198SOL    HW2 1494   4.335   0.704   6.267
  199SOL     OW 1495   0.350   0.150   3.209
  199SOL    HW1 1496   0.270   0.121   3.262
  199SOL    HW2 1497   0.347   0.108   3.118
  200SOL     OW 1498   0.593   3.964   3.177
  200SOL    HW1 1499   0.528   4.030   3.214
  200SOL    HW2 1500   0.552   3.919   3.098
  201SOL     OW 1501   4.027   1.181   6.319
  201SOL    HW1 1502   3.975   1.246   6.374
  201SOL    HW2 1503   4.108   1.152   6.370
  202SOL     OW 1504   3.135   0.134   2.841
  202SOL    HW1 1505   3.085   0.220   2.848
  202SOL    HW2 1506   3.233   0.153   2.843
  203SOL     OW 1507   5.528   3.009   6.559
  203SOL    HW1 1508   5.568   3.091   6.602
  203SOL    HW2 1509   5.431   3.025   6.541
  204SOL     OW 1510   2.353   6.710   1.410
  204SOL    HW1 1511   2.262   6.669   1.420
  204SOL    HW2 1512   2.381   6.704   1.314
  205SOL     OW 1513   6.123   1.346   0.273
  205SOL    HW1 1514   6.208   1.298   0.294
  205SOL    HW2 1515   6.046   1.296   0.313
  206SOL     OW 1516   1.140   4.576   1.737
  206SOL    HW1 1517   1.164   4.657   1.683
  206SOL    HW2 1518   1.053   4.592   1.784
  207SOL     OW 1519   4.914   0.457   5.416
  207SOL    HW1 1520   4.943   0.363   5.436
  207SOL    HW2 1521   4.816   0.466   5.434
  208SOL     OW 1522   3.778   4.546   6.161
  208SOL    HW1 1523   3.784   4.448   6.182
  208SOL    HW2 1524   3.862   4.591   6.190
  209SOL     OW 1525   6.672   5.982   5.544
  209SOL    HW1 1526   6.653   5.932   5.629
  209SOL    HW2 1527   6.678   5.918   5.468
  210SOL     OW 1528   4.067   2.545   1.662
  210SOL    HW1 1529   3.968   2.553   1.656
  210SOL    HW2 1530   4.108   2.576   1.576
  211SOL     OW 1531   1.946   2.135   1.683
  211SOL    HW1 1532   1.871   2.149   1.619
  211SOL    HW2 1533   2.022   2.089   1.635
  212SOL     OW 1534   0.488   5.734   3.429
  212SOL    HW1 1535   0.450   5.644   3.445
  212SOL    HW2 1536   0.462   5.765   3.337
  213SOL     OW 1537   4.876   2.243   0.071
  213SOL    HW1 1538   4.917   2.225   0.161
  213SOL    HW2 1539   4.898   2.337   0.043
  214SOL     OW 1540   1.587   0.484   3.072
  214SOL    HW1 1541   1.568   0.515   3.165
  214SOL    HW2 1542   1.673   0.524   3.040
  215SOL     OW 1543   3.321   3.385   2.937
  215SOL    HW1 1544   3.282   3.399   3.028
  215SOL    HW2 1545   3.272   3.442   2.871
  216SOL     OW 1546   0.736   6.442   5.864
  216SOL    HW1 1547   0.835   6.456   5.867
  216SOL    HW2 1548   0.699   6.479   5.779
  217SOL     OW 1549   1.133   3.070   3.182
  217SOL    HW1 1550   1.161   3.030   3.095
  217SOL    HW2 1551   1.202   3.050   3.252
  218SOL     OW 1552   1.089   4.202   5.425
  218SOL    HW1 1553   1.172   4.193   5.479
  218SOL    HW2 1554   1.012   4.223   5.485
  219SOL     OW 1555   4.829   5.223   6.841
  219SOL    HW1 1556   4.840   5.142   6.783
  219SOL    HW2 1557   4.904   5.229   6.906
  220SOL     OW 1558   3.238   4.624   1.069
  220SOL    HW1 1559   3.271   4.713   1.040
  220SOL    HW2 1560   3.186   4.582   0.995
  221SOL     OW 1561   5.803   1.907   4.331
  221SOL    HW1 1562   5.753   1.876   4.411
  221SOL    HW2 1563   5.870   1.976   4.359
  222SOL     OW 1564   1.128   6.618   5.060
  222SOL    HW1 1565   1.151   6.521   5.050
  222SOL    HW2 1566   1.038   6.636   5.020
  223SOL     OW 1567   6.364   3.550   1.570
  223SOL    HW1 1568   6.339   3.616   1.500
  223SOL    HW2 1569   6.402   3.598   1.649
  224SOL     OW 1570   3.139   2.379   1.664
  224SOL    HW1 1571   3.224   2.340   1.699
  224SOL    HW2 1572   3.074   2.393   1.739
  225SOL     OW 1573   6.298   0.451   6.809
  225SOL    HW1 1574   6.266   0.466   6.716
  225SOL    HW2 1575   6.306   0.539   6.856
  226SOL     OW 1576   6.263   5.486   1.020
  226SOL    HW1 1577   6.238   5.581   1.040
  226SOL    HW2 1578   6.265   5.434   1.106
  227SOL     OW 1579   1.681   2.751   4.174
  227SOL    HW1 1580   1.717   2.675   4.228
  227SOL    HW2 1581   1.730   2.835   4.197
  228SOL     OW 1582   3.845   0.274   3.279
  228SOL    HW1 1583   3.802   0.252   3.366
  228SOL    HW2 1584   3.829   0.371   3.258
  229SOL     OW 1585   6.106   5.584   2.623
  229SOL    HW1 1586   6.048   5.562   2.702
  229SOL    HW2 1587   6.093   5.515   2.552
  230SOL     OW 1588   1.750   4.649   5.311
  230SOL    HW1 1589   1.706   4.652   5.222
  230SOL    HW2 1590   1.708   4.717   5.372
  231SOL     OW 1591   0.815   2.246   6.686
  231SOL    HW1 1592   0.782   2.303   6.610
  231SOL    HW2 1593   0.857   2.163   6.650
  232SOL     OW 1594   1.856   4.795   6.727
  232SOL    HW1 1595   1.815   4.704   6.727
  232SOL    HW2 1596   1.823   4.846   6.647
  233SOL     OW 1597   2.593   1.181   6.133
  233SOL    HW1 1598   2.602   1.236   6.216
  233SOL    HW2 1599   2.557   1.237   6.059
  234SOL     OW 1600   2.919   5.921   0.329
  234SOL    HW1 1601   2.889   6.000   0.275
  234SOL    HW2 1602   2.867   5.841   0.300
  235SOL     OW 1603   3.042   3.517   5.009
  235SOL    HW1 1604   3.023   3.531   5.106
  235SOL    HW2 1605   3.020   3.422   4.984
  236SOL     OW 1606   0.039   2.212   5.064
  236SOL    HW1 1607   0.130   2.251   5.072
  236SOL    HW2 1608   0.031   2.132   5.123
  237SOL     OW 1609   0.353   7.022   1.219
  237SOL    HW1 1610   0.418   6.967   1.271
  237SOL    HW2 1611   0.401   0.074   1.178
  238SOL     OW 1612   6.073   2.387   2.720
  238SOL    HW1 1613   6.016   2.379   2.638
  238SOL    HW2 1614   6.027   2.446   2.787
  239SOL     OW 1615   6.940   5.908   0.230
  239SOL    HW1 1616   0.010   5.913   0.258
  239SOL    HW2 1617   6.932   5.845   0.152
  240SOL     OW 1618   6.752   3.493   5.880
  240SOL    HW1 1619   6.694   3.424   5.837
  240SOL    HW2 1620   6.848   3.472   5.860
  241SOL     OW 1621   0.682   0.759   3.235
  241SOL    HW1 1622   0.674   0.781   3.137
  241SOL    HW2 1623   0.732   0.832   3.281
  242SOL     OW 1624   1.694   3.457   3.923
  242SOL    HW1 1625   1.692   3.557   3.921
  242SOL    HW2 1626   1.724   3.426   4.013
  243SOL     OW 1627   4.781   6.941   5.209
  243SOL    HW1 1628   4.761   6.871   5.278
  243SOL    HW2 1629   4.713   6.935   5.135
  244SOL     OW 1630   6.488   1.929   5.779
  244SOL    HW1 1631   6.442   1.883   5.856
  244SOL    HW2 1632   6.421   1.955   5.710
  245SOL     OW 1633   6.171   1.594   3.625
  245SOL    HW1 1634   6.178   1.693   3.637
  245SOL    HW2 1635   6.248   1.549   3.671
  246SOL     OW 1636   5.122   3.344   3.323
  246SOL    HW1 1637   5.125   3.347   3.423
  246SOL    HW2 1638   5.032   3.376   3.291
  247SOL     OW 1639   2.801   1.537   3.284
  247SOL    HW1 1640   2.766   1.556   3.192
  247SOL    HW2 1641   2.830   1.622   3.327
  248SOL     OW 1642   6.063   1.433   2.923
  248SOL    HW1 1643   6.084   1.501   2.853
  248SOL    HW2 1644   6.051   1.343   2.881
  249SOL     OW 1645   3.519   0.276   3.740
  249SOL    HW1 1646   3.445   0.212   3.760
  249SOL    HW2 1647   3.601   0.250   3.789
  250SOL     OW 1648   4.804   2.931   6.024
  250SOL    HW1 1649   4.881   2.986   5.991
  250SOL    HW2 1650   4.836   2.839   6.047
  251SOL     OW 1651   2.875   2.386   1.287
  251SOL    HW1 1652   2.961   2.389   1.237
  251SOL    HW2 1653   2.846   2.479   1.310
  252SOL     OW 1654   0.421   1.199   5.794
  252SOL    HW1 1655   0.402   1.237   5.704
  252SOL    HW2 1656   0.466   1.267   5.851
  253SOL     OW 1657   2.815   3.842   6.079
  253SOL    HW1 1658   2.734   3.797   6.042
  253SOL    HW2 1659   2.866   3.778   6.137
  254SOL     OW 1660   5.905   3.158   4.951
  254SOL    HW1 1661   5.937   3.147   5.045
  254SOL    HW2 1662   5.972   3.121   4.888
  255SOL     OW 1663   3.454   1.937   4.292
  255SOL    HW1 1664   3.428   1.951   4.197
  255SOL    HW2 1665   3.518   1.861   4.299
  256SOL     OW 1666   6.224   5.967   6.554
  256SOL    HW1 1667   6.157   5.893   6.554
  256SOL    HW2 1668   6.227   6.009   6.644
  257SOL     OW 1669   3.259   5.862   6.093
  257SOL    HW1 1670   3.198   5.893   6.165
  257SOL    HW2 1671   3.234   5.768   6.066
  258SOL     OW 1672   5.417   3.979   4.011
  258SOL    HW1 1673   5.440   4.073   4.037
  258SOL    HW2 1674   5.425   3.970   3.912
  259SOL     OW 1675   0.870   2.647   2.924
  259SOL    HW1 1676   0.919   2.574   2.971
  259SOL    HW2 1677   0.894   2.647   2.827
  260SOL     OW 1678   6.210   0.106   6.163
  260SOL    HW1 1679   6.137   0.147   6.109
  260SOL    HW2 1680   6.297   0.151   6.141
  261SOL     OW 1681   0.750   2.596   2.473
  261SOL    HW1 1682   0.733   2.544   2.557
  261SOL    HW2 1683   0.774   2.533   2.399
  262SOL     OW 1684   1.156   5.335   2.145
  262SOL    HW1 1685   1.224   5.386   2.091
  262SOL    HW2 1686   1.081   5.396   2.170
  263SOL     OW 1687   1.129   2.301   4.102
  263SOL    HW1 1688   1.153   2.241   4.179
  263SOL    HW2 1689   1.037   2.281   4.071
  264SOL     OW 1690   3.244   4.891   6.595
  264SOL    HW1 1691   3.227   4.851   6.685
  264SOL    HW2 1692   3.328   4.946   6.598
  265SOL     OW 1693   5.243   4.571   5.236
  265SOL    HW1 1694   5.310   4.547   5.306
  265SOL    HW2 1695   5.163   4.511   5.246
  266SOL     OW 1696   3.700   2.461   0.431
  266SOL    HW1 1697   3.743   2.429   0.347
  266SOL    HW2 1698   3.620   2.406   0.452
  267SOL     OW 1699   1.227   1.853   5.824
  267SOL    HW1 1700   1.233   1.771   5.768
  267SOL    HW2 1701   1.133   1.887   5.824
  268SOL     OW 1702   3.441   5.041   4.308
  268SOL    HW1 1703   3.461   5.137   4.290
  268SOL    HW2 1704   3.355   5.033   4.358
  269SOL     OW 1705   1.211   0.994   5.736
  269SOL    HW1 1706   1.142   0.974   5.805
  269SOL    HW2 1707   1.297   1.021   5.780
  270SOL     OW 1708   4.964   1.273   4.053
  270SOL    HW1 1709   5.048   1.308   4.094
  270SOL    HW2 1710   4.983   1.187   4.006
  271SOL     OW 1711   1.864   0.868   6.977
  271SOL    HW1 1712   1.862   0.768   6.986
  271SOL    HW2 1713   1.776   0.906   7.004
  272SOL     OW 1714   3.979   5.488   3.184
  272SOL    HW1 1715   3.944   5.582   3.183
  272SOL    HW2 1716   4.073   5.487   3.151
  273SOL     OW 1717   2.744   6.848   5.274
  273SOL    HW1 1718   2.840   6.856   5.302
  273SOL    HW2 1719   2.686   6.837   5.355
  274SOL     OW 1720   5.778   2.137   1.269
  274SOL    HW1 1721   5.774   2.045   1.310
  274SOL    HW2 1722   5.791   2.128   1.171
  275SOL     OW 1723   6.164   6.150   5.021
  275SOL    HW1 1724   6.066   6.158   5.036
  275SOL    HW2 1725   6.213   6.183   5.102
  276SOL     OW 1726   6.478   6.425   3.493
  276SOL    HW1 1727   6.576   6.440   3.505
  276SOL    HW2 1728   6.463   6.365   3.415
  277SOL     OW 1729   5.390   1.167   5.428
  277SOL    HW1 1730   5.380   1.128   5.336
  277SOL    HW2 1731   5.300   1.190   5.464
  278SOL     OW 1732   6.080   2.942   2.730
  278SOL    HW1 1733   6.033   2.938   2.818
  278SOL    HW2 1734   6.063   3.031   2.688
  279SOL     OW 1735   0.173   3.094   4.364
  279SOL    HW1 1736   0.208   3.017   4.418
  279SOL    HW2 1737   0.227   3.176   4.383
  280SOL     OW 1738   3.352   1.011   3.462
  280SOL    HW1 1739   3.395   0.922   3.478
  280SOL    HW2 1740   3.404   1.061   3.392
  281SOL     OW 1741   5.321   5.781   3.938
  281SOL    HW1 1742   5.246   5.716   3.939
  281SOL    HW2 1743   5.408   5.732   3.937
  282SOL     OW 1744   2.773   1.754   0.340
  282SOL    HW1 1745   2.761   1.797   0.251
  282SOL    HW2 1746   2.744   1.658   0.336
  283SOL     OW 1747   6.738   2.168   4.627
  283SOL    HW1 1748   6.821   2.159   4.683
  283SOL    HW2 1749   6.735   2.260   4.588
  284SOL     OW 1750   5.220   5.727   3.182
  284SOL    HW1 1751   5.267   5.688   3.103
  284SOL    HW2 1752   5.230   5.826   3.181
  285SOL     OW 1753   4.494   0.305   5.785
  285SOL    HW1 1754   4.408   0.344   5.818
  285SOL    HW2 1755   4.476   0.216   5.742
  286SOL     OW 1756   2.200   4.899   5.194
  286SOL    HW1 1757   2.255   4.829   5.150
  286SOL    HW2 1758   2.219   4.988   5.153
  287SOL     OW 1759   3.610   0.415   6.224
  287SOL    HW1 1760   3.565   0.337   6.268
  287SOL    HW2 1761   3.679   0.381   6.160
  288SOL     OW 1762   4.274   0.470   1.005
  288SOL    HW1 1763   4.258   0.438   0.912
  288SOL    HW2 1764   4.243   0.565   1.013
  289SOL     OW 1765   6.155   5.941   3.279
  289SOL    HW1 1766   6.128   5.846   3.296
  289SOL    HW2 1767   6.078   6.002   3.296
  290SOL     OW 1768   3.299   0.754   5.926
  290SOL    HW1 1769   3.370   0.685   5.936
  290SOL    HW2 1770   3.340   0.842   5.903
  291SOL     OW 1771   3.167   6.927   5.093
  291SOL    HW1 1772   3.231   6.908   5.018
  291SOL    HW2 1773   3.073   6.922   5.058
  292SOL     OW 1774   4.476   6.624   4.027
  292SOL    HW1 1775   4.394   6.587   3.984
  292SOL    HW2 1776   4.452   6.703   4.082
  293SOL     OW 1777   5.716   0.072   2.279
  293SOL    HW1 1778   5.708   0.016   2.361
  293SOL    HW2 1779   5.799   0.048   2.229
  294SOL     OW 1780   6.663   0.823   6.145
  294SOL    HW1 1781   6.622   0.883   6.214
  294SOL    HW2 1782   6.754   0.856   6.121
  295SOL     OW 1783   1.410   1.306   5.093
  295SOL    HW1 1784   1.353   1.228   5.067
  295SOL    HW2 1785   1.422   1.366   5.015
  296SOL     OW 1786   6.949   2.563   1.395
  296SOL    HW1 1787   6.908   2.605   1.314
  296SOL    HW2 1788   6.892   2.487   1.426
  297SOL     OW 1789   4.810   3.050   4.139
  297SOL    HW1 1790   4.724   3.039   4.088
  297SOL    HW2 1791   4.809   3.139   4.186
  298SOL     OW 1792   3.996   0.508   6.314
  298SOL    HW1 1793   4.018   0.580   6.380
  298SOL    HW2 1794   4.012   0.418   6.356
  299SOL     OW 1795   1.441   0.847   6.787
  299SOL    HW1 1796   1.388   0.844   6.871
  299SOL    HW2 1797   1.468   0.941   6.768
  300SOL     OW 1798   4.226   6.824   3.468
  300SOL    HW1 1799   4.285   6.799   3.392
  300SOL    HW2 1800   4.282   6.840   3.550
  301SOL     OW 1801   6.661   5.539   1.097
  301SOL    HW1 1802   6.757   5.524   1.075
  301SOL    HW2 1803   6.608   5.543   1.012
  302SOL     OW 1804   0.142   5.539   1.746
  302SOL    HW1 1805   0.142   5.492   1.834
  302SOL    HW2 1806   0.193   5.485   1.679
  303SOL     OW 1807   5.485   5.882   3.082
  303SOL    HW1 1808   5.536   5.951   3.029
  303SOL    HW2 1809   5.534   5.863   3.167
  304SOL     OW 1810   2.298   5.789   4.597
  304SOL    HW1 1811   2.290   5.753   4.505
  304SOL    HW2 1812   2.211   5.781   4.645
  305SOL     OW 1813   0.862   3.096   2.012
  305SOL    HW1 1814   0.876   3.170   2.078
  305SOL    HW2 1815   0.918   3.017   2.038
  306SOL     OW 1816   0.398   6.131   2.835
  306SOL    HW1 1817   0.314   6.083   2.860
  306SOL    HW2 1818   0.404   6.137   2.735
  307SOL     OW 1819   3.065   3.362   3.494
  307SOL    HW1 1820   2.997   3.347   3.565
  307SOL    HW2 1821   3.028   3.423   3.424
  308SOL     OW 1822   5.275   2.206   3.688
  308SOL    HW1 1823   5.310   2.235   3.599
  308SOL    HW2 1824   5.298   2.275   3.756
  309SOL     OW 1825   1.217   6.714   6.384
  309SOL    HW1 1826   1.307   6.747   6.413
  309SOL    HW2 1827   1.212   6.615   6.395
  310SOL     OW 1828   5.057   6.904   5.228
  310SOL    HW1 1829   5.058   6.949   5.318
  310SOL    HW2 1830   4.964   6.873   5.208
  311SOL     OW 1831   1.951   5.663   2.852
  311SOL    HW1 1832   1.897   5.746   2.836
  311SOL    HW2 1833   1.928   5.595   2.782
  312SOL     OW 1834   4.735   1.977   3.252
  312SOL    HW1 1835   4.816   2.019   3.211
  312SOL    HW2 1836   4.759   1.936   3.340
  313SOL     OW 1837   4.089   3.641   2.897
  313SOL    HW1 1838   4.169   3.695   2.873
  313SOL    HW2 1839   4.057   3.667   2.988
  314SOL     OW 1840   2.405   5.877   6.246
  314SOL    HW1 1841   2.409   5.822   6.330
  314SOL    HW2 1842   2.317   5.862   6.201
  315SOL     OW 1843   6.358   1.425   3.269
  315SOL    HW1 1844   6.270   1.379   3.263
  315SOL    HW2 1845   6.352   1.515   3.226
  316SOL     OW 1846   3.394   1.431   5.941
  316SOL    HW1 1847   3.457   1.354   5.943
  316SOL    HW2 1848   3.357   1.442   5.849
  317SOL     OW 1849   1.462   1.673   1.771
  317SOL    HW1 1850   1.503   1.764   1.779
  317SOL    HW2 1851   1.392   1.663   1.842
  318SOL     OW 1852   1.072   0.405   5.089
  318SOL    HW1 1853   0.990   0.445   5.047
  318SOL    HW2 1854   1.050   0.314   5.123
  319SOL     OW 1855   1.475   1.495   2.431
  319SOL    HW1 1856   1.496   1.506   2.333
  319SOL    HW2 1857   1.503   1.404   2.461
  320SOL     OW 1858   5.955   1.804   6.050
  320SOL    HW1 1859   5.972   1.724   6.107
  320SOL    HW2 1860   5.917   1.878   6.106
  321SOL     OW 1861   4.460   3.415   0.777
  321SOL    HW1 1862   4.539   3.447   0.831
  321SOL    HW2 1863   4.377   3.421   0.833
  322SOL     OW 1864   3.546   3.322   5.949
  322SOL    HW1 1865   3.559   3.317   6.048
  322SOL    HW2 1866   3.448   3.326   5.929
  323SOL     OW 1867   0.413   3.447   2.433
  323SOL    HW1 1868   0.473   3.446   2.513
  323SOL    HW2 1869   0.385   3.541   2.413
  324SOL     OW 1870   0.318   0.147   3.647
  324SOL    HW1 1871   0.332   0.150   3.746
  324SOL    HW2 1872   0.235   0.097   3.626
  325SOL     OW 1873   0.013   4.005   2.025
  325SOL    HW1 1874   0.098   4.001   1.973
  325SOL    HW2 1875   6.962   3.979   1.966
  326SOL     OW 1876   0.861   6.486   6.373
  326SOL    HW1 1877   0.873   6.518   6.467
  326SOL    HW2 1878   0.858   6.564   6.310
  327SOL     OW 1879   4.647   5.718   4.055
  327SOL    HW1 1880   4.605   5.640   4.102
  327SOL    HW2 1881   4.576   5.784   4.030
  328SOL     OW 1882   2.113   3.998   2.232
  328SOL    HW1 1883   2.056   3.918   2.215
  328SOL    HW2 1884   2.177   4.010   2.155
  329SOL     OW 1885   3.126   3.382   2.201
  329SOL    HW1 1886   3.090   3.473   2.225
  329SOL    HW2 1887   3.051   3.323   2.172
  330SOL     OW 1888   3.177   5.831   0.733
  330SOL    HW1 1889   3.215   5.915   0.770
  330SOL    HW2 1890   3.104   5.853   0.669
  331SOL     OW 1891   5.746   5.126   6.718
  331SOL    HW1 1892   5.698   5.076   6.645
  331SOL    HW2 1893   5.812   5.066   6.761
  332SOL     OW 1894   5.560   1.684   3.184
  332SOL    HW1 1895   5.632   1.722   3.242
  332SOL    HW2 1896   5.495   1.634   3.241
  333SOL     OW 1897   3.594   0.682   5.543
  333SOL    HW1 1898   3.532   0.755   5.516
  333SOL    HW2 1899   3.562   0.595   5.506
  334SOL     OW 1900   4.097   3.315   3.468
  334SOL    HW1 1901   4.151   3.398   3.482
  334SOL    HW2 1902   4.044   3.322   3.384
  335SOL     OW 1903   3.759   7.022   6.762
  335SOL    HW1 1904   3.669   6.991   6.792
  335SOL    HW2 1905   3.777   0.087   6.802
  336SOL     OW 1906   2.719   2.030   3.810
  336SOL    HW1 1907   2.669   2.068   3.888
  336SOL    HW2 1908   2.791   2.094   3.782
  337SOL     OW 1909   1.993   0.335   6.171
  337SOL    HW1 1910   2.040   0.377   6.094
  337SOL    HW2 1911   1.948   0.406   6.225
  338SOL     OW 1912   4.210   1.481   1.073
  338SOL    HW1 1913   4.210   1.514   0.978
  338SOL    HW2 1914   4.174   1.388   1.075
  339SOL     OW 1915   3.943   5.508   5.256
  339SOL    HW1 1916   3.918   5.599   5.290
  339SOL    HW2 1917   4.038   5.489   5.278
  340SOL     OW 1918   4.616   2.101   3.790
  340SOL    HW1 1919   4.711   2.078   3.811
  340SOL    HW2 1920   4.574   2.025   3.741
  341SOL     OW 1921   5.492   6.790   2.964
  341SOL    HW1 1922   5.549   6.828   3.037
  341SOL    HW2 1923   5.484   6.691   2.975
  342SOL     OW 1924   4.293   2.299   2.332
  342SOL    HW1 1925   4.382   2.345   2.324
  342SOL    HW2 1926   4.259   2.277   2.240
  343SOL     OW 1927   0.140   5.939   2.697
  343SOL    HW1 1928   0.176   5.931   2.791
  343SOL    HW2 1929   0.086   5.858   2.675
  344SOL     OW 1930   2.639   2.009   1.581
  344SOL    HW1 1931   2.678   2.096   1.551
  344SOL    HW2 1932   2.589   2.022   1.667
  345SOL     OW 1933   6.828   3.572   4.135
  345SOL    HW1 1934   6.860   3.656   4.093
  345SOL    HW2 1935   6.729   3.564   4.124
  346SOL     OW 1936   1.936   0.000   3.495
  346SOL    HW1 1937   1.874   0.075   3.517
  346SOL    HW2 1938   2.007   0.034   3.432
  347SOL     OW 1939   3.167   5.061   0.605
  347SOL    HW1 1940   3.242   5.016   0.556
  347SOL    HW2 1941   3.142   5.005   0.685
  348SOL     OW 1942   4.259   5.465   1.481
  348SOL    HW1 1943   4.336   5.439   1.422
  348SOL    HW2 1944   4.173   5.442   1.435
  349SOL     OW 1945   6.294   4.437   1.444
  349SOL    HW1 1946   6.286   4.508   1.374
  349SOL    HW2 1947   6.347   4.473   1.521
  350SOL     OW 1948   3.233   3.129   0.612
  350SOL    HW1 1949   3.215   3.042   0.564
  350SOL    HW2 1950   3.152   3.156   0.664
  351SOL     OW 1951   3.409   4.195   1.551
  351SOL    HW1 1952   3.335   4.168   1.612
  351SOL    HW2 1953   3.472   4.256   1.600
  352SOL     OW 1954   4.113   0.272   3.156
  352SOL    HW1 1955   4.015   0.251   3.156
  352SOL    HW2 1956   4.129   0.355   3.210
  353SOL     OW 1957   1.884   6.075   0.018
  353SOL    HW1 1958   1.796   6.044   7.008
  353SOL    HW2 1959   1.920   6.148   6.985
  354SOL     OW 1960   0.235   2.524   0.307
  354SOL    HW1 1961   0.161   2.495   0.369
  354SOL    HW2 1962   0.319   2.535   0.359
  355SOL     OW 1963   1.987   2.004   2.306
  355SOL    HW1 1964   1.949   1.912   2.292
  355SOL    HW2 1965   1.921   2.059   2.358
  356SOL     OW 1966   0.896   6.656   6.169
  356SOL    HW1 1967   0.923   6.640   6.075
  356SOL    HW2 1968   0.938   6.740   6.203
  357SOL     OW 1969   5.847   6.493   4.689
  357SOL    HW1 1970   5.793   6.577   4.678
  357SOL    HW2 1971   5.914   6.487   4.615
  358SOL     OW 1972   4.182   5.731   0.324
  358SOL    HW1 1973   4.099   5.783   0.302
  358SOL    HW2 1974   4.263   5.788   0.303
  359SOL     OW 1975   2.418   2.475   2.781
  359SOL    HW1 1976   2.394   2.557   2.730
  359SOL    HW2 1977   2.518   2.468   2.788
  360SOL     OW 1978   1.545   5.072   4.645
  360SOL    HW1 1979   1.468   5.013   4.667
  360SOL    HW2 1980   1.551   5.084   4.546
  361SOL     OW 1981   6.311   6.986   3.379
  361SOL    HW1 1982   6.326   6.927   3.300
  361SOL    HW2 1983   6.254   6.939   3.446
  362SOL     OW 1984   4.243   4.969   1.064
  362SOL    HW1 1985   4.232   5.039   0.994
  362SOL    HW2 1986   4.340   4.963   1.090
  363SOL     OW 1987   5.021   5.535   2.234
  363SOL    HW1 1988   4.934   5.530   2.185
  363SOL    HW2 1989   5.084   5.594   2.183
  364SOL     OW 1990   0.527   5.805   6.430
  364SOL    HW1 1991   0.466   5.819   6.508
  364SOL    HW2 1992   0.494   5.729   6.374
  365SOL     OW 1993   4.901   2.178   3.119
  365SOL    HW1 1994   4.947   2.239   3.054
  365SOL    HW2 1995   4.841   2.231   3.178
  366SOL     OW 1996   5.627   2.507   0.152
  366SOL    HW1 1997   5.538   2.473   0.181
  366SOL    HW2 1998   5.667   2.443   0.087
  367SOL     OW 1999   4.716   2.095   5.400
  367SOL    HW1 2000   4.711   2.105   5.499
  367SOL    HW2 2001   4.763   2.174   5.361
  368SOL     OW 2002   6.353   2.351   5.879
  368SOL    HW1 2003   6.331   2.257   5.853
  368SOL    HW2 2004   6.403   2.351   5.965
  369SOL     OW 2005   5.860   3.358   2.202
  369SOL    HW1 2006   5.943   3.303   2.210
  369SOL    HW2 2007   5.811   3.333   2.118
  370SOL     OW 2008   2.162   3.625   4.404
  370SOL    HW1 2009   2.187   3.720   4.422
  370SOL    HW2 2010   2.214   3.565   4.464
  371SOL     OW 2011   1.360   4.497   7.020
  371SOL    HW1 2012   1.423   4.572   6.996
  371SOL    HW2 2013   1.271   4.535   0.019
  372SOL     OW 2014   3.875   6.555   6.691
  372SOL    HW1 2015   3.791   6.582   6.644
  372SOL    HW2 2016   3.917   6.478   6.644
  373SOL     OW 2017   5.676   5.764   4.189
  373SOL    HW1 2018   5.688   5.772   4.288
  373SOL    HW2 2019   5.731   5.834   4.143
  374SOL     OW 2020   2.786   2.084   2.536
  374SOL    HW1 2021   2.729   2.110   2.459
  374SOL    HW2 2022   2.728   2.053   2.612
  375SOL     OW 2023   1.023   4.974   4.932
  375SOL    HW1 2024   1.100   4.919   4.965
  375SOL    HW2 2025   0.967   5.003   5.010
  376SOL     OW 2026   2.443   0.984   4.705
  376SOL    HW1 2027   2.477   1.044   4.777
  376SOL    HW2 2028   2.344   0.974   4.714
  377SOL     OW 2029   0.896   2.095   6.395
  377SOL    HW1 2030   0.971   2.048   6.441
  377SOL    HW2 2031   0.933   2.161   6.329
  378SOL     OW 2032   3.638   0.988   1.738
  378SOL    HW1 2033   3.666   0.900   1.776
  378SOL    HW2 2034   3.702   1.015   1.667
  379SOL     OW 2035   6.319   2.084   5.589
  379SOL    HW1 2036   6.351   2.002   5.542
  379SOL    HW2 2037   6.221   2.095   5.573
  380SOL     OW 2038   4.263   2.017   0.777
  380SOL    HW1 2039   4.236   1.940   0.719
  380SOL    HW2 2040   4.250   1.993   0.873
  381SOL     OW 2041   1.392   3.990   3.249
  381SOL    HW1 2042   1.387   4.088   3.268
  381SOL    HW2 2043   1.478   3.969   3.203
  382SOL     OW 2044   5.230   0.756   0.052
  382SOL    HW1 2045   5.140   0.791   0.025
  382SOL    HW2 2046   5.301   0.811   0.009
  383SOL     OW 2047   4.199   3.384   0.856
  383SOL    HW1 2048   4.203   3.409   0.953
  383SOL    HW2 2049   4.214   3.286   0.846
  384SOL     OW 2050   5.926   4.405   4.772
  384SOL    HW1 2051   5.844   4.360   4.807
  384SOL    HW2 2052   5.923   4.503   4.794
  385SOL     OW 2053   4.733   4.734   0.340
  385SOL    HW1 2054   4.804   4.794   0.377
  385SOL    HW2 2055   4.775   4.647   0.313
  386SOL     OW 2056   3.148   6.924   3.978
  386SOL    HW1 2057   3.062   6.973   3.996
  386SOL    HW2 2058   3.169   6.864   4.055
  387SOL     OW 2059   2.022   5.741   3.938
  387SOL    HW1 2060   2.039   5.756   3.841
  387SOL    HW2 2061   2.109   5.738   3.987
  388SOL     OW 2062   2.369   2.997   6.179
  388SOL    HW1 2063   2.278   2.960   6.159
  388SOL    HW2 2064   2.437   2.924   6.175
  389SOL     OW 2065   2.989   3.885   3.402
  389SOL    HW1 2066   2.972   3.822   3.479
  389SOL    HW2 2067   2.953   3.844   3.318
  390SOL     OW 2068   1.927   1.318   4.447
  390SOL    HW1 2069   1.878   1.240   4.408
  390SOL    HW2 2070   1.978   1.288   4.527
  391SOL     OW 2071   1.013   2.987   0.243
  391SOL    HW1 2072   1.034   3.001   0.340
  391SOL    HW2 2073   0.975   2.895   0.230
  392SOL     OW 2074   2.071   4.752   2.472
  392SOL    HW1 2075   2.098   4.734   2.377
  392SOL    HW2 2076   2.140   4.714   2.534
  393SOL     OW 2077   5.824   4.523   5.192
  393SOL    HW1 2078   5.830   4.441   5.135
  393SOL    HW2 2079   5.729   4.550   5.203
  394SOL     OW 2080   1.133   6.842   1.002
  394SOL    HW1 2081   1.157   6.788   0.922
  394SOL    HW2 2082   1.156   6.938   0.985
  395SOL     OW 2083   5.358   3.912   1.645
  395SOL    HW1 2084   5.361   3.814   1.668
  395SOL    HW2 2085   5.449   3.941   1.616
  396SOL     OW 2086   3.129   4.059   3.541
  396SOL    HW1 2087   3.078   3.983   3.500
  396SOL    HW2 2088   3.206   4.084   3.482
  397SOL     OW 2089   4.393   2.225   5.584
  397SOL    HW1 2090   4.365   2.271   5.500
  397SOL    HW2 2091   4.409   2.292   5.656
  398SOL     OW 2092   1.023   5.434   2.373
  398SOL    HW1 2093   0.937   5.385   2.381
  398SOL    HW2 2094   1.099   5.375   2.399
  399SOL     OW 2095   4.725   5.386   1.564
  399SOL    HW1 2096   4.819   5.353   1.565
  399SOL    HW2 2097   4.662   5.309   1.581
  400SOL     OW 2098   0.318   6.072   5.219
  400SOL    HW1 2099   0.279   5.982   5.238
  400SOL    HW2 2100   0.366   6.105   5.301
  401SOL     OW 2101   4.622   1.952   6.605
  401SOL    HW1 2102   4.524   1.944   6.620
  401SOL    HW2 2103   4.656   2.034   6.652
  402SOL     OW 2104   6.246   5.853   2.062
  402SOL    HW1 2105   6.182   5.800   2.117
  402SOL    HW2 2106   6.260   5.943   2.104
  403SOL     OW 2107   4.861   1.943   5.679
  403SOL    HW1 2108   4.807   1.859   5.677
  403SOL    HW2 2109   4.799   2.022   5.678
  404SOL     OW 2110   0.544   6.954   4.704
  404SOL    HW1 2111   0.491   6.873   4.679
  404SOL    HW2 2112   0.519   0.004   4.644
  405SOL     OW 2113   1.109   1.991   0.632
  405SOL    HW1 2114   1.164   1.968   0.712
  405SOL    HW2 2115   1.147   1.946   0.551
  406SOL     OW 2116   1.464   2.646   4.687
  406SOL    HW1 2117   1.379   2.659   4.740
  406SOL    HW2 2118   1.442   2.641   4.590
  407SOL     OW 2119   2.928   0.304   5.518
  407SOL    HW1 2120   2.886   0.356   5.592
  407SOL    HW2 2121   2.856   0.269   5.458
  408SOL     OW 2122   1.299   0.100   3.792
  408SOL    HW1 2123   1.275   0.013   3.750
  408SOL    HW2 2124   1.236   0.171   3.762
  409SOL     OW 2125   6.130   3.481   3.374
  409SOL    HW1 2126   6.032   3.475   3.392
  409SOL    HW2 2127   6.177   3.506   3.459
  410SOL     OW 2128   2.628   0.476   6.912
  410SOL    HW1 2129   2.558   0.530   6.865
  410SOL    HW2 2130   2.598   0.381   6.919
  411SOL     OW 2131   6.047   4.122   5.509
  411SOL    HW1 2132   6.077   4.097   5.601
  411SOL    HW2 2133   6.102   4.072   5.442
  412SOL     OW 2134   3.577   0.015   2.706
  412SOL    HW1 2135   3.668   7.025   2.667
  412SOL    HW2 2136   3.565   6.984   2.787
  413SOL     OW 2137   3.204   6.086   0.895
  413SOL    HW1 2138   3.148   6.162   0.861
  413SOL    HW2 2139   3.222   6.099   0.992
  414SOL     OW 2140   4.653   4.756   0.730
  414SOL    HW1 2141   4.728   4.816   0.704
  414SOL    HW2 2142   4.602   4.729   0.648
  415SOL     OW 2143   1.878   6.335   1.713
  415SOL    HW1 2144   1.808   6.400   1.743
  415SOL    HW2 2145   1.848   6.242   1.736
  416SOL     OW 2146   4.329   6.484   4.771
  416SOL    HW1 2147   4.322   6.499   4.673
  416SOL    HW2 2148   4.281   6.557   4.820
  417SOL     OW 2149   3.654   6.230   2.229
  417SOL    HW1 2150   3.655   6.232   2.129
  417SOL    HW2 2151   3.703   6.149   2.262
  418SOL     OW 2152   4.836   5.946   0.429
  418SOL    HW1 2153   4.815   5.855   0.391
  418SOL    HW2 2154   4.835   5.941   0.529
  419SOL     OW 2155   0.097   6.992   0.925
  419SOL    HW1 2156   0.167   6.980   0.996
  419SOL    HW2 2157   0.010   6.957   0.958
  420SOL     OW 2158   5.834   3.879   0.302
  420SOL    HW1 2159   5.772   3.942   0.255
  420SOL    HW2 2160   5.782   3.799   0.333
  421SOL     OW 2161   2.667   5.885   6.990
  421SOL    HW1 2162   2.596   5.901   0.033
  421SOL    HW2 2163   2.663   5.790   6.960
  422SOL     OW 2164   6.327   4.261   0.123
  422SOL    HW1 2165   6.416   4.280   0.081
  422SOL    HW2 2166   6.296   4.342   0.172
  423SOL     OW 2167   6.127   2.695   0.134
  423SOL    HW1 2168   6.191   2.704   0.211
  423SOL    HW2 2169   6.090   2.784   0.110
  424SOL     OW 2170   3.188   4.203   0.374
  424SOL    HW1 2171   3.094   4.229   0.399
  424SOL    HW2 2172   3.252   4.264   0.420
  425SOL     OW 2173   4.693   1.177   1.373
  425SOL    HW1 2174   4.757   1.113   1.331
  425SOL    HW2 2175   4.599   1.145   1.359
  426SOL     OW 2176   4.999   2.536   5.731
  426SOL    HW1 2177   5.008   2.437   5.742
  426SOL    HW2 2178   5.006   2.560   5.634
  427SOL     OW 2179   5.585   4.070   1.472
  427SOL    HW1 2180   5.549   4.001   1.408
  427SOL    HW2 2181   5.672   4.105   1.438
  428SOL     OW 2182   4.242   0.581   5.235
  428SOL    HW1 2183   4.283   0.577   5.143
  428SOL    HW2 2184   4.251   0.673   5.271
  429SOL     OW 2185   1.629   4.810   0.315
  429SOL    HW1 2186   1.724   4.797   0.286
  429SOL    HW2 2187   1.617   4.773   0.407
  430SOL     OW 2188   1.142   7.010   4.609
  430SOL    HW1 2189   1.050   6.972   4.619
  430SOL    HW2 2190   1.182   6.978   4.523
  431SOL     OW 2191   3.843   1.829   0.318
  431SOL    HW1 2192   3.753   1.852   0.354
  431SOL    HW2 2193   3.870   1.896   0.249
  432SOL     OW 2194   6.907   2.086   0.339
  432SOL    HW1 2195   7.002   2.060   0.325
  432SOL    HW2 2196   6.890   2.175   0.295
  433SOL     OW 2197   2.907   6.694   4.947
  433SOL    HW1 2198   2.902   6.664   5.042
  433SOL    HW2 2199   2.891   6.615   4.887
  434SOL     OW 2200   6.002   3.601   1.013
  434SOL    HW1 2201   5.950   3.535   1.066
  434SOL    HW2 2202   6.033   3.558   0.928
  435SOL     OW 2203   3.182   3.352   6.149
  435SOL    HW1 2204   3.232   3.437   6.167
  435SOL    HW2 2205   3.185   3.295   6.231
  436SOL     OW 2206   1.846   0.194   1.500
  436SOL    HW1 2207   1.857   0.254   1.580
  436SOL    HW2 2208   1.767   0.224   1.447
  437SOL     OW 2209   0.201   0.125   6.241
  437SOL    HW1 2210   0.102   0.141   6.250
  437SOL    HW2 2211   0.242   0.202   6.191
  438SOL     OW 2212   1.519   3.072   1.966
  438SOL    HW1 2213   1.461   3.154   1.968
  438SOL    HW2 2214   1.601   3.089   2.020
  439SOL     OW 2215   6.445   4.724   2.493
  439SOL    HW1 2216   6.409   4.660   2.424
  439SOL    HW2 2217   6.375   4.791   2.515
  440SOL     OW 2218   0.878   2.567   4.339
  440SOL    HW1 2219   0.900   2.478   4.300
  440SOL    HW2 2220   0.957   2.628   4.329
  441SOL     OW 2221   2.102   1.379   3.109
  441SOL    HW1 2222   2.049   1.448   3.060
  441SOL    HW2 2223   2.120   1.411   3.202
  442SOL     OW 2224   0.039   4.088   7.024
  442SOL    HW1 2225   0.012   4.139   6.943
  442SOL    HW2 2226   7.005   4.112   0.075
  443SOL     OW 2227   1.464   4.382   5.283
  443SOL    HW1 2228   1.545   4.329   5.307
  443SOL    HW2 2229   1.392   4.321   5.251
  444SOL     OW 2230   4.167   2.624   6.232
  444SOL    HW1 2231   4.177   2.629   6.332
  444SOL    HW2 2232   4.245   2.575   6.193
  445SOL     OW 2233   2.418   4.957   3.517
  445SOL    HW1 2234   2.461   4.993   3.434
  445SOL    HW2 2235   2.362   4.877   3.494
  446SOL     OW 2236   3.535   4.967   3.741
  446SOL    HW1 2237   3.438   4.954   3.718
  446SOL    HW2 2238   3.592   4.919   3.675
  447SOL     OW 2239   0.053   4.426   0.138
  447SOL    HW1 2240   0.001   4.355   0.186
  447SOL    HW2 2241   0.011   4.515   0.156
  448SOL     OW 2242   3.928   0.654   5.150
  448SOL    HW1 2243   3.964   0.745   5.128
  448SOL    HW2 2244   4.003   0.588   5.150
  449SOL     OW 2245   6.054   1.410   4.654
  449SOL    HW1 2246   5.992   1.389   4.578
  449SOL    HW2 2247   6.088   1.503   4.645
  450SOL     OW 2248   6.995   6.096   3.639
  450SOL    HW1 2249   7.004   6.039   3.558
  450SOL    HW2 2250   6.898   6.114   3.657
  451SOL     OW 2251   0.911   2.123   2.466
  451SOL    HW1 2252   0.955   2.180   2.535
  451SOL    HW2 2253   0.966   2.042   2.449
  452SOL     OW 2254   0.016   4.976   0.381
  452SOL    HW1 2255   0.042   5.023   0.465
  452SOL    HW2 2256   0.081   4.901   0.363
  453SOL     OW 2257   3.278   1.324   0.250
  453SOL    HW1 2258   3.213   1.252   0.227
  453SOL    HW2 2259   3.255   1.407   0.199
  454SOL     OW 2260   0.236   5.779   6.292
  454SOL    HW1 2261   0.191   5.839   6.358
  454SOL    HW2 2262   0.243   5.826   6.204
  455SOL     OW 2263   5.715   0.299   4.042
  455SOL    HW1 2264   5.685   0.269   3.951
  455SOL    HW2 2265   5.813   0.321   4.040
  456SOL     OW 2266   4.110   5.938   6.114
  456SOL    HW1 2267   4.049   5.859   6.105
  456SOL    HW2 2268   4.099   5.998   6.034
  457SOL     OW 2269   2.220   4.019   3.355
  457SOL    HW1 2270   2.214   4.042   3.452
  457SOL    HW2 2271   2.191   3.924   3.342
  458SOL     OW 2272   5.587   5.961   5.923
  458SOL    HW1 2273   5.660   6.029   5.916
  458SOL    HW2 2274   5.579   5.929   6.017
  459SOL     OW 2275   0.855   0.167   2.768
  459SOL    HW1 2276   0.776   0.202   2.818
  459SOL    HW2 2277   0.867   0.069   2.787
  460SOL     OW 2278   0.063   1.694   2.304
  460SOL    HW1 2279   0.086   1.655   2.215
  460SOL    HW2 2280   0.065   1.622   2.374
  461SOL     OW 2281   4.487   6.768   5.121
  461SOL    HW1 2282   4.399   6.721   5.127
  461SOL    HW2 2283   4.549   6.714   5.064
  462SOL     OW 2284   3.269   2.492   6.111
  462SOL    HW1 2285   3.327   2.574   6.106
  462SOL    HW2 2286   3.197   2.498   6.042
  463SOL     OW 2287   6.110   5.137   3.082
  463SOL    HW1 2288   6.027   5.170   3.126
  463SOL    HW2 2289   6.136   5.200   3.009
  464SOL     OW 2290   1.966   1.089   6.542
  464SOL    HW1 2291   2.038   1.095   6.611
  464SOL    HW2 2292   1.905   1.013   6.563
  465SOL     OW 2293   0.707   1.591   4.151
  465SOL    HW1 2294   0.615   1.559   4.128
  465SOL    HW2 2295   0.744   1.534   4.225
  466SOL     OW 2296   0.447   6.758   3.558
  466SOL    HW1 2297   0.450   6.856   3.536
  466SOL    HW2 2298   0.428   6.747   3.656
  467SOL     OW 2299   0.777   0.258   6.103
  467SOL    HW1 2300   0.709   0.302   6.160
  467SOL    HW2 2301   0.742   0.170   6.070
  468SOL     OW 2302   4.112   5.734   0.947
  468SOL    HW1 2303   4.017   5.705   0.950
  468SOL    HW2 2304   4.118   5.825   0.907
  469SOL     OW 2305   2.289   5.373   0.453
  469SOL    HW1 2306   2.250   5.304   0.392
  469SOL    HW2 2307   2.389   5.371   0.447
  470SOL     OW 2308   4.510   0.394   2.129
  470SOL    HW1 2309   4.507   0.349   2.218
  470SOL    HW2 2310   4.604   0.389   2.093
  471SOL     OW 2311   1.636   2.417   4.352
  471SOL    HW1 2312   1.587   2.430   4.266
  471SOL    HW2 2313   1.596   2.340   4.402
  472SOL     OW 2314   4.697   4.473   6.050
  472SOL    HW1 2315   4.759   4.547   6.076
  472SOL    HW2 2316   4.751   4.395   6.018
  473SOL     OW 2317   0.252   2.617   1.723
  473SOL    HW1 2318   0.194   2.538   1.702
  473SOL    HW2 2319   0.252   2.632   1.822
  474SOL     OW 2320   4.247   5.150   4.155
  474SOL    HW1 2321   4.258   5.200   4.069
  474SOL    HW2 2322   4.300   5.066   4.152
  475SOL     OW 2323   6.590   6.855   6.491
  475SOL    HW1 2324   6.500   6.816   6.472
  475SOL    HW2 2325   6.657   6.817   6.428
  476SOL     OW 2326   6.432   3.913   2.368
  476SOL    HW1 2327   6.482   3.950   2.289
  476SOL    HW2 2328   6.426   3.983   2.439
  477SOL     OW 2329   2.270   5.041   4.746
  477SOL    HW1 2330   2.181   5.083   4.763
  477SOL    HW2 2331   2.279   4.958   4.801
  478SOL     OW 2332   3.326   5.976   3.148
  478SOL    HW1 2333   3.295   5.910   3.079
  478SOL    HW2 2334   3.384   5.929   3.215
  479SOL     OW 2335   3.040   1.961   0.359
  479SOL    HW1 2336   2.951   1.914   0.351
  479SOL    HW2 2337   3.039   2.021   0.439
  480SOL     OW 2338   1.324   6.960   1.548
  480SOL    HW1 2339   1.243   6.902   1.560
  480SOL    HW2 2340   1.393   6.933   1.614
  481SOL     OW 2341   2.450   1.001   1.604
  481SOL    HW1 2342   2.371   0.942   1.617
  481SOL    HW2 2343   2.446   1.044   1.513
  482SOL     OW 2344   5.074   4.284   2.594
  482SOL    HW1 2345   5.074   4.224   2.674
  482SOL    HW2 2346   5.090   4.229   2.512
  483SOL     OW 2347   5.282   2.200   1.653
  483SOL    HW1 2348   5.265   2.133   1.581
  483SOL    HW2 2349   5.260   2.160   1.742
  484SOL     OW 2350   0.704   3.012   4.435
  484SOL    HW1 2351   0.719   2.913   4.435
  484SOL    HW2 2352   0.697   3.044   4.341
  485SOL     OW 2353   3.372   4.874   2.309
  485SOL    HW1 2354   3.405   4.967   2.322
  485SOL    HW2 2355   3.441   4.821   2.260
  486SOL     OW 2356   1.178   1.349   0.948
  486SOL    HW1 2357   1.144   1.255   0.940
  486SOL    HW2 2358   1.258   1.350   1.007
  487SOL     OW 2359   0.992   2.188   6.936
  487SOL    HW1 2360   0.898   2.162   6.915
  487SOL    HW2 2361   1.049   2.181   6.854
  488SOL     OW 2362   1.165   1.439   1.568
  488SOL    HW1 2363   1.066   1.430   1.576
  488SOL    HW2 2364   1.189   1.534   1.550
  489SOL     OW 2365   3.508   5.684   6.922
  489SOL    HW1 2366   3.549   5.598   6.953
  489SOL    HW2 2367   3.543   5.759   6.978
  490SOL     OW 2368   6.306   6.427   4.405
  490SOL    HW1 2369   6.246   6.465   4.334
  490SOL    HW2 2370   6.266   6.446   4.495
  491SOL     OW 2371   0.148   2.863   2.776
  491SOL    HW1 2372   0.065   2.917   2.786
  491SOL    HW2 2373   0.200   2.865   2.861
  492SOL     OW 2374   3.415   0.496   5.429
  492SOL    HW1 2375   3.403   0.561   5.354
  492SOL    HW2 2376   3.337   0.502   5.492
  493SOL     OW 2377   6.656   4.898   6.314
  493SOL    HW1 2378   6.623   4.830   6.249
  493SOL    HW2 2379   6.581   4.958   6.341
  494SOL     OW 2380   0.199   5.856   6.828
  494SOL    HW1 2381   0.161   5.773   6.787
  494SOL    HW2 2382   0.125   5.908   6.871
  495SOL     OW 2383   5.067   5.156   2.480
  495SOL    HW1 2384   5.139   5.103   2.524
  495SOL    HW2 2385   4.991   5.095   2.457
  496SOL     OW 2386   5.327   2.729   2.948
  496SOL    HW1 2387   5.237   2.710   2.907
  496SOL    HW2 2388   5.332   2.826   2.973
  497SOL     OW 2389   3.582   1.256   5.010
  497SOL    HW1 2390   3.501   1.257   5.069
  497SOL    HW2 2391   3.643   1.330   5.037
  498SOL     OW 2392   1.002   3.320   2.160
  498SOL    HW1 2393   0.959   3.335   2.249
  498SOL    HW2 2394   1.089   3.369   2.156
  499SOL     OW 2395   3.011   0.831   4.396
  499SOL    HW1 2396   2.913   0.835   4.378
  499SOL    HW2 2397   3.060   0.882   4.325
  500SOL     OW 2398   0.960   4.530   3.701
  500SOL    HW1 2399   0.884   4.501   3.758
  500SOL    HW2 2400   0.929   4.543   3.607
  501SOL     OW 2401   2.392   1.968   0.188
  501SOL    HW1 2402   2.467   1.988   0.125
  501SOL    HW2 2403   2.334   2.048   0.197
  502SOL     OW 2404   5.652   4.392   5.672
  502SOL    HW1 2405   5.607   4.480   5.658
  502SOL    HW2 2406   5.638   4.364   5.767
  503SOL     OW 2407   6.383   4.276   6.173
  503SOL    HW1 2408   6.382   4.314   6.080
  503SOL    HW2 2409   6.290   4.277   6.210
  504SOL     OW 2410   2.153   6.353   4.341
  504SOL    HW1 2411   2.242   6.340   4.385
  504SOL    HW2 2412   2.080   6.334   4.406
  505SOL     OW 2413   4.028   0.215   5.845
  505SOL    HW1 2414   4.097   0.270   5.894
  505SOL    HW2 2415   4.067   0.126   5.822
  506SOL     OW 2416   1.901   4.903   4.791
  506SOL    HW1 2417   1.812   4.926   4.829
  506SOL    HW2 2418   1.952   4.987   4.771
  507SOL     OW 2419   2.715   0.046   4.600
  507SOL    HW1 2420   2.771   6.990   4.587
  507SOL    HW2 2421   2.696   0.057   4.698
  508SOL     OW 2422   6.050   3.220   2.706
  508SOL    HW1 2423   6.135   3.227   2.758
  508SOL    HW2 2424   6.036   3.304   2.654
  509SOL     OW 2425   4.005   0.792   1.797
  509SOL    HW1 2426   3.913   0.801   1.835
  509SOL    HW2 2427   3.999   0.771   1.700
  510SOL     OW 2428   6.962   4.881   5.482
  510SOL    HW1 2429   6.982   4.807   5.418
  510SOL    HW2 2430   6.874   4.922   5.459
  511SOL     OW 2431   0.045   6.514   6.862
  511SOL    HW1 2432   0.045   6.492   6.764
  511SOL    HW2 2433   0.135   6.497   6.901
  512SOL     OW 2434   0.807   2.783   0.257
  512SOL    HW1 2435   0.736   2.797   0.326
  512SOL    HW2 2436   0.765   2.752   0.172
  513SOL     OW 2437   5.755   6.063   2.723
  513SOL    HW1 2438   5.849   6.051   2.755
  513SOL    HW2 2439   5.753   6.135   2.654
  514SOL     OW 2440   6.817   2.616   4.178
  514SOL    HW1 2441   6.912   2.595   4.202
  514SOL    HW2 2442   6.757   2.545   4.213
  515SOL     OW 2443   2.633   6.796   6.068
  515SOL    HW1 2444   2.558   6.745   6.111
  515SOL    HW2 2445   2.704   6.813   6.137
  516SOL     OW 2446   2.854   4.696   1.666
  516SOL    HW1 2447   2.950   4.673   1.649
  516SOL    HW2 2448   2.821   4.644   1.745
  517SOL     OW 2449   5.132   6.619   2.241
  517SOL    HW1 2450   5.158   6.687   2.173
  517SOL    HW2 2451   5.087   6.665   2.318
  518SOL     OW 2452   2.362   2.320   1.796
  518SOL    HW1 2453   2.348   2.337   1.699
  518SOL    HW2 2454   2.425   2.388   1.834
  519SOL     OW 2455   7.009   0.682   4.802
  519SOL    HW1 2456   6.982   0.587   4.789
  519SOL    HW2 2457   0.045   0.710   4.728
  520SOL     OW 2458   5.479   4.515   6.345
  520SOL    HW1 2459   5.559   4.513   6.404
  520SOL    HW2 2460   5.402   4.471   6.391
  521SOL     OW 2461   6.270   1.642   6.248
  521SOL    HW1 2462   6.181   1.600   6.228
  521SOL    HW2 2463   6.340   1.601   6.190
  522SOL     OW 2464   3.961   3.047   5.223
  522SOL    HW1 2465   4.027   2.980   5.257
  522SOL    HW2 2466   3.969   3.131   5.276
  523SOL     OW 2467   6.821   6.193   3.984
  523SOL    HW1 2468   6.796   6.188   4.080
  523SOL    HW2 2469   6.809   6.102   3.942
  524SOL     OW 2470   2.862   0.928   6.497
  524SOL    HW1 2471   2.805   0.938   6.579
  524SOL    HW2 2472   2.813   0.964   6.418
  525SOL     OW 2473   2.579   3.758   6.485
  525SOL    HW1 2474   2.508   3.817   6.446
  525SOL    HW2 2475   2.592   3.678   6.427
  526SOL     OW 2476   2.701   5.660   5.096
  526SOL    HW1 2477   2.676   5.600   5.020
  526SOL    HW2 2478   2.796   5.689   5.086
  527SOL     OW 2479   6.449   1.792   6.013
  527SOL    HW1 2480   6.439   1.818   6.109
  527SOL    HW2 2481   6.497   1.705   6.007
  528SOL     OW 2482   1.710   1.261   4.110
  528SOL    HW1 2483   1.614   1.231   4.110
  528SOL    HW2 2484   1.755   1.230   4.194
  529SOL     OW 2485   0.807   4.905   4.723
  529SOL    HW1 2486   0.879   4.948   4.777
  529SOL    HW2 2487   0.778   4.820   4.767
  530SOL     OW 2488   2.592   2.981   5.453
  530SOL    HW1 2489   2.514   2.996   5.514
  530SOL    HW2 2490   2.571   3.017   5.362
  531SOL     OW 2491   0.408   1.031   1.115
  531SOL    HW1 2492   0.389   0.943   1.159
  531SOL    HW2 2493   0.498   1.064   1.144
  532SOL     OW 2494   0.615   1.881   6.071
  532SOL    HW1 2495   0.660   1.938   6.003
  532SOL    HW2 2496   0.516   1.894   6.065
  533SOL     OW 2497   5.066   6.443   4.524
  533SOL    HW1 2498   5.050   6.398   4.612
  533SOL    HW2 2499   5.028   6.535   4.526
  534SOL     OW 2500   4.629   5.445   3.812
  534SOL    HW1 2501   4.649   5.394   3.896
  534SOL    HW2 2502   4.541   5.492   3.821
  535SOL     OW 2503   0.732   4.108   3.840
  535SOL    HW1 2504   0.687   4.188   3.879
  535SOL    HW2 2505   0.762   4.047   3.913
  536SOL     OW 2506   0.393   5.326   1.394
  536SOL    HW1 2507   0.471   5.316   1.332
  536SOL    HW2 2508   0.308   5.326   1.340
  537SOL     OW 2509   1.964   6.172   3.828
  537SOL    HW1 2510   1.970   6.156   3.926
  537SOL    HW2 2511   1.919   6.095   3.783
  538SOL     OW 2512   1.041   5.455   3.695
  538SOL    HW1 2513   1.001   5.374   3.654
  538SOL    HW2 2514   1.098   5.429   3.773
  539SOL     OW 2515   1.133   5.215   1.658
  539SOL    HW1 2516   1.040   5.227   1.693
  539SOL    HW2 2517   1.129   5.209   1.558
  540SOL     OW 2518   0.668   2.139   2.589
  540SOL    HW1 2519   0.580   2.111   2.550
  540SOL    HW2 2520   0.739   2.131   2.519
  541SOL     OW 2521   3.162   6.443   4.864
  541SOL    HW1 2522   3.068   6.451   4.899
  541SOL    HW2 2523   3.224   6.494   4.924
  542SOL     OW 2524   6.247   6.355   0.021
  542SOL    HW1 2525   6.270   6.451   0.004
  542SOL    HW2 2526   6.312   6.316   0.086
  543SOL     OW 2527   0.925   5.036   6.592
  543SOL    HW1 2528   0.968   5.108   6.646
  543SOL    HW2 2529   0.945   4.946   6.632
  544SOL     OW 2530   0.888   4.896   1.041
  544SOL    HW1 2531   0.859   4.868   1.132
  544SOL    HW2 2532   0.940   4.981   1.046
  545SOL     OW 2533   3.828   1.411   3.375
  545SOL    HW1 2534   3.786   1.494   3.337
  545SOL    HW2 2535   3.921   1.402   3.339
  546SOL     OW 2536   1.131   3.490   1.405
  546SOL    HW1 2537   1.123   3.390   1.414
  546SOL    HW2 2538   1.040   3.531   1.411
  547SOL     OW 2539   2.308   2.383   0.334
  547SOL    HW1 2540   2.340   2.358   0.425
  547SOL    HW2 2541   2.219   2.427   0.341
  548SOL     OW 2542   4.118   3.445   3.822
  548SOL    HW1 2543   4.159   3.366   3.775
  548SOL    HW2 2544   4.028   3.464   3.782
  549SOL     OW 2545   5.486   3.454   1.621
  549SOL    HW1 2546   5.430   3.521   1.669
  549SOL    HW2 2547   5.441   3.365   1.624
  550SOL     OW 2548   6.744   3.032   2.634
  550SOL    HW1 2549   6.701   3.001   2.550
  550SOL    HW2 2550   6.840   3.054   2.616
  551SOL     OW 2551   6.888   1.847   0.516
  551SOL    HW1 2552   6.793   1.819   0.502
  551SOL    HW2 2553   6.899   1.942   0.487
  552SOL     OW 2554   3.781   5.320   0.692
  552SOL    HW1 2555   3.841   5.400   0.691
  552SOL    HW2 2556   3.825   5.245   0.643
  553SOL     OW 2557   1.839   0.541   2.417
  553SOL    HW1 2558   1.913   0.605   2.393
  553SOL    HW2 2559   1.867   0.448   2.394
  554SOL     OW 2560   5.549   6.626   6.039
  554SOL    HW1 2561   5.572   6.534   6.008
  554SOL    HW2 2562   5.611   6.692   5.997
  555SOL     OW 2563   2.178   4.752   4.247
  555SOL    HW1 2564   2.177   4.676   4.312
  555SOL    HW2 2565   2.200   4.837   4.296
  556SOL     OW 2566   6.172   2.356   3.935
  556SOL    HW1 2567   6.134   2.402   3.854
  556SOL    HW2 2568   6.113   2.373   4.014
  557SOL     OW 2569   6.985   6.026   6.277
  557SOL    HW1 2570   6.949   5.934   6.259
  557SOL    HW2 2571   6.909   6.092   6.279
  558SOL     OW 2572   4.209   3.615   5.344
  558SOL    HW1 2573   4.237   3.528   5.302
  558SOL    HW2 2574   4.160   3.670   5.276
  559SOL     OW 2575   6.858   5.780   6.273
  559SOL    HW1 2576   6.913   5.760   6.354
  559SOL    HW2 2577   6.769   5.736   6.283
  560SOL     OW 2578   4.610   6.344   6.883
  560SOL    HW1 2579   4.549   6.423   6.874
  560SOL    HW2 2580   4.597   6.301   6.972
  561SOL     OW 2581   5.758   6.821   0.053
  561SOL    HW1 2582   5.795   6.780   6.995
  561SOL    HW2 2583   5.809   6.787   0.132
  562SOL     OW 2584   5.110   0.926   6.142
  562SOL    HW1 2585   5.054   0.950   6.222
  562SOL    HW2 2586   5.200   0.894   6.173
  563SOL     OW 2587   2.771   6.359   4.009
  563SOL    HW1 2588   2.763   6.350   3.910
  563SOL    HW2 2589   2.844   6.423   4.031
  564SOL     OW 2590   2.111   1.739   6.283
  564SOL    HW1 2591   2.095   1.827   6.238
  564SOL    HW2 2592   2.134   1.670   6.214
  565SOL     OW 2593   4.497   3.619   5.622
  565SOL    HW1 2594   4.487   3.675   5.540
  565SOL    HW2 2595   4.452   3.531   5.609
  566SOL     OW 2596   4.166   4.794   3.256
  566SOL    HW1 2597   4.120   4.816   3.170
  566SOL    HW2 2598   4.263   4.775   3.239
  567SOL     OW 2599   3.632   3.204   4.130
  567SOL    HW1 2600   3.611   3.228   4.225
  567SOL    HW2 2601   3.700   3.131   4.128
  568SOL     OW 2602   2.950   2.496   0.070
  568SOL    HW1 2603   2.932   2.524   7.001
  568SOL    HW2 2604   2.887   2.543   0.131
  569SOL     OW 2605   1.832   2.740   0.530
  569SOL    HW1 2606   1.883   2.677   0.588
  569SOL    HW2 2607   1.747   2.697   0.499
  570SOL     OW 2608   1.502   6.700   0.451
  570SOL    HW1 2609   1.579   6.759   0.428
  570SOL    HW2 2610   1.500   6.684   0.549
  571SOL     OW 2611   3.581   5.397   2.971
  571SOL    HW1 2612   3.546   5.314   2.927
  571SOL    HW2 2613   3.624   5.455   2.902
  572SOL     OW 2614   2.034   4.034   5.917
  572SOL    HW1 2615   2.049   4.008   6.012
  572SOL    HW2 2616   2.092   4.112   5.894
  573SOL     OW 2617   4.508   1.229   5.007
  573SOL    HW1 2618   4.527   1.210   4.911
  573SOL    HW2 2619   4.454   1.313   5.015
  574SOL     OW 2620   2.230   2.202   4.287
  574SOL    HW1 2621   2.237   2.181   4.384
  574SOL    HW2 2622   2.287   2.281   4.265
  575SOL     OW 2623   6.778   3.095   0.517
  575SOL    HW1 2624   6.775   3.182   0.566
  575SOL    HW2 2625   6.844   3.034   0.561
  576SOL     OW 2626   0.818   2.736   2.235
  576SOL    HW1 2627   0.901   2.685   2.261
  576SOL    HW2 2628   0.740   2.701   2.286
  577SOL     OW 2629   2.214   1.971   3.550
  577SOL    HW1 2630   2.292   2.033   3.538
  577SOL    HW2 2631   2.130   2.025   3.561
  578SOL     OW 2632   0.293   3.208   3.293
  578SOL    HW1 2633   0.354   3.285   3.274
  578SOL    HW2 2634   0.325   3.127   3.242
  579SOL     OW 2635   3.921   1.711   0.747
  579SOL    HW1 2636   3.875   1.796   0.725
  579SOL    HW2 2637   3.854   1.640   0.766
  580SOL     OW 2638   1.117   5.206   6.812
  580SOL    HW1 2639   1.136   5.290   6.864
  580SOL    HW2 2640   1.027   5.171   6.839
  581SOL     OW 2641   3.499   3.164   2.913
  581SOL    HW1 2642   3.432   3.236   2.930
  581SOL    HW2 2643   3.540   3.176   2.823
  582SOL     OW 2644   5.558   3.905   2.821
  582SOL    HW1 2645   5.538   3.975   2.890
  582SOL    HW2 2646   5.607   3.830   2.864
  583SOL     OW 2647   2.392   4.494   0.095
  583SOL    HW1 2648   2.343   4.528   0.015
  583SOL    HW2 2649   2.409   4.571   0.158
  584SOL     OW 2650   0.560   4.837   5.288
  584SOL    HW1 2651   0.538   4.826   5.191
  584SOL    HW2 2652   0.558   4.747   5.333
  585SOL     OW 2653   0.037   2.300   5.653
  585SOL    HW1 2654   0.018   2.233   5.582
  585SOL    HW2 2655   0.125   2.279   5.696
  586SOL     OW 2656   2.853   6.549   1.224
  586SOL    HW1 2657   2.925   6.549   1.155
  586SOL    HW2 2658   2.856   6.462   1.273
  587SOL     OW 2659   0.980   3.077   6.184
  587SOL    HW1 2660   1.060   3.020   6.166
  587SOL    HW2 2661   0.916   3.027   6.242
  588SOL     OW 2662   3.755   6.896   1.332
  588SOL    HW1 2663   3.841   6.868   1.291
  588SOL    HW2 2664   3.752   6.867   1.428
  589SOL     OW 2665   3.686   4.919   2.651
  589SOL    HW1 2666   3.597   4.878   2.630
  589SOL    HW2 2667   3.673   5.016   2.671
  590SOL     OW 2668   6.985   2.066   1.974
  590SOL    HW1 2669   6.956   2.041   1.882
  590SOL    HW2 2670   0.057   2.048   1.985
  591SOL     OW 2671   3.680   0.392   3.496
  591SOL    HW1 2672   3.670   0.295   3.515
  591SOL    HW2 2673   3.610   0.443   3.546
  592SOL     OW 2674   4.746   0.703   0.815
  592SOL    HW1 2675   4.667   0.711   0.876
  592SOL    HW2 2676   4.722   0.741   0.725
  593SOL     OW 2677   4.731   2.548   3.633
  593SOL    HW1 2678   4.825   2.580   3.639
  593SOL    HW2 2679   4.720   2.465   3.688
  594SOL     OW 2680   4.019   3.759   1.098
  594SOL    HW1 2681   3.998   3.778   1.194
  594SOL    HW2 2682   4.077   3.678   1.091
  595SOL     OW 2683   3.625   6.012   3.983
  595SOL    HW1 2684   3.621   6.105   3.946
  595SOL    HW2 2685   3.533   5.981   4.005
  596SOL     OW 2686   0.534   4.513   2.908
  596SOL    HW1 2687   0.630   4.516   2.936
  596SOL    HW2 2688   0.482   4.581   2.959
  597SOL     OW 2689   4.773   0.272   6.329
  597SOL    HW1 2690   4.777   0.189   6.273
  597SOL    HW2 2691   4.726   0.344   6.278
  598SOL     OW 2692   3.975   4.566   0.297
  598SOL    HW1 2693   3.976   4.663   0.274
  598SOL    HW2 2694   4.062   4.541   0.338
  599SOL     OW 2695   6.829   0.305   2.815
  599SOL    HW1 2696   6.771   0.288   2.896
  599SOL    HW2 2697   6.783   0.270   2.734
  600SOL     OW 2698   1.035   0.123   0.238
  600SOL    HW1 2699   0.968   0.118   0.164
  600SOL    HW2 2700   0.988   0.115   0.326
  601SOL     OW 2701   2.839   5.734   3.790
  601SOL    HW1 2702   2.912   5.671   3.764
  601SOL    HW2 2703   2.764   5.728   3.724
  602SOL     OW 2704   1.702   0.521   1.454
  602SOL    HW1 2705   1.654   0.576   1.386
  602SOL    HW2 2706   1.692   0.424   1.431
  603SOL     OW 2707   4.415   2.051   3.284
  603SOL    HW1 2708   4.515   2.053   3.292
  603SOL    HW2 2709   4.378   2.141   3.307
  604SOL     OW 2710   1.022   3.317   6.313
  604SOL    HW1 2711   1.020   3.241   6.248
  604SOL    HW2 2712   0.990   3.286   6.402
  605SOL     OW 2713   6.270   6.542   3.272
  605SOL    HW1 2714   6.338   6.609   3.241
  605SOL    HW2 2715   6.226   6.501   3.192
  606SOL     OW 2716   3.671   0.517   3.898
  606SOL    HW1 2717   3.684   0.447   3.828
  606SOL    HW2 2718   3.758   0.561   3.918
  607SOL     OW 2719   5.188   1.397   4.143
  607SOL    HW1 2720   5.201   1.490   4.177
  607SOL    HW2 2721   5.245   1.383   4.062
  608SOL     OW 2722   3.924   0.853   0.681
  608SOL    HW1 2723   3.952   0.946   0.705
  608SOL    HW2 2724   3.923   0.844   0.581
  609SOL     OW 2725   3.205   2.939   3.735
  609SOL    HW1 2726   3.168   2.888   3.813
  609SOL    HW2 2727   3.305   2.930   3.735
  610SOL     OW 2728   5.411   2.134   4.414
  610SOL    HW1 2729   5.388   2.059   4.476
  610SOL    HW2 2730   5.374   2.114   4.323
  611SOL     OW 2731   0.144   0.258   0.403
  611SOL    HW1 2732   0.137   0.292   0.309
  611SOL    HW2 2733   0.232   0.212   0.415
  612SOL     OW 2734   3.217   5.597   6.073
  612SOL    HW1 2735   3.141   5.544   6.036
  612SOL    HW2 2736   3.294   5.537   6.092
  613SOL     OW 2737   4.161   1.575   6.069
  613SOL    HW1 2738   4.087   1.511   6.088
  613SOL    HW2 2739   4.127   1.669   6.077
  614SOL     OW 2740   5.677   4.418   0.889
  614SOL    HW1 2741   5.697   4.365   0.806
  614SOL    HW2 2742   5.664   4.514   0.865
  615SOL     OW 2743   0.213   0.090   0.684
  615SOL    HW1 2744   0.216   0.190   0.685
  615SOL    HW2 2745   0.163   0.057   0.764
  616SOL     OW 2746   5.830   1.647   4.187
  616SOL    HW1 2747   5.798   1.741   4.196
  616SOL    HW2 2748   5.836   1.622   4.091
  617SOL     OW 2749   0.365   4.916   5.448
  617SOL    HW1 2750   0.419   4.876   5.374
  617SOL    HW2 2751   0.400   4.882   5.536
  618SOL     OW 2752   5.857   3.541   0.286
  618SOL    HW1 2753   5.784   3.589   0.334
  618SOL    HW2 2754   5.945   3.587   0.303
  619SOL     OW 2755   3.220   0.534   0.681
  619SOL    HW1 2756   3.164   0.614   0.660
  619SOL    HW2 2757   3.250   0.539   0.776
  620SOL     OW 2758   5.853   2.301   1.982
  620SOL    HW1 2759   5.918   2.320   1.909
  620SOL    HW2 2760   5.785   2.235   1.950
  621SOL     OW 2761   2.781   0.672   6.458
  621SOL    HW1 2762   2.795   0.759   6.505
  621SOL    HW2 2763   2.723   0.686   6.378
  622SOL     OW 2764   1.064   1.899   5.044
  622SOL    HW1 2765   1.163   1.910   5.040
  622SOL    HW2 2766   1.023   1.935   4.961
  623SOL     OW 2767   5.835   6.619   4.349
  623SOL    HW1 2768   5.883   6.536   4.376
  623SOL    HW2 2769   5.738   6.610   4.370
  624SOL     OW 2770   6.459   1.290   6.257
  624SOL    HW1 2771   6.501   1.326   6.340
  624SOL    HW2 2772   6.496   1.200   6.237
  625SOL     OW 2773   3.007   0.869   0.816
  625SOL    HW1 2774   3.101   0.904   0.818
  625SOL    HW2 2775   2.985   0.827   0.904
  626SOL     OW 2776   0.687   5.330   3.688
  626SOL    HW1 2777   0.704   5.420   3.647
  626SOL    HW2 2778   0.616   5.283   3.636
  627SOL     OW 2779   6.529   0.338   6.952
  627SOL    HW1 2780   6.440   0.384   6.950
  627SOL    HW2 2781   6.552   0.305   6.860
  628SOL     OW 2782   5.030   4.416   5.424
  628SOL    HW1 2783   5.098   4.366   5.477
  628SOL    HW2 2784   4.993   4.356   5.352
  629SOL     OW 2785   6.996   0.267   6.477
  629SOL    HW1 2786   6.896   0.259   6.476
  629SOL    HW2 2787   7.022   0.363   6.467
  630SOL     OW 2788   6.468   1.769   1.056
  630SOL    HW1 2789   6.429   1.843   1.110
  630SOL    HW2 2790   6.564   1.756   1.082
  631SOL     OW 2791   1.771   2.582   5.020
  631SOL    HW1 2792   1.745   2.539   4.934
  631SOL    HW2 2793   1.871   2.576   5.032
  632SOL     OW 2794   3.668   3.526   7.020
  632SOL    HW1 2795   3.713   3.437   7.022
  632SOL    HW2 2796   3.626   3.544   0.083
  633SOL     OW 2797   1.173   5.951   1.800
  633SOL    HW1 2798   1.266   5.914   1.796
  633SOL    HW2 2799   1.118   5.893   1.860
  634SOL     OW 2800   2.936   3.474   4.301
  634SOL    HW1 2801   2.923   3.427   4.389
  634SOL    HW2 2802   2.918   3.410   4.226
  635SOL     OW 2803   5.590   1.170   6.664
  635SOL    HW1 2804   5.636   1.171   6.575
  635SOL    HW2 2805   5.620   1.248   6.718
  636SOL     OW 2806   3.096   0.308   6.832
  636SOL    HW1 2807   3.087   0.252   6.915
  636SOL    HW2 2808   3.176   0.367   6.841
  637SOL     OW 2809   6.443   0.871   1.209
  637SOL    HW1 2810   6.475   0.958   1.245
  637SOL    HW2 2811   6.496   0.796   1.250
  638SOL     OW 2812   6.306   3.428   4.464
  638SOL    HW1 2813   6.382   3.362   4.459
  638SOL    HW2 2814   6.232   3.389   4.519
  639SOL     OW 2815   4.775   4.678   3.093
  639SOL    HW1 2816   4.704   4.702   3.027
  639SOL    HW2 2817   4.802   4.759   3.145
  640SOL     OW 2818   0.505   2.775   2.432
  640SOL    HW1 2819   0.590   2.748   2.477
  640SOL    HW2 2820   0.428   2.746   2.489
  641SOL     OW 2821   1.956   4.638   4.854
  641SOL    HW1 2822   1.999   4.658   4.942
  641SOL    HW2 2823   1.921   4.722   4.813
  642SOL     OW 2824   1.086   3.723   4.870
  642SOL    HW1 2825   1.163   3.720   4.807
  642SOL    HW2 2826   1.092   3.647   4.935
  643SOL     OW 2827   4.701   5.444   6.775
  643SOL    HW1 2828   4.756   5.366   6.804
  643SOL    HW2 2829   4.666   5.429   6.683
  644SOL     OW 2830   6.527   0.301   4.865
  644SOL    HW1 2831   6.502   0.262   4.777
  644SOL    HW2 2832   6.545   0.227   4.930
  645SOL     OW 2833   4.134   4.777   2.658
  645SOL    HW1 2834   4.219   4.737   2.624
  645SOL    HW2 2835   4.062   4.765   2.590
  646SOL     OW 2836   4.486   0.548   4.978
  646SOL    HW1 2837   4.524   0.523   5.066
  646SOL    HW2 2838   4.410   0.487   4.955
  647SOL     OW 2839   4.930   2.019   5.055
  647SOL    HW1 2840   4.935   2.029   5.154
  647SOL    HW2 2841   5.022   2.015   5.017
  648SOL     OW 2842   6.065   2.095   3.012
  648SOL    HW1 2843   6.115   2.070   3.095
  648SOL    HW2 2844   5.982   2.144   3.038
  649SOL     OW 2845   2.335   4.932   0.584
  649SOL    HW1 2846   2.299   4.838   0.589
  649SOL    HW2 2847   2.398   4.948   0.660
  650SOL     OW 2848   6.921   5.346   0.819
  650SOL    HW1 2849   6.961   5.417   0.878
  650SOL    HW2 2850   6.911   5.261   0.871
  651SOL     OW 2851   1.297   0.296   5.306
  651SOL    HW1 2852   1.246   0.381   5.300
  651SOL    HW2 2853   1.290   0.247   5.219
  652SOL     OW 2854   4.133   0.171   1.555
  652SOL    HW1 2855   4.044   0.190   1.513
  652SOL    HW2 2856   4.128   0.192   1.653
  653SOL     OW 2857   0.393   6.113   1.626
  653SOL    HW1 2858   0.479   6.082   1.666
  653SOL    HW2 2859   0.402   6.118   1.526
  654SOL     OW 2860   6.894   6.784   5.606
  654SOL    HW1 2861   6.811   6.817   5.562
  654SOL    HW2 2862   6.974   6.814   5.555
  655SOL     OW 2863   0.023   4.618   1.923
  655SOL    HW1 2864   0.101   4.569   1.962
  655SOL    HW2 2865   0.022   4.712   1.957
  656SOL     OW 2866   3.657   6.568   0.674
  656SOL    HW1 2867   3.744   6.583   0.719
  656SOL    HW2 2868   3.668   6.576   0.575
  657SOL     OW 2869   3.579   2.740   1.826
  657SOL    HW1 2870   3.502   2.678   1.813
  657SOL    HW2 2871   3.547   2.835   1.821
  658SOL     OW 2872   2.237   4.188   4.450
  658SOL    HW1 2873   2.241   4.260   4.519
  658SOL    HW2 2874   2.282   4.219   4.367
  659SOL     OW 2875   2.252   6.581   6.046
  659SOL    HW1 2876   2.175   6.532   6.005
  659SOL    HW2 2877   2.288   6.647   5.981
  660SOL     OW 2878   4.796   4.272   2.119
  660SOL    HW1 2879   4.700   4.274   2.091
  660SOL    HW2 2880   4.802   4.285   2.218
  661SOL     OW 2881   4.161   4.746   4.106
  661SOL    HW1 2882   4.071   4.789   4.102
  661SOL    HW2 2883   4.183   4.706   4.017
  662SOL     OW 2884   4.938   3.500   0.577
  662SOL    HW1 2885   4.962   3.595   0.557
  662SOL    HW2 2886   4.928   3.449   0.491
  663SOL     OW 2887   0.565   4.701   0.382
  663SOL    HW1 2888   0.665   4.703   0.374
  663SOL    HW2 2889   0.532   4.794   0.395
  664SOL     OW 2890   1.482   6.723   6.480
  664SOL    HW1 2891   1.523   6.752   6.394
  664SOL    HW2 2892   1.480   6.623   6.483
  665SOL     OW 2893   4.143   5.987   0.881
  665SOL    HW1 2894   4.143   6.001   0.980
  665SOL    HW2 2895   4.190   6.063   0.836
  666SOL     OW 2896   3.566   1.936   0.319
  666SOL    HW1 2897   3.558   2.024   0.272
  666SOL    HW2 2898   3.545   1.948   0.416
  667SOL     OW 2899   1.253   3.543   3.042
  667SOL    HW1 2900   1.264   3.620   3.105
  667SOL    HW2 2901   1.230   3.460   3.094
  668SOL     OW 2902   5.004   6.641   0.560
  668SOL    HW1 2903   4.917   6.636   0.512
  668SOL    HW2 2904   5.030   6.549   0.592
  669SOL     OW 2905   1.309   6.334   3.582
  669SOL    HW1 2906   1.402   6.371   3.578
  669SOL    HW2 2907   1.262   6.353   3.496
  670SOL     OW 2908   2.890   3.588   3.853
  670SOL    HW1 2909   2.887   3.595   3.953
  670SOL    HW2 2910   2.809   3.633   3.815
  671SOL     OW 2911   2.473   0.226   6.174
  671SOL    HW1 2912   2.542   0.240   6.245
  671SOL    HW2 2913   2.395   0.177   6.213
  672SOL     OW 2914   2.132   3.456   4.142
  672SOL    HW1 2915   2.198   3.522   4.107
  672SOL    HW2 2916   2.114   3.476   4.239
  673SOL     OW 2917   4.818   0.592   0.464
  673SOL    HW1 2918   4.886   0.637   0.406
  673SOL    HW2 2919   4.733   0.645   0.461
  674SOL     OW 2920   0.505   1.878   3.534
  674SOL    HW1 2921   0.479   1.783   3.518
  674SOL    HW2 2922   0.592   1.881   3.583
  675SOL     OW 2923   0.327   2.251   4.291
  675SOL    HW1 2924   0.372   2.339   4.302
  675SOL    HW2 2925   0.229   2.265   4.272
  676SOL     OW 2926   2.241   4.660   4.624
  676SOL    HW1 2927   2.278   4.567   4.620
  676SOL    HW2 2928   2.263   4.708   4.539
  677SOL     OW 2929   6.306   6.902   0.542
  677SOL    HW1 2930   6.234   6.850   0.588
  677SOL    HW2 2931   6.265   6.957   0.470
  678SOL     OW 2932   2.331   0.939   6.513
  678SOL    HW1 2933   2.355   0.872   6.443
  678SOL    HW2 2934   2.251   0.907   6.564
  679SOL     OW 2935   4.197   0.515   2.728
  679SOL    HW1 2936   4.290   0.512   2.764
  679SOL    HW2 2937   4.190   0.587   2.659
  680SOL     OW 2938   4.863   4.020   5.570
  680SOL    HW1 2939   4.774   4.057   5.600
  680SOL    HW2 2940   4.852   3.975   5.482
  681SOL     OW 2941   0.828   6.578   1.171
  681SOL    HW1 2942   0.923   6.593   1.198
  681SOL    HW2 2943   0.785   6.516   1.237
  682SOL     OW 2944   1.756   5.771   0.349
  682SOL    HW1 2945   1.829   5.748   0.413
  682SOL    HW2 2946   1.795   5.815   0.268
  683SOL     OW 2947   3.995   1.293   6.867
  683SOL    HW1 2948   4.000   1.219   6.800
  683SOL    HW2 2949   3.943   1.263   6.947
  684SOL     OW 2950   0.397   5.986   5.698
  684SOL    HW1 2951   0.391   6.047   5.777
  684SOL    HW2 2952   0.467   6.019   5.635
  685SOL     OW 2953   5.143   0.011   5.493
  685SOL    HW1 2954   5.142   0.024   5.592
  685SOL    HW2 2955   5.235   0.027   5.458
  686SOL     OW 2956   5.166   3.711   3.027
  686SOL    HW1 2957   5.187   3.708   2.929
  686SOL    HW2 2958   5.070   3.685   3.042
  687SOL     OW 2959   0.274   3.486   5.700
  687SOL    HW1 2960   0.199   3.481   5.635
  687SOL    HW2 2961   0.284   3.581   5.732
  688SOL     OW 2962   0.680   3.900   6.119
  688SOL    HW1 2963   0.771   3.904   6.077
  688SOL    HW2 2964   0.672   3.970   6.189
  689SOL     OW 2965   6.167   3.639   5.937
  689SOL    HW1 2966   6.133   3.549   5.909
  689SOL    HW2 2967   6.207   3.686   5.858
  690SOL     OW 2968   1.423   2.219   3.633
  690SOL    HW1 2969   1.490   2.273   3.582
  690SOL    HW2 2970   1.450   2.215   3.729
  691SOL     OW 2971   1.041   2.445   6.693
  691SOL    HW1 2972   1.138   2.469   6.698
  691SOL    HW2 2973   1.030   2.347   6.706
  692SOL     OW 2974   2.483   0.246   2.335
  692SOL    HW1 2975   2.563   0.205   2.378
  692SOL    HW2 2976   2.418   0.174   2.310
  693SOL     OW 2977   6.588   2.616   2.708
  693SOL    HW1 2978   6.630   2.557   2.640
  693SOL    HW2 2979   6.635   2.604   2.796
  694SOL     OW 2980   2.055   6.428   1.152
  694SOL    HW1 2981   1.962   6.417   1.190
  694SOL    HW2 2982   2.109   6.486   1.213
  695SOL     OW 2983   5.353   5.360   5.272
  695SOL    HW1 2984   5.266   5.325   5.307
  695SOL    HW2 2985   5.427   5.298   5.297
  696SOL     OW 2986   4.212   4.662   2.365
  696SOL    HW1 2987   4.252   4.690   2.278
  696SOL    HW2 2988   4.134   4.602   2.347
  697SOL     OW 2989   1.046   4.384   4.272
  697SOL    HW1 2990   0.993   4.439   4.208
  697SOL    HW2 2991   0.987   4.312   4.310
  698SOL     OW 2992   4.529   0.292   3.722
  698SOL    HW1 2993   4.571   0.378   3.749
  698SOL    HW2 2994   4.542   0.278   3.624
  699SOL     OW 2995   1.203   3.723   0.893
  699SOL    HW1 2996   1.133   3.746   0.960
  699SOL    HW2 2997   1.177   3.758   0.803
  700SOL     OW 2998   2.387   2.417   4.377
  700SOL    HW1 2999   2.339   2.380   4.456
  700SOL    HW2 3000   2.483   2.432   4.400
  701SOL     OW 3001   0.922   4.528   6.288
  701SOL    HW1 3002   1.013   4.530   6.329
  701SOL    HW2 3003   0.862   4.592   6.337
  702SOL     OW 3004   5.149   6.956   4.420
  702SOL    HW1 3005   5.241   6.976   4.389
  702SOL    HW2 3006   5.115   0.005   4.477
  703SOL     OW 3007   4.195   3.961   6.333
  703SOL    HW1 3008   4.213   3.871   6.294
  703SOL    HW2 3009   4.282   4.007   6.351
  704SOL     OW 3010   1.328   6.996   6.851
  704SOL    HW1 3011   1.309   6.951   6.938
  704SOL    HW2 3012   1.245   0.016   6.818
  705SOL     OW 3013   5.420   1.176   2.808
  705SOL    HW1 3014   5.459   1.187   2.716
  705SOL    HW2 3015   5.457   1.093   2.850
  706SOL     OW 3016   3.689   2.067   4.084
  706SOL    HW1 3017   3.730   2.094   3.996
  706SOL    HW2 3018   3.589   2.059   4.073
  707SOL     OW 3019   5.372   0.217   1.627
  707SOL    HW1 3020   5.348   0.303   1.583
  707SOL    HW2 3021   5.291   0.158   1.630
  708SOL     OW 3022   4.151   0.311   1.157
  708SOL    HW1 3023   4.097   0.365   1.222
  708SOL    HW2 3024   4.195   0.373   1.092
  709SOL     OW 3025   1.037   5.110   1.073
  709SOL    HW1 3026   1.072   5.161   1.151
  709SOL    HW2 3027   1.093   5.128   0.992
  710SOL     OW 3028   3.152   3.944   2.502
  710SOL    HW1 3029   3.088   3.949   2.426
  710SOL    HW2 3030   3.242   3.916   2.469
  711SOL     OW 3031   6.384   1.655   4.367
  711SOL    HW1 3032   6.301   1.623   4.321
  711SOL    HW2 3033   6.369   1.747   4.402
  712SOL     OW 3034   1.304   3.686   1.491
  712SOL    HW1 3035   1.350   3.716   1.408
  712SOL    HW2 3036   1.232   3.619   1.467
  713SOL     OW 3037   3.846   3.125   2.463
  713SOL    HW1 3038   3.918   3.162   2.404
  713SOL    HW2 3039   3.804   3.046   2.419
  714SOL     OW 3040   5.633   4.531   4.820
  714SOL    HW1 3041   5.660   4.455   4.879
  714SOL    HW2 3042   5.556   4.579   4.861
  715SOL     OW 3043   4.726   0.021   6.200
  715SOL    HW1 3044   4.783   6.964   6.204
  715SOL    HW2 3045   4.709   0.045   6.104
  716SOL     OW 3046   0.373   4.856   1.882
  716SOL    HW1 3047   0.437   4.893   1.814
  716SOL    HW2 3048   0.412   4.775   1.924
  717SOL     OW 3049   6.672   3.203   6.735
  717SOL    HW1 3050   6.620   3.263   6.675
  717SOL    HW2 3051   6.674   3.110   6.698
  718SOL     OW 3052   3.778   3.460   6.471
  718SOL    HW1 3053   3.759   3.393   6.543
  718SOL    HW2 3054   3.737   3.548   6.495
  719SOL     OW 3055   0.050   3.666   1.311
  719SOL    HW1 3056   0.122   3.734   1.303
  719SOL    HW2 3057   0.013   3.666   1.403
  720SOL     OW 3058   2.526   1.625   6.283
  720SOL    HW1 3059   2.491   1.651   6.373
  720SOL    HW2 3060   2.613   1.672   6.268
  721SOL     OW 3061   1.771   0.334   5.870
  721SOL    HW1 3062   1.816   0.415   5.908
  721SOL    HW2 3063   1.688   0.361   5.821
  722SOL     OW 3064   4.112   0.154   4.625
  722SOL    HW1 3065   4.111   0.254   4.633
  722SOL    HW2 3066   4.171   0.127   4.550
  723SOL     OW 3067   1.335   2.577   2.336
  723SOL    HW1 3068   1.355   2.523   2.254
  723SOL    HW2 3069   1.417   2.584   2.392
  724SOL     OW 3070   0.309   0.954   4.918
  724SOL    HW1 3071   0.374   0.963   4.843
  724SOL    HW2 3072   0.307   1.039   4.971
  725SOL     OW 3073   2.058   4.990   2.658
  725SOL    HW1 3074   2.041   4.939   2.574
  725SOL    HW2 3075   2.025   4.936   2.736
  726SOL     OW 3076   3.310   6.545   0.099
  726SOL    HW1 3077   3.296   6.446   0.101
  726SOL    HW2 3078   3.378   6.571   0.168
  727SOL     OW 3079   3.116   5.349   4.434
  727SOL    HW1 3080   3.062   5.295   4.498
  727SOL    HW2 3081   3.125   5.443   4.468
  728SOL     OW 3082   0.191   4.168   5.318
  728SOL    HW1 3083   0.187   4.223   5.401
  728SOL    HW2 3084   0.250   4.089   5.333
  729SOL     OW 3085   2.153   0.846   1.324
  729SOL    HW1 3086   2.070   0.891   1.356
  729SOL    HW2 3087   2.222   0.915   1.301
  730SOL     OW 3088   5.982   0.765   3.666
  730SOL    HW1 3089   6.037   0.685   3.688
  730SOL    HW2 3090   5.887   0.739   3.654
  731SOL     OW 3091   5.612   3.353   4.424
  731SOL    HW1 3092   5.563   3.380   4.341
  731SOL    HW2 3093   5.546   3.341   4.499
  732SOL     OW 3094   6.908   3.032   1.574
  732SOL    HW1 3095   6.817   3.020   1.614
  732SOL    HW2 3096   6.951   2.942   1.560
  733SOL     OW 3097   4.765   4.156   4.156
  733SOL    HW1 3098   4.728   4.221   4.222
  733SOL    HW2 3099   4.765   4.198   4.065
  734SOL     OW 3100   7.017   4.493   1.132
  734SOL    HW1 3101   6.933   4.441   1.118
  734SOL    HW2 3102   0.060   4.435   1.176
  735SOL     OW 3103   1.064   3.605   6.651
  735SOL    HW1 3104   0.976   3.602   6.603
  735SOL    HW2 3105   1.102   3.697   6.646
  736SOL     OW 3106   6.695   0.432   3.238
  736SOL    HW1 3107   6.698   0.465   3.144
  736SOL    HW2 3108   6.715   0.334   3.239
  737SOL     OW 3109   5.447   3.607   1.120
  737SOL    HW1 3110   5.386   3.571   1.190
  737SOL    HW2 3111   5.541   3.610   1.155
  738SOL     OW 3112   0.087   4.036   4.305
  738SOL    HW1 3113   0.111   4.132   4.288
  738SOL    HW2 3114   0.126   4.007   4.392
  739SOL     OW 3115   4.065   6.475   5.768
  739SOL    HW1 3116   4.015   6.392   5.745
  739SOL    HW2 3117   4.021   6.521   5.844
  740SOL     OW 3118   6.028   6.884   1.360
  740SOL    HW1 3119   5.931   6.862   1.369
  740SOL    HW2 3120   6.083   6.801   1.369
  741SOL     OW 3121   1.571   6.605   2.956
  741SOL    HW1 3122   1.572   6.505   2.961
  741SOL    HW2 3123   1.572   6.643   3.049
  742SOL     OW 3124   1.501   6.705   3.405
  742SOL    HW1 3125   1.580   6.725   3.348
  742SOL    HW2 3126   1.418   6.711   3.350
  743SOL     OW 3127   1.658   3.855   4.279
  743SOL    HW1 3128   1.677   3.936   4.222
  743SOL    HW2 3129   1.565   3.823   4.261
  744SOL     OW 3130   6.970   5.756   0.007
  744SOL    HW1 3131   7.021   5.671   0.023
  744SOL    HW2 3132   6.919   5.749   6.947
  745SOL     OW 3133   1.181   5.790   3.062
  745SOL    HW1 3134   1.108   5.845   3.021
  745SOL    HW2 3135   1.269   5.818   3.024
  746SOL     OW 3136   1.130   0.043   4.892
  746SOL    HW1 3137   1.164   6.974   4.897
  746SOL    HW2 3138   1.111   0.066   4.796
  747SOL     OW 3139   4.632   4.604   3.318
  747SOL    HW1 3140   4.683   4.609   3.232
  747SOL    HW2 3141   4.550   4.660   3.311
  748SOL     OW 3142   4.170   3.846   0.776
  748SOL    HW1 3143   4.133   3.921   0.720
  748SOL    HW2 3144   4.259   3.873   0.812
  749SOL     OW 3145   0.503   2.199   5.048
  749SOL    HW1 3146   0.520   2.293   5.079
  749SOL    HW2 3147   0.578   2.140   5.077
  750SOL     OW 3148   2.071   3.400   0.236
  750SOL    HW1 3149   2.089   3.442   0.147
  750SOL    HW2 3150   2.139   3.431   0.302
  751SOL     OW 3151   4.865   1.079   0.470
  751SOL    HW1 3152   4.844   1.173   0.494
  751SOL    HW2 3153   4.958   1.057   0.499
  752SOL     OW 3154   4.221   2.400   1.812
  752SOL    HW1 3155   4.297   2.462   1.830
  752SOL    HW2 3156   4.154   2.446   1.753
  753SOL     OW 3157   1.933   3.209   4.905
  753SOL    HW1 3158   2.031   3.209   4.921
  753SOL    HW2 3159   1.915   3.198   4.807
  754SOL     OW 3160   4.413   4.080   6.453
  754SOL    HW1 3161   4.334   4.092   6.513
  754SOL    HW2 3162   4.475   4.158   6.463
  755SOL     OW 3163   0.580   5.814   6.988
  755SOL    HW1 3164   0.576   5.908   7.021
  755SOL    HW2 3165   0.570   5.814   6.888
  756SOL     OW 3166   5.126   0.421   1.774
  756SOL    HW1 3167   5.076   0.480   1.837
  756SOL    HW2 3168   5.092   0.434   1.681
  757SOL     OW 3169   0.435   6.408   3.739
  757SOL    HW1 3170   0.362   6.394   3.806
  757SOL    HW2 3171   0.402   6.463   3.663
  758SOL     OW 3172   3.517   2.165   1.155
  758SOL    HW1 3173   3.553   2.228   1.086
  758SOL    HW2 3174   3.425   2.137   1.130
  759SOL     OW 3175   1.018   1.795   6.874
  759SOL    HW1 3176   1.113   1.804   6.902
  759SOL    HW2 3177   1.008   1.826   6.779
  760SOL     OW 3178   5.246   1.774   6.817
  760SOL    HW1 3179   5.158   1.735   6.790
  760SOL    HW2 3180   5.230   1.859   6.868
  761SOL     OW 3181   6.634   2.633   0.364
  761SOL    HW1 3182   6.612   2.564   0.434
  761SOL    HW2 3183   6.694   2.592   0.295
  762SOL     OW 3184   2.703   5.763   3.506
  762SOL    HW1 3185   2.684   5.668   3.479
  762SOL    HW2 3186   2.705   5.821   3.425
  763SOL     OW 3187   4.260   5.602   6.789
  763SOL    HW1 3188   4.177   5.623   6.739
  763SOL    HW2 3189   4.339   5.640   6.741
  764SOL     OW 3190   3.645   1.557   2.253
  764SOL    HW1 3191   3.602   1.468   2.242
  764SOL    HW2 3192   3.584   1.617   2.305
  765SOL     OW 3193   0.407   6.392   2.528
  765SOL    HW1 3194   0.310   6.417   2.539
  765SOL    HW2 3195   0.434   6.403   2.433
  766SOL     OW 3196   6.550   6.982   6.740
  766SOL    HW1 3197   6.540   6.939   6.650
  766SOL    HW2 3198   6.518   0.051   6.736
  767SOL     OW 3199   6.844   6.556   2.072
  767SOL    HW1 3200   6.831   6.535   1.975
  767SOL    HW2 3201   6.808   6.648   2.091
  768SOL     OW 3202   2.883   0.690   2.502
  768SOL    HW1 3203   2.804   0.750   2.521
  768SOL    HW2 3204   2.876   0.608   2.558
  769SOL     OW 3205   4.629   0.049   5.011
  769SOL    HW1 3206   4.532   0.054   5.036
  769SOL    HW2 3207   4.664   0.141   4.996
  770SOL     OW 3208   3.068   5.086   3.966
  770SOL    HW1 3209   3.018   5.025   4.027
  770SOL    HW2 3210   3.066   5.179   4.003
  771SOL     OW 3211   1.801   5.583   3.508
  771SOL    HW1 3212   1.781   5.533   3.424
  771SOL    HW2 3213   1.826   5.677   3.486
  772SOL     OW 3214   6.881   4.560   6.703
  772SOL    HW1 3215   6.857   4.477   6.654
  772SOL    HW2 3216   6.857   4.640   6.648
  773SOL     OW 3217   6.905   3.918   3.192
  773SOL    HW1 3218   6.814   3.923   3.232
  773SOL    HW2 3219   6.963   3.860   3.248
  774SOL     OW 3220   1.607   1.116   1.968
  774SOL    HW1 3221   1.616   1.211   1.937
  774SOL    HW2 3222   1.543   1.112   2.045
  775SOL     OW 3223   1.342   1.943   3.905
  775SOL    HW1 3224   1.321   1.850   3.876
  775SOL    HW2 3225   1.289   2.008   3.850
  776SOL     OW 3226   1.605   0.555   6.190
  776SOL    HW1 3227   1.584   0.505   6.106
  776SOL    HW2 3228   1.612   0.653   6.171
  777SOL     OW 3229   4.515   1.415   0.985
  777SOL    HW1 3230   4.586   1.438   1.051
  777SOL    HW2 3231   4.478   1.499   0.945
  778SOL     OW 3232   4.200   0.857   3.748
  778SOL    HW1 3233   4.214   0.939   3.803
  778SOL    HW2 3234   4.103   0.846   3.729
  779SOL     OW 3235   0.774   2.098   2.004
  779SOL    HW1 3236   0.820   2.103   2.093
  779SOL    HW2 3237   0.679   2.071   2.017
  780SOL     OW 3238   6.430   2.962   4.054
  780SOL    HW1 3239   6.416   2.864   4.070
  780SOL    HW2 3240   6.516   2.990   4.095
  781SOL     OW 3241   6.864   1.377   6.018
  781SOL    HW1 3242   6.795   1.446   6.036
  781SOL    HW2 3243   6.951   1.405   6.059
  782SOL     OW 3244   0.597   2.794   1.042
  782SOL    HW1 3245   0.507   2.826   1.071
  782SOL    HW2 3246   0.665   2.866   1.056
  783SOL     OW 3247   2.869   5.366   0.803
  783SOL    HW1 3248   2.893   5.327   0.892
  783SOL    HW2 3249   2.947   5.418   0.767
  784SOL     OW 3250   3.997   0.357   5.097
  784SOL    HW1 3251   3.930   0.426   5.068
  784SOL    HW2 3252   3.970   0.267   5.063
  785SOL     OW 3253   6.237   1.701   2.717
  785SOL    HW1 3254   6.337   1.699   2.721
  785SOL    HW2 3255   6.207   1.692   2.621
  786SOL     OW 3256   6.880   6.719   0.081
  786SOL    HW1 3257   6.837   6.804   0.112
  786SOL    HW2 3258   6.855   6.702   7.011
  787SOL     OW 3259   2.391   1.409   6.496
  787SOL    HW1 3260   2.398   1.508   6.503
  787SOL    HW2 3261   2.306   1.378   6.538
  788SOL     OW 3262   2.031   3.779   4.633
  788SOL    HW1 3263   2.055   3.691   4.673
  788SOL    HW2 3264   2.014   3.769   4.535
  789SOL     OW 3265   5.606   3.697   1.566
  789SOL    HW1 3266   5.570   3.604   1.567
  789SOL    HW2 3267   5.617   3.730   1.659
  790SOL     OW 3268   2.285   1.560   3.937
  790SOL    HW1 3269   2.312   1.638   3.995
  790SOL    HW2 3270   2.254   1.594   3.848
  791SOL     OW 3271   4.031   1.066   3.988
  791SOL    HW1 3272   3.979   1.047   3.905
  791SOL    HW2 3273   4.048   1.164   3.994
  792SOL     OW 3274   6.333   0.492   2.036
  792SOL    HW1 3275   6.275   0.425   1.990
  792SOL    HW2 3276   6.276   0.556   2.088
  793SOL     OW 3277   5.204   6.596   1.071
  793SOL    HW1 3278   5.206   6.649   0.986
  793SOL    HW2 3279   5.263   6.517   1.062
  794SOL     OW 3280   2.829   4.813   5.485
  794SOL    HW1 3281   2.757   4.743   5.489
  794SOL    HW2 3282   2.904   4.779   5.427
  795SOL     OW 3283   3.877   5.197   5.952
  795SOL    HW1 3284   3.929   5.154   5.878
  795SOL    HW2 3285   3.858   5.130   6.023
  796SOL     OW 3286   0.172   2.480   5.350
  796SOL    HW1 3287   0.203   2.531   5.430
  796SOL    HW2 3288   0.211   2.388   5.353
  797SOL     OW 3289   6.089   2.383   3.680
  797SOL    HW1 3290   6.180   2.341   3.681
  797SOL    HW2 3291   6.026   2.324   3.629
  798SOL     OW 3292   4.879   0.276   0.264
  798SOL    HW1 3293   4.882   0.225   0.178
  798SOL    HW2 3294   4.795   0.329   0.268
  799SOL     OW 3295   6.449   2.074   3.398
  799SOL    HW1 3296   6.526   2.138   3.387
  799SOL    HW2 3297   6.415   2.047   3.309
  800SOL     OW 3298   5.077   1.160   2.349
  800SOL    HW1 3299   5.133   1.203   2.419
  800SOL    HW2 3300   4.981   1.183   2.364
  801SOL     OW 3301   1.028   2.763   3.604
  801SOL    HW1 3302   0.953   2.771   3.538
  801SOL    HW2 3303   1.077   2.677   3.587
  802SOL     OW 3304   5.255   2.131   0.236
  802SOL    HW1 3305   5.318   2.083   0.298
  802SOL    HW2 3306   5.166   2.085   0.237
  803SOL     OW 3307   6.094   5.598   3.847
  803SOL    HW1 3308   6.192   5.614   3.845
  803SOL    HW2 3309   6.047   5.671   3.798
  804SOL     OW 3310   0.159   6.249   0.550
  804SOL    HW1 3311   0.082   6.313   0.552
  804SOL    HW2 3312   0.127   6.159   0.522
  805SOL     OW 3313   3.609   2.629   5.625
  805SOL    HW1 3314   3.668   2.596   5.699
  805SOL    HW2 3315   3.616   2.568   5.546
  806SOL     OW 3316   4.759   1.842   6.412
  806SOL    HW1 3317   4.717   1.889   6.490
  806SOL    HW2 3318   4.721   1.750   6.404
  807SOL     OW 3319   0.869   0.613   3.469
  807SOL    HW1 3320   0.854   0.676   3.545
  807SOL    HW2 3321   0.798   0.628   3.400
  808SOL     OW 3322   5.155   2.982   5.712
  808SOL    HW1 3323   5.229   3.043   5.743
  808SOL    HW2 3324   5.158   2.975   5.613
  809SOL     OW 3325   1.274   4.624   0.805
  809SOL    HW1 3326   1.311   4.531   0.803
  809SOL    HW2 3327   1.268   4.659   0.712
  810SOL     OW 3328   4.929   3.892   0.927
  810SOL    HW1 3329   4.848   3.833   0.930
  810SOL    HW2 3330   4.922   3.961   0.999
  811SOL     OW 3331   5.055   5.454   3.468
  811SOL    HW1 3332   5.078   5.418   3.378
  811SOL    HW2 3333   5.124   5.426   3.535
  812SOL     OW 3334   6.917   0.340   1.272
  812SOL    HW1 3335   7.016   0.332   1.259
  812SOL    HW2 3336   6.899   0.383   1.361
  813SOL     OW 3337   4.272   5.778   3.510
  813SOL    HW1 3338   4.187   5.740   3.546
  813SOL    HW2 3339   4.326   5.704   3.468
  814SOL     OW 3340   5.480   6.688   1.999
  814SOL    HW1 3341   5.451   6.614   2.059
  814SOL    HW2 3342   5.519   6.762   2.054
  815SOL     OW 3343   6.630   2.600   1.583
  815SOL    HW1 3344   6.537   2.614   1.618
  815SOL    HW2 3345   6.630   2.527   1.515
  816SOL     OW 3346   0.011   6.503   0.636
  816SOL    HW1 3347   0.013   6.509   0.536
  816SOL    HW2 3348   0.013   6.595   0.675
  817SOL     OW 3349   1.694   3.630   1.805
  817SOL    HW1 3350   1.757   3.650   1.731
  817SOL    HW2 3351   1.616   3.578   1.769
  818SOL     OW 3352   5.979   2.193   0.590
  818SOL    HW1 3353   5.933   2.168   0.675
  818SOL    HW2 3354   6.077   2.202   0.606
  819SOL     OW 3355   6.859   2.088   3.511
  819SOL    HW1 3356   6.863   2.024   3.435
  819SOL    HW2 3357   6.916   2.055   3.586
  820SOL     OW 3358   0.669   2.724   4.407
  820SOL    HW1 3359   0.618   2.659   4.463
  820SOL    HW2 3360   0.756   2.683   4.380
  821SOL     OW 3361   1.839   4.292   0.889
  821SOL    HW1 3362   1.889   4.247   0.963
  821SOL    HW2 3363   1.837   4.233   0.809
  822SOL     OW 3364   0.617   4.070   5.077
  822SOL    HW1 3365   0.670   3.986   5.068
  822SOL    HW2 3366   0.552   4.061   5.152
  823SOL     OW 3367   5.354   4.039   6.192
  823SOL    HW1 3368   5.451   4.026   6.172
  823SOL    HW2 3369   5.319   3.960   6.241
  824SOL     OW 3370   4.978   2.569   5.417
  824SOL    HW1 3371   4.961   2.595   5.322
  824SOL    HW2 3372   4.897   2.523   5.453
  825SOL     OW 3373   2.051   3.263   1.990
  825SOL    HW1 3374   2.029   3.236   1.896
  825SOL    HW2 3375   2.119   3.336   1.989
  826SOL     OW 3376   5.827   3.449   7.021
  826SOL    HW1 3377   5.839   3.493   0.085
  826SOL    HW2 3378   5.738   3.474   6.983
  827SOL     OW 3379   3.644   5.467   6.977
  827SOL    HW1 3380   3.631   5.451   0.049
  827SOL    HW2 3381   3.733   5.433   6.948
  828SOL     OW 3382   6.093   0.813   5.447
  828SOL    HW1 3383   6.181   0.770   5.426
  828SOL    HW2 3384   6.036   0.812   5.365
  829SOL     OW 3385   3.177   3.047   4.277
  829SOL    HW1 3386   3.109   3.088   4.338
  829SOL    HW2 3387   3.268   3.080   4.301
  830SOL     OW 3388   4.602   3.973   5.326
  830SOL    HW1 3389   4.598   4.069   5.296
  830SOL    HW2 3390   4.525   3.954   5.386
  831SOL     OW 3391   5.573   0.557   5.159
  831SOL    HW1 3392   5.628   0.517   5.233
  831SOL    HW2 3393   5.577   0.497   5.079
  832SOL     OW 3394   2.088   1.493   7.015
  832SOL    HW1 3395   2.184   1.503   0.019
  832SOL    HW2 3396   2.065   1.568   6.953
  833SOL     OW 3397   6.468   6.653   5.983
  833SOL    HW1 3398   6.543   6.631   5.921
  833SOL    HW2 3399   6.485   6.741   6.027
  834SOL     OW 3400   3.156   3.194   4.052
  834SOL    HW1 3401   3.248   3.215   4.017
  834SOL    HW2 3402   3.160   3.109   4.105
  835SOL     OW 3403   3.387   6.485   3.751
  835SOL    HW1 3404   3.451   6.418   3.712
  835SOL    HW2 3405   3.330   6.440   3.820
  836SOL     OW 3406   3.635   6.815   0.278
  836SOL    HW1 3407   3.656   6.828   0.181
  836SOL    HW2 3408   3.682   6.733   0.312
  837SOL     OW 3409   4.999   0.367   6.595
  837SOL    HW1 3410   5.007   0.437   6.523
  837SOL    HW2 3411   4.985   0.277   6.553
  838SOL     OW 3412   1.529   5.979   4.722
  838SOL    HW1 3413   1.564   6.022   4.639
  838SOL    HW2 3414   1.555   5.882   4.723
  839SOL     OW 3415   2.667   1.570   3.666
  839SOL    HW1 3416   2.581   1.613   3.638
  839SOL    HW2 3417   2.703   1.617   3.747
  840SOL     OW 3418   0.793   1.053   6.749
  840SOL    HW1 3419   0.879   1.088   6.711
  840SOL    HW2 3420   0.717   1.086   6.693
  841SOL     OW 3421   6.843   3.535   6.973
  841SOL    HW1 3422   6.924   3.545   6.915
  841SOL    HW2 3423   6.765   3.580   6.930
  842SOL     OW 3424   4.230   5.418   3.135
  842SOL    HW1 3425   4.314   5.404   3.083
  842SOL    HW2 3426   4.192   5.330   3.161
  843SOL     OW 3427   6.303   1.998   1.977
  843SOL    HW1 3428   6.340   1.916   2.021
  843SOL    HW2 3429   6.329   2.079   2.030
  844SOL     OW 3430   5.096   6.019   0.390
  844SOL    HW1 3431   5.118   6.006   0.293
  844SOL    HW2 3432   5.003   5.987   0.408
  845SOL     OW 3433   6.978   3.967   4.915
  845SOL    HW1 3434   6.900   3.994   4.858
  845SOL    HW2 3435   6.984   4.027   4.994
  846SOL     OW 3436   6.150   1.179   6.934
  846SOL    HW1 3437   6.250   1.185   6.934
  846SOL    HW2 3438   6.112   1.267   6.903
  847SOL     OW 3439   6.102   3.399   0.860
  847SOL    HW1 3440   6.169   3.359   0.923
  847SOL    HW2 3441   6.149   3.433   0.779
  848SOL     OW 3442   6.375   0.053   5.841
  848SOL    HW1 3443   6.408   0.037   5.934
  848SOL    HW2 3444   6.364   6.992   5.793
  849SOL     OW 3445   0.620   5.343   4.817
  849SOL    HW1 3446   0.586   5.249   4.820
  849SOL    HW2 3447   0.703   5.346   4.760
  850SOL     OW 3448   4.396   1.392   3.327
  850SOL    HW1 3449   4.328   1.395   3.255
  850SOL    HW2 3450   4.479   1.441   3.298
  851SOL     OW 3451   0.559   1.161   0.426
  851SOL    HW1 3452   0.462   1.174   0.442
  851SOL    HW2 3453   0.576   1.149   0.329
  852SOL     OW 3454   2.350   3.125   6.424
  852SOL    HW1 3455   2.368   3.084   6.335
  852SOL    HW2 3456   2.288   3.066   6.476
  853SOL     OW 3457   1.176   2.912   1.969
  853SOL    HW1 3458   1.214   2.973   1.899
  853SOL    HW2 3459   1.103   2.856   1.928
  854SOL     OW 3460   5.133   5.747   2.864
  854SOL    HW1 3461   5.232   5.757   2.862
  854SOL    HW2 3462   5.091   5.816   2.804
  855SOL     OW 3463   6.047   0.148   1.930
  855SOL    HW1 3464   5.991   0.215   1.880
  855SOL    HW2 3465   6.043   0.060   1.883
  856SOL     OW 3466   1.983   6.147   5.403
  856SOL    HW1 3467   2.058   6.203   5.440
  856SOL    HW2 3468   1.914   6.132   5.473
  857SOL     OW 3469   6.334   3.714   0.817
  857SOL    HW1 3470   6.393   3.635   0.833
  857SOL    HW2 3471   6.258   3.687   0.758
  858SOL     OW 3472   3.198   4.913   1.815
  858SOL    HW1 3473   3.243   4.962   1.890
  858SOL    HW2 3474   3.107   4.884   1.844
  859SOL     OW 3475   0.172   5.029   6.603
  859SOL    HW1 3476   0.197   5.116   6.644
  859SOL    HW2 3477   0.151   4.962   6.674
  860SOL     OW 3478   3.352   4.140   0.850
  860SOL    HW1 3479   3.447   4.169   0.837
  860SOL    HW2 3480   3.334   4.131   0.948
  861SOL     OW 3481   2.676   5.890   5.585
  861SOL    HW1 3482   2.759   5.879   5.640
  861SOL    HW2 3483   2.596   5.888   5.645
  862SOL     OW 3484   5.384   4.586   5.011
  862SOL    HW1 3485   5.333   4.554   4.931
  862SOL    HW2 3486   5.322   4.591   5.090
  863SOL     OW 3487   0.395   1.301   1.038
  863SOL    HW1 3488   0.448   1.370   1.088
  863SOL    HW2 3489   0.407   1.212   1.083
  864SOL     OW 3490   5.220   4.613   2.587
  864SOL    HW1 3491   5.137   4.654   2.626
  864SOL    HW2 3492   5.195   4.532   2.534
  865SOL     OW 3493   1.483   0.197   3.567
  865SOL    HW1 3494   1.561   0.146   3.530
  865SOL    HW2 3495   1.440   0.144   3.640
  866SOL     OW 3496   3.604   1.972   1.991
  866SOL    HW1 3497   3.577   1.945   1.899
  866SOL    HW2 3498   3.638   2.067   1.989
  867SOL     OW 3499   2.889   2.904   6.485
  867SOL    HW1 3500   2.850   2.838   6.550
  867SOL    HW2 3501   2.978   2.870   6.453
  868SOL     OW 3502   5.738   0.863   3.201
  868SOL    HW1 3503   5.796   0.782   3.189
  868SOL    HW2 3504   5.787   0.944   3.170
  869SOL     OW 3505   5.920   6.290   1.485
  869SOL    HW1 3506   5.846   6.326   1.542
  869SOL    HW2 3507   5.898   6.306   1.389
  870SOL     OW 3508   6.543   1.958   1.492
  870SOL    HW1 3509   6.517   2.026   1.561
  870SOL    HW2 3510   6.464   1.900   1.471
  871SOL     OW 3511   5.603   2.256   1.634
  871SOL    HW1 3512   5.568   2.163   1.627
  871SOL    HW2 3513   5.699   2.254   1.660
  872SOL     OW 3514   6.711   2.657   3.911
  872SOL    HW1 3515   6.760   2.628   3.993
  872SOL    HW2 3516   6.740   2.749   3.885
  873SOL     OW 3517   3.343   0.007   3.804
  873SOL    HW1 3518   3.384   6.943   3.819
  873SOL    HW2 3519   3.268   0.021   3.869
  874SOL     OW 3520   1.353   4.028   5.456
  874SOL    HW1 3521   1.450   4.006   5.447
  874SOL    HW2 3522   1.339   4.087   5.535
  875SOL     OW 3523   5.571   3.798   0.068
  875SOL    HW1 3524   5.584   3.844   0.156
  875SOL    HW2 3525   5.655   3.807   0.014
  876SOL     OW 3526   6.948   3.256   2.237
  876SOL    HW1 3527   6.998   3.333   2.278
  876SOL    HW2 3528   7.004   3.173   2.242
  877SOL     OW 3529   5.038   5.577   6.891
  877SOL    HW1 3530   4.962   5.536   6.842
  877SOL    HW2 3531   5.124   5.534   6.862
  878SOL     OW 3532   2.812   5.087   0.713
  878SOL    HW1 3533   2.844   5.181   0.715
  878SOL    HW2 3534   2.795   5.060   0.618
  879SOL     OW 3535   4.035   2.156   2.768
  879SOL    HW1 3536   4.096   2.214   2.714
  879SOL    HW2 3537   4.015   2.201   2.855
  880SOL     OW 3538   3.661   5.001   0.588
  880SOL    HW1 3539   3.742   5.036   0.541
  880SOL    HW2 3540   3.631   4.917   0.543
  881SOL     OW 3541   3.683   5.090   4.778
  881SOL    HW1 3542   3.608   5.042   4.824
  881SOL    HW2 3543   3.666   5.091   4.679
  882SOL     OW 3544   1.633   0.881   4.742
  882SOL    HW1 3545   1.539   0.867   4.774
  882SOL    HW2 3546   1.646   0.978   4.719
  883SOL     OW 3547   3.327   5.627   6.681
  883SOL    HW1 3548   3.367   5.544   6.643
  883SOL    HW2 3549   3.360   5.640   6.775
  884SOL     OW 3550   5.775   2.964   1.671
  884SOL    HW1 3551   5.740   3.042   1.722
  884SOL    HW2 3552   5.818   2.995   1.586
  885SOL     OW 3553   5.577   5.718   0.435
  885SOL    HW1 3554   5.487   5.683   0.460
  885SOL    HW2 3555   5.572   5.817   0.423
  886SOL     OW 3556   4.676   1.585   6.424
  886SOL    HW1 3557   4.619   1.544   6.353
  886SOL    HW2 3558   4.756   1.527   6.440
  887SOL     OW 3559   4.150   7.023   5.553
  887SOL    HW1 3560   4.135   7.022   5.652
  887SOL    HW2 3561   4.082   0.056   5.509
  888SOL     OW 3562   6.034   6.027   2.797
  888SOL    HW1 3563   6.064   5.968   2.872
  888SOL    HW2 3564   6.048   5.979   2.710
  889SOL     OW 3565   0.446   6.372   5.250
  889SOL    HW1 3566   0.523   6.353   5.189
  889SOL    HW2 3567   0.382   6.434   5.205
  890SOL     OW 3568   2.630   4.640   2.114
  890SOL    HW1 3569   2.695   4.619   2.041
  890SOL    HW2 3570   2.680   4.675   2.194
  891SOL     OW 3571   5.263   3.032   0.124
  891SOL    HW1 3572   5.275   2.936   0.148
  891SOL    HW2 3573   5.342   3.064   0.072
  892SOL     OW 3574   2.925   4.500   1.027
  892SOL    HW1 3575   2.867   4.419   1.033
  892SOL    HW2 3576   2.981   4.494   0.944
  893SOL     OW 3577   1.491   0.432   0.130
  893SOL    HW1 3578   1.576   0.457   0.083
  893SOL    HW2 3579   1.420   0.498   0.107
  894SOL     OW 3580   1.262   5.706   4.480
  894SOL    HW1 3581   1.262   5.794   4.433
  894SOL    HW2 3582   1.356   5.683   4.506
  895SOL     OW 3583   2.265   6.813   4.636
  895SOL    HW1 3584   2.179   6.825   4.685
  895SOL    HW2 3585   2.299   6.720   4.648
  896SOL     OW 3586   5.951   6.679   2.902
  896SOL    HW1 3587   5.901   6.660   2.986
  896SOL    HW2 3588   5.956   6.596   2.847
  897SOL     OW 3589   4.641   2.228   6.632
  897SOL    HW1 3590   4.696   2.301   6.673
  897SOL    HW2 3591   4.548   2.262   6.614
  898SOL     OW 3592   5.444   6.513   2.951
  898SOL    HW1 3593   5.479   6.473   2.867
  898SOL    HW2 3594   5.351   6.548   2.937
  899SOL     OW 3595   0.542   4.408   6.474
  899SOL    HW1 3596   0.575   4.488   6.425
  899SOL    HW2 3597   0.449   4.425   6.507
  900SOL     OW 3598   0.320   5.903   3.612
  900SOL    HW1 3599   0.395   5.855   3.567
  900SOL    HW2 3600   0.356   5.984   3.659
  901SOL     OW 3601   6.466   1.041   4.081
  901SOL    HW1 3602   6.523   0.973   4.033
  901SOL    HW2 3603   6.438   1.003   4.169
  902SOL     OW 3604   0.007   6.619   0.343
  902SOL    HW1 3605   0.081   6.676   0.379
  902SOL    HW2 3606   6.966   6.677   0.296
  903SOL     OW 3607   0.829   5.022   0.621
  903SOL    HW1 3608   0.895   5.087   0.659
  903SOL    HW2 3609   0.875   4.962   0.555
  904SOL     OW 3610   1.865   1.780   3.279
  904SOL    HW1 3611   1.926   1.760   3.356
  904SOL    HW2 3612   1.882   1.872   3.245
  905SOL     OW 3613   5.582   1.328   5.202
  905SOL    HW1 3614   5.511   1.381   5.248
  905SOL    HW2 3615   5.623   1.264   5.266
  906SOL     OW 3616   7.011   3.432   5.778
  906SOL    HW1 3617   6.951   3.403   5.704
  906SOL    HW2 3618   0.079   3.407   5.757
  907SOL     OW 3619   6.485   2.283   2.464
  907SOL    HW1 3620   6.425   2.351   2.507
  907SOL    HW2 3621   6.430   2.207   2.431
  908SOL     OW 3622   1.741   0.817   4.217
  908SOL    HW1 3623   1.782   0.867   4.141
  908SOL    HW2 3624   1.726   0.722   4.191
  909SOL     OW 3625   4.059   1.073   1.806
  909SOL    HW1 3626   4.043   0.975   1.798
  909SOL    HW2 3627   4.145   1.089   1.855
  910SOL     OW 3628   2.055   1.335   0.724
  910SOL    HW1 3629   1.964   1.302   0.696
  910SOL    HW2 3630   2.045   1.401   0.798
  911SOL     OW 3631   0.509   4.683   2.032
  911SOL    HW1 3632   0.426   4.693   2.086
  911SOL    HW2 3633   0.589   4.682   2.093
  912SOL     OW 3634   0.753   6.747   5.884
  912SOL    HW1 3635   0.701   6.832   5.893
  912SOL    HW2 3636   0.713   6.677   5.943
  913SOL     OW 3637   3.145   0.913   2.494
  913SOL    HW1 3638   3.081   0.932   2.568
  913SOL    HW2 3639   3.125   0.824   2.454
  914SOL     OW 3640   2.853   5.947   2.559
  914SOL    HW1 3641   2.777   6.010   2.575
  914SOL    HW2 3642   2.935   5.980   2.607
  915SOL     OW 3643   1.175   2.538   0.782
  915SOL    HW1 3644   1.223   2.614   0.738
  915SOL    HW2 3645   1.138   2.477   0.712
  916SOL     OW 3646   2.241   2.998   3.220
  916SOL    HW1 3647   2.201   3.067   3.280
  916SOL    HW2 3648   2.254   3.037   3.128
  917SOL     OW 3649   4.343   1.735   0.688
  917SOL    HW1 3650   4.291   1.670   0.743
  917SOL    HW2 3651   4.399   1.792   0.748
  918SOL     OW 3652   2.275   0.095   6.285
  918SOL    HW1 3653   2.207   0.114   6.355
  918SOL    HW2 3654   2.229   0.074   6.198
  919SOL     OW 3655   2.223   5.968   2.633
  919SOL    HW1 3656   2.249   6.049   2.686
  919SOL    HW2 3657   2.223   5.990   2.536
  920SOL     OW 3658   2.327   0.883   4.195
  920SOL    HW1 3659   2.343   0.854   4.289
  920SOL    HW2 3660   2.288   0.807   4.143
  921SOL     OW 3661   5.590   5.276   4.598
  921SOL    HW1 3662   5.628   5.310   4.684
  921SOL    HW2 3663   5.501   5.234   4.615
  922SOL     OW 3664   3.147   3.429   0.089
  922SOL    HW1 3665   3.171   3.508   0.033
  922SOL    HW2 3666   3.179   3.345   0.045
  923SOL     OW 3667   3.303   6.999   6.435
  923SOL    HW1 3668   3.354   6.961   6.358
  923SOL    HW2 3669   3.218   0.016   6.402
  924SOL     OW 3670   5.606   2.713   2.959
  924SOL    HW1 3671   5.507   2.707   2.969
  924SOL    HW2 3672   5.637   2.648   2.889
  925SOL     OW 3673   0.596   1.853   4.093
  925SOL    HW1 3674   0.607   1.926   4.161
  925SOL    HW2 3675   0.639   1.770   4.128
  926SOL     OW 3676   5.130   5.604   0.908
  926SOL    HW1 3677   5.173   5.691   0.929
  926SOL    HW2 3678   5.191   5.529   0.935
  927SOL     OW 3679   3.629   5.017   4.524
  927SOL    HW1 3680   3.691   5.072   4.467
  927SOL    HW2 3681   3.535   5.029   4.492
  928SOL     OW 3682   2.262   1.104   1.171
  928SOL    HW1 3683   2.263   1.044   1.091
  928SOL    HW2 3684   2.201   1.181   1.155
  929SOL     OW 3685   6.916   2.778   3.032
  929SOL    HW1 3686   6.972   2.697   3.051
  929SOL    HW2 3687   6.864   2.764   2.948
  930SOL     OW 3688   4.924   5.665   4.172
  930SOL    HW1 3689   4.847   5.726   4.191
  930SOL    HW2 3690   5.009   5.715   4.182
  931SOL     OW 3691   1.588   2.596   2.747
  931SOL    HW1 3692   1.660   2.546   2.795
  931SOL    HW2 3693   1.499   2.565   2.779
  932SOL     OW 3694   4.825   0.013   1.135
  932SOL    HW1 3695   4.873   0.007   1.048
  932SOL    HW2 3696   4.728   7.017   1.122
  933SOL     OW 3697   1.514   6.355   3.253
  933SOL    HW1 3698   1.604   6.397   3.258
  933SOL    HW2 3699   1.499   6.320   3.160
  934SOL     OW 3700   3.161   1.290   5.519
  934SOL    HW1 3701   3.081   1.299   5.578
  934SOL    HW2 3702   3.131   1.278   5.424
  935SOL     OW 3703   3.819   3.215   6.160
  935SOL    HW1 3704   3.855   3.243   6.071
  935SOL    HW2 3705   3.725   3.248   6.170
  936SOL     OW 3706   1.024   1.055   1.376
  936SOL    HW1 3707   1.076   1.087   1.297
  936SOL    HW2 3708   1.086   1.022   1.447
  937SOL     OW 3709   4.560   2.038   4.906
  937SOL    HW1 3710   4.548   2.026   4.807
  937SOL    HW2 3711   4.481   1.999   4.954
  938SOL     OW 3712   0.836   2.837   6.649
  938SOL    HW1 3713   0.896   2.849   6.728
  938SOL    HW2 3714   0.741   2.841   6.679
  939SOL     OW 3715   6.091   1.291   5.588
  939SOL    HW1 3716   6.003   1.298   5.540
  939SOL    HW2 3717   6.137   1.207   5.560
  940SOL     OW 3718   6.755   1.340   3.752
  940SOL    HW1 3719   6.854   1.331   3.766
  940SOL    HW2 3720   6.734   1.336   3.655
  941SOL     OW 3721   5.316   1.733   4.483
  941SOL    HW1 3722   5.383   1.796   4.522
  941SOL    HW2 3723   5.331   1.641   4.521
  942SOL     OW 3724   5.487   6.703   5.636
  942SOL    HW1 3725   5.518   6.657   5.719
  942SOL    HW2 3726   5.401   6.661   5.605
  943SOL     OW 3727   5.640   1.909   1.363
  943SOL    HW1 3728   5.563   1.963   1.330
  943SOL    HW2 3729   5.628   1.888   1.460
  944SOL     OW 3730   5.183   4.179   3.839
  944SOL    HW1 3731   5.259   4.244   3.834
  944SOL    HW2 3732   5.121   4.194   3.762
  945SOL     OW 3733   5.457   4.166   4.241
  945SOL    HW1 3734   5.383   4.118   4.289
  945SOL    HW2 3735   5.518   4.208   4.308
  946SOL     OW 3736   5.769   2.675   5.177
  946SOL    HW1 3737   5.686   2.724   5.150
  946SOL    HW2 3738   5.778   2.592   5.121
  947SOL     OW 3739   2.225   2.354   6.273
  947SOL    HW1 3740   2.219   2.295   6.354
  947SOL    HW2 3741   2.236   2.449   6.303
  948SOL     OW 3742   3.834   2.080   0.427
  948SOL    HW1 3743   3.777   2.158   0.454
  948SOL    HW2 3744   3.861   2.089   0.332
  949SOL     OW 3745   6.025   5.925   5.975
  949SOL    HW1 3746   5.979   5.870   5.906
  949SOL    HW2 3747   6.106   5.969   5.935
  950SOL     OW 3748   4.446   5.495   1.021
  950SOL    HW1 3749   4.348   5.480   1.021
  950SOL    HW2 3750   4.492   5.419   1.068
  951SOL     OW 3751   1.119   1.384   2.345
  951SOL    HW1 3752   1.168   1.418   2.425
  951SOL    HW2 3753   1.136   1.445   2.267
  952SOL     OW 3754   5.515   1.000   3.107
  952SOL    HW1 3755   5.573   0.945   3.167
  952SOL    HW2 3756   5.558   1.007   3.017
  953SOL     OW 3757   4.698   6.434   5.980
  953SOL    HW1 3758   4.641   6.509   6.016
  953SOL    HW2 3759   4.688   6.354   6.039
  954SOL     OW 3760   6.572   0.023   0.341
  954SOL    HW1 3761   6.642   0.017   0.412
  954SOL    HW2 3762   6.531   6.959   0.327
  955SOL     OW 3763   0.455   6.124   2.565
  955SOL    HW1 3764   0.452   6.222   2.541
  955SOL    HW2 3765   0.376   6.078   2.525
  956SOL     OW 3766   1.281   2.364   1.166
  956SOL    HW1 3767   1.300   2.387   1.071
  956SOL    HW2 3768   1.231   2.439   1.210
  957SOL     OW 3769   1.945   5.089   4.494
  957SOL    HW1 3770   1.850   5.059   4.498
  957SOL    HW2 3771   1.990   5.049   4.414
  958SOL     OW 3772   4.696   2.444   1.385
  958SOL    HW1 3773   4.742   2.484   1.464
  958SOL    HW2 3774   4.698   2.344   1.392
  959SOL     OW 3775   2.503   4.468   2.957
  959SOL    HW1 3776   2.457   4.449   2.870
  959SOL    HW2 3777   2.435   4.494   3.026
  960SOL     OW 3778   1.859   5.496   4.630
  960SOL    HW1 3779   1.869   5.441   4.547
  960SOL    HW2 3780   1.786   5.457   4.687
  961SOL     OW 3781   3.808   6.769   1.590
  961SOL    HW1 3782   3.839   6.689   1.642
  961SOL    HW2 3783   3.870   6.845   1.608
  962SOL     OW 3784   1.857   0.350   3.537
  962SOL    HW1 3785   1.868   0.435   3.589
  962SOL    HW2 3786   1.895   0.362   3.445
  963SOL     OW 3787   6.573   0.223   0.756
  963SOL    HW1 3788   6.539   0.260   0.669
  963SOL    HW2 3789   6.659   0.268   0.780
  964SOL     OW 3790   5.633   3.433   1.377
  964SOL    HW1 3791   5.578   3.448   1.459
  964SOL    HW2 3792   5.653   3.521   1.334
  965SOL     OW 3793   0.227   2.335   0.087
  965SOL    HW1 3794   0.231   2.396   0.166
  965SOL    HW2 3795   0.320   2.311   0.059
  966SOL     OW 3796   6.667   2.129   2.590
  966SOL    HW1 3797   6.617   2.072   2.656
  966SOL    HW2 3798   6.603   2.192   2.545
  967SOL     OW 3799   1.441   5.761   1.405
  967SOL    HW1 3800   1.408   5.714   1.486
  967SOL    HW2 3801   1.479   5.694   1.341
  968SOL     OW 3802   5.112   2.726   2.730
  968SOL    HW1 3803   5.027   2.758   2.770
  968SOL    HW2 3804   5.150   2.797   2.671
  969SOL     OW 3805   4.804   6.161   5.844
  969SOL    HW1 3806   4.751   6.227   5.897
  969SOL    HW2 3807   4.872   6.210   5.789
  970SOL     OW 3808   4.282   2.381   5.361
  970SOL    HW1 3809   4.380   2.391   5.343
  970SOL    HW2 3810   4.233   2.454   5.313
  971SOL     OW 3811   6.784   1.415   1.653
  971SOL    HW1 3812   6.736   1.468   1.723
  971SOL    HW2 3813   6.852   1.357   1.698
  972SOL     OW 3814   6.445   5.172   0.725
  972SOL    HW1 3815   6.407   5.104   0.662
  972SOL    HW2 3816   6.370   5.221   0.770
  973SOL     OW 3817   6.293   4.602   5.942
  973SOL    HW1 3818   6.279   4.585   6.040
  973SOL    HW2 3819   6.228   4.547   5.889
  974SOL     OW 3820   2.724   1.125   3.745
  974SOL    HW1 3821   2.709   1.052   3.813
  974SOL    HW2 3822   2.640   1.179   3.736
  975SOL     OW 3823   3.049   5.953   6.247
  975SOL    HW1 3824   3.027   5.913   6.336
  975SOL    HW2 3825   2.975   5.931   6.183
  976SOL     OW 3826   0.323   3.829   3.310
  976SOL    HW1 3827   0.251   3.790   3.368
  976SOL    HW2 3828   0.393   3.759   3.293
  977SOL     OW 3829   1.549   0.749   3.924
  977SOL    HW1 3830   1.550   0.704   3.834
  977SOL    HW2 3831   1.595   0.837   3.917
  978SOL     OW 3832   5.096   4.170   4.772
  978SOL    HW1 3833   5.005   4.135   4.794
  978SOL    HW2 3834   5.131   4.223   4.849
  979SOL     OW 3835   6.311   0.847   2.834
  979SOL    HW1 3836   6.276   0.772   2.778
  979SOL    HW2 3837   6.239   0.878   2.896
  980SOL     OW 3838   5.413   2.138   4.833
  980SOL    HW1 3839   5.469   2.056   4.839
  980SOL    HW2 3840   5.334   2.121   4.774
  981SOL     OW 3841   0.970   1.824   4.603
  981SOL    HW1 3842   0.940   1.758   4.671
  981SOL    HW2 3843   1.070   1.820   4.595
  982SOL     OW 3844   0.434   2.937   1.669
  982SOL    HW1 3845   0.450   3.032   1.643
  982SOL    HW2 3846   0.364   2.933   1.740
  983SOL     OW 3847   6.394   2.016   2.971
  983SOL    HW1 3848   6.451   1.940   3.000
  983SOL    HW2 3849   6.406   2.032   2.873
  984SOL     OW 3850   4.797   1.432   4.759
  984SOL    HW1 3851   4.751   1.509   4.714
  984SOL    HW2 3852   4.801   1.354   4.696
  985SOL     OW 3853   3.154   5.377   0.928
  985SOL    HW1 3854   3.085   5.308   0.952
  985SOL    HW2 3855   3.110   5.466   0.919
  986SOL     OW 3856   4.200   4.750   6.415
  986SOL    HW1 3857   4.287   4.701   6.418
  986SOL    HW2 3858   4.165   4.749   6.321
  987SOL     OW 3859   3.557   6.759   2.450
  987SOL    HW1 3860   3.540   6.727   2.357
  987SOL    HW2 3861   3.514   6.848   2.463
  988SOL     OW 3862   3.764   3.017   0.520
  988SOL    HW1 3863   3.801   3.080   0.452
  988SOL    HW2 3864   3.732   3.068   0.599
  989SOL     OW 3865   0.592   7.010   5.732
  989SOL    HW1 3866   0.543   6.924   5.744
  989SOL    HW2 3867   0.533   0.051   5.687
  990SOL     OW 3868   4.219   0.556   3.941
  990SOL    HW1 3869   4.309   0.574   3.981
  990SOL    HW2 3870   4.195   0.631   3.879
  991SOL     OW 3871   0.587   1.320   4.646
  991SOL    HW1 3872   0.669   1.344   4.698
  991SOL    HW2 3873   0.552   1.402   4.600
  992SOL     OW 3874   0.600   3.207   0.313
  992SOL    HW1 3875   0.594   3.129   0.250
  992SOL    HW2 3876   0.519   3.265   0.301
  993SOL     OW 3877   2.954   4.785   2.944
  993SOL    HW1 3878   2.967   4.814   3.039
  993SOL    HW2 3879   2.886   4.712   2.940
  994SOL     OW 3880   2.936   3.240   2.820
  994SOL    HW1 3881   2.856   3.267   2.873
  994SOL    HW2 3882   2.989   3.173   2.871
  995SOL     OW 3883   1.567   2.202   5.653
  995SOL    HW1 3884   1.640   2.236   5.593
  995SOL    HW2 3885   1.550   2.106   5.634
  996SOL     OW 3886   2.174   3.905   2.817
  996SOL    HW1 3887   2.147   3.809   2.825
  996SOL    HW2 3888   2.138   3.942   2.732
  997SOL     OW 3889   0.676   0.534   1.544
  997SOL    HW1 3890   0.670   0.434   1.553
  997SOL    HW2 3891   0.767   0.559   1.511
  998SOL     OW 3892   4.522   0.153   2.288
  998SOL    HW1 3893   4.558   0.088   2.355
  998SOL    HW2 3894   4.566   0.138   2.200
  999SOL     OW 3895   6.621   5.343   1.318
  999SOL    HW1 3896   6.718   5.335   1.341
  999SOL    HW2 3897   6.607   5.421   1.258
 1000SOL     OW 3898   2.721   2.329   4.059
 1000SOL    HW1 3899   2.651   2.261   4.082
 1000SOL    HW2 3900   2.701   2.368   3.969
 1001SOL     OW 3901   5.007   0.223   5.920
 1001SOL    HW1 3902   5.037   0.151   5.981
 1001SOL    HW2 3903   4.999   0.309   5.971
 1002SOL     OW 3904   6.006   1.805   6.933
 1002SOL    HW1 3905   5.962   1.724   6.972
 1002SOL    HW2 3906   6.070   1.778   6.862
 1003SOL     OW 3907   2.963   5.960   2.283
 1003SOL    HW1 3908   2.893   5.968   2.355
 1003SOL    HW2 3909   2.951   6.035   2.218
 1004SOL     OW 3910   6.620   6.911   7.003
 1004SOL    HW1 3911   6.607   6.937   6.907
 1004SOL    HW2 3912   6.656   6.989   0.028
 1005SOL     OW 3913   0.656   0.239   2.917
 1005SOL    HW1 3914   0.710   0.202   2.993
 1005SOL    HW2 3915   0.637   0.336   2.933
 1006SOL     OW 3916   2.495   4.933   1.074
 1006SOL    HW1 3917   2.545   4.848   1.085
 1006SOL    HW2 3918   2.397   4.917   1.087
 1007SOL     OW 3919   6.988   1.054   2.991
 1007SOL    HW1 3920   6.974   1.132   3.052
 1007SOL    HW2 3921   0.055   1.056   2.954
 1008SOL     OW 3922   1.171   3.771   3.690
 1008SOL    HW1 3923   1.189   3.820   3.776
 1008SOL    HW2 3924   1.165   3.837   3.615
 1009SOL     OW 3925   0.559   6.101   4.503
 1009SOL    HW1 3926   0.493   6.121   4.576
 1009SOL    HW2 3927   0.608   6.016   4.524
 1010SOL     OW 3928   4.320   2.468   0.460
 1010SOL    HW1 3929   4.290   2.507   0.373
 1010SOL    HW2 3930   4.412   2.500   0.481
 1011SOL     OW 3931   2.235   5.719   4.122
 1011SOL    HW1 3932   2.278   5.806   4.096
 1011SOL    HW2 3933   2.218   5.719   4.221
 1012SOL     OW 3934   5.846   5.127   0.375
 1012SOL    HW1 3935   5.778   5.059   0.347
 1012SOL    HW2 3936   5.804   5.218   0.376
 1013SOL     OW 3937   1.086   0.865   0.855
 1013SOL    HW1 3938   1.051   0.857   0.762
 1013SOL    HW2 3939   1.053   0.787   0.909
 1014SOL     OW 3940   4.315   6.589   5.901
 1014SOL    HW1 3941   4.239   6.532   5.873
 1014SOL    HW2 3942   4.319   6.670   5.842
 1015SOL     OW 3943   3.465   6.124   4.832
 1015SOL    HW1 3944   3.388   6.151   4.775
 1015SOL    HW2 3945   3.511   6.045   4.791
 1016SOL     OW 3946   3.647   2.953   1.039
 1016SOL    HW1 3947   3.661   2.935   0.942
 1016SOL    HW2 3948   3.550   2.942   1.061
 1017SOL     OW 3949   4.235   2.932   0.556
 1017SOL    HW1 3950   4.139   2.908   0.571
 1017SOL    HW2 3951   4.257   2.922   0.459
 1018SOL     OW 3952   0.931   3.520   3.938
 1018SOL    HW1 3953   0.970   3.529   3.846
 1018SOL    HW2 3954   0.854   3.456   3.934
 1019SOL     OW 3955   6.730   1.335   7.025
 1019SOL    HW1 3956   6.689   1.384   0.077
 1019SOL    HW2 3957   6.816   1.293   0.029
 1020SOL     OW 3958   2.831   1.267   1.063
 1020SOL    HW1 3959   2.901   1.207   1.101
 1020SOL    HW2 3960   2.764   1.213   1.013
 1021SOL     OW 3961   6.667   1.238   1.060
 1021SOL    HW1 3962   6.641   1.183   1.139
 1021SOL    HW2 3963   6.600   1.312   1.047
 1022SOL     OW 3964   4.200   3.200   6.149
 1022SOL    HW1 3965   4.190   3.251   6.064
 1022SOL    HW2 3966   4.158   3.110   6.138
 1023SOL     OW 3967   6.120   0.640   2.195
 1023SOL    HW1 3968   6.077   0.659   2.283
 1023SOL    HW2 3969   6.055   0.595   2.134
 1024SOL     OW 3970   6.541   1.906   4.035
 1024SOL    HW1 3971   6.602   1.962   3.978
 1024SOL    HW2 3972   6.466   1.871   3.979
 1025SOL     OW 3973   3.120   4.526   0.827
 1025SOL    HW1 3974   3.075   4.563   0.745
 1025SOL    HW2 3975   3.188   4.459   0.799
 1026SOL     OW 3976   2.420   2.046   6.722
 1026SOL    HW1 3977   2.519   2.049   6.730
 1026SOL    HW2 3978   2.387   1.953   6.737
 1027SOL     OW 3979   3.000   4.965   2.147
 1027SOL    HW1 3980   2.958   5.055   2.134
 1027SOL    HW2 3981   2.981   4.932   2.240
 1028SOL     OW 3982   1.542   5.826   1.054
 1028SOL    HW1 3983   1.584   5.735   1.055
 1028SOL    HW2 3984   1.590   5.886   1.117
 1029SOL     OW 3985   2.228   0.023   0.230
 1029SOL    HW1 3986   2.130   0.042   0.233
 1029SOL    HW2 3987   2.278   0.107   0.209
 1030SOL     OW 3988   4.102   3.703   5.081
 1030SOL    HW1 3989   4.158   3.698   4.998
 1030SOL    HW2 3990   4.008   3.727   5.056
 1031SOL     OW 3991   2.494   5.390   1.795
 1031SOL    HW1 3992   2.459   5.442   1.873
 1031SOL    HW2 3993   2.483   5.444   1.711
 1032SOL     OW 3994   1.854   1.589   4.478
 1032SOL    HW1 3995   1.948   1.588   4.445
 1032SOL    HW2 3996   1.831   1.499   4.516
 1033SOL     OW 3997   2.149   5.920   1.623
 1033SOL    HW1 3998   2.164   5.887   1.530
 1033SOL    HW2 3999   2.073   5.869   1.664
 1034SOL     OW 4000   2.487   5.237   3.600
 1034SOL    HW1 4001   2.401   5.284   3.581
 1034SOL    HW2 4002   2.471   5.138   3.604
 1035SOL     OW 4003   3.188   1.302   4.989
 1035SOL    HW1 4004   3.252   1.357   4.935
 1035SOL    HW2 4005   3.219   1.207   4.992
 1036SOL     OW 4006   4.500   2.689   0.785
 1036SOL    HW1 4007   4.430   2.650   0.725
 1036SOL    HW2 4008   4.570   2.620   0.804
 1037SOL     OW 4009   2.574   1.044   0.620
 1037SOL    HW1 4010   2.585   1.064   0.523
 1037SOL    HW2 4011   2.648   0.986   0.652
 1038SOL     OW 4012   1.935   1.172   5.627
 1038SOL    HW1 4013   1.873   1.224   5.568
 1038SOL    HW2 4014   1.883   1.133   5.703
 1039SOL     OW 4015   3.739   2.122   4.450
 1039SOL    HW1 4016   3.712   2.187   4.379
 1039SOL    HW2 4017   3.756   2.033   4.409
 1040SOL     OW 4018   5.864   4.198   2.629
 1040SOL    HW1 4019   5.871   4.249   2.714
 1040SOL    HW2 4020   5.858   4.100   2.650
 1041SOL     OW 4021   0.010   1.084   4.094
 1041SOL    HW1 4022   0.052   1.163   4.139
 1041SOL    HW2 4023   6.939   1.103   4.077
 1042SOL     OW 4024   5.549   5.001   1.037
 1042SOL    HW1 4025   5.643   5.002   1.071
 1042SOL    HW2 4026   5.548   5.015   0.938
 1043SOL     OW 4027   3.461   1.836   6.874
 1043SOL    HW1 4028   3.549   1.799   6.844
 1043SOL    HW2 4029   3.391   1.766   6.867
 1044SOL     OW 4030   3.811   3.282   2.147
 1044SOL    HW1 4031   3.741   3.211   2.152
 1044SOL    HW2 4032   3.804   3.328   2.058
 1045SOL     OW 4033   2.990   1.190   2.937
 1045SOL    HW1 4034   2.902   1.235   2.953
 1045SOL    HW2 4035   2.975   1.105   2.886
 1046SOL     OW 4036   3.593   6.727   0.931
 1046SOL    HW1 4037   3.557   6.688   1.016
 1046SOL    HW2 4038   3.664   6.667   0.895
 1047SOL     OW 4039   0.870   5.124   2.909
 1047SOL    HW1 4040   0.818   5.163   2.833
 1047SOL    HW2 4041   0.962   5.099   2.877
 1048SOL     OW 4042   5.324   4.456   4.777
 1048SOL    HW1 4043   5.372   4.508   4.705
 1048SOL    HW2 4044   5.373   4.370   4.794
 1049SOL     OW 4045   0.285   4.060   4.515
 1049SOL    HW1 4046   0.312   4.156   4.528
 1049SOL    HW2 4047   0.225   4.033   4.590
 1050SOL     OW 4048   3.786   6.882   6.536
 1050SOL    HW1 4049   3.731   6.801   6.553
 1050SOL    HW2 4050   3.748   6.959   6.587
 1051SOL     OW 4051   5.092   4.534   0.114
 1051SOL    HW1 4052   5.128   4.443   0.093
 1051SOL    HW2 4053   5.002   4.545   0.072
 1052SOL     OW 4054   3.719   0.293   4.813
 1052SOL    HW1 4055   3.638   0.352   4.819
 1052SOL    HW2 4056   3.756   0.296   4.721
 1053SOL     OW 4057   4.560   4.969   3.799
 1053SOL    HW1 4058   4.559   4.937   3.894
 1053SOL    HW2 4059   4.650   5.006   3.777
 1054SOL     OW 4060   3.095   5.119   5.222
 1054SOL    HW1 4061   3.083   5.020   5.227
 1054SOL    HW2 4062   3.169   5.148   5.283
 1055SOL     OW 4063   4.077   6.011   4.924
 1055SOL    HW1 4064   4.072   5.913   4.902
 1055SOL    HW2 4065   4.149   6.026   4.992
 1056SOL     OW 4066   1.959   6.181   5.808
 1056SOL    HW1 4067   1.901   6.226   5.876
 1056SOL    HW2 4068   1.906   6.160   5.726
 1057SOL     OW 4069   3.117   3.440   2.733
 1057SOL    HW1 4070   3.118   3.460   2.635
 1057SOL    HW2 4071   3.045   3.374   2.753
 1058SOL     OW 4072   3.577   1.372   2.041
 1058SOL    HW1 4073   3.478   1.386   2.031
 1058SOL    HW2 4074   3.595   1.275   2.057
 1059SOL     OW 4075   4.380   1.181   1.741
 1059SOL    HW1 4076   4.398   1.270   1.700
 1059SOL    HW2 4077   4.372   1.191   1.841
 1060SOL     OW 4078   1.276   2.561   5.846
 1060SOL    HW1 4079   1.293   2.466   5.822
 1060SOL    HW2 4080   1.238   2.609   5.767
 1061SOL     OW 4081   3.526   4.970   1.628
 1061SOL    HW1 4082   3.564   4.888   1.584
 1061SOL    HW2 4083   3.427   4.971   1.614
 1062SOL     OW 4084   6.221   5.852   5.589
 1062SOL    HW1 4085   6.215   5.891   5.497
 1062SOL    HW2 4086   6.222   5.752   5.583
 1063SOL     OW 4087   1.986   3.153   0.550
 1063SOL    HW1 4088   1.907   3.104   0.588
 1063SOL    HW2 4089   2.012   3.111   0.463
 1064SOL     OW 4090   0.336   3.221   1.972
 1064SOL    HW1 4091   0.404   3.166   2.020
 1064SOL    HW2 4092   0.281   3.161   1.914
 1065SOL     OW 4093   5.863   6.853   4.198
 1065SOL    HW1 4094   5.816   6.773   4.234
 1065SOL    HW2 4095   5.936   6.825   4.136
 1066SOL     OW 4096   4.843   0.047   3.717
 1066SOL    HW1 4097   4.794   0.096   3.645
 1066SOL    HW2 4098   4.935   0.083   3.725
 1067SOL     OW 4099   2.008   3.028   2.243
 1067SOL    HW1 4100   2.023   3.018   2.144
 1067SOL    HW2 4101   2.055   3.111   2.275
 1068SOL     OW 4102   0.040   3.588   2.299
 1068SOL    HW1 4103   6.995   3.557   2.363
 1068SOL    HW2 4104   0.111   3.518   2.292
 1069SOL     OW 4105   4.404   4.385   1.120
 1069SOL    HW1 4106   4.433   4.296   1.085
 1069SOL    HW2 4107   4.306   4.397   1.104
 1070SOL     OW 4108   2.313   1.102   0.543
 1070SOL    HW1 4109   2.253   1.025   0.562
 1070SOL    HW2 4110   2.409   1.075   0.555
 1071SOL     OW 4111   3.687   6.490   3.514
 1071SOL    HW1 4112   3.744   6.513   3.593
 1071SOL    HW2 4113   3.737   6.429   3.453
 1072SOL     OW 4114   3.031   6.557   2.756
 1072SOL    HW1 4115   3.035   6.575   2.657
 1072SOL    HW2 4116   3.117   6.518   2.786
 1073SOL     OW 4117   2.546   4.717   2.692
 1073SOL    HW1 4118   2.538   4.621   2.666
 1073SOL    HW2 4119   2.570   4.724   2.788
 1074SOL     OW 4120   0.747   4.659   2.161
 1074SOL    HW1 4121   0.833   4.633   2.118
 1074SOL    HW2 4122   0.766   4.704   2.249
 1075SOL     OW 4123   5.198   4.600   3.892
 1075SOL    HW1 4124   5.186   4.685   3.943
 1075SOL    HW2 4125   5.296   4.583   3.878
 1076SOL     OW 4126   0.409   4.438   3.967
 1076SOL    HW1 4127   0.504   4.463   3.982
 1076SOL    HW2 4128   0.397   4.340   3.984
 1077SOL     OW 4129   4.474   0.262   1.121
 1077SOL    HW1 4130   4.484   0.267   1.021
 1077SOL    HW2 4131   4.380   0.282   1.146
 1078SOL     OW 4132   1.484   2.159   1.417
 1078SOL    HW1 4133   1.386   2.173   1.411
 1078SOL    HW2 4134   1.523   2.155   1.324
 1079SOL     OW 4135   3.033   5.555   3.697
 1079SOL    HW1 4136   3.009   5.489   3.768
 1079SOL    HW2 4137   3.038   5.509   3.608
 1080SOL     OW 4138   1.844   5.263   3.809
 1080SOL    HW1 4139   1.802   5.350   3.785
 1080SOL    HW2 4140   1.819   5.239   3.903
 1081SOL     OW 4141   1.952   0.616   0.525
 1081SOL    HW1 4142   1.854   0.609   0.546
 1081SOL    HW2 4143   2.004   0.616   0.611
 1082SOL     OW 4144   1.317   0.060   5.830
 1082SOL    HW1 4145   1.316   6.988   5.807
 1082SOL    HW2 4146   1.384   0.077   5.902
 1083SOL     OW 4147   3.525   3.668   2.316
 1083SOL    HW1 4148   3.488   3.590   2.366
 1083SOL    HW2 4149   3.602   3.638   2.259
 1084SOL     OW 4150   5.735   4.264   1.316
 1084SOL    HW1 4151   5.659   4.298   1.261
 1084SOL    HW2 4152   5.742   4.318   1.400
 1085SOL     OW 4153   1.765   4.726   4.088
 1085SOL    HW1 4154   1.859   4.759   4.086
 1085SOL    HW2 4155   1.728   4.737   4.180
 1086SOL     OW 4156   4.327   4.727   2.124
 1086SOL    HW1 4157   4.377   4.682   2.050
 1086SOL    HW2 4158   4.335   4.826   2.114
 1087SOL     OW 4159   4.522   2.850   5.342
 1087SOL    HW1 4160   4.498   2.947   5.348
 1087SOL    HW2 4161   4.441   2.794   5.359
 1088SOL     OW 4162   5.029   4.421   4.024
 1088SOL    HW1 4163   5.069   4.475   3.950
 1088SOL    HW2 4164   5.094   4.411   4.099
 1089SOL     OW 4165   0.124   0.148   4.023
 1089SOL    HW1 4166   0.111   0.236   4.069
 1089SOL    HW2 4167   0.046   0.088   4.043
 1090SOL     OW 4168   1.705   1.535   6.860
 1090SOL    HW1 4169   1.657   1.609   6.812
 1090SOL    HW2 4170   1.755   1.479   6.795
 1091SOL     OW 4171   1.849   1.803   4.889
 1091SOL    HW1 4172   1.889   1.861   4.961
 1091SOL    HW2 4173   1.919   1.782   4.821
 1092SOL     OW 4174   2.479   3.806   1.723
 1092SOL    HW1 4175   2.448   3.901   1.721
 1092SOL    HW2 4176   2.401   3.745   1.713
 1093SOL     OW 4177   0.456   2.450   2.371
 1093SOL    HW1 4178   0.547   2.428   2.335
 1093SOL    HW2 4179   0.445   2.407   2.461
 1094SOL     OW 4180   0.260   6.754   1.157
 1094SOL    HW1 4181   0.313   6.691   1.099
 1094SOL    HW2 4182   0.317   6.831   1.183
 1095SOL     OW 4183   6.292   3.108   6.290
 1095SOL    HW1 4184   6.258   3.166   6.216
 1095SOL    HW2 4185   6.214   3.067   6.337
 1096SOL     OW 4186   3.612   4.317   1.718
 1096SOL    HW1 4187   3.705   4.314   1.680
 1096SOL    HW2 4188   3.606   4.393   1.783
 1097SOL     OW 4189   1.246   5.493   5.187
 1097SOL    HW1 4190   1.197   5.445   5.114
 1097SOL    HW2 4191   1.279   5.428   5.254
 1098SOL     OW 4192   4.668   1.815   2.415
 1098SOL    HW1 4193   4.760   1.822   2.376
 1098SOL    HW2 4194   4.611   1.759   2.355
 1099SOL     OW 4195   4.301   1.741   4.117
 1099SOL    HW1 4196   4.227   1.790   4.163
 1099SOL    HW2 4197   4.287   1.643   4.128
 1100SOL     OW 4198   0.580   0.748   6.806
 1100SOL    HW1 4199   0.589   0.823   6.740
 1100SOL    HW2 4200   0.490   0.754   6.850
 1101SOL     OW 4201   5.124   3.647   1.116
 1101SOL    HW1 4202   5.125   3.590   1.034
 1101SOL    HW2 4203   5.118   3.743   1.089
 1102SOL     OW 4204   0.392   4.815   3.743
 1102SOL    HW1 4205   0.415   4.798   3.839
 1102SOL    HW2 4206   0.474   4.810   3.687
 1103SOL     OW 4207   1.835   2.077   1.928
 1103SOL    HW1 4208   1.840   2.171   1.963
 1103SOL    HW2 4209   1.884   2.071   1.841
 1104SOL     OW 4210   3.642   4.780   6.114
 1104SOL    HW1 4211   3.689   4.693   6.130
 1104SOL    HW2 4212   3.595   4.777   6.026
 1105SOL     OW 4213   5.234   4.290   6.226
 1105SOL    HW1 4214   5.279   4.200   6.224
 1105SOL    HW2 4215   5.269   4.346   6.151
 1106SOL     OW 4216   0.330   2.694   5.485
 1106SOL    HW1 4217   0.286   2.759   5.546
 1106SOL    HW2 4218   0.394   2.637   5.538
 1107SOL     OW 4219   1.276   0.410   0.690
 1107SOL    HW1 4220   1.259   0.349   0.612
 1107SOL    HW2 4221   1.228   0.374   0.770
 1108SOL     OW 4222   1.743   1.066   5.376
 1108SOL    HW1 4223   1.666   1.090   5.318
 1108SOL    HW2 4224   1.776   1.147   5.425
 1109SOL     OW 4225   4.067   6.737   3.734
 1109SOL    HW1 4226   4.087   6.756   3.637
 1109SOL    HW2 4227   4.072   6.821   3.786
 1110SOL     OW 4228   2.993   3.698   2.067
 1110SOL    HW1 4229   2.940   3.656   1.993
 1110SOL    HW2 4230   3.089   3.669   2.061
 1111SOL     OW 4231   5.494   1.034   0.254
 1111SOL    HW1 4232   5.448   1.004   0.170
 1111SOL    HW2 4233   5.592   1.014   0.247
 1112SOL     OW 4234   6.929   0.965   2.087
 1112SOL    HW1 4235   6.866   0.955   2.010
 1112SOL    HW2 4236   7.016   0.921   2.065
 1113SOL     OW 4237   6.475   3.227   2.569
 1113SOL    HW1 4238   6.407   3.164   2.607
 1113SOL    HW2 4239   6.547   3.242   2.637
 1114SOL     OW 4240   4.601   1.294   5.616
 1114SOL    HW1 4241   4.508   1.325   5.594
 1114SOL    HW2 4242   4.599   1.196   5.637
 1115SOL     OW 4243   2.951   3.400   1.091
 1115SOL    HW1 4244   3.040   3.383   1.048
 1115SOL    HW2 4245   2.911   3.313   1.119
 1116SOL     OW 4246   3.833   6.784   4.120
 1116SOL    HW1 4247   3.805   6.714   4.054
 1116SOL    HW2 4248   3.818   6.874   4.081
 1117SOL     OW 4249   2.997   2.784   1.135
 1117SOL    HW1 4250   2.898   2.770   1.123
 1117SOL    HW2 4251   3.047   2.719   1.077
 1118SOL     OW 4252   2.328   4.275   3.247
 1118SOL    HW1 4253   2.274   4.293   3.165
 1118SOL    HW2 4254   2.322   4.178   3.270
 1119SOL     OW 4255   4.125   3.720   1.616
 1119SOL    HW1 4256   4.102   3.665   1.696
 1119SOL    HW2 4257   4.206   3.775   1.635
 1120SOL     OW 4258   4.841   0.216   5.213
 1120SOL    HW1 4259   4.900   0.234   5.291
 1120SOL    HW2 4260   4.829   0.117   5.204
 1121SOL     OW 4261   5.497   2.687   1.928
 1121SOL    HW1 4262   5.483   2.621   1.854
 1121SOL    HW2 4263   5.516   2.777   1.889
 1122SOL     OW 4264   5.033   3.469   6.353
 1122SOL    HW1 4265   4.990   3.386   6.387
 1122SOL    HW2 4266   4.986   3.549   6.391
 1123SOL     OW 4267   4.248   0.938   2.586
 1123SOL    HW1 4268   4.324   0.966   2.645
 1123SOL    HW2 4269   4.227   1.012   2.522
 1124SOL     OW 4270   6.754   4.042   4.751
 1124SOL    HW1 4271   6.699   3.977   4.699
 1124SOL    HW2 4272   6.798   4.107   4.688
 1125SOL     OW 4273   3.419   3.300   4.981
 1125SOL    HW1 4274   3.371   3.311   4.895
 1125SOL    HW2 4275   3.503   3.354   4.980
 1126SOL     OW 4276   5.198   6.483   1.557
 1126SOL    HW1 4277   5.224   6.438   1.642
 1126SOL    HW2 4278   5.105   6.520   1.566
 1127SOL     OW 4279   2.019   4.977   0.073
 1127SOL    HW1 4280   1.926   5.003   0.100
 1127SOL    HW2 4281   2.056   4.912   0.139
 1128SOL     OW 4282   3.220   1.835   4.427
 1128SOL    HW1 4283   3.302   1.884   4.396
 1128SOL    HW2 4284   3.244   1.742   4.453
 1129SOL     OW 4285   5.322   0.309   6.703
 1129SOL    HW1 4286   5.339   0.406   6.688
 1129SOL    HW2 4287   5.226   0.288   6.680
 1130SOL     OW 4288   0.910   4.501   6.709
 1130SOL    HW1 4289   0.812   4.484   6.711
 1130SOL    HW2 4290   0.956   4.441   6.775
 1131SOL     OW 4291   0.397   6.190   5.447
 1131SOL    HW1 4292   0.404   6.269   5.386
 1131SOL    HW2 4293   0.410   6.220   5.541
 1132SOL     OW 4294   4.884   6.435   5.471
 1132SOL    HW1 4295   4.949   6.511   5.469
 1132SOL    HW2 4296   4.821   6.444   5.394
 1133SOL     OW 4297   0.291   3.829   1.464
 1133SOL    HW1 4298   0.375   3.866   1.425
 1133SOL    HW2 4299   0.214   3.890   1.444
 1134SOL     OW 4300   5.392   2.716   6.001
 1134SOL    HW1 4301   5.312   2.689   5.947
 1134SOL    HW2 4302   5.366   2.722   6.097
 1135SOL     OW 4303   2.689   2.161   3.426
 1135SOL    HW1 4304   2.714   2.177   3.331
 1135SOL    HW2 4305   2.751   2.213   3.486
 1136SOL     OW 4306   3.309   5.684   3.581
 1136SOL    HW1 4307   3.329   5.589   3.601
 1136SOL    HW2 4308   3.294   5.734   3.666
 1137SOL     OW 4309   1.056   1.406   6.383
 1137SOL    HW1 4310   1.131   1.466   6.355
 1137SOL    HW2 4311   0.971   1.437   6.340
 1138SOL     OW 4312   1.225   3.748   5.938
 1138SOL    HW1 4313   1.303   3.707   5.986
 1138SOL    HW2 4314   1.218   3.844   5.962
 1139SOL     OW 4315   1.838   6.730   2.510
 1139SOL    HW1 4316   1.850   6.728   2.609
 1139SOL    HW2 4317   1.761   6.672   2.484
 1140SOL     OW 4318   3.536   1.482   3.429
 1140SOL    HW1 4319   3.611   1.423   3.459
 1140SOL    HW2 4320   3.498   1.530   3.508
 1141SOL     OW 4321   6.430   5.731   5.082
 1141SOL    HW1 4322   6.443   5.785   4.999
 1141SOL    HW2 4323   6.368   5.655   5.063
 1142SOL     OW 4324   5.194   0.454   4.058
 1142SOL    HW1 4325   5.209   0.372   4.003
 1142SOL    HW2 4326   5.221   0.436   4.153
 1143SOL     OW 4327   3.926   2.127   3.182
 1143SOL    HW1 4328   3.998   2.146   3.115
 1143SOL    HW2 4329   3.854   2.073   3.139
 1144SOL     OW 4330   0.195   5.113   4.358
 1144SOL    HW1 4331   0.238   5.167   4.287
 1144SOL    HW2 4332   0.264   5.082   4.423
 1145SOL     OW 4333   6.779   5.532   4.428
 1145SOL    HW1 4334   6.801   5.626   4.453
 1145SOL    HW2 4335   6.774   5.525   4.328
 1146SOL     OW 4336   5.927   1.870   0.860
 1146SOL    HW1 4337   5.944   1.836   0.767
 1146SOL    HW2 4338   5.833   1.848   0.887
 1147SOL     OW 4339   0.326   3.497   1.997
 1147SOL    HW1 4340   0.409   3.547   1.973
 1147SOL    HW2 4341   0.340   3.399   1.982
 1148SOL     OW 4342   3.660   6.629   7.003
 1148SOL    HW1 4343   3.698   6.546   6.961
 1148SOL    HW2 4344   3.577   6.656   6.955
 1149SOL     OW 4345   6.827   3.323   2.469
 1149SOL    HW1 4346   6.838   3.268   2.387
 1149SOL    HW2 4347   6.741   3.297   2.515
 1150SOL     OW 4348   1.662   4.939   0.598
 1150SOL    HW1 4349   1.734   4.946   0.528
 1150SOL    HW2 4350   1.696   4.975   0.684
 1151SOL     OW 4351   6.046   5.272   6.532
 1151SOL    HW1 4352   5.977   5.339   6.506
 1151SOL    HW2 4353   6.089   5.300   6.617
 1152SOL     OW 4354   1.929   7.025   4.920
 1152SOL    HW1 4355   1.931   0.099   4.923
 1152SOL    HW2 4356   1.896   6.989   5.007
 1153SOL     OW 4357   2.427   5.615   2.952
 1153SOL    HW1 4358   2.483   5.560   2.889
 1153SOL    HW2 4359   2.417   5.566   3.039
 1154SOL     OW 4360   0.360   3.685   1.686
 1154SOL    HW1 4361   0.315   3.726   1.606
 1154SOL    HW2 4362   0.376   3.588   1.669
 1155SOL     OW 4363   3.647   5.685   1.889
 1155SOL    HW1 4364   3.654   5.640   1.978
 1155SOL    HW2 4365   3.739   5.703   1.854
 1156SOL     OW 4366   2.260   0.410   4.432
 1156SOL    HW1 4367   2.265   0.322   4.480
 1156SOL    HW2 4368   2.345   0.461   4.446
 1157SOL     OW 4369   0.656   2.989   3.831
 1157SOL    HW1 4370   0.701   2.903   3.809
 1157SOL    HW2 4371   0.706   3.065   3.789
 1158SOL     OW 4372   5.537   5.161   5.334
 1158SOL    HW1 4373   5.627   5.186   5.298
 1158SOL    HW2 4374   5.547   5.129   5.428
 1159SOL     OW 4375   3.797   5.199   3.488
 1159SOL    HW1 4376   3.785   5.100   3.477
 1159SOL    HW2 4377   3.880   5.217   3.541
 1160SOL     OW 4378   3.935   3.477   1.935
 1160SOL    HW1 4379   3.988   3.401   1.897
 1160SOL    HW2 4380   3.995   3.557   1.946
 1161SOL     OW 4381   5.604   0.992   3.572
 1161SOL    HW1 4382   5.512   1.025   3.593
 1161SOL    HW2 4383   5.599   0.895   3.544
 1162SOL     OW 4384   3.526   4.132   2.233
 1162SOL    HW1 4385   3.522   4.229   2.256
 1162SOL    HW2 4386   3.597   4.088   2.288
 1163SOL     OW 4387   5.074   2.054   2.680
 1163SOL    HW1 4388   5.124   1.968   2.696
 1163SOL    HW2 4389   5.018   2.045   2.597
 1164SOL     OW 4390   5.625   2.854   3.188
 1164SOL    HW1 4391   5.618   2.787   3.114
 1164SOL    HW2 4392   5.670   2.937   3.155
 1165SOL     OW 4393   0.540   4.505   3.295
 1165SOL    HW1 4394   0.447   4.497   3.329
 1165SOL    HW2 4395   0.558   4.432   3.229
 1166SOL     OW 4396   4.055   2.375   6.075
 1166SOL    HW1 4397   4.011   2.363   5.986
 1166SOL    HW2 4398   4.044   2.470   6.104
 1167SOL     OW 4399   4.948   1.206   5.221
 1167SOL    HW1 4400   5.000   1.233   5.141
 1167SOL    HW2 4401   4.860   1.167   5.192
 1168SOL     OW 4402   6.842   6.927   3.215
 1168SOL    HW1 4403   6.780   6.881   3.278
 1168SOL    HW2 4404   6.912   6.862   3.185
 1169SOL     OW 4405   0.534   3.891   1.345
 1169SOL    HW1 4406   0.627   3.879   1.381
 1169SOL    HW2 4407   0.515   3.819   1.278
 1170SOL     OW 4408   3.314   1.220   2.153
 1170SOL    HW1 4409   3.295   1.297   2.092
 1170SOL    HW2 4410   3.250   1.145   2.133
 1171SOL     OW 4411   2.999   5.750   0.989
 1171SOL    HW1 4412   2.960   5.840   0.966
 1171SOL    HW2 4413   2.980   5.730   1.085
 1172SOL     OW 4414   2.889   3.404   4.626
 1172SOL    HW1 4415   2.920   3.499   4.624
 1172SOL    HW2 4416   2.801   3.399   4.672
 1173SOL     OW 4417   3.205   1.020   6.258
 1173SOL    HW1 4418   3.303   1.006   6.268
 1173SOL    HW2 4419   3.187   1.117   6.244
 1174SOL     OW 4420   3.006   6.105   1.379
 1174SOL    HW1 4421   3.055   6.103   1.466
 1174SOL    HW2 4422   2.920   6.055   1.388
 1175SOL     OW 4423   6.449   4.848   5.938
 1175SOL    HW1 4424   6.501   4.870   5.855
 1175SOL    HW2 4425   6.382   4.777   5.918
 1176SOL     OW 4426   5.563   4.449   1.138
 1176SOL    HW1 4427   5.480   4.504   1.139
 1176SOL    HW2 4428   5.601   4.447   1.046
 1177SOL     OW 4429   6.698   2.790   5.653
 1177SOL    HW1 4430   6.656   2.814   5.566
 1177SOL    HW2 4431   6.791   2.827   5.657
 1178SOL     OW 4432   6.000   3.395   1.569
 1178SOL    HW1 4433   6.077   3.377   1.630
 1178SOL    HW2 4434   6.027   3.464   1.502
 1179SOL     OW 4435   2.039   5.771   6.894
 1179SOL    HW1 4436   1.976   5.789   6.819
 1179SOL    HW2 4437   1.999   5.802   6.980
 1180SOL     OW 4438   2.013   1.990   4.453
 1180SOL    HW1 4439   1.979   1.944   4.535
 1180SOL    HW2 4440   1.986   2.086   4.455
 1181SOL     OW 4441   2.035   4.352   3.192
 1181SOL    HW1 4442   2.033   4.372   3.094
 1181SOL    HW2 4443   1.997   4.261   3.208
 1182SOL     OW 4444   2.517   4.469   3.989
 1182SOL    HW1 4445   2.613   4.475   3.963
 1182SOL    HW2 4446   2.464   4.537   3.938
 1183SOL     OW 4447   4.491   5.932   0.795
 1183SOL    HW1 4448   4.406   5.985   0.797
 1183SOL    HW2 4449   4.516   5.907   0.889
 1184SOL     OW 4450   3.042   2.714   5.576
 1184SOL    HW1 4451   3.081   2.673   5.493
 1184SOL    HW2 4452   3.107   2.704   5.651
 1185SOL     OW 4453   2.144   0.749   0.099
 1185SOL    HW1 4454   2.216   0.679   0.098
 1185SOL    HW2 4455   2.146   0.798   0.186
 1186SOL     OW 4456   4.911   0.681   4.474
 1186SOL    HW1 4457   4.935   0.584   4.465
 1186SOL    HW2 4458   4.975   0.725   4.538
 1187SOL     OW 4459   5.745   0.366   5.309
 1187SOL    HW1 4460   5.737   0.315   5.224
 1187SOL    HW2 4461   5.840   0.391   5.324
 1188SOL     OW 4462   1.746   0.192   6.171
 1188SOL    HW1 4463   1.694   0.196   6.256
 1188SOL    HW2 4464   1.810   0.269   6.168
 1189SOL     OW 4465   5.782   0.412   1.604
 1189SOL    HW1 4466   5.752   0.443   1.514
 1189SOL    HW2 4467   5.741   0.322   1.623
 1190SOL     OW 4468   4.364   4.904   2.425
 1190SOL    HW1 4469   4.447   4.907   2.369
 1190SOL    HW2 4470   4.315   4.819   2.408
 1191SOL     OW 4471   3.085   5.599   6.546
 1191SOL    HW1 4472   3.066   5.514   6.496
 1191SOL    HW2 4473   3.173   5.589   6.594
 1192SOL     OW 4474   5.922   5.457   2.817
 1192SOL    HW1 4475   5.843   5.518   2.826
 1192SOL    HW2 4476   5.893   5.368   2.785
 1193SOL     OW 4477   5.233   0.590   3.583
 1193SOL    HW1 4478   5.279   0.576   3.671
 1193SOL    HW2 4479   5.137   0.616   3.599
 1194SOL     OW 4480   6.266   0.243   0.318
 1194SOL    HW1 4481   6.273   0.146   0.294
 1194SOL    HW2 4482   6.230   0.251   0.411
 1195SOL     OW 4483   5.535   0.310   6.458
 1195SOL    HW1 4484   5.578   0.383   6.511
 1195SOL    HW2 4485   5.453   0.279   6.504
 1196SOL     OW 4486   0.356   5.059   2.748
 1196SOL    HW1 4487   0.325   5.067   2.653
 1196SOL    HW2 4488   0.389   5.148   2.780
 1197SOL     OW 4489   3.948   5.701   5.567
 1197SOL    HW1 4490   3.885   5.697   5.489
 1197SOL    HW2 4491   3.990   5.612   5.581
 1198SOL     OW 4492   3.354   2.044   3.127
 1198SOL    HW1 4493   3.336   1.948   3.104
 1198SOL    HW2 4494   3.376   2.095   3.044
 1199SOL     OW 4495   3.694   4.022   2.018
 1199SOL    HW1 4496   3.681   4.068   1.930
 1199SOL    HW2 4497   3.625   4.052   2.083
 1200SOL     OW 4498   3.812   4.287   6.689
 1200SOL    HW1 4499   3.787   4.334   6.605
 1200SOL    HW2 4500   3.735   4.289   6.753
 1201SOL     OW 4501   1.305   1.464   5.311
 1201SOL    HW1 4502   1.240   1.538   5.292
 1201SOL    HW2 4503   1.312   1.404   5.231
 1202SOL     OW 4504   5.770   0.300   5.031
 1202SOL    HW1 4505   5.869   0.307   5.042
 1202SOL    HW2 4506   5.749   0.239   4.954
 1203SOL     OW 4507   5.438   6.929   0.996
 1203SOL    HW1 4508   5.470   6.902   0.906
 1203SOL    HW2 4509   5.511   6.978   1.045
 1204SOL     OW 4510   3.662   0.675   0.670
 1204SOL    HW1 4511   3.586   0.671   0.606
 1204SOL    HW2 4512   3.711   0.761   0.659
 1205SOL     OW 4513   5.967   2.101   5.271
 1205SOL    HW1 4514   5.880   2.125   5.228
 1205SOL    HW2 4515   6.030   2.065   5.203
 1206SOL     OW 4516   2.251   2.129   5.121
 1206SOL    HW1 4517   2.328   2.100   5.179
 1206SOL    HW2 4518   2.274   2.112   5.025
 1207SOL     OW 4519   5.938   0.144   6.625
 1207SOL    HW1 4520   5.899   0.220   6.572
 1207SOL    HW2 4521   5.865   0.081   6.651
 1208SOL     OW 4522   3.734   3.428   3.116
 1208SOL    HW1 4523   3.742   3.496   3.189
 1208SOL    HW2 4524   3.794   3.453   3.040
 1209SOL     OW 4525   5.419   5.001   4.148
 1209SOL    HW1 4526   5.377   5.084   4.112
 1209SOL    HW2 4527   5.441   5.014   4.244
 1210SOL     OW 4528   4.246   6.870   2.443
 1210SOL    HW1 4529   4.192   6.929   2.503
 1210SOL    HW2 4530   4.335   6.911   2.426
 1211SOL     OW 4531   0.837   4.424   4.736
 1211SOL    HW1 4532   0.846   4.326   4.721
 1211SOL    HW2 4533   0.759   4.459   4.684
 1212SOL     OW 4534   1.515   4.015   5.104
 1212SOL    HW1 4535   1.415   4.014   5.100
 1212SOL    HW2 4536   1.552   4.008   5.011
 1213SOL     OW 4537   6.478   2.296   5.449
 1213SOL    HW1 4538   6.431   2.221   5.494
 1213SOL    HW2 4539   6.561   2.262   5.406
 1214SOL     OW 4540   1.895   3.805   3.586
 1214SOL    HW1 4541   1.932   3.761   3.504
 1214SOL    HW2 4542   1.950   3.781   3.665
 1215SOL     OW 4543   1.033   4.520   2.378
 1215SOL    HW1 4544   1.000   4.512   2.472
 1215SOL    HW2 4545   1.133   4.509   2.377
 1216SOL     OW 4546   1.579   0.355   1.775
 1216SOL    HW1 4547   1.659   0.310   1.735
 1216SOL    HW2 4548   1.587   0.454   1.761
 1217SOL     OW 4549   1.628   6.501   1.761
 1217SOL    HW1 4550   1.629   6.581   1.821
 1217SOL    HW2 4551   1.601   6.529   1.669
 1218SOL     OW 4552   0.556   3.751   4.124
 1218SOL    HW1 4553   0.513   3.838   4.146
 1218SOL    HW2 4554   0.567   3.744   4.025
 1219SOL     OW 4555   3.608   6.326   1.321
 1219SOL    HW1 4556   3.564   6.237   1.325
 1219SOL    HW2 4557   3.641   6.344   1.229
 1220SOL     OW 4558   5.857   3.479   3.396
 1220SOL    HW1 4559   5.831   3.555   3.336
 1220SOL    HW2 4560   5.790   3.471   3.470
 1221SOL     OW 4561   4.970   3.777   0.037
 1221SOL    HW1 4562   4.941   3.702   7.004
 1221SOL    HW2 4563   5.056   3.815   0.002
 1222SOL     OW 4564   6.839   6.468   1.021
 1222SOL    HW1 4565   6.902   6.391   1.026
 1222SOL    HW2 4566   6.802   6.488   1.112
 1223SOL     OW 4567   6.327   6.909   6.265
 1223SOL    HW1 4568   6.424   6.912   6.241
 1223SOL    HW2 4569   6.281   6.988   6.225
 1224SOL     OW 4570   4.941   5.612   1.551
 1224SOL    HW1 4571   4.865   5.553   1.579
 1224SOL    HW2 4572   4.914   5.708   1.560
 1225SOL     OW 4573   4.723   2.205   0.611
 1225SOL    HW1 4574   4.796   2.224   0.677
 1225SOL    HW2 4575   4.705   2.106   0.609
 1226SOL     OW 4576   6.104   6.195   0.911
 1226SOL    HW1 4577   6.042   6.175   0.987
 1226SOL    HW2 4578   6.196   6.212   0.947
 1227SOL     OW 4579   6.055   3.761   5.277
 1227SOL    HW1 4580   5.959   3.759   5.249
 1227SOL    HW2 4581   6.087   3.668   5.296
 1228SOL     OW 4582   3.990   3.223   2.722
 1228SOL    HW1 4583   3.962   3.159   2.650
 1228SOL    HW2 4584   3.984   3.177   2.811
 1229SOL     OW 4585   2.532   5.829   2.805
 1229SOL    HW1 4586   2.436   5.857   2.798
 1229SOL    HW2 4587   2.538   5.746   2.860
 1230SOL     OW 4588   5.360   4.953   1.217
 1230SOL    HW1 4589   5.395   4.924   1.306
 1230SOL    HW2 4590   5.437   4.960   1.153
 1231SOL     OW 4591   1.831   2.433   6.767
 1231SOL    HW1 4592   1.898   2.464   6.699
 1231SOL    HW2 4593   1.744   2.414   6.722
 1232SOL     OW 4594   3.015   0.706   5.550
 1232SOL    HW1 4595   3.045   0.768   5.477
 1232SOL    HW2 4596   2.936   0.654   5.519
 1233SOL     OW 4597   0.086   5.918   4.599
 1233SOL    HW1 4598   0.135   5.832   4.611
 1233SOL    HW2 4599   0.072   5.935   4.501
 1234SOL     OW 4600   6.535   2.969   6.691
 1234SOL    HW1 4601   6.608   2.969   6.759
 1234SOL    HW2 4602   6.458   3.023   6.725
 1235SOL     OW 4603   6.264   5.281   0.033
 1235SOL    HW1 4604   6.189   5.216   0.050
 1235SOL    HW2 4605   6.351   5.236   0.050
 1236SOL     OW 4606   1.813   1.864   1.635
 1236SOL    HW1 4607   1.904   1.894   1.661
 1236SOL    HW2 4608   1.798   1.770   1.666
 1237SOL     OW 4609   0.929   6.894   4.710
 1237SOL    HW1 4610   1.016   6.866   4.751
 1237SOL    HW2 4611   0.873   6.940   4.778
 1238SOL     OW 4612   6.808   0.881   4.059
 1238SOL    HW1 4613   6.777   0.975   4.043
 1238SOL    HW2 4614   6.802   0.830   3.973
 1239SOL     OW 4615   6.322   4.547   4.144
 1239SOL    HW1 4616   6.413   4.517   4.116
 1239SOL    HW2 4617   6.327   4.638   4.186
 1240SOL     OW 4618   5.805   4.533   3.669
 1240SOL    HW1 4619   5.769   4.552   3.578
 1240SOL    HW2 4620   5.828   4.436   3.676
 1241SOL     OW 4621   5.328   4.939   4.639
 1241SOL    HW1 4622   5.321   4.959   4.737
 1241SOL    HW2 4623   5.356   4.844   4.627
 1242SOL     OW 4624   1.121   4.569   0.091
 1242SOL    HW1 4625   1.097   4.504   0.164
 1242SOL    HW2 4626   1.054   4.643   0.089
 1243SOL     OW 4627   1.080   4.460   4.906
 1243SOL    HW1 4628   1.092   4.474   5.005
 1243SOL    HW2 4629   0.991   4.417   4.890
 1244SOL     OW 4630   5.290   6.793   4.598
 1244SOL    HW1 4631   5.288   6.693   4.598
 1244SOL    HW2 4632   5.226   6.827   4.529
 1245SOL     OW 4633   4.790   6.871   2.036
 1245SOL    HW1 4634   4.745   6.858   1.947
 1245SOL    HW2 4635   4.889   6.879   2.022
 1246SOL     OW 4636   4.459   1.543   0.287
 1246SOL    HW1 4637   4.461   1.635   0.248
 1246SOL    HW2 4638   4.534   1.489   0.249
 1247SOL     OW 4639   6.531   6.880   3.768
 1247SOL    HW1 4640   6.537   6.828   3.854
 1247SOL    HW2 4641   6.447   6.855   3.720
 1248SOL     OW 4642   1.156   6.803   4.878
 1248SOL    HW1 4643   1.133   6.737   4.949
 1248SOL    HW2 4644   1.213   6.759   4.809
 1249SOL     OW 4645   6.458   4.510   6.911
 1249SOL    HW1 4646   6.526   4.449   6.952
 1249SOL    HW2 4647   6.454   4.596   6.961
 1250SOL     OW 4648   6.692   3.120   4.767
 1250SOL    HW1 4649   6.757   3.061   4.718
 1250SOL    HW2 4650   6.727   3.214   4.769
 1251SOL     OW 4651   2.832   0.519   2.910
 1251SOL    HW1 4652   2.884   0.491   2.830
 1251SOL    HW2 4653   2.879   0.489   2.993
 1252SOL     OW 4654   1.515   5.621   0.311
 1252SOL    HW1 4655   1.431   5.674   0.321
 1252SOL    HW2 4656   1.593   5.677   0.338
 1253SOL     OW 4657   3.653   0.849   1.273
 1253SOL    HW1 4658   3.595   0.773   1.298
 1253SOL    HW2 4659   3.597   0.929   1.251
 1254SOL     OW 4660   6.962   1.310   1.825
 1254SOL    HW1 4661   6.908   1.253   1.887
 1254SOL    HW2 4662   0.033   1.286   1.834
 1255SOL     OW 4663   5.680   1.108   5.335
 1255SOL    HW1 4664   5.723   1.060   5.412
 1255SOL    HW2 4665   5.625   1.043   5.282
 1256SOL     OW 4666   0.682   5.858   5.002
 1256SOL    HW1 4667   0.729   5.917   4.937
 1256SOL    HW2 4668   0.746   5.791   5.040
 1257SOL     OW 4669   0.224   5.239   4.076
 1257SOL    HW1 4670   0.237   5.161   4.015
 1257SOL    HW2 4671   0.227   5.323   4.023
 1258SOL     OW 4672   3.006   5.973   4.640
 1258SOL    HW1 4673   3.017   6.006   4.734
 1258SOL    HW2 4674   3.027   6.048   4.576
 1259SOL     OW 4675   5.274   0.210   3.897
 1259SOL    HW1 4676   5.307   0.226   3.804
 1259SOL    HW2 4677   5.315   0.127   3.934
 1260SOL     OW 4678   2.053   0.664   1.987
 1260SOL    HW1 4679   2.139   0.622   1.959
 1260SOL    HW2 4680   2.069   0.725   2.065
 1261SOL     OW 4681   6.824   4.376   6.322
 1261SOL    HW1 4682   6.725   4.390   6.314
 1261SOL    HW2 4683   6.854   4.310   6.253
 1262SOL     OW 4684   5.028   5.245   0.053
 1262SOL    HW1 4685   5.124   5.271   0.041
 1262SOL    HW2 4686   4.985   5.305   0.119
 1263SOL     OW 4687   0.421   2.137   1.508
 1263SOL    HW1 4688   0.427   2.091   1.596
 1263SOL    HW2 4689   0.492   2.102   1.447
 1264SOL     OW 4690   0.384   3.719   3.611
 1264SOL    HW1 4691   0.361   3.628   3.644
 1264SOL    HW2 4692   0.437   3.711   3.527
 1265SOL     OW 4693   6.761   4.527   5.542
 1265SOL    HW1 4694   6.724   4.434   5.538
 1265SOL    HW2 4695   6.807   4.540   5.630
 1266SOL     OW 4696   3.049   1.583   5.518
 1266SOL    HW1 4697   3.049   1.682   5.500
 1266SOL    HW2 4698   3.141   1.555   5.546
 1267SOL     OW 4699   6.780   5.336   2.788
 1267SOL    HW1 4700   6.794   5.250   2.738
 1267SOL    HW2 4701   6.771   5.317   2.885
 1268SOL     OW 4702   5.377   2.608   6.643
 1268SOL    HW1 4703   5.355   2.685   6.702
 1268SOL    HW2 4704   5.350   2.522   6.688
 1269SOL     OW 4705   6.810   5.409   5.373
 1269SOL    HW1 4706   6.800   5.333   5.309
 1269SOL    HW2 4707   6.855   5.377   5.457
 1270SOL     OW 4708   1.757   3.640   4.664
 1270SOL    HW1 4709   1.753   3.737   4.638
 1270SOL    HW2 4710   1.665   3.601   4.663
 1271SOL     OW 4711   3.703   1.977   2.780
 1271SOL    HW1 4712   3.678   2.044   2.710
 1271SOL    HW2 4713   3.794   1.940   2.760
 1272SOL     OW 4714   0.083   5.169   1.564
 1272SOL    HW1 4715   0.146   5.222   1.621
 1272SOL    HW2 4716   0.136   5.114   1.499
 1273SOL     OW 4717   3.073   5.396   6.874
 1273SOL    HW1 4718   3.082   5.490   6.842
 1273SOL    HW2 4719   2.976   5.372   6.877
 1274SOL     OW 4720   6.904   2.533   2.172
 1274SOL    HW1 4721   6.960   2.610   2.142
 1274SOL    HW2 4722   6.810   2.563   2.185
 1275SOL     OW 4723   4.027   1.503   4.720
 1275SOL    HW1 4724   3.999   1.564   4.646
 1275SOL    HW2 4725   3.987   1.535   4.806
 1276SOL     OW 4726   1.060   0.296   2.644
 1276SOL    HW1 4727   0.981   0.257   2.691
 1276SOL    HW2 4728   1.054   0.396   2.649
 1277SOL     OW 4729   6.920   0.597   4.212
 1277SOL    HW1 4730   6.831   0.565   4.180
 1277SOL    HW2 4731   6.989   0.527   4.195
 1278SOL     OW 4732   2.278   1.820   5.686
 1278SOL    HW1 4733   2.196   1.849   5.735
 1278SOL    HW2 4734   2.359   1.846   5.738
 1279SOL     OW 4735   2.795   6.096   0.656
 1279SOL    HW1 4736   2.869   6.055   0.603
 1279SOL    HW2 4737   2.804   6.195   0.655
 1280SOL     OW 4738   2.405   0.261   3.431
 1280SOL    HW1 4739   2.321   0.308   3.402
 1280SOL    HW2 4740   2.392   0.162   3.422
 1281SOL     OW 4741   1.240   6.389   3.317
 1281SOL    HW1 4742   1.333   6.357   3.305
 1281SOL    HW2 4743   1.237   6.488   3.304
 1282SOL     OW 4744   0.649   1.163   1.168
 1282SOL    HW1 4745   0.643   1.249   1.218
 1282SOL    HW2 4746   0.703   1.097   1.221
 1283SOL     OW 4747   5.801   5.238   5.238
 1283SOL    HW1 4748   5.839   5.285   5.158
 1283SOL    HW2 4749   5.867   5.170   5.271
 1284SOL     OW 4750   3.083   2.687   1.737
 1284SOL    HW1 4751   3.039   2.690   1.648
 1284SOL    HW2 4752   3.054   2.605   1.786
 1285SOL     OW 4753   4.708   2.586   5.748
 1285SOL    HW1 4754   4.800   2.560   5.777
 1285SOL    HW2 4755   4.702   2.686   5.741
 1286SOL     OW 4756   5.644   4.073   1.901
 1286SOL    HW1 4757   5.589   4.040   1.978
 1286SOL    HW2 4758   5.585   4.125   1.838
 1287SOL     OW 4759   6.671   5.796   6.613
 1287SOL    HW1 4760   6.595   5.797   6.548
 1287SOL    HW2 4761   6.729   5.876   6.596
 1288SOL     OW 4762   0.096   3.148   0.738
 1288SOL    HW1 4763   0.098   3.243   0.707
 1288SOL    HW2 4764   0.174   3.131   0.798
 1289SOL     OW 4765   6.636   6.219   2.128
 1289SOL    HW1 4766   6.732   6.229   2.105
 1289SOL    HW2 4767   6.626   6.207   2.226
 1290SOL     OW 4768   0.530   6.690   0.326
 1290SOL    HW1 4769   0.608   6.728   0.374
 1290SOL    HW2 4770   0.495   6.611   0.376
 1291SOL     OW 4771   1.101   6.463   6.924
 1291SOL    HW1 4772   1.068   6.401   6.853
 1291SOL    HW2 4773   1.201   6.470   6.918
 1292SOL     OW 4774   0.562   4.791   1.419
 1292SOL    HW1 4775   0.591   4.713   1.364
 1292SOL    HW2 4776   0.643   4.845   1.445
 1293SOL     OW 4777   0.619   1.526   6.724
 1293SOL    HW1 4778   0.576   1.593   6.785
 1293SOL    HW2 4779   0.690   1.477   6.773
 1294SOL     OW 4780   0.175   3.098   2.213
 1294SOL    HW1 4781   0.169   3.045   2.128
 1294SOL    HW2 4782   0.213   3.040   2.285
 1295SOL     OW 4783   5.233   2.618   1.694
 1295SOL    HW1 4784   5.267   2.644   1.604
 1295SOL    HW2 4785   5.304   2.570   1.744
 1296SOL     OW 4786   2.982   2.252   6.501
 1296SOL    HW1 4787   3.025   2.292   6.419
 1296SOL    HW2 4788   2.932   2.169   6.475
 1297SOL     OW 4789   6.653   1.411   5.424
 1297SOL    HW1 4790   6.748   1.442   5.413
 1297SOL    HW2 4791   6.647   1.314   5.402
 1298SOL     OW 4792   5.971   2.802   2.501
 1298SOL    HW1 4793   5.871   2.810   2.509
 1298SOL    HW2 4794   6.014   2.867   2.564
 1299SOL     OW 4795   1.189   4.136   4.740
 1299SOL    HW1 4796   1.284   4.146   4.708
 1299SOL    HW2 4797   1.133   4.208   4.701
 1300SOL     OW 4798   3.182   2.896   1.878
 1300SOL    HW1 4799   3.156   2.978   1.826
 1300SOL    HW2 4800   3.151   2.814   1.830
 1301SOL     OW 4801   0.701   6.629   4.113
 1301SOL    HW1 4802   0.693   6.687   4.032
 1301SOL    HW2 4803   0.727   6.536   4.086
 1302SOL     OW 4804   2.448   7.010   5.063
 1302SOL    HW1 4805   2.547   7.016   5.077
 1302SOL    HW2 4806   2.428   6.938   4.996
 1303SOL     OW 4807   3.564   1.549   0.778
 1303SOL    HW1 4808   3.495   1.477   0.779
 1303SOL    HW2 4809   3.646   1.518   0.826
 1304SOL     OW 4810   1.857   0.493   6.328
 1304SOL    HW1 4811   1.764   0.504   6.294
 1304SOL    HW2 4812   1.856   0.451   6.418
 1305SOL     OW 4813   4.281   0.109   4.394
 1305SOL    HW1 4814   4.371   0.150   4.403
 1305SOL    HW2 4815   4.288   0.010   4.403
 1306SOL     OW 4816   0.421   4.396   4.323
 1306SOL    HW1 4817   0.506   4.347   4.301
 1306SOL    HW2 4818   0.385   4.363   4.410
 1307SOL     OW 4819   1.186   3.199   4.740
 1307SOL    HW1 4820   1.096   3.218   4.780
 1307SOL    HW2 4821   1.253   3.265   4.775
 1308SOL     OW 4822   4.393   6.153   4.133
 1308SOL    HW1 4823   4.463   6.081   4.130
 1308SOL    HW2 4824   4.438   6.243   4.133
 1309SOL     OW 4825   5.745   2.500   4.487
 1309SOL    HW1 4826   5.731   2.413   4.440
 1309SOL    HW2 4827   5.802   2.486   4.568
 1310SOL     OW 4828   5.596   3.800   4.172
 1310SOL    HW1 4829   5.681   3.846   4.196
 1310SOL    HW2 4830   5.529   3.867   4.139
 1311SOL     OW 4831   6.295   6.942   4.825
 1311SOL    HW1 4832   6.358   6.870   4.795
 1311SOL    HW2 4833   6.328   6.980   4.912
 1312SOL     OW 4834   0.255   0.369   0.139
 1312SOL    HW1 4835   0.235   0.466   0.149
 1312SOL    HW2 4836   0.218   0.335   0.053
 1313SOL     OW 4837   3.445   5.164   5.382
 1313SOL    HW1 4838   3.417   5.091   5.444
 1313SOL    HW2 4839   3.521   5.133   5.326
 1314SOL     OW 4840   1.154   1.609   5.694
 1314SOL    HW1 4841   1.074   1.616   5.635
 1314SOL    HW2 4842   1.234   1.584   5.639
 1315SOL     OW 4843   2.216   1.692   1.508
 1315SOL    HW1 4844   2.316   1.686   1.500
 1315SOL    HW2 4845   2.190   1.686   1.605
 1316SOL     OW 4846   2.767   6.745   4.100
 1316SOL    HW1 4847   2.773   6.844   4.106
 1316SOL    HW2 4848   2.704   6.720   4.027
 1317SOL     OW 4849   0.019   4.934   4.698
 1317SOL    HW1 4850   0.088   4.917   4.768
 1317SOL    HW2 4851   7.010   5.027   4.707
 1318SOL     OW 4852   0.056   0.023   7.014
 1318SOL    HW1 4853   7.009   7.007   0.044
 1318SOL    HW2 4854   0.026   0.111   6.979
 1319SOL     OW 4855   5.953   1.556   0.360
 1319SOL    HW1 4856   6.040   1.511   0.343
 1319SOL    HW2 4857   5.966   1.629   0.427
 1320SOL     OW 4858   6.277   4.591   6.245
 1320SOL    HW1 4859   6.275   4.547   6.335
 1320SOL    HW2 4860   6.234   4.681   6.251
 1321SOL     OW 4861   4.074   2.676   7.022
 1321SOL    HW1 4862   3.974   2.668   7.016
 1321SOL    HW2 4863   4.116   2.616   6.954
 1322SOL     OW 4864   6.415   1.502   3.688
 1322SOL    HW1 4865   6.466   1.452   3.618
 1322SOL    HW2 4866   6.472   1.514   3.769
 1323SOL     OW 4867   0.392   1.568   5.236
 1323SOL    HW1 4868   0.412   1.596   5.142
 1323SOL    HW2 4869   0.447   1.488   5.259
 1324SOL     OW 4870   1.258   3.214   1.416
 1324SOL    HW1 4871   1.183   3.165   1.461
 1324SOL    HW2 4872   1.266   3.183   1.321
 1325SOL     OW 4873   1.960   6.340   3.591
 1325SOL    HW1 4874   1.947   6.269   3.661
 1325SOL    HW2 4875   1.889   6.409   3.601
 1326SOL     OW 4876   5.687   2.687   4.287
 1326SOL    HW1 4877   5.723   2.620   4.352
 1326SOL    HW2 4878   5.600   2.723   4.321
 1327SOL     OW 4879   3.175   4.858   3.417
 1327SOL    HW1 4880   3.186   4.951   3.453
 1327SOL    HW2 4881   3.264   4.812   3.415
 1328SOL     OW 4882   1.717   1.708   0.045
 1328SOL    HW1 4883   1.728   1.641   6.998
 1328SOL    HW2 4884   1.709   1.800   0.004
 1329SOL     OW 4885   0.859   1.357   0.571
 1329SOL    HW1 4886   0.889   1.375   0.664
 1329SOL    HW2 4887   0.921   1.291   0.528
 1330SOL     OW 4888   6.761   0.431   1.060
 1330SOL    HW1 4889   6.808   0.389   0.983
 1330SOL    HW2 4890   6.775   0.376   1.142
 1331SOL     OW 4891   5.950   0.472   2.079
 1331SOL    HW1 4892   5.941   0.443   1.983
 1331SOL    HW2 4893   5.859   0.487   2.118
 1332SOL     OW 4894   4.276   1.331   1.378
 1332SOL    HW1 4895   4.185   1.367   1.399
 1332SOL    HW2 4896   4.342   1.366   1.444
 1333SOL     OW 4897   3.863   3.766   4.931
 1333SOL    HW1 4898   3.905   3.790   4.844
 1333SOL    HW2 4899   3.804   3.841   4.962
 1334SOL     OW 4900   0.886   3.961   5.302
 1334SOL    HW1 4901   0.851   3.911   5.222
 1334SOL    HW2 4902   0.891   4.058   5.280
 1335SOL     OW 4903   2.130   5.656   3.055
 1335SOL    HW1 4904   2.213   5.712   3.047
 1335SOL    HW2 4905   2.071   5.673   2.976
 1336SOL     OW 4906   0.930   1.237   5.730
 1336SOL    HW1 4907   0.934   1.141   5.758
 1336SOL    HW2 4908   0.904   1.243   5.633
 1337SOL     OW 4909   1.694   2.000   6.435
 1337SOL    HW1 4910   1.642   2.011   6.519
 1337SOL    HW2 4911   1.772   2.063   6.436
 1338SOL     OW 4912   4.338   4.741   6.668
 1338SOL    HW1 4913   4.311   4.827   6.711
 1338SOL    HW2 4914   4.303   4.738   6.574
 1339SOL     OW 4915   6.919   3.942   6.176
 1339SOL    HW1 4916   6.941   4.011   6.246
 1339SOL    HW2 4917   6.821   3.926   6.176
 1340SOL     OW 4918   1.673   2.046   0.203
 1340SOL    HW1 4919   1.703   2.133   0.243
 1340SOL    HW2 4920   1.599   2.008   0.258
 1341SOL     OW 4921   2.970   1.658   3.667
 1341SOL    HW1 4922   2.906   1.586   3.641
 1341SOL    HW2 4923   2.930   1.714   3.740
 1342SOL     OW 4924   1.095   5.927   6.996
 1342SOL    HW1 4925   1.053   5.908   6.907
 1342SOL    HW2 4926   1.025   5.961   0.033
 1343SOL     OW 4927   3.903   5.800   2.441
 1343SOL    HW1 4928   3.854   5.717   2.464
 1343SOL    HW2 4929   3.985   5.809   2.497
 1344SOL     OW 4930   6.388   1.172   2.617
 1344SOL    HW1 4931   6.472   1.118   2.621
 1344SOL    HW2 4932   6.324   1.129   2.553
 1345SOL     OW 4933   0.869   0.502   2.920
 1345SOL    HW1 4934   0.831   0.453   2.998
 1345SOL    HW2 4935   0.943   0.562   2.951
 1346SOL     OW 4936   6.809   0.320   3.860
 1346SOL    HW1 4937   6.805   0.220   3.866
 1346SOL    HW2 4938   6.812   0.348   3.765
 1347SOL     OW 4939   6.542   6.687   3.135
 1347SOL    HW1 4940   6.597   6.713   3.214
 1347SOL    HW2 4941   6.484   6.764   3.109
 1348SOL     OW 4942   5.454   4.478   3.901
 1348SOL    HW1 4943   5.447   4.429   3.988
 1348SOL    HW2 4944   5.544   4.521   3.894
 1349SOL     OW 4945   3.841   2.586   6.914
 1349SOL    HW1 4946   3.785   2.584   6.997
 1349SOL    HW2 4947   3.812   2.512   6.853
 1350SOL     OW 4948   3.190   6.653   6.607
 1350SOL    HW1 4949   3.093   6.634   6.592
 1350SOL    HW2 4950   3.208   6.655   6.706
 1351SOL     OW 4951   0.340   1.091   3.539
 1351SOL    HW1 4952   0.393   1.011   3.511
 1351SOL    HW2 4953   0.249   1.087   3.497
 1352SOL     OW 4954   0.184   0.850   2.402
 1352SOL    HW1 4955   0.205   0.946   2.382
 1352SOL    HW2 4956   0.096   0.826   2.361
 1353SOL     OW 4957   0.548   4.169   4.811
 1353SOL    HW1 4958   0.592   4.166   4.901
 1353SOL    HW2 4959   0.449   4.176   4.823
 1354SOL     OW 4960   0.367   0.327   1.676
 1354SOL    HW1 4961   0.296   0.256   1.681
 1354SOL    HW2 4962   0.439   0.298   1.614
 1355SOL     OW 4963   4.666   3.541   0.167
 1355SOL    HW1 4964   4.609   3.585   0.098
 1355SOL    HW2 4965   4.703   3.455   0.131
 1356SOL     OW 4966   3.524   3.534   2.828
 1356SOL    HW1 4967   3.456   3.480   2.877
 1356SOL    HW2 4968   3.515   3.631   2.855
 1357SOL     OW 4969   2.692   2.948   5.902
 1357SOL    HW1 4970   2.616   3.001   5.865
 1357SOL    HW2 4971   2.775   2.967   5.849
 1358SOL     OW 4972   2.477   3.319   6.586
 1358SOL    HW1 4973   2.385   3.354   6.568
 1358SOL    HW2 4974   2.483   3.225   6.553
 1359SOL     OW 4975   6.304   3.319   1.003
 1359SOL    HW1 4976   6.358   3.235   1.014
 1359SOL    HW2 4977   6.338   3.389   1.066
 1360SOL     OW 4978   3.580   4.098   3.081
 1360SOL    HW1 4979   3.510   4.154   3.035
 1360SOL    HW2 4980   3.562   4.097   3.180
 1361SOL     OW 4981   0.693   5.996   6.740
 1361SOL    HW1 4982   0.694   6.096   6.735
 1361SOL    HW2 4983   0.603   5.962   6.714
 1362SOL     OW 4984   2.885   3.628   6.260
 1362SOL    HW1 4985   2.911   3.555   6.197
 1362SOL    HW2 4986   2.806   3.599   6.314
 1363SOL     OW 4987   6.243   5.769   2.441
 1363SOL    HW1 4988   6.192   5.711   2.504
 1363SOL    HW2 4989   6.333   5.789   2.479
 1364SOL     OW 4990   7.018   3.142   1.127
 1364SOL    HW1 4991   0.017   3.236   1.148
 1364SOL    HW2 4992   0.031   3.081   1.197
 1365SOL     OW 4993   0.464   3.500   6.399
 1365SOL    HW1 4994   0.505   3.591   6.392
 1365SOL    HW2 4995   0.524   3.433   6.356
 1366SOL     OW 4996   6.939   2.353   0.275
 1366SOL    HW1 4997   6.962   2.413   0.352
 1366SOL    HW2 4998   6.928   2.408   0.192
 1367SOL     OW 4999   0.229   5.461   3.834
 1367SOL    HW1 5000   0.285   5.517   3.894
 1367SOL    HW2 5001   0.134   5.493   3.836
 1368SOL     OW 5002   0.145   0.440   3.791
 1368SOL    HW1 5003   0.185   0.439   3.700
 1368SOL    HW2 5004   0.088   0.358   3.804
 1369SOL     OW 5005   2.707   6.293   2.925
 1369SOL    HW1 5006   2.790   6.264   2.973
 1369SOL    HW2 5007   2.732   6.356   2.851
 1370SOL     OW 5008   6.764   2.261   3.106
 1370SOL    HW1 5009   6.714   2.243   3.191
 1370SOL    HW2 5010   6.714   2.330   3.053
 1371SOL     OW 5011   5.738   1.134   4.383
 1371SOL    HW1 5012   5.679   1.200   4.337
 1371SOL    HW2 5013   5.707   1.121   4.477
 1372SOL     OW 5014   6.266   2.496   7.009
 1372SOL    HW1 5015   6.351   2.547   7.017
 1372SOL    HW2 5016   6.193   2.541   0.035
 1373SOL     OW 5017   4.752   2.788   2.184
 1373SOL    HW1 5018   4.738   2.860   2.116
 1373SOL    HW2 5019   4.786   2.829   2.269
 1374SOL     OW 5020   5.290   4.261   7.009
 1374SOL    HW1 5021   5.265   4.176   0.029
 1374SOL    HW2 5022   5.211   4.298   6.961
 1375SOL     OW 5023   5.812   6.128   4.803
 1375SOL    HW1 5024   5.782   6.065   4.874
 1375SOL    HW2 5025   5.788   6.222   4.829
 1376SOL     OW 5026   2.581   5.225   7.025
 1376SOL    HW1 5027   2.546   5.243   6.933
 1376SOL    HW2 5028   2.537   5.288   0.064
 1377SOL     OW 5029   1.418   2.279   3.050
 1377SOL    HW1 5030   1.460   2.337   3.119
 1377SOL    HW2 5031   1.390   2.193   3.091
 1378SOL     OW 5032   4.506   1.997   4.628
 1378SOL    HW1 5033   4.460   2.062   4.567
 1378SOL    HW2 5034   4.503   1.905   4.588
 1379SOL     OW 5035   5.438   5.361   1.272
 1379SOL    HW1 5036   5.382   5.311   1.206
 1379SOL    HW2 5037   5.442   5.457   1.245
 1380SOL     OW 5038   6.955   5.513   1.066
 1380SOL    HW1 5039   6.993   5.578   1.132
 1380SOL    HW2 5040   6.942   5.424   1.111
 1381SOL     OW 5041   6.721   1.990   5.595
 1381SOL    HW1 5042   6.656   2.044   5.648
 1381SOL    HW2 5043   6.681   1.901   5.574
 1382SOL     OW 5044   4.208   2.596   1.425
 1382SOL    HW1 5045   4.226   2.692   1.447
 1382SOL    HW2 5046   4.198   2.585   1.327
 1383SOL     OW 5047   1.182   0.567   1.664
 1383SOL    HW1 5048   1.261   0.520   1.624
 1383SOL    HW2 5049   1.169   0.535   1.758
 1384SOL     OW 5050   5.712   0.269   0.589
 1384SOL    HW1 5051   5.658   0.188   0.609
 1384SOL    HW2 5052   5.779   0.248   0.517
 1385SOL     OW 5053   1.822   5.254   2.863
 1385SOL    HW1 5054   1.900   5.210   2.907
 1385SOL    HW2 5055   1.790   5.329   2.920
 1386SOL     OW 5056   2.749   6.121   4.158
 1386SOL    HW1 5057   2.773   6.215   4.135
 1386SOL    HW2 5058   2.817   6.058   4.120
 1387SOL     OW 5059   3.574   6.139   1.592
 1387SOL    HW1 5060   3.541   6.233   1.601
 1387SOL    HW2 5061   3.541   6.084   1.669
 1388SOL     OW 5062   6.210   0.345   0.804
 1388SOL    HW1 5063   6.118   0.315   0.828
 1388SOL    HW2 5064   6.257   0.272   0.754
 1389SOL     OW 5065   6.718   0.942   2.952
 1389SOL    HW1 5066   6.673   0.975   3.035
 1389SOL    HW2 5067   6.802   0.995   2.937
 1390SOL     OW 5068   0.504   3.374   5.805
 1390SOL    HW1 5069   0.413   3.405   5.778
 1390SOL    HW2 5070   0.572   3.415   5.744
 1391SOL     OW 5071   6.913   1.892   3.335
 1391SOL    HW1 5072   6.845   1.878   3.263
 1391SOL    HW2 5073   7.004   1.873   3.298
 1392SOL     OW 5074   5.113   5.082   5.048
 1392SOL    HW1 5075   5.136   5.176   5.021
 1392SOL    HW2 5076   5.028   5.082   5.099
 1393SOL     OW 5077   5.341   6.162   5.854
 1393SOL    HW1 5078   5.420   6.100   5.857
 1393SOL    HW2 5079   5.297   6.155   5.765
 1394SOL     OW 5080   2.852   6.178   5.745
 1394SOL    HW1 5081   2.939   6.222   5.722
 1394SOL    HW2 5082   2.776   6.236   5.716
 1395SOL     OW 5083   2.974   4.455   5.901
 1395SOL    HW1 5084   2.966   4.553   5.916
 1395SOL    HW2 5085   3.030   4.414   5.973
 1396SOL     OW 5086   0.022   0.025   4.362
 1396SOL    HW1 5087   0.096   0.063   4.418
 1396SOL    HW2 5088   6.976   0.093   4.350
 1397SOL     OW 5089   6.064   0.439   4.760
 1397SOL    HW1 5090   6.128   0.363   4.760
 1397SOL    HW2 5091   6.026   0.451   4.852
 1398SOL     OW 5092   1.735   1.455   5.233
 1398SOL    HW1 5093   1.803   1.523   5.260
 1398SOL    HW2 5094   1.777   1.388   5.171
 1399SOL     OW 5095   3.124   6.395   1.535
 1399SOL    HW1 5096   3.037   6.400   1.585
 1399SOL    HW2 5097   3.149   6.299   1.522
 1400SOL     OW 5098   0.090   1.324   2.112
 1400SOL    HW1 5099   0.001   1.361   2.086
 1400SOL    HW2 5100   0.113   1.247   2.052
 1401SOL     OW 5101   0.250   1.828   5.314
 1401SOL    HW1 5102   0.325   1.873   5.364
 1401SOL    HW2 5103   0.289   1.766   5.246
 1402SOL     OW 5104   0.060   3.182   6.777
 1402SOL    HW1 5105   7.017   3.255   6.770
 1402SOL    HW2 5106   0.020   3.096   6.744
 1403SOL     OW 5107   3.236   0.193   2.129
 1403SOL    HW1 5108   3.306   0.129   2.160
 1403SOL    HW2 5109   3.279   0.279   2.102
 1404SOL     OW 5110   5.263   0.574   0.490
 1404SOL    HW1 5111   5.265   0.569   0.390
 1404SOL    HW2 5112   5.349   0.542   0.527
 1405SOL     OW 5113   2.084   4.132   0.938
 1405SOL    HW1 5114   2.102   4.147   0.841
 1405SOL    HW2 5115   2.070   4.035   0.955
 1406SOL     OW 5116   1.434   5.028   1.592
 1406SOL    HW1 5117   1.520   5.010   1.640
 1406SOL    HW2 5118   1.446   5.106   1.531
 1407SOL     OW 5119   6.731   0.977   1.916
 1407SOL    HW1 5120   6.692   0.888   1.893
 1407SOL    HW2 5121   6.660   1.047   1.910
 1408SOL     OW 5122   5.391   0.625   6.303
 1408SOL    HW1 5123   5.457   0.649   6.374
 1408SOL    HW2 5124   5.423   0.661   6.215
 1409SOL     OW 5125   0.054   0.586   5.097
 1409SOL    HW1 5126   0.043   0.600   4.999
 1409SOL    HW2 5127   6.991   0.573   5.140
 1410SOL     OW 5128   1.837   3.287   6.654
 1410SOL    HW1 5129   1.854   3.256   6.560
 1410SOL    HW2 5130   1.739   3.305   6.666
 1411SOL     OW 5131   2.103   6.764   3.148
 1411SOL    HW1 5132   2.159   6.690   3.109
 1411SOL    HW2 5133   2.160   6.845   3.161
 1412SOL     OW 5134   1.521   2.925   0.576
 1412SOL    HW1 5135   1.568   2.994   0.520
 1412SOL    HW2 5136   1.443   2.967   0.622
 1413SOL     OW 5137   2.124   0.645   4.758
 1413SOL    HW1 5138   2.182   0.571   4.791
 1413SOL    HW2 5139   2.085   0.620   4.670
 1414SOL     OW 5140   2.573   1.671   2.133
 1414SOL    HW1 5141   2.642   1.725   2.180
 1414SOL    HW2 5142   2.576   1.690   2.035
 1415SOL     OW 5143   2.383   6.559   4.437
 1415SOL    HW1 5144   2.402   6.613   4.355
 1415SOL    HW2 5145   2.357   6.466   4.410
 1416SOL     OW 5146   4.681   4.371   2.767
 1416SOL    HW1 5147   4.645   4.392   2.858
 1416SOL    HW2 5148   4.615   4.399   2.697
 1417SOL     OW 5149   2.414   2.496   6.643
 1417SOL    HW1 5150   2.486   2.474   6.710
 1417SOL    HW2 5151   2.330   2.520   6.691
 1418SOL     OW 5152   3.328   3.723   2.922
 1418SOL    HW1 5153   3.362   3.790   2.856
 1418SOL    HW2 5154   3.291   3.771   3.002
 1419SOL     OW 5155   2.879   6.682   4.589
 1419SOL    HW1 5156   2.840   6.653   4.502
 1419SOL    HW2 5157   2.973   6.713   4.575
 1420SOL     OW 5158   1.625   6.452   2.131
 1420SOL    HW1 5159   1.660   6.505   2.054
 1420SOL    HW2 5160   1.548   6.501   2.173
 1421SOL     OW 5161   1.621   3.078   3.221
 1421SOL    HW1 5162   1.578   3.115   3.303
 1421SOL    HW2 5163   1.585   2.986   3.203
 1422SOL     OW 5164   2.372   4.600   2.138
 1422SOL    HW1 5165   2.344   4.504   2.145
 1422SOL    HW2 5166   2.471   4.605   2.124
 1423SOL     OW 5167   5.807   6.415   1.842
 1423SOL    HW1 5168   5.894   6.455   1.813
 1423SOL    HW2 5169   5.757   6.383   1.761
 1424SOL     OW 5170   5.430   4.699   4.531
 1424SOL    HW1 5171   5.528   4.718   4.530
 1424SOL    HW2 5172   5.410   4.623   4.469
 1425SOL     OW 5173   1.374   6.079   4.243
 1425SOL    HW1 5174   1.390   5.992   4.195
 1425SOL    HW2 5175   1.462   6.121   4.265
 1426SOL     OW 5176   0.976   2.060   5.807
 1426SOL    HW1 5177   0.985   2.160   5.805
 1426SOL    HW2 5178   1.002   2.023   5.718
 1427SOL     OW 5179   0.005   6.757   3.077
 1427SOL    HW1 5180   0.096   6.727   3.106
 1427SOL    HW2 5181   0.009   6.790   2.983
 1428SOL     OW 5182   5.790   2.562   0.651
 1428SOL    HW1 5183   5.766   2.652   0.686
 1428SOL    HW2 5184   5.874   2.568   0.597
 1429SOL     OW 5185   5.850   1.975   0.386
 1429SOL    HW1 5186   5.862   2.072   0.367
 1429SOL    HW2 5187   5.875   1.922   0.305
 1430SOL     OW 5188   1.199   4.016   4.361
 1430SOL    HW1 5189   1.143   4.028   4.279
 1430SOL    HW2 5190   1.273   4.085   4.362
 1431SOL     OW 5191   2.159   2.117   1.896
 1431SOL    HW1 5192   2.221   2.180   1.849
 1431SOL    HW2 5193   2.073   2.164   1.916
 1432SOL     OW 5194   2.424   1.722   3.584
 1432SOL    HW1 5195   2.465   1.801   3.538
 1432SOL    HW2 5196   2.355   1.755   3.649
 1433SOL     OW 5197   4.284   1.188   4.181
 1433SOL    HW1 5198   4.371   1.197   4.229
 1433SOL    HW2 5199   4.248   1.096   4.195
 1434SOL     OW 5200   0.376   1.067   5.286
 1434SOL    HW1 5201   0.366   0.975   5.248
 1434SOL    HW2 5202   0.362   1.064   5.385
 1435SOL     OW 5203   6.517   1.010   2.202
 1435SOL    HW1 5204   6.543   0.917   2.177
 1435SOL    HW2 5205   6.598   1.063   2.225
 1436SOL     OW 5206   4.557   4.107   6.784
 1436SOL    HW1 5207   4.501   4.025   6.781
 1436SOL    HW2 5208   4.649   4.084   6.818
 1437SOL     OW 5209   2.549   2.118   4.043
 1437SOL    HW1 5210   2.480   2.057   4.005
 1437SOL    HW2 5211   2.506   2.178   4.111
 1438SOL     OW 5212   3.808   6.104   1.203
 1438SOL    HW1 5213   3.883   6.163   1.173
 1438SOL    HW2 5214   3.741   6.095   1.130
 1439SOL     OW 5215   0.137   5.993   1.606
 1439SOL    HW1 5216   0.060   6.053   1.582
 1439SOL    HW2 5217   0.216   6.049   1.631
 1440SOL     OW 5218   3.329   3.811   1.466
 1440SOL    HW1 5219   3.244   3.863   1.477
 1440SOL    HW2 5220   3.322   3.754   1.384
 1441SOL     OW 5221   6.410   0.916   1.737
 1441SOL    HW1 5222   6.318   0.902   1.702
 1441SOL    HW2 5223   6.442   1.008   1.711
 1442SOL     OW 5224   6.182   6.300   6.773
 1442SOL    HW1 5225   6.240   6.332   6.698
 1442SOL    HW2 5226   6.213   6.340   6.859
 1443SOL     OW 5227   0.314   2.696   2.653
 1443SOL    HW1 5228   0.371   2.689   2.734
 1443SOL    HW2 5229   0.225   2.733   2.678
 1444SOL     OW 5230   5.180   6.952   1.049
 1444SOL    HW1 5231   5.166   6.960   1.147
 1444SOL    HW2 5232   5.273   6.920   1.031
 1445SOL     OW 5233   0.829   3.471   2.761
 1445SOL    HW1 5234   0.791   3.380   2.744
 1445SOL    HW2 5235   0.920   3.478   2.720
 1446SOL     OW 5236   6.376   0.498   6.403
 1446SOL    HW1 5237   6.383   0.584   6.454
 1446SOL    HW2 5238   6.445   0.497   6.331
 1447SOL     OW 5239   5.504   4.934   2.829
 1447SOL    HW1 5240   5.548   4.853   2.867
 1447SOL    HW2 5241   5.405   4.927   2.841
 1448SOL     OW 5242   0.235   3.240   4.689
 1448SOL    HW1 5243   0.309   3.202   4.633
 1448SOL    HW2 5244   0.268   3.256   4.782
 1449SOL     OW 5245   1.729   4.323   5.284
 1449SOL    HW1 5246   1.701   4.417   5.264
 1449SOL    HW2 5247   1.791   4.323   5.363
 1450SOL     OW 5248   0.889   2.226   6.065
 1450SOL    HW1 5249   0.939   2.285   6.001
 1450SOL    HW2 5250   0.951   2.157   6.101
 1451SOL     OW 5251   1.262   6.167   1.972
 1451SOL    HW1 5252   1.282   6.243   1.911
 1451SOL    HW2 5253   1.207   6.099   1.924
 1452SOL     OW 5254   4.379   2.842   5.667
 1452SOL    HW1 5255   4.326   2.925   5.687
 1452SOL    HW2 5256   4.357   2.772   5.735
 1453SOL     OW 5257   0.620   4.575   5.371
 1453SOL    HW1 5258   0.600   4.561   5.468
 1453SOL    HW2 5259   0.560   4.516   5.316
 1454SOL     OW 5260   2.646   1.934   3.178
 1454SOL    HW1 5261   2.691   1.964   3.094
 1454SOL    HW2 5262   2.714   1.895   3.240
 1455SOL     OW 5263   0.825   6.268   3.125
 1455SOL    HW1 5264   0.861   6.180   3.155
 1455SOL    HW2 5265   0.758   6.301   3.192
 1456SOL     OW 5266   6.771   6.222   6.315
 1456SOL    HW1 5267   6.743   6.254   6.406
 1456SOL    HW2 5268   6.693   6.178   6.271
 1457SOL     OW 5269   0.171   4.387   0.585
 1457SOL    HW1 5270   0.254   4.416   0.633
 1457SOL    HW2 5271   0.142   4.298   0.619
 1458SOL     OW 5272   5.696   5.056   5.571
 1458SOL    HW1 5273   5.787   5.081   5.605
 1458SOL    HW2 5274   5.630   5.127   5.597
 1459SOL     OW 5275   4.811   6.855   5.956
 1459SOL    HW1 5276   4.849   6.776   5.908
 1459SOL    HW2 5277   4.762   6.913   5.891
 1460SOL     OW 5278   1.702   6.459   5.454
 1460SOL    HW1 5279   1.760   6.437   5.375
 1460SOL    HW2 5280   1.642   6.536   5.431
 1461SOL     OW 5281   0.721   3.519   3.110
 1461SOL    HW1 5282   0.789   3.515   3.184
 1461SOL    HW2 5283   0.742   3.596   3.049
 1462SOL     OW 5284   1.039   0.677   6.978
 1462SOL    HW1 5285   0.973   0.713   6.911
 1462SOL    HW2 5286   1.052   0.744   0.025
 1463SOL     OW 5287   1.634   5.191   6.530
 1463SOL    HW1 5288   1.627   5.194   6.630
 1463SOL    HW2 5289   1.545   5.173   6.490
 1464SOL     OW 5290   6.477   4.275   3.778
 1464SOL    HW1 5291   6.443   4.239   3.865
 1464SOL    HW2 5292   6.575   4.296   3.787
 1465SOL     OW 5293   1.984   1.674   3.745
 1465SOL    HW1 5294   1.891   1.697   3.716
 1465SOL    HW2 5295   1.993   1.575   3.751
 1466SOL     OW 5296   3.784   2.557   1.699
 1466SOL    HW1 5297   3.723   2.632   1.726
 1466SOL    HW2 5298   3.746   2.471   1.732
 1467SOL     OW 5299   1.313   1.164   4.222
 1467SOL    HW1 5300   1.371   1.137   4.299
 1467SOL    HW2 5301   1.370   1.197   4.147
 1468SOL     OW 5302   2.793   5.637   1.742
 1468SOL    HW1 5303   2.801   5.542   1.712
 1468SOL    HW2 5304   2.729   5.641   1.819
 1469SOL     OW 5305   6.747   6.482   3.554
 1469SOL    HW1 5306   6.790   6.428   3.626
 1469SOL    HW2 5307   6.804   6.562   3.534
 1470SOL     OW 5308   6.832   2.828   1.256
 1470SOL    HW1 5309   6.750   2.771   1.258
 1470SOL    HW2 5310   6.806   2.923   1.239
 1471SOL     OW 5311   6.943   0.224   0.563
 1471SOL    HW1 5312   0.009   0.240   0.527
 1471SOL    HW2 5313   6.919   0.127   0.551
 1472SOL     OW 5314   2.555   6.432   6.569
 1472SOL    HW1 5315   2.622   6.358   6.574
 1472SOL    HW2 5316   2.563   6.490   6.651
 1473SOL     OW 5317   3.533   4.938   5.207
 1473SOL    HW1 5318   3.473   4.952   5.128
 1473SOL    HW2 5319   3.573   4.846   5.202
 1474SOL     OW 5320   4.238   5.103   1.850
 1474SOL    HW1 5321   4.159   5.053   1.813
 1474SOL    HW2 5322   4.239   5.195   1.811
 1475SOL     OW 5323   5.175   1.634   0.316
 1475SOL    HW1 5324   5.275   1.640   0.314
 1475SOL    HW2 5325   5.138   1.718   0.358
 1476SOL     OW 5326   3.291   1.422   1.395
 1476SOL    HW1 5327   3.236   1.481   1.336
 1476SOL    HW2 5328   3.369   1.386   1.343
 1477SOL     OW 5329   4.557   6.783   0.603
 1477SOL    HW1 5330   4.502   6.822   0.529
 1477SOL    HW2 5331   4.629   6.847   0.630
 1478SOL     OW 5332   5.391   6.604   4.983
 1478SOL    HW1 5333   5.389   6.677   5.051
 1478SOL    HW2 5334   5.475   6.550   4.995
 1479SOL     OW 5335   3.945   3.995   2.353
 1479SOL    HW1 5336   3.981   4.081   2.317
 1479SOL    HW2 5337   3.932   3.930   2.278
 1480SOL     OW 5338   2.374   0.725   6.302
 1480SOL    HW1 5339   2.297   0.726   6.238
 1480SOL    HW2 5340   2.442   0.659   6.270
 1481SOL     OW 5341   5.434   2.703   5.381
 1481SOL    HW1 5342   5.486   2.685   5.297
 1481SOL    HW2 5343   5.395   2.795   5.376
 1482SOL     OW 5344   4.580   0.501   0.925
 1482SOL    HW1 5345   4.511   0.516   0.995
 1482SOL    HW2 5346   4.670   0.498   0.967
 1483SOL     OW 5347   4.632   1.682   5.636
 1483SOL    HW1 5348   4.541   1.692   5.596
 1483SOL    HW2 5349   4.694   1.643   5.569
 1484SOL     OW 5350   3.154   4.898   4.703
 1484SOL    HW1 5351   3.144   4.800   4.687
 1484SOL    HW2 5352   3.090   4.927   4.775
 1485SOL     OW 5353   4.877   1.118   3.547
 1485SOL    HW1 5354   4.827   1.157   3.469
 1485SOL    HW2 5355   4.939   1.047   3.515
 1486SOL     OW 5356   4.910   6.621   3.789
 1486SOL    HW1 5357   4.998   6.633   3.835
 1486SOL    HW2 5358   4.858   6.550   3.836
 1487SOL     OW 5359   0.039   0.816   0.327
 1487SOL    HW1 5360   0.045   0.911   0.297
 1487SOL    HW2 5361   7.015   0.812   0.413
 1488SOL     OW 5362   6.225   0.437   2.405
 1488SOL    HW1 5363   6.275   0.513   2.364
 1488SOL    HW2 5364   6.189   0.378   2.333
 1489SOL     OW 5365   4.232   4.611   6.899
 1489SOL    HW1 5366   4.273   4.523   6.922
 1489SOL    HW2 5367   4.273   4.647   6.815
 1490SOL     OW 5368   0.174   2.390   1.605
 1490SOL    HW1 5369   0.190   2.423   1.513
 1490SOL    HW2 5370   0.229   2.308   1.621
 1491SOL     OW 5371   6.621   3.372   1.912
 1491SOL    HW1 5372   6.542   3.354   1.970
 1491SOL    HW2 5373   6.603   3.453   1.856
 1492SOL     OW 5374   6.826   0.387   2.409
 1492SOL    HW1 5375   6.919   0.406   2.441
 1492SOL    HW2 5376   6.775   0.473   2.403
 1493SOL     OW 5377   4.255   1.279   5.742
 1493SOL    HW1 5378   4.165   1.311   5.772
 1493SOL    HW2 5379   4.271   1.310   5.648
 1494SOL     OW 5380   5.500   2.329   5.938
 1494SOL    HW1 5381   5.552   2.376   6.009
 1494SOL    HW2 5382   5.441   2.396   5.892
 1495SOL     OW 5383   6.197   3.534   3.651
 1495SOL    HW1 5384   6.218   3.445   3.692
 1495SOL    HW2 5385   6.136   3.585   3.711
 1496SOL     OW 5386   0.203   6.618   0.097
 1496SOL    HW1 5387   0.140   6.621   0.175
 1496SOL    HW2 5388   0.262   6.699   0.099
 1497SOL     OW 5389   5.275   2.155   3.272
 1497SOL    HW1 5390   5.339   2.103   3.214
 1497SOL    HW2 5391   5.211   2.091   3.315
 1498SOL     OW 5392   2.669   4.382   1.409
 1498SOL    HW1 5393   2.672   4.364   1.507
 1498SOL    HW2 5394   2.757   4.416   1.378
 1499SOL     OW 5395   0.065   3.857   5.952
 1499SOL    HW1 5396   0.008   3.875   6.032
 1499SOL    HW2 5397   0.008   3.823   5.877
 1500SOL     OW 5398   0.848   5.880   0.473
 1500SOL    HW1 5399   0.829   5.879   0.571
 1500SOL    HW2 5400   0.895   5.795   0.447
 1501SOL     OW 5401   6.078   1.828   6.356
 1501SOL    HW1 5402   6.139   1.771   6.301
 1501SOL    HW2 5403   6.130   1.870   6.431
 1502SOL     OW 5404   6.731   1.125   6.028
 1502SOL    HW1 5405   6.644   1.131   5.979
 1502SOL    HW2 5406   6.778   1.213   6.024
 1503SOL     OW 5407   0.375   3.872   2.113
 1503SOL    HW1 5408   0.282   3.834   2.106
 1503SOL    HW2 5409   0.397   3.887   2.209
 1504SOL     OW 5410   0.514   6.992   4.034
 1504SOL    HW1 5411   0.595   6.961   3.986
 1504SOL    HW2 5412   0.486   0.056   3.998
 1505SOL     OW 5413   5.653   6.233   5.252
 1505SOL    HW1 5414   5.670   6.259   5.347
 1505SOL    HW2 5415   5.556   6.214   5.239
 1506SOL     OW 5416   1.412   0.405   1.175
 1506SOL    HW1 5417   1.418   0.492   1.125
 1506SOL    HW2 5418   1.372   0.336   1.114
 1507SOL     OW 5419   1.222   1.787   4.545
 1507SOL    HW1 5420   1.247   1.818   4.453
 1507SOL    HW2 5421   1.303   1.789   4.604
 1508SOL     OW 5422   0.711   1.567   0.420
 1508SOL    HW1 5423   0.704   1.492   0.486
 1508SOL    HW2 5424   0.777   1.543   0.349
 1509SOL     OW 5425   5.126   1.195   4.998
 1509SOL    HW1 5426   5.224   1.176   4.991
 1509SOL    HW2 5427   5.079   1.155   4.920
 1510SOL     OW 5428   4.073   7.004   3.831
 1510SOL    HW1 5429   4.029   0.068   3.832
 1510SOL    HW2 5430   4.117   6.987   3.919
 1511SOL     OW 5431   2.994   3.967   4.488
 1511SOL    HW1 5432   3.008   3.966   4.587
 1511SOL    HW2 5433   3.032   4.052   4.450
 1512SOL     OW 5434   6.122   5.729   1.067
 1512SOL    HW1 5435   6.096   5.772   1.153
 1512SOL    HW2 5436   6.205   5.772   1.032
 1513SOL     OW 5437   3.346   6.571   6.129
 1513SOL    HW1 5438   3.265   6.589   6.073
 1513SOL    HW2 5439   3.353   6.474   6.148
 1514SOL     OW 5440   3.566   2.184   5.707
 1514SOL    HW1 5441   3.515   2.199   5.792
 1514SOL    HW2 5442   3.503   2.159   5.634
 1515SOL     OW 5443   6.703   1.874   2.743
 1515SOL    HW1 5444   6.712   1.914   2.834
 1515SOL    HW2 5445   6.762   1.924   2.679
 1516SOL     OW 5446   6.261   5.954   4.615
 1516SOL    HW1 5447   6.266   5.883   4.686
 1516SOL    HW2 5448   6.169   5.958   4.578
 1517SOL     OW 5449   3.482   6.609   3.393
 1517SOL    HW1 5450   3.414   6.537   3.409
 1517SOL    HW2 5451   3.574   6.571   3.402
 1518SOL     OW 5452   6.514   2.597   7.011
 1518SOL    HW1 5453   6.588   2.613   0.050
 1518SOL    HW2 5454   6.543   2.628   6.920
 1519SOL     OW 5455   0.027   5.072   0.636
 1519SOL    HW1 5456   0.090   5.080   0.713
 1519SOL    HW2 5457   7.020   5.163   0.610
 1520SOL     OW 5458   0.826   4.769   1.283
 1520SOL    HW1 5459   0.864   4.822   1.359
 1520SOL    HW2 5460   0.813   4.674   1.313
 1521SOL     OW 5461   2.679   4.612   6.930
 1521SOL    HW1 5462   2.631   4.678   6.872
 1521SOL    HW2 5463   2.676   4.642   7.025
 1522SOL     OW 5464   5.120   5.710   5.032
 1522SOL    HW1 5465   5.047   5.643   5.017
 1522SOL    HW2 5466   5.173   5.685   5.114
 1523SOL     OW 5467   3.640   6.637   6.581
 1523SOL    HW1 5468   3.632   6.606   6.486
 1523SOL    HW2 5469   3.559   6.691   6.605
 1524SOL     OW 5470   2.535   2.564   3.190
 1524SOL    HW1 5471   2.442   2.536   3.214
 1524SOL    HW2 5472   2.582   2.594   3.273
 1525SOL     OW 5473   6.157   3.065   0.777
 1525SOL    HW1 5474   6.246   3.098   0.810
 1525SOL    HW2 5475   6.124   3.126   0.705
 1526SOL     OW 5476   0.798   1.815   0.014
 1526SOL    HW1 5477   0.882   1.805   6.986
 1526SOL    HW2 5478   0.821   1.843   0.107
 1527SOL     OW 5479   3.755   1.497   5.034
 1527SOL    HW1 5480   3.703   1.556   5.096
 1527SOL    HW2 5481   3.849   1.490   5.065
 1528SOL     OW 5482   4.676   4.141   0.931
 1528SOL    HW1 5483   4.754   4.131   0.993
 1528SOL    HW2 5484   4.649   4.237   0.927
 1529SOL     OW 5485   5.332   1.356   6.895
 1529SOL    HW1 5486   5.252   1.353   6.953
 1529SOL    HW2 5487   5.412   1.380   6.949
 1530SOL     OW 5488   3.403   0.301   1.738
 1530SOL    HW1 5489   3.333   0.236   1.767
 1530SOL    HW2 5490   3.489   0.252   1.723
 1531SOL     OW 5491   4.247   0.298   3.845
 1531SOL    HW1 5492   4.340   0.269   3.827
 1531SOL    HW2 5493   4.248   0.386   3.892
 1532SOL     OW 5494   3.543   4.747   5.852
 1532SOL    HW1 5495   3.460   4.698   5.824
 1532SOL    HW2 5496   3.622   4.687   5.840
 1533SOL     OW 5497   5.815   6.006   0.839
 1533SOL    HW1 5498   5.848   5.912   0.852
 1533SOL    HW2 5499   5.841   6.062   0.917
 1534SOL     OW 5500   3.770   5.684   0.182
 1534SOL    HW1 5501   3.692   5.631   0.214
 1534SOL    HW2 5502   3.739   5.752   0.117
 1535SOL     OW 5503   5.859   6.858   4.895
 1535SOL    HW1 5504   5.760   6.847   4.892
 1535SOL    HW2 5505   5.902   6.798   4.828
 1536SOL     OW 5506   3.932   4.635   6.862
 1536SOL    HW1 5507   3.911   4.574   6.939
 1536SOL    HW2 5508   4.031   4.643   6.852
 1537SOL     OW 5509   3.602   5.274   3.863
 1537SOL    HW1 5510   3.596   5.344   3.791
 1537SOL    HW2 5511   3.597   5.183   3.821
 1538SOL     OW 5512   3.699   1.659   6.911
 1538SOL    HW1 5513   3.760   1.580   6.916
 1538SOL    HW2 5514   3.652   1.670   6.999
 1539SOL     OW 5515   4.930   3.147   1.847
 1539SOL    HW1 5516   4.844   3.097   1.857
 1539SOL    HW2 5517   4.992   3.122   1.921
 1540SOL     OW 5518   1.389   6.979   5.158
 1540SOL    HW1 5519   1.301   6.991   5.203
 1540SOL    HW2 5520   1.397   0.017   5.081
 1541SOL     OW 5521   4.023   3.152   4.685
 1541SOL    HW1 5522   4.038   3.128   4.781
 1541SOL    HW2 5523   3.965   3.233   4.679
 1542SOL     OW 5524   6.445   6.677   2.048
 1542SOL    HW1 5525   6.411   6.631   1.967
 1542SOL    HW2 5526   6.415   6.628   2.130
 1543SOL     OW 5527   3.541   5.538   6.303
 1543SOL    HW1 5528   3.582   5.530   6.212
 1543SOL    HW2 5529   3.443   5.556   6.294
 1544SOL     OW 5530   3.645   3.730   4.002
 1544SOL    HW1 5531   3.584   3.652   4.014
 1544SOL    HW2 5532   3.702   3.715   3.921
 1545SOL     OW 5533   6.197   0.461   1.661
 1545SOL    HW1 5534   6.226   0.366   1.649
 1545SOL    HW2 5535   6.251   0.520   1.600
 1546SOL     OW 5536   5.274   6.912   5.908
 1546SOL    HW1 5537   5.239   6.948   5.994
 1546SOL    HW2 5538   5.374   6.921   5.905
 1547SOL     OW 5539   1.398   4.379   0.804
 1547SOL    HW1 5540   1.479   4.433   0.828
 1547SOL    HW2 5541   1.413   4.283   0.829
 1548SOL     OW 5542   6.352   3.672   6.936
 1548SOL    HW1 5543   6.425   3.706   6.996
 1548SOL    HW2 5544   6.305   3.595   6.981
 1549SOL     OW 5545   4.056   1.121   4.332
 1549SOL    HW1 5546   4.133   1.182   4.312
 1549SOL    HW2 5547   4.070   1.078   4.421
 1550SOL     OW 5548   3.582   2.884   2.575
 1550SOL    HW1 5549   3.659   2.836   2.618
 1550SOL    HW2 5550   3.504   2.885   2.637
 1551SOL     OW 5551   1.135   4.917   0.199
 1551SOL    HW1 5552   1.227   4.883   0.179
 1551SOL    HW2 5553   1.079   4.913   0.116
 1552SOL     OW 5554   2.749   4.717   0.863
 1552SOL    HW1 5555   2.748   4.735   0.961
 1552SOL    HW2 5556   2.726   4.620   0.847
 1553SOL     OW 5557   6.956   1.251   6.605
 1553SOL    HW1 5558   0.010   1.205   6.567
 1553SOL    HW2 5559   6.913   1.309   6.535
 1554SOL     OW 5560   3.146   1.965   3.780
 1554SOL    HW1 5561   3.212   2.039   3.787
 1554SOL    HW2 5562   3.089   1.963   3.863
 1555SOL     OW 5563   5.977   2.744   6.067
 1555SOL    HW1 5564   6.051   2.759   6.002
 1555SOL    HW2 5565   5.889   2.743   6.019
 1556SOL     OW 5566   2.111   0.990   6.323
 1556SOL    HW1 5567   2.069   1.030   6.405
 1556SOL    HW2 5568   2.081   0.896   6.313
 1557SOL     OW 5569   1.848   3.757   6.052
 1557SOL    HW1 5570   1.831   3.849   6.087
 1557SOL    HW2 5571   1.918   3.762   5.980
 1558SOL     OW 5572   6.250   0.532   4.521
 1558SOL    HW1 5573   6.170   0.472   4.525
 1558SOL    HW2 5574   6.284   0.548   4.614
 1559SOL     OW 5575   0.895   2.533   6.451
 1559SOL    HW1 5576   0.968   2.546   6.383
 1559SOL    HW2 5577   0.930   2.555   6.542
 1560SOL     OW 5578   0.101   1.259   6.846
 1560SOL    HW1 5579   0.189   1.306   6.850
 1560SOL    HW2 5580   0.052   1.287   6.763
 1561SOL     OW 5581   4.582   6.017   3.216
 1561SOL    HW1 5582   4.498   6.056   3.177
 1561SOL    HW2 5583   4.574   6.017   3.316
 1562SOL     OW 5584   4.035   6.752   1.853
 1562SOL    HW1 5585   4.067   6.787   1.941
 1562SOL    HW2 5586   4.039   6.652   1.853
 1563SOL     OW 5587   3.485   0.859   6.197
 1563SOL    HW1 5588   3.416   0.849   6.125
 1563SOL    HW2 5589   3.464   0.797   6.273
 1564SOL     OW 5590   1.534   0.746   2.541
 1564SOL    HW1 5591   1.607   0.744   2.609
 1564SOL    HW2 5592   1.569   0.710   2.454
 1565SOL     OW 5593   4.826   3.872   2.195
 1565SOL    HW1 5594   4.855   3.948   2.137
 1565SOL    HW2 5595   4.727   3.879   2.210
 1566SOL     OW 5596   5.413   3.509   3.477
 1566SOL    HW1 5597   5.338   3.551   3.426
 1566SOL    HW2 5598   5.382   3.488   3.569
 1567SOL     OW 5599   5.927   6.403   6.621
 1567SOL    HW1 5600   5.864   6.465   6.669
 1567SOL    HW2 5601   6.000   6.376   6.683
 1568SOL     OW 5602   1.225   0.503   0.404
 1568SOL    HW1 5603   1.317   0.482   0.437
 1568SOL    HW2 5604   1.167   0.423   0.414
 1569SOL     OW 5605   4.235   6.325   3.941
 1569SOL    HW1 5606   4.304   6.271   3.890
 1569SOL    HW2 5607   4.214   6.279   4.027
 1570SOL     OW 5608   2.740   1.313   1.799
 1570SOL    HW1 5609   2.640   1.324   1.803
 1570SOL    HW2 5610   2.767   1.284   1.708
 1571SOL     OW 5611   5.859   2.654   1.332
 1571SOL    HW1 5612   5.915   2.723   1.286
 1571SOL    HW2 5613   5.859   2.671   1.431
 1572SOL     OW 5614   0.589   0.547   2.488
 1572SOL    HW1 5615   0.495   0.516   2.497
 1572SOL    HW2 5616   0.590   0.637   2.443
 1573SOL     OW 5617   5.202   6.765   2.038
 1573SOL    HW1 5618   5.153   6.759   1.951
 1573SOL    HW2 5619   5.297   6.739   2.025
 1574SOL     OW 5620   0.484   2.046   1.783
 1574SOL    HW1 5621   0.538   1.966   1.758
 1574SOL    HW2 5622   0.477   2.053   1.882
 1575SOL     OW 5623   2.441   2.302   0.568
 1575SOL    HW1 5624   2.453   2.209   0.604
 1575SOL    HW2 5625   2.531   2.345   0.558
 1576SOL     OW 5626   5.274   6.196   4.047
 1576SOL    HW1 5627   5.258   6.263   4.119
 1576SOL    HW2 5628   5.190   6.145   4.029
 1577SOL     OW 5629   2.322   1.265   5.562
 1577SOL    HW1 5630   2.407   1.298   5.521
 1577SOL    HW2 5631   2.336   1.247   5.659
 1578SOL     OW 5632   5.691   3.815   5.008
 1578SOL    HW1 5633   5.638   3.895   5.038
 1578SOL    HW2 5634   5.768   3.845   4.952
 1579SOL     OW 5635   0.613   1.236   3.250
 1579SOL    HW1 5636   0.533   1.295   3.263
 1579SOL    HW2 5637   0.588   1.160   3.189
 1580SOL     OW 5638   2.826   4.109   5.419
 1580SOL    HW1 5639   2.824   4.209   5.421
 1580SOL    HW2 5640   2.904   4.076   5.472
 1581SOL     OW 5641   6.582   4.161   4.125
 1581SOL    HW1 5642   6.682   4.162   4.128
 1581SOL    HW2 5643   6.550   4.066   4.122
 1582SOL     OW 5644   0.427   4.748   4.659
 1582SOL    HW1 5645   0.369   4.676   4.620
 1582SOL    HW2 5646   0.385   4.837   4.641
 1583SOL     OW 5647   2.213   3.126   3.874
 1583SOL    HW1 5648   2.214   3.100   3.778
 1583SOL    HW2 5649   2.210   3.044   3.931
 1584SOL     OW 5650   2.563   6.663   5.147
 1584SOL    HW1 5651   2.494   6.698   5.084
 1584SOL    HW2 5652   2.620   6.739   5.179
 1585SOL     OW 5653   5.505   2.271   3.138
 1585SOL    HW1 5654   5.483   2.261   3.041
 1585SOL    HW2 5655   5.481   2.363   3.168
 1586SOL     OW 5656   3.777   3.610   2.199
 1586SOL    HW1 5657   3.812   3.700   2.175
 1586SOL    HW2 5658   3.807   3.543   2.131
 1587SOL     OW 5659   3.375   6.011   6.756
 1587SOL    HW1 5660   3.345   5.950   6.829
 1587SOL    HW2 5661   3.355   6.105   6.782
 1588SOL     OW 5662   5.125   1.296   2.872
 1588SOL    HW1 5663   5.171   1.208   2.881
 1588SOL    HW2 5664   5.143   1.334   2.781
 1589SOL     OW 5665   5.395   4.369   3.647
 1589SOL    HW1 5666   5.405   4.391   3.744
 1589SOL    HW2 5667   5.387   4.454   3.594
 1590SOL     OW 5668   1.712   6.800   0.101
 1590SOL    HW1 5669   1.656   6.874   0.141
 1590SOL    HW2 5670   1.767   6.758   0.173
 1591SOL     OW 5671   1.252   5.076   2.254
 1591SOL    HW1 5672   1.234   5.168   2.219
 1591SOL    HW2 5673   1.337   5.077   2.306
 1592SOL     OW 5674   3.202   3.243   2.431
 1592SOL    HW1 5675   3.186   3.287   2.343
 1592SOL    HW2 5676   3.290   3.196   2.429
 1593SOL     OW 5677   0.467   6.554   4.464
 1593SOL    HW1 5678   0.369   6.541   4.454
 1593SOL    HW2 5679   0.515   6.471   4.437
 1594SOL     OW 5680   6.615   5.563   2.731
 1594SOL    HW1 5681   6.586   5.618   2.810
 1594SOL    HW2 5682   6.684   5.497   2.760
 1595SOL     OW 5683   0.303   4.600   6.796
 1595SOL    HW1 5684   0.311   4.537   6.873
 1595SOL    HW2 5685   0.259   4.685   6.828
 1596SOL     OW 5686   1.850   4.884   5.690
 1596SOL    HW1 5687   1.832   4.976   5.654
 1596SOL    HW2 5688   1.942   4.881   5.730
 1597SOL     OW 5689   1.955   6.346   2.003
 1597SOL    HW1 5690   1.985   6.403   2.079
 1597SOL    HW2 5691   1.997   6.379   1.918
 1598SOL     OW 5692   0.736   4.181   0.857
 1598SOL    HW1 5693   0.721   4.102   0.917
 1598SOL    HW2 5694   0.660   4.246   0.867
 1599SOL     OW 5695   3.698   4.402   6.458
 1599SOL    HW1 5696   3.614   4.350   6.448
 1599SOL    HW2 5697   3.677   4.497   6.482
 1600SOL     OW 5698   5.318   1.489   5.239
 1600SOL    HW1 5699   5.239   1.463   5.183
 1600SOL    HW2 5700   5.297   1.476   5.336
 1601SOL     OW 5701   1.655   4.671   5.055
 1601SOL    HW1 5702   1.682   4.731   4.979
 1601SOL    HW2 5703   1.610   4.589   5.019
 1602SOL     OW 5704   1.029   6.181   3.322
 1602SOL    HW1 5705   1.093   6.257   3.317
 1602SOL    HW2 5706   1.067   6.108   3.377
 1603SOL     OW 5707   1.009   6.734   2.171
 1603SOL    HW1 5708   0.934   6.759   2.233
 1603SOL    HW2 5709   1.006   6.794   2.091
 1604SOL     OW 5710   6.402   5.547   6.581
 1604SOL    HW1 5711   6.325   5.588   6.630
 1604SOL    HW2 5712   6.430   5.608   6.507
 1605SOL     OW 5713   6.295   0.220   2.581
 1605SOL    HW1 5714   6.331   0.234   2.673
 1605SOL    HW2 5715   6.304   0.304   2.528
 1606SOL     OW 5716   4.748   6.742   5.382
 1606SOL    HW1 5717   4.757   6.663   5.321
 1606SOL    HW2 5718   4.656   6.743   5.422
 1607SOL     OW 5719   4.150   2.349   1.018
 1607SOL    HW1 5720   4.118   2.272   1.073
 1607SOL    HW2 5721   4.201   2.315   0.939
 1608SOL     OW 5722   2.561   6.959   0.396
 1608SOL    HW1 5723   2.614   6.998   0.321
 1608SOL    HW2 5724   2.465   6.952   0.369
 1609SOL     OW 5725   5.924   2.171   5.883
 1609SOL    HW1 5726   5.842   2.187   5.937
 1609SOL    HW2 5727   5.952   2.255   5.838
 1610SOL     OW 5728   5.927   5.846   4.687
 1610SOL    HW1 5729   5.932   5.895   4.600
 1610SOL    HW2 5730   5.835   5.857   4.726
 1611SOL     OW 5731   3.708   2.934   2.309
 1611SOL    HW1 5732   3.688   2.877   2.229
 1611SOL    HW2 5733   3.678   2.886   2.391
 1612SOL     OW 5734   2.518   1.579   5.133
 1612SOL    HW1 5735   2.595   1.633   5.168
 1612SOL    HW2 5736   2.434   1.608   5.178
 1613SOL     OW 5737   1.787   6.100   0.622
 1613SOL    HW1 5738   1.789   6.020   0.681
 1613SOL    HW2 5739   1.877   6.111   0.578
 1614SOL     OW 5740   5.971   2.648   6.656
 1614SOL    HW1 5741   5.975   2.623   6.752
 1614SOL    HW2 5742   5.979   2.566   6.599
 1615SOL     OW 5743   0.252   4.447   6.552
 1615SOL    HW1 5744   0.241   4.456   6.651
 1615SOL    HW2 5745   0.178   4.495   6.506
 1616SOL     OW 5746   4.219   2.038   6.250
 1616SOL    HW1 5747   4.313   2.017   6.274
 1616SOL    HW2 5748   4.163   1.955   6.257
 1617SOL     OW 5749   5.993   0.746   2.444
 1617SOL    HW1 5750   5.972   0.663   2.496
 1617SOL    HW2 5751   6.055   0.803   2.496
 1618SOL     OW 5752   6.774   3.451   1.541
 1618SOL    HW1 5753   6.831   3.433   1.622
 1618SOL    HW2 5754   6.799   3.388   1.468
 1619SOL     OW 5755   1.136   3.841   3.948
 1619SOL    HW1 5756   1.123   3.910   4.019
 1619SOL    HW2 5757   1.144   3.750   3.991
 1620SOL     OW 5758   1.976   5.879   1.313
 1620SOL    HW1 5759   2.058   5.851   1.363
 1620SOL    HW2 5760   1.895   5.851   1.364
 1621SOL     OW 5761   0.844   0.499   0.818
 1621SOL    HW1 5762   0.771   0.434   0.796
 1621SOL    HW2 5763   0.876   0.543   0.735
 1622SOL     OW 5764   1.686   1.998   4.470
 1622SOL    HW1 5765   1.725   1.942   4.397
 1622SOL    HW2 5766   1.667   1.942   4.550
 1623SOL     OW 5767   2.181   2.707   6.301
 1623SOL    HW1 5768   2.145   2.760   6.224
 1623SOL    HW2 5769   2.110   2.645   6.335
 1624SOL     OW 5770   3.225   1.218   6.748
 1624SOL    HW1 5771   3.290   1.143   6.762
 1624SOL    HW2 5772   3.135   1.180   6.729
 1625SOL     OW 5773   0.961   5.038   2.289
 1625SOL    HW1 5774   0.926   5.055   2.197
 1625SOL    HW2 5775   1.058   5.063   2.293
 1626SOL     OW 5776   2.278   2.877   6.534
 1626SOL    HW1 5777   2.376   2.895   6.519
 1626SOL    HW2 5778   2.247   2.808   6.469
 1627SOL     OW 5779   6.385   2.286   3.783
 1627SOL    HW1 5780   6.334   2.289   3.869
 1627SOL    HW2 5781   6.436   2.371   3.772
 1628SOL     OW 5782   3.229   4.908   1.039
 1628SOL    HW1 5783   3.151   4.922   0.977
 1628SOL    HW2 5784   3.213   4.958   1.124
 1629SOL     OW 5785   3.423   2.077   4.585
 1629SOL    HW1 5786   3.451   2.167   4.618
 1629SOL    HW2 5787   3.431   2.074   4.485
 1630SOL     OW 5788   0.926   5.176   5.734
 1630SOL    HW1 5789   0.951   5.217   5.821
 1630SOL    HW2 5790   0.827   5.183   5.721
 1631SOL     OW 5791   0.211   0.373   5.666
 1631SOL    HW1 5792   0.122   0.347   5.702
 1631SOL    HW2 5793   0.199   0.449   5.601
 1632SOL     OW 5794   7.020   1.097   0.282
 1632SOL    HW1 5795   6.999   1.184   0.327
 1632SOL    HW2 5796   7.024   1.111   0.183
 1633SOL     OW 5797   5.827   1.828   3.083
 1633SOL    HW1 5798   5.912   1.807   3.035
 1633SOL    HW2 5799   5.836   1.803   3.180
 1634SOL     OW 5800   2.972   5.849   6.485
 1634SOL    HW1 5801   3.013   5.912   6.551
 1634SOL    HW2 5802   2.969   5.757   6.523
 1635SOL     OW 5803   0.339   5.355   4.676
 1635SOL    HW1 5804   0.435   5.328   4.681
 1635SOL    HW2 5805   0.308   5.350   4.581
 1636SOL     OW 5806   2.646   5.609   1.476
 1636SOL    HW1 5807   2.570   5.545   1.470
 1636SOL    HW2 5808   2.661   5.634   1.572
 1637SOL     OW 5809   7.002   3.017   2.556
 1637SOL    HW1 5810   7.022   2.954   2.481
 1637SOL    HW2 5811   0.045   3.090   2.558
 1638SOL     OW 5812   0.456   3.406   3.842
 1638SOL    HW1 5813   0.433   3.466   3.920
 1638SOL    HW2 5814   0.371   3.377   3.797
 1639SOL     OW 5815   4.881   5.675   2.956
 1639SOL    HW1 5816   4.832   5.762   2.953
 1639SOL    HW2 5817   4.978   5.690   2.934
 1640SOL     OW 5818   6.409   1.559   0.482
 1640SOL    HW1 5819   6.465   1.487   0.441
 1640SOL    HW2 5820   6.354   1.603   0.411
 1641SOL     OW 5821   6.166   3.082   4.244
 1641SOL    HW1 5822   6.241   3.145   4.226
 1641SOL    HW2 5823   6.174   3.003   4.182
 1642SOL     OW 5824   6.959   2.444   0.013
 1642SOL    HW1 5825   0.019   2.474   6.997
 1642SOL    HW2 5826   6.921   2.367   6.986
 1643SOL     OW 5827   3.192   6.559   5.296
 1643SOL    HW1 5828   3.169   6.463   5.309
 1643SOL    HW2 5829   3.247   6.570   5.213
 1644SOL     OW 5830   3.326   1.955   1.473
 1644SOL    HW1 5831   3.413   1.941   1.426
 1644SOL    HW2 5832   3.264   2.007   1.414
 1645SOL     OW 5833   2.847   5.997   6.079
 1645SOL    HW1 5834   2.838   6.076   6.018
 1645SOL    HW2 5835   2.758   5.976   6.119
 1646SOL     OW 5836   1.569   4.697   0.562
 1646SOL    HW1 5837   1.611   4.640   0.632
 1646SOL    HW2 5838   1.587   4.793   0.582
 1647SOL     OW 5839   6.020   3.187   3.723
 1647SOL    HW1 5840   6.036   3.099   3.767
 1647SOL    HW2 5841   6.105   3.221   3.684
 1648SOL     OW 5842   4.868   0.475   1.920
 1648SOL    HW1 5843   4.839   0.550   1.860
 1648SOL    HW2 5844   4.860   0.389   1.869
 1649SOL     OW 5845   3.008   0.555   3.157
 1649SOL    HW1 5846   3.023   0.644   3.114
 1649SOL    HW2 5847   3.085   0.534   3.217
 1650SOL     OW 5848   2.688   0.654   4.087
 1650SOL    HW1 5849   2.679   0.565   4.133
 1650SOL    HW2 5850   2.785   0.679   4.080
 1651SOL     OW 5851   7.014   0.531   0.240
 1651SOL    HW1 5852   6.948   0.552   0.168
 1651SOL    HW2 5853   0.065   0.594   0.234
 1652SOL     OW 5854   3.241   2.135   1.271
 1652SOL    HW1 5855   3.171   2.127   1.200
 1652SOL    HW2 5856   3.233   2.224   1.315
 1653SOL     OW 5857   6.983   5.489   0.337
 1653SOL    HW1 5858   6.973   5.399   0.380
 1653SOL    HW2 5859   6.903   5.545   0.359
 1654SOL     OW 5860   0.191   3.475   2.768
 1654SOL    HW1 5861   0.141   3.492   2.852
 1654SOL    HW2 5862   0.143   3.407   2.712
 1655SOL     OW 5863   5.501   4.377   6.090
 1655SOL    HW1 5864   5.505   4.461   6.037
 1655SOL    HW2 5865   5.483   4.399   6.186
 1656SOL     OW 5866   0.942   4.737   3.229
 1656SOL    HW1 5867   0.947   4.661   3.295
 1656SOL    HW2 5868   0.970   4.821   3.274
 1657SOL     OW 5869   1.805   1.037   5.814
 1657SOL    HW1 5870   1.772   0.944   5.827
 1657SOL    HW2 5871   1.838   1.073   5.901
 1658SOL     OW 5872   5.730   6.314   2.583
 1658SOL    HW1 5873   5.770   6.369   2.510
 1658SOL    HW2 5874   5.651   6.362   2.621
 1659SOL     OW 5875   3.726   2.455   6.353
 1659SOL    HW1 5876   3.679   2.464   6.265
 1659SOL    HW2 5877   3.817   2.496   6.347
 1660SOL     OW 5878   1.009   5.726   3.798
 1660SOL    HW1 5879   0.915   5.726   3.833
 1660SOL    HW2 5880   1.024   5.645   3.742
 1661SOL     OW 5881   3.147   1.670   2.381
 1661SOL    HW1 5882   3.077   1.739   2.396
 1661SOL    HW2 5883   3.127   1.589   2.436
 1662SOL     OW 5884   7.014   1.873   2.968
 1662SOL    HW1 5885   6.969   1.786   2.946
 1662SOL    HW2 5886   6.956   1.949   2.940
 1663SOL     OW 5887   2.938   6.688   2.993
 1663SOL    HW1 5888   2.965   6.604   2.945
 1663SOL    HW2 5889   3.016   6.750   2.998
 1664SOL     OW 5890   1.672   6.922   4.292
 1664SOL    HW1 5891   1.719   6.946   4.377
 1664SOL    HW2 5892   1.573   6.924   4.307
 1665SOL     OW 5893   0.703   1.572   2.545
 1665SOL    HW1 5894   0.776   1.547   2.608
 1665SOL    HW2 5895   0.635   1.627   2.593
 1666SOL     OW 5896   5.858   2.893   5.531
 1666SOL    HW1 5897   5.888   2.799   5.516
 1666SOL    HW2 5898   5.826   2.932   5.444
 1667SOL     OW 5899   6.161   6.640   6.081
 1667SOL    HW1 5900   6.251   6.683   6.072
 1667SOL    HW2 5901   6.121   6.666   6.169
 1668SOL     OW 5902   4.006   0.424   4.092
 1668SOL    HW1 5903   4.033   0.330   4.113
 1668SOL    HW2 5904   4.081   0.469   4.043
 1669SOL     OW 5905   5.945   0.062   6.298
 1669SOL    HW1 5906   6.025   0.008   6.271
 1669SOL    HW2 5907   5.934   0.059   6.397
 1670SOL     OW 5908   5.782   4.819   5.708
 1670SOL    HW1 5909   5.736   4.888   5.652
 1670SOL    HW2 5910   5.881   4.835   5.706
 1671SOL     OW 5911   4.546   3.651   0.610
 1671SOL    HW1 5912   4.614   3.626   0.541
 1671SOL    HW2 5913   4.498   3.569   0.641
 1672SOL     OW 5914   1.894   4.162   2.255
 1672SOL    HW1 5915   1.964   4.092   2.259
 1672SOL    HW2 5916   1.877   4.198   2.347
 1673SOL     OW 5917   6.831   3.500   4.522
 1673SOL    HW1 5918   6.746   3.510   4.574
 1673SOL    HW2 5919   6.901   3.460   4.581
 1674SOL     OW 5920   1.205   3.890   0.679
 1674SOL    HW1 5921   1.288   3.940   0.657
 1674SOL    HW2 5922   1.158   3.935   0.755
 1675SOL     OW 5923   4.734   1.294   6.686
 1675SOL    HW1 5924   4.780   1.251   6.608
 1675SOL    HW2 5925   4.798   1.354   6.733
 1676SOL     OW 5926   2.310   1.254   1.979
 1676SOL    HW1 5927   2.377   1.306   2.032
 1676SOL    HW2 5928   2.241   1.316   1.942
 1677SOL     OW 5929   5.765   1.545   5.370
 1677SOL    HW1 5930   5.783   1.644   5.373
 1677SOL    HW2 5931   5.686   1.528   5.312
 1678SOL     OW 5932   4.878   5.998   2.428
 1678SOL    HW1 5933   4.970   6.030   2.452
 1678SOL    HW2 5934   4.865   6.002   2.329
 1679SOL     OW 5935   1.154   3.056   5.767
 1679SOL    HW1 5936   1.139   2.962   5.797
 1679SOL    HW2 5937   1.095   3.118   5.819
 1680SOL     OW 5938   0.819   1.589   3.770
 1680SOL    HW1 5939   0.777   1.500   3.758
 1680SOL    HW2 5940   0.779   1.635   3.850
 1681SOL     OW 5941   6.156   5.225   1.177
 1681SOL    HW1 5942   6.255   5.224   1.184
 1681SOL    HW2 5943   6.126   5.153   1.114
 1682SOL     OW 5944   0.059   3.043   4.752
 1682SOL    HW1 5945   0.103   3.123   4.711
 1682SOL    HW2 5946   0.119   3.004   4.822
 1683SOL     OW 5947   4.798   5.132   1.177
 1683SOL    HW1 5948   4.879   5.151   1.122
 1683SOL    HW2 5949   4.817   5.056   1.239
 1684SOL     OW 5950   0.554   6.628   5.050
 1684SOL    HW1 5951   0.632   6.671   5.005
 1684SOL    HW2 5952   0.480   6.694   5.058
 1685SOL     OW 5953   1.690   0.980   0.381
 1685SOL    HW1 5954   1.643   1.048   0.325
 1685SOL    HW2 5955   1.706   0.897   0.327
 1686SOL     OW 5956   1.369   5.509   5.643
 1686SOL    HW1 5957   1.325   5.538   5.728
 1686SOL    HW2 5958   1.374   5.409   5.641
 1687SOL     OW 5959   1.674   4.372   2.406
 1687SOL    HW1 5960   1.757   4.341   2.452
 1687SOL    HW2 5961   1.687   4.465   2.371
 1688SOL     OW 5962   1.791   1.611   3.077
 1688SOL    HW1 5963   1.811   1.664   3.159
 1688SOL    HW2 5964   1.875   1.598   3.024
 1689SOL     OW 5965   3.441   1.867   2.333
 1689SOL    HW1 5966   3.368   1.832   2.393
 1689SOL    HW2 5967   3.416   1.852   2.238
 1690SOL     OW 5968   1.533   1.458   2.136
 1690SOL    HW1 5969   1.620   1.477   2.090
 1690SOL    HW2 5970   1.533   1.364   2.170
 1691SOL     OW 5971   5.181   3.164   3.099
 1691SOL    HW1 5972   5.168   3.238   3.165
 1691SOL    HW2 5973   5.092   3.127   3.073
 1692SOL     OW 5974   0.502   6.779   1.373
 1692SOL    HW1 5975   0.509   6.680   1.385
 1692SOL    HW2 5976   0.574   6.824   1.426
 1693SOL     OW 5977   2.417   2.683   3.480
 1693SOL    HW1 5978   2.360   2.683   3.563
 1693SOL    HW2 5979   2.503   2.636   3.499
 1694SOL     OW 5980   4.252   5.606   4.633
 1694SOL    HW1 5981   4.344   5.579   4.662
 1694SOL    HW2 5982   4.185   5.543   4.673
 1695SOL     OW 5983   2.817   2.671   5.425
 1695SOL    HW1 5984   2.871   2.696   5.505
 1695SOL    HW2 5985   2.861   2.594   5.378
 1696SOL     OW 5986   4.815   5.604   0.480
 1696SOL    HW1 5987   4.897   5.560   0.445
 1696SOL    HW2 5988   4.738   5.583   0.421
 1697SOL     OW 5989   0.994   6.859   1.536
 1697SOL    HW1 5990   0.899   6.837   1.511
 1697SOL    HW2 5991   1.001   6.957   1.557
 1698SOL     OW 5992   4.828   2.337   1.982
 1698SOL    HW1 5993   4.884   2.419   1.971
 1698SOL    HW2 5994   4.886   2.255   1.975
 1699SOL     OW 5995   2.716   2.765   1.095
 1699SOL    HW1 5996   2.684   2.765   1.000
 1699SOL    HW2 5997   2.642   2.794   1.155
 1700SOL     OW 5998   6.664   2.858   2.811
 1700SOL    HW1 5999   6.694   2.922   2.740
 1700SOL    HW2 6000   6.619   2.780   2.768
 1701SOL     OW 6001   6.389   2.702   4.134
 1701SOL    HW1 6002   6.459   2.631   4.126
 1701SOL    HW2 6003   6.308   2.664   4.180
 1702SOL     OW 6004   5.895   3.412   1.198
 1702SOL    HW1 6005   5.800   3.401   1.170
 1702SOL    HW2 6006   5.899   3.447   1.291
 1703SOL     OW 6007   2.329   3.533   0.993
 1703SOL    HW1 6008   2.397   3.546   0.921
 1703SOL    HW2 6009   2.300   3.622   1.028
 1704SOL     OW 6010   6.980   0.738   1.367
 1704SOL    HW1 6011   6.932   0.706   1.285
 1704SOL    HW2 6012   6.925   0.809   1.412
 1705SOL     OW 6013   3.793   2.562   1.377
 1705SOL    HW1 6014   3.755   2.546   1.468
 1705SOL    HW2 6015   3.882   2.606   1.385
 1706SOL     OW 6016   4.343   0.690   0.541
 1706SOL    HW1 6017   4.324   0.739   0.455
 1706SOL    HW2 6018   4.257   0.665   0.585
 1707SOL     OW 6019   5.449   1.921   3.108
 1707SOL    HW1 6020   5.485   1.830   3.128
 1707SOL    HW2 6021   5.522   1.988   3.115
 1708SOL     OW 6022   6.274   6.242   2.427
 1708SOL    HW1 6023   6.322   6.155   2.430
 1708SOL    HW2 6024   6.341   6.317   2.435
 1709SOL     OW 6025   2.513   6.493   2.292
 1709SOL    HW1 6026   2.509   6.393   2.295
 1709SOL    HW2 6027   2.420   6.530   2.301
 1710SOL     OW 6028   0.558   4.747   3.978
 1710SOL    HW1 6029   0.648   4.787   3.996
 1710SOL    HW2 6030   0.522   4.706   4.062
 1711SOL     OW 6031   1.475   4.847   5.525
 1711SOL    HW1 6032   1.547   4.905   5.489
 1711SOL    HW2 6033   1.483   4.755   5.487
 1712SOL     OW 6034   0.262   3.982   0.131
 1712SOL    HW1 6035   0.207   4.030   0.062
 1712SOL    HW2 6036   0.252   4.028   0.220
 1713SOL     OW 6037   1.496   2.609   1.913
 1713SOL    HW1 6038   1.580   2.585   1.962
 1713SOL    HW2 6039   1.458   2.693   1.952
 1714SOL     OW 6040   3.739   2.107   6.756
 1714SOL    HW1 6041   3.834   2.103   6.724
 1714SOL    HW2 6042   3.698   2.016   6.749
 1715SOL     OW 6043   0.573   3.009   3.056
 1715SOL    HW1 6044   0.479   2.986   3.030
 1715SOL    HW2 6045   0.635   2.939   3.023
 1716SOL     OW 6046   6.846   6.979   0.149
 1716SOL    HW1 6047   6.857   6.961   0.247
 1716SOL    HW2 6048   6.812   0.046   0.136
 1717SOL     OW 6049   2.430   6.644   0.195
 1717SOL    HW1 6050   2.480   6.563   0.164
 1717SOL    HW2 6051   2.475   6.681   0.277
 1718SOL     OW 6052   2.137   3.829   0.043
 1718SOL    HW1 6053   2.183   3.777   6.997
 1718SOL    HW2 6054   2.042   3.846   0.015
 1719SOL     OW 6055   2.247   3.090   1.574
 1719SOL    HW1 6056   2.198   3.096   1.487
 1719SOL    HW2 6057   2.228   3.002   1.617
 1720SOL     OW 6058   6.798   1.509   0.693
 1720SOL    HW1 6059   6.784   1.525   0.595
 1720SOL    HW2 6060   6.893   1.527   0.716
 1721SOL     OW 6061   1.828   6.475   3.289
 1721SOL    HW1 6062   1.836   6.525   3.202
 1721SOL    HW2 6063   1.865   6.531   3.363
 1722SOL     OW 6064   6.061   0.261   2.203
 1722SOL    HW1 6065   6.102   0.210   2.128
 1722SOL    HW2 6066   6.001   0.332   2.166
 1723SOL     OW 6067   0.275   2.097   2.717
 1723SOL    HW1 6068   0.289   2.068   2.622
 1723SOL    HW2 6069   0.261   2.017   2.775
 1724SOL     OW 6070   5.014   0.850   6.916
 1724SOL    HW1 6071   4.918   0.830   6.901
 1724SOL    HW2 6072   5.054   0.888   6.833
 1725SOL     OW 6073   3.442   4.168   1.136
 1725SOL    HW1 6074   3.416   4.107   1.211
 1725SOL    HW2 6075   3.408   4.260   1.155
 1726SOL     OW 6076   6.911   4.506   5.137
 1726SOL    HW1 6077   6.845   4.431   5.133
 1726SOL    HW2 6078   7.004   4.468   5.146
 1727SOL     OW 6079   4.157   3.379   4.919
 1727SOL    HW1 6080   4.081   3.320   4.947
 1727SOL    HW2 6081   4.239   3.323   4.907
 1728SOL     OW 6082   4.481   4.587   4.209
 1728SOL    HW1 6083   4.417   4.581   4.286
 1728SOL    HW2 6084   4.429   4.583   4.123
 1729SOL     OW 6085   0.936   3.928   2.921
 1729SOL    HW1 6086   0.952   3.882   3.008
 1729SOL    HW2 6087   0.878   4.008   2.936
 1730SOL     OW 6088   6.645   1.663   4.507
 1730SOL    HW1 6089   6.583   1.640   4.432
 1730SOL    HW2 6090   6.689   1.750   4.489
 1731SOL     OW 6091   2.212   4.844   1.628
 1731SOL    HW1 6092   2.131   4.901   1.643
 1731SOL    HW2 6093   2.249   4.863   1.537
 1732SOL     OW 6094   1.993   4.538   0.141
 1732SOL    HW1 6095   2.035   4.502   0.225
 1732SOL    HW2 6096   1.931   4.470   0.102
 1733SOL     OW 6097   1.101   3.788   1.676
 1733SOL    HW1 6098   1.173   3.755   1.616
 1733SOL    HW2 6099   1.095   3.887   1.671
 1734SOL     OW 6100   4.200   3.087   0.797
 1734SOL    HW1 6101   4.215   3.056   0.703
 1734SOL    HW2 6102   4.224   3.015   0.861
 1735SOL     OW 6103   6.244   4.961   1.114
 1735SOL    HW1 6104   6.214   4.911   1.196
 1735SOL    HW2 6105   6.337   4.934   1.091
 1736SOL     OW 6106   3.263   3.233   6.974
 1736SOL    HW1 6107   3.346   3.226   0.004
 1736SOL    HW2 6108   3.281   3.288   6.893
 1737SOL     OW 6109   2.054   0.528   4.300
 1737SOL    HW1 6110   2.129   0.499   4.359
 1737SOL    HW2 6111   2.079   0.516   4.204
 1738SOL     OW 6112   2.234   2.930   2.432
 1738SOL    HW1 6113   2.207   2.881   2.349
 1738SOL    HW2 6114   2.238   3.028   2.413
 1739SOL     OW 6115   4.383   2.309   4.893
 1739SOL    HW1 6116   4.383   2.320   4.794
 1739SOL    HW2 6117   4.447   2.374   4.934
 1740SOL     OW 6118   0.010   0.798   6.972
 1740SOL    HW1 6119   6.982   0.771   0.026
 1740SOL    HW2 6120   6.976   0.801   6.891
 1741SOL     OW 6121   2.404   0.939   2.571
 1741SOL    HW1 6122   2.380   1.003   2.644
 1741SOL    HW2 6123   2.483   0.884   2.599
 1742SOL     OW 6124   5.834   0.620   4.899
 1742SOL    HW1 6125   5.784   0.642   4.815
 1742SOL    HW2 6126   5.784   0.549   4.949
 1743SOL     OW 6127   3.457   1.527   1.693
 1743SOL    HW1 6128   3.383   1.507   1.758
 1743SOL    HW2 6129   3.417   1.561   1.608
 1744SOL     OW 6130   2.536   0.773   1.898
 1744SOL    HW1 6131   2.508   0.868   1.886
 1744SOL    HW2 6132   2.461   0.712   1.870
 1745SOL     OW 6133   0.127   1.832   3.203
 1745SOL    HW1 6134   0.195   1.906   3.199
 1745SOL    HW2 6135   0.072   1.833   3.119
 1746SOL     OW 6136   3.109   0.290   6.444
 1746SOL    HW1 6137   3.070   0.298   6.535
 1746SOL    HW2 6138   3.086   0.370   6.389
 1747SOL     OW 6139   3.694   0.234   1.226
 1747SOL    HW1 6140   3.666   0.138   1.234
 1747SOL    HW2 6141   3.754   0.244   1.147
 1748SOL     OW 6142   6.184   1.910   3.674
 1748SOL    HW1 6143   6.280   1.938   3.671
 1748SOL    HW2 6144   6.141   1.951   3.754
 1749SOL     OW 6145   4.558   6.560   6.468
 1749SOL    HW1 6146   4.527   6.638   6.413
 1749SOL    HW2 6147   4.479   6.517   6.512
 1750SOL     OW 6148   5.286   1.218   2.510
 1750SOL    HW1 6149   5.366   1.250   2.458
 1750SOL    HW2 6150   5.257   1.290   2.573
 1751SOL     OW 6151   2.037   5.181   4.771
 1751SOL    HW1 6152   2.037   5.260   4.832
 1751SOL    HW2 6153   2.054   5.211   4.677
 1752SOL     OW 6154   6.972   2.067   0.720
 1752SOL    HW1 6155   6.886   2.088   0.673
 1752SOL    HW2 6156   6.953   2.010   0.800
 1753SOL     OW 6157   0.708   0.357   0.405
 1753SOL    HW1 6158   0.635   0.405   0.356
 1753SOL    HW2 6159   0.720   0.266   0.367
 1754SOL     OW 6160   3.082   3.034   1.240
 1754SOL    HW1 6161   3.180   3.050   1.254
 1754SOL    HW2 6162   3.067   2.940   1.210
 1755SOL     OW 6163   5.148   4.987   1.675
 1755SOL    HW1 6164   5.181   4.996   1.581
 1755SOL    HW2 6165   5.222   5.008   1.739
 1756SOL     OW 6166   6.318   4.741   4.340
 1756SOL    HW1 6167   6.246   4.806   4.318
 1756SOL    HW2 6168   6.383   4.784   4.403
 1757SOL     OW 6169   2.898   6.371   4.431
 1757SOL    HW1 6170   2.986   6.417   4.441
 1757SOL    HW2 6171   2.827   6.438   4.408
 1758SOL     OW 6172   2.999   1.342   3.367
 1758SOL    HW1 6173   2.937   1.417   3.342
 1758SOL    HW2 6174   2.978   1.311   3.460
 1759SOL     OW 6175   0.318   4.713   6.150
 1759SOL    HW1 6176   0.407   4.707   6.104
 1759SOL    HW2 6177   0.256   4.769   6.096
 1760SOL     OW 6178   6.125   1.409   1.510
 1760SOL    HW1 6179   6.209   1.404   1.563
 1760SOL    HW2 6180   6.103   1.319   1.472
 1761SOL     OW 6181   5.824   1.044   0.476
 1761SOL    HW1 6182   5.921   1.064   0.485
 1761SOL    HW2 6183   5.798   1.049   0.380
 1762SOL     OW 6184   6.720   2.154   5.384
 1762SOL    HW1 6185   6.713   2.108   5.473
 1762SOL    HW2 6186   6.656   2.113   5.320
 1763SOL     OW 6187   1.791   4.147   4.609
 1763SOL    HW1 6188   1.780   4.244   4.630
 1763SOL    HW2 6189   1.888   4.124   4.607
 1764SOL     OW 6190   1.596   3.219   2.989
 1764SOL    HW1 6191   1.531   3.294   2.997
 1764SOL    HW2 6192   1.621   3.187   3.081
 1765SOL     OW 6193   2.726   1.236   0.165
 1765SOL    HW1 6194   2.808   1.278   0.127
 1765SOL    HW2 6195   2.738   1.137   0.170
 1766SOL     OW 6196   5.238   2.961   4.769
 1766SOL    HW1 6197   5.163   3.018   4.735
 1766SOL    HW2 6198   5.230   2.950   4.868
 1767SOL     OW 6199   5.304   3.715   2.038
 1767SOL    HW1 6200   5.286   3.627   2.081
 1767SOL    HW2 6201   5.394   3.748   2.067
 1768SOL     OW 6202   4.199   0.155   3.614
 1768SOL    HW1 6203   4.199   0.225   3.687
 1768SOL    HW2 6204   4.191   0.064   3.655
 1769SOL     OW 6205   3.931   1.800   3.874
 1769SOL    HW1 6206   3.864   1.852   3.928
 1769SOL    HW2 6207   4.013   1.855   3.861
 1770SOL     OW 6208   1.866   5.757   5.278
 1770SOL    HW1 6209   1.914   5.737   5.363
 1770SOL    HW2 6210   1.794   5.823   5.295
 1771SOL     OW 6211   3.241   6.261   0.052
 1771SOL    HW1 6212   3.176   6.277   0.126
 1771SOL    HW2 6213   3.247   6.163   0.034
 1772SOL     OW 6214   3.705   6.892   3.871
 1772SOL    HW1 6215   3.618   6.841   3.878
 1772SOL    HW2 6216   3.741   6.883   3.779
 1773SOL     OW 6217   2.545   4.990   6.138
 1773SOL    HW1 6218   2.474   4.949   6.196
 1773SOL    HW2 6219   2.502   5.030   6.057
 1774SOL     OW 6220   3.907   5.646   1.809
 1774SOL    HW1 6221   3.946   5.561   1.844
 1774SOL    HW2 6222   3.974   5.720   1.819
 1775SOL     OW 6223   0.637   4.334   2.473
 1775SOL    HW1 6224   0.664   4.239   2.459
 1775SOL    HW2 6225   0.623   4.378   2.384
 1776SOL     OW 6226   4.022   6.331   4.373
 1776SOL    HW1 6227   4.063   6.364   4.458
 1776SOL    HW2 6228   4.068   6.246   4.344
 1777SOL     OW 6229   3.662   5.876   0.016
 1777SOL    HW1 6230   3.652   5.957   0.074
 1777SOL    HW2 6231   3.690   5.903   6.950
 1778SOL     OW 6232   4.687   3.318   5.484
 1778SOL    HW1 6233   4.701   3.266   5.568
 1778SOL    HW2 6234   4.756   3.291   5.416
 1779SOL     OW 6235   4.185   0.664   4.718
 1779SOL    HW1 6236   4.199   0.742   4.780
 1779SOL    HW2 6237   4.123   0.690   4.644
 1780SOL     OW 6238   3.901   2.915   6.542
 1780SOL    HW1 6239   3.906   2.989   6.610
 1780SOL    HW2 6240   3.926   2.828   6.585
 1781SOL     OW 6241   3.961   6.104   2.567
 1781SOL    HW1 6242   4.034   6.048   2.529
 1781SOL    HW2 6243   3.916   6.054   2.642
 1782SOL     OW 6244   3.072   1.631   3.191
 1782SOL    HW1 6245   3.059   1.532   3.191
 1782SOL    HW2 6246   3.088   1.663   3.284
 1783SOL     OW 6247   2.847   5.418   6.312
 1783SOL    HW1 6248   2.782   5.379   6.247
 1783SOL    HW2 6249   2.810   5.413   6.405
 1784SOL     OW 6250   4.147   0.870   5.537
 1784SOL    HW1 6251   4.141   0.850   5.635
 1784SOL    HW2 6252   4.074   0.822   5.489
 1785SOL     OW 6253   6.371   4.175   2.561
 1785SOL    HW1 6254   6.357   4.087   2.608
 1785SOL    HW2 6255   6.284   4.210   2.528
 1786SOL     OW 6256   1.978   2.790   6.762
 1786SOL    HW1 6257   2.042   2.867   6.768
 1786SOL    HW2 6258   1.902   2.814   6.702
 1787SOL     OW 6259   2.794   1.248   5.542
 1787SOL    HW1 6260   2.857   1.256   5.619
 1787SOL    HW2 6261   2.794   1.334   5.490
 1788SOL     OW 6262   2.147   4.639   6.133
 1788SOL    HW1 6263   2.240   4.620   6.164
 1788SOL    HW2 6264   2.084   4.627   6.210
 1789SOL     OW 6265   6.015   2.340   0.936
 1789SOL    HW1 6266   6.066   2.259   0.908
 1789SOL    HW2 6267   6.022   2.410   0.864
 1790SOL     OW 6268   3.901   6.212   3.392
 1790SOL    HW1 6269   3.891   6.169   3.482
 1790SOL    HW2 6270   3.982   6.271   3.393
 1791SOL     OW 6271   0.024   0.685   2.662
 1791SOL    HW1 6272   6.986   0.761   2.642
 1791SOL    HW2 6273   0.036   0.630   2.579
 1792SOL     OW 6274   0.117   3.727   5.039
 1792SOL    HW1 6275   0.074   3.770   4.959
 1792SOL    HW2 6276   0.070   3.640   5.058
 1793SOL     OW 6277   5.973   0.012   3.904
 1793SOL    HW1 6278   6.034   0.075   3.855
 1793SOL    HW2 6279   5.964   0.042   3.999
 1794SOL     OW 6280   5.148   5.788   5.726
 1794SOL    HW1 6281   5.156   5.819   5.631
 1794SOL    HW2 6282   5.058   5.811   5.762
 1795SOL     OW 6283   0.864   2.689   1.215
 1795SOL    HW1 6284   0.961   2.677   1.236
 1795SOL    HW2 6285   0.845   2.786   1.198
 1796SOL     OW 6286   2.986   1.399   6.150
 1796SOL    HW1 6287   2.945   1.389   6.059
 1796SOL    HW2 6288   3.075   1.353   6.151
 1797SOL     OW 6289   1.403   0.214   6.968
 1797SOL    HW1 6290   1.389   0.129   6.916
 1797SOL    HW2 6291   1.317   0.240   7.011
 1798SOL     OW 6292   4.400   2.484   4.144
 1798SOL    HW1 6293   4.430   2.510   4.236
 1798SOL    HW2 6294   4.455   2.533   4.076
 1799SOL     OW 6295   6.963   2.728   4.440
 1799SOL    HW1 6296   0.035   2.750   4.437
 1799SOL    HW2 6297   6.916   2.775   4.365
 1800SOL     OW 6298   4.382   4.143   1.431
 1800SOL    HW1 6299   4.415   4.234   1.405
 1800SOL    HW2 6300   4.454   4.094   1.480
 1801SOL     OW 6301   0.503   0.451   2.213
 1801SOL    HW1 6302   0.466   0.416   2.127
 1801SOL    HW2 6303   0.502   0.379   2.282
 1802SOL     OW 6304   5.441   5.962   4.325
 1802SOL    HW1 6305   5.448   6.061   4.338
 1802SOL    HW2 6306   5.440   5.917   4.414
 1803SOL     OW 6307   0.503   5.538   6.908
 1803SOL    HW1 6308   0.459   5.570   6.824
 1803SOL    HW2 6309   0.553   5.614   6.950
 1804SOL     OW 6310   2.583   4.029   5.467
 1804SOL    HW1 6311   2.669   4.080   5.461
 1804SOL    HW2 6312   2.555   4.000   5.376
 1805SOL     OW 6313   5.178   3.439   6.093
 1805SOL    HW1 6314   5.197   3.423   6.190
 1805SOL    HW2 6315   5.082   3.417   6.074
 1806SOL     OW 6316   0.250   6.886   6.359
 1806SOL    HW1 6317   0.267   6.792   6.330
 1806SOL    HW2 6318   0.272   6.948   6.284
 1807SOL     OW 6319   5.396   2.767   4.671
 1807SOL    HW1 6320   5.329   2.834   4.702
 1807SOL    HW2 6321   5.481   2.778   4.723
 1808SOL     OW 6322   0.010   4.379   5.752
 1808SOL    HW1 6323   6.963   4.406   5.814
 1808SOL    HW2 6324   0.098   4.381   5.799
 1809SOL     OW 6325   2.771   2.227   5.373
 1809SOL    HW1 6326   2.693   2.274   5.414
 1809SOL    HW2 6327   2.851   2.287   5.374
 1810SOL     OW 6328   2.788   7.021   4.124
 1810SOL    HW1 6329   2.850   0.018   4.199
 1810SOL    HW2 6330   2.700   0.042   4.139
 1811SOL     OW 6331   5.740   5.794   3.681
 1811SOL    HW1 6332   5.659   5.807   3.623
 1811SOL    HW2 6333   5.780   5.705   3.663
 1812SOL     OW 6334   4.061   5.708   4.864
 1812SOL    HW1 6335   4.097   5.632   4.808
 1812SOL    HW2 6336   3.961   5.705   4.863
 1813SOL     OW 6337   5.878   4.087   0.775
 1813SOL    HW1 6338   5.865   3.988   0.771
 1813SOL    HW2 6339   5.964   4.108   0.822
 1814SOL     OW 6340   4.798   0.225   1.795
 1814SOL    HW1 6341   4.838   0.167   1.866
 1814SOL    HW2 6342   4.778   0.170   1.714
 1815SOL     OW 6343   0.602   1.919   2.248
 1815SOL    HW1 6344   0.689   1.901   2.292
 1815SOL    HW2 6345   0.546   1.836   2.249
 1816SOL     OW 6346   3.004   2.847   0.810
 1816SOL    HW1 6347   3.024   2.752   0.786
 1816SOL    HW2 6348   2.939   2.885   0.745
 1817SOL     OW 6349   1.688   6.332   2.362
 1817SOL    HW1 6350   1.768   6.273   2.348
 1817SOL    HW2 6351   1.665   6.377   2.276
 1818SOL     OW 6352   1.242   0.358   3.141
 1818SOL    HW1 6353   1.324   0.317   3.182
 1818SOL    HW2 6354   1.212   0.436   3.195
 1819SOL     OW 6355   1.156   4.304   2.111
 1819SOL    HW1 6356   1.185   4.215   2.144
 1819SOL    HW2 6357   1.076   4.294   2.052
 1820SOL     OW 6358   4.432   1.333   2.495
 1820SOL    HW1 6359   4.460   1.355   2.588
 1820SOL    HW2 6360   4.359   1.395   2.467
 1821SOL     OW 6361   2.174   1.242   2.803
 1821SOL    HW1 6362   2.090   1.192   2.783
 1821SOL    HW2 6363   2.155   1.339   2.813
 1822SOL     OW 6364   3.369   2.603   1.723
 1822SOL    HW1 6365   3.286   2.658   1.715
 1822SOL    HW2 6366   3.344   2.506   1.727
 1823SOL     OW 6367   3.768   6.493   3.088
 1823SOL    HW1 6368   3.741   6.402   3.118
 1823SOL    HW2 6369   3.819   6.487   3.002
 1824SOL     OW 6370   4.240   2.558   1.152
 1824SOL    HW1 6371   4.207   2.468   1.122
 1824SOL    HW2 6372   4.204   2.629   1.091
 1825SOL     OW 6373   0.866   0.323   1.692
 1825SOL    HW1 6374   0.886   0.351   1.785
 1825SOL    HW2 6375   0.941   0.352   1.632
 1826SOL     OW 6376   2.800   1.792   1.822
 1826SOL    HW1 6377   2.843   1.815   1.735
 1826SOL    HW2 6378   2.853   1.719   1.866
 1827SOL     OW 6379   0.041   4.883   2.036
 1827SOL    HW1 6380   0.028   4.974   1.995
 1827SOL    HW2 6381   0.125   4.884   2.091
 1828SOL     OW 6382   0.844   3.107   0.075
 1828SOL    HW1 6383   0.902   3.094   0.155
 1828SOL    HW2 6384   0.748   3.097   0.101
 1829SOL     OW 6385   5.113   6.435   3.392
 1829SOL    HW1 6386   5.045   6.499   3.428
 1829SOL    HW2 6387   5.199   6.483   3.378
 1830SOL     OW 6388   4.715   0.083   4.000
 1830SOL    HW1 6389   4.751   7.024   4.038
 1830SOL    HW2 6390   4.763   0.105   3.915
 1831SOL     OW 6391   6.180   6.759   2.543
 1831SOL    HW1 6392   6.232   6.844   2.539
 1831SOL    HW2 6393   6.173   6.720   2.451
 1832SOL     OW 6394   4.500   2.628   1.217
 1832SOL    HW1 6395   4.406   2.593   1.212
 1832SOL    HW2 6396   4.564   2.551   1.213
 1833SOL     OW 6397   5.380   0.007   4.678
 1833SOL    HW1 6398   5.459   0.037   4.625
 1833SOL    HW2 6399   5.348   6.944   4.645
 1834SOL     OW 6400   3.447   3.596   0.844
 1834SOL    HW1 6401   3.361   3.545   0.839
 1834SOL    HW2 6402   3.429   3.694   0.835
 1835SOL     OW 6403   1.688   4.195   1.267
 1835SOL    HW1 6404   1.754   4.140   1.216
 1835SOL    HW2 6405   1.722   4.207   1.361
 1836SOL     OW 6406   0.001   1.721   0.742
 1836SOL    HW1 6407   7.007   1.788   0.670
 1836SOL    HW2 6408   6.988   1.752   0.828
 1837SOL     OW 6409   0.884   2.292   4.356
 1837SOL    HW1 6410   0.942   2.240   4.419
 1837SOL    HW2 6411   0.878   2.243   4.269
 1838SOL     OW 6412   0.104   2.663   3.735
 1838SOL    HW1 6413   0.067   2.695   3.822
 1838SOL    HW2 6414   0.031   2.659   3.667
 1839SOL     OW 6415   5.480   3.082   4.792
 1839SOL    HW1 6416   5.385   3.055   4.809
 1839SOL    HW2 6417   5.514   3.137   4.869
 1840SOL     OW 6418   2.268   6.011   0.947
 1840SOL    HW1 6419   2.249   6.107   0.969
 1840SOL    HW2 6420   2.221   5.952   1.013
 1841SOL     OW 6421   2.172   3.915   4.375
 1841SOL    HW1 6422   2.199   4.011   4.384
 1841SOL    HW2 6423   2.074   3.909   4.358
 1842SOL     OW 6424   0.484   4.974   1.245
 1842SOL    HW1 6425   0.510   5.071   1.255
 1842SOL    HW2 6426   0.501   4.927   1.332
 1843SOL     OW 6427   1.724   2.297   5.422
 1843SOL    HW1 6428   1.823   2.305   5.408
 1843SOL    HW2 6429   1.680   2.382   5.391
 1844SOL     OW 6430   3.977   2.186   5.055
 1844SOL    HW1 6431   3.990   2.113   5.123
 1844SOL    HW2 6432   3.945   2.268   5.102
 1845SOL     OW 6433   2.910   0.261   6.631
 1845SOL    HW1 6434   2.857   0.346   6.632
 1845SOL    HW2 6435   2.951   0.246   6.721
 1846SOL     OW 6436   3.990   2.074   6.649
 1846SOL    HW1 6437   4.001   1.975   6.655
 1846SOL    HW2 6438   3.939   2.096   6.566
 1847SOL     OW 6439   0.774   0.723   0.082
 1847SOL    HW1 6440   0.862   0.769   0.092
 1847SOL    HW2 6441   0.785   0.626   0.101
 1848SOL     OW 6442   2.152   6.059   3.034
 1848SOL    HW1 6443   2.234   6.106   3.002
 1848SOL    HW2 6444   2.177   5.968   3.069
 1849SOL     OW 6445   4.254   0.786   0.279
 1849SOL    HW1 6446   4.198   0.767   0.198
 1849SOL    HW2 6447   4.351   0.783   0.253
 1850SOL     OW 6448   6.047   1.679   3.396
 1850SOL    HW1 6449   6.043   1.601   3.333
 1850SOL    HW2 6450   6.086   1.650   3.483
 1851SOL     OW 6451   0.361   1.485   1.415
 1851SOL    HW1 6452   0.345   1.458   1.510
 1851SOL    HW2 6453   0.288   1.547   1.386
 1852SOL     OW 6454   4.617   4.115   0.506
 1852SOL    HW1 6455   4.630   4.066   0.592
 1852SOL    HW2 6456   4.674   4.197   0.505
 1853SOL     OW 6457   0.762   3.789   1.422
 1853SOL    HW1 6458   0.735   3.744   1.507
 1853SOL    HW2 6459   0.854   3.827   1.432
 1854SOL     OW 6460   2.889   5.928   4.032
 1854SOL    HW1 6461   2.825   5.894   3.963
 1854SOL    HW2 6462   2.932   5.850   4.079
 1855SOL     OW 6463   5.058   5.504   0.435
 1855SOL    HW1 6464   5.011   5.417   0.449
 1855SOL    HW2 6465   5.154   5.487   0.412
 1856SOL     OW 6466   5.786   2.569   5.614
 1856SOL    HW1 6467   5.846   2.611   5.682
 1856SOL    HW2 6468   5.780   2.471   5.630
 1857SOL     OW 6469   4.676   1.064   4.457
 1857SOL    HW1 6470   4.675   0.989   4.523
 1857SOL    HW2 6471   4.709   1.030   4.369
 1858SOL     OW 6472   5.591   3.379   3.839
 1858SOL    HW1 6473   5.604   3.423   3.927
 1858SOL    HW2 6474   5.537   3.296   3.850
 1859SOL     OW 6475   4.182   2.146   3.552
 1859SOL    HW1 6476   4.230   2.058   3.546
 1859SOL    HW2 6477   4.241   2.218   3.515
 1860SOL     OW 6478   6.567   1.491   3.897
 1860SOL    HW1 6479   6.492   1.461   3.956
 1860SOL    HW2 6480   6.615   1.411   3.861
 1861SOL     OW 6481   4.637   6.495   1.825
 1861SOL    HW1 6482   4.552   6.548   1.832
 1861SOL    HW2 6483   4.704   6.530   1.890
 1862SOL     OW 6484   2.287   0.277   6.918
 1862SOL    HW1 6485   2.327   0.338   6.849
 1862SOL    HW2 6486   2.304   0.182   6.892
 1863SOL     OW 6487   2.747   2.177   0.849
 1863SOL    HW1 6488   2.692   2.160   0.767
 1863SOL    HW2 6489   2.689   2.177   0.930
 1864SOL     OW 6490   0.784   6.808   5.025
 1864SOL    HW1 6491   0.766   6.886   4.964
 1864SOL    HW2 6492   0.799   6.841   5.118
 1865SOL     OW 6493   3.497   1.646   5.659
 1865SOL    HW1 6494   3.479   1.743   5.675
 1865SOL    HW2 6495   3.582   1.620   5.705
 1866SOL     OW 6496   4.496   4.592   1.941
 1866SOL    HW1 6497   4.568   4.650   1.979
 1866SOL    HW2 6498   4.523   4.496   1.945
 1867SOL     OW 6499   0.252   4.231   0.361
 1867SOL    HW1 6500   0.195   4.253   0.281
 1867SOL    HW2 6501   0.206   4.263   0.444
 1868SOL     OW 6502   5.853   4.386   6.711
 1868SOL    HW1 6503   5.847   4.448   6.790
 1868SOL    HW2 6504   5.826   4.294   6.740
 1869SOL     OW 6505   6.696   2.354   5.179
 1869SOL    HW1 6506   6.730   2.283   5.241
 1869SOL    HW2 6507   6.771   2.388   5.123
 1870SOL     OW 6508   2.371   4.542   5.827
 1870SOL    HW1 6509   2.280   4.583   5.833
 1870SOL    HW2 6510   2.394   4.526   5.731
 1871SOL     OW 6511   1.820   6.891   1.119
 1871SOL    HW1 6512   1.886   6.928   1.054
 1871SOL    HW2 6513   1.739   6.949   1.122
 1872SOL     OW 6514   3.150   4.604   0.302
 1872SOL    HW1 6515   3.242   4.569   0.289
 1872SOL    HW2 6516   3.145   4.699   0.273
 1873SOL     OW 6517   3.916   0.773   5.398
 1873SOL    HW1 6518   3.860   0.854   5.413
 1873SOL    HW2 6519   3.900   0.738   5.306
 1874SOL     OW 6520   2.380   1.582   1.905
 1874SOL    HW1 6521   2.432   1.660   1.870
 1874SOL    HW2 6522   2.305   1.616   1.963
 1875SOL     OW 6523   0.644   6.995   6.444
 1875SOL    HW1 6524   0.683   6.950   6.364
 1875SOL    HW2 6525   0.717   0.007   6.500
 1876SOL     OW 6526   2.951   6.975   4.938
 1876SOL    HW1 6527   2.934   6.879   4.914
 1876SOL    HW2 6528   2.923   0.008   4.863
 1877SOL     OW 6529   0.980   0.525   4.095
 1877SOL    HW1 6530   0.891   0.526   4.140
 1877SOL    HW2 6531   1.043   0.468   4.147
 1878SOL     OW 6532   0.151   1.849   3.803
 1878SOL    HW1 6533   0.199   1.836   3.890
 1878SOL    HW2 6534   0.128   1.759   3.765
 1879SOL     OW 6535   1.517   3.563   4.614
 1879SOL    HW1 6536   1.444   3.619   4.576
 1879SOL    HW2 6537   1.536   3.486   4.552
 1880SOL     OW 6538   7.000   1.371   4.797
 1880SOL    HW1 6539   0.050   1.406   4.742
 1880SOL    HW2 6540   6.943   1.447   4.828
 1881SOL     OW 6541   6.076   2.059   1.266
 1881SOL    HW1 6542   6.126   2.019   1.343
 1881SOL    HW2 6543   6.039   2.148   1.293
 1882SOL     OW 6544   1.176   4.125   6.664
 1882SOL    HW1 6545   1.263   4.101   6.708
 1882SOL    HW2 6546   1.101   4.106   6.728
 1883SOL     OW 6547   6.400   2.239   2.132
 1883SOL    HW1 6548   6.342   2.206   2.207
 1883SOL    HW2 6549   6.481   2.181   2.125
 1884SOL     OW 6550   0.924   1.451   0.839
 1884SOL    HW1 6551   1.014   1.426   0.876
 1884SOL    HW2 6552   0.853   1.407   0.894
 1885SOL     OW 6553   1.901   1.837   5.667
 1885SOL    HW1 6554   1.931   1.929   5.692
 1885SOL    HW2 6555   1.964   1.769   5.706
 1886SOL     OW 6556   2.087   0.194   2.204
 1886SOL    HW1 6557   2.157   0.122   2.204
 1886SOL    HW2 6558   2.120   0.273   2.255
 1887SOL     OW 6559   0.948   5.732   6.015
 1887SOL    HW1 6560   0.915   5.671   5.943
 1887SOL    HW2 6561   0.949   5.682   6.102
 1888SOL     OW 6562   3.327   2.022   0.211
 1888SOL    HW1 6563   3.373   1.965   0.279
 1888SOL    HW2 6564   3.272   2.091   0.258
 1889SOL     OW 6565   0.783   3.946   4.044
 1889SOL    HW1 6566   0.699   3.980   4.086
 1889SOL    HW2 6567   0.802   3.854   4.077
 1890SOL     OW 6568   0.700   5.652   4.281
 1890SOL    HW1 6569   0.695   5.595   4.199
 1890SOL    HW2 6570   0.718   5.595   4.360
 1891SOL     OW 6571   3.982   3.173   1.871
 1891SOL    HW1 6572   3.929   3.197   1.790
 1891SOL    HW2 6573   3.933   3.104   1.924
 1892SOL     OW 6574   6.999   0.675   1.785
 1892SOL    HW1 6575   6.945   0.675   1.701
 1892SOL    HW2 6576   0.058   0.624   1.770
 1893SOL     OW 6577   3.582   3.126   2.102
 1893SOL    HW1 6578   3.589   3.027   2.089
 1893SOL    HW2 6579   3.549   3.168   2.018
 1894SOL     OW 6580   3.382   3.895   4.151
 1894SOL    HW1 6581   3.427   3.858   4.070
 1894SOL    HW2 6582   3.350   3.988   4.132
 1895SOL     OW 6583   4.268   0.093   1.283
 1895SOL    HW1 6584   4.213   0.138   1.213
 1895SOL    HW2 6585   4.211   0.076   1.364
 1896SOL     OW 6586   6.426   1.419   0.720
 1896SOL    HW1 6587   6.424   1.445   0.624
 1896SOL    HW2 6588   6.501   1.356   0.737
 1897SOL     OW 6589   1.557   5.384   2.217
 1897SOL    HW1 6590   1.499   5.459   2.250
 1897SOL    HW2 6591   1.623   5.360   2.288
 1898SOL     OW 6592   2.179   4.649   2.724
 1898SOL    HW1 6593   2.084   4.670   2.747
 1898SOL    HW2 6594   2.206   4.564   2.770
 1899SOL     OW 6595   0.593   0.552   1.013
 1899SOL    HW1 6596   0.633   0.626   1.067
 1899SOL    HW2 6597   0.648   0.538   0.931
 1900SOL     OW 6598   2.838   0.260   0.043
 1900SOL    HW1 6599   2.808   0.347   0.082
 1900SOL    HW2 6600   2.938   0.260   0.037
 1901SOL     OW 6601   2.476   2.779   1.222
 1901SOL    HW1 6602   2.400   2.841   1.201
 1901SOL    HW2 6603   2.481   2.764   1.321
 1902SOL     OW 6604   2.520   0.420   4.602
 1902SOL    HW1 6605   2.461   0.470   4.665
 1902SOL    HW2 6606   2.571   0.484   4.545
 1903SOL     OW 6607   0.811   3.198   3.719
 1903SOL    HW1 6608   0.881   3.156   3.778
 1903SOL    HW2 6609   0.855   3.236   3.638
 1904SOL     OW 6610   5.595   5.010   2.583
 1904SOL    HW1 6611   5.554   4.995   2.672
 1904SOL    HW2 6612   5.627   4.924   2.545
 1905SOL     OW 6613   0.668   0.435   3.793
 1905SOL    HW1 6614   0.732   0.418   3.718
 1905SOL    HW2 6615   0.609   0.512   3.769
 1906SOL     OW 6616   2.861   0.478   6.052
 1906SOL    HW1 6617   2.862   0.482   6.151
 1906SOL    HW2 6618   2.945   0.520   6.016
 1907SOL     OW 6619   4.880   2.632   0.809
 1907SOL    HW1 6620   4.832   2.694   0.871
 1907SOL    HW2 6621   4.884   2.540   0.849
 1908SOL     OW 6622   4.057   6.712   6.806
 1908SOL    HW1 6623   4.023   6.722   6.900
 1908SOL    HW2 6624   4.001   6.645   6.757
 1909SOL     OW 6625   7.001   3.179   3.964
 1909SOL    HW1 6626   0.061   3.230   3.969
 1909SOL    HW2 6627   6.927   3.236   4.000
 1910SOL     OW 6628   6.270   5.993   5.850
 1910SOL    HW1 6629   6.281   6.083   5.808
 1910SOL    HW2 6630   6.252   5.925   5.778
 1911SOL     OW 6631   0.008   4.643   4.267
 1911SOL    HW1 6632   7.019   4.727   4.321
 1911SOL    HW2 6633   0.068   4.663   4.190
 1912SOL     OW 6634   2.698   5.106   2.397
 1912SOL    HW1 6635   2.670   5.053   2.317
 1912SOL    HW2 6636   2.711   5.045   2.475
 1913SOL     OW 6637   2.079   5.670   4.840
 1913SOL    HW1 6638   2.047   5.580   4.810
 1913SOL    HW2 6639   2.083   5.673   4.940
 1914SOL     OW 6640   3.154   3.945   6.096
 1914SOL    HW1 6641   3.187   3.974   6.006
 1914SOL    HW2 6642   3.073   3.997   6.120
 1915SOL     OW 6643   4.273   2.957   6.492
 1915SOL    HW1 6644   4.263   3.048   6.450
 1915SOL    HW2 6645   4.199   2.898   6.459
 1916SOL     OW 6646   3.855   0.229   1.023
 1916SOL    HW1 6647   3.828   0.276   0.940
 1916SOL    HW2 6648   3.945   0.188   1.011
 1917SOL     OW 6649   2.724   4.386   0.531
 1917SOL    HW1 6650   2.748   4.444   0.608
 1917SOL    HW2 6651   2.807   4.348   0.491
 1918SOL     OW 6652   0.974   0.787   5.017
 1918SOL    HW1 6653   1.026   0.762   4.935
 1918SOL    HW2 6654   1.027   0.853   5.071
 1919SOL     OW 6655   1.755   2.028   1.257
 1919SOL    HW1 6656   1.806   1.943   1.267
 1919SOL    HW2 6657   1.663   2.009   1.224
 1920SOL     OW 6658   5.978   2.376   2.208
 1920SOL    HW1 6659   5.937   2.370   2.117
 1920SOL    HW2 6660   6.014   2.468   2.222
 1921SOL     OW 6661   1.712   2.513   0.346
 1921SOL    HW1 6662   1.639   2.577   0.323
 1921SOL    HW2 6663   1.684   2.456   0.424
 1922SOL     OW 6664   3.289   3.361   1.772
 1922SOL    HW1 6665   3.250   3.412   1.696
 1922SOL    HW2 6666   3.341   3.422   1.831
 1923SOL     OW 6667   5.195   0.304   6.298
 1923SOL    HW1 6668   5.122   0.255   6.346
 1923SOL    HW2 6669   5.196   0.399   6.328
 1924SOL     OW 6670   4.351   0.341   1.476
 1924SOL    HW1 6671   4.286   0.267   1.457
 1924SOL    HW2 6672   4.340   0.370   1.571
 1925SOL     OW 6673   1.388   4.155   0.977
 1925SOL    HW1 6674   1.403   4.057   0.988
 1925SOL    HW2 6675   1.446   4.206   1.040
 1926SOL     OW 6676   3.612   0.107   1.819
 1926SOL    HW1 6677   3.699   0.088   1.863
 1926SOL    HW2 6678   3.627   0.125   1.721
 1927SOL     OW 6679   2.108   4.620   1.383
 1927SOL    HW1 6680   2.033   4.686   1.385
 1927SOL    HW2 6681   2.081   4.537   1.431
 1928SOL     OW 6682   4.634   4.357   4.304
 1928SOL    HW1 6683   4.567   4.422   4.267
 1928SOL    HW2 6684   4.644   4.372   4.402
 1929SOL     OW 6685   3.163   0.827   2.747
 1929SOL    HW1 6686   3.239   0.874   2.703
 1929SOL    HW2 6687   3.174   0.728   2.736
 1930SOL     OW 6688   4.594   3.077   6.332
 1930SOL    HW1 6689   4.537   3.159   6.329
 1930SOL    HW2 6690   4.685   3.098   6.296
 1931SOL     OW 6691   0.839   1.436   6.217
 1931SOL    HW1 6692   0.799   1.526   6.201
 1931SOL    HW2 6693   0.822   1.377   6.138
 1932SOL     OW 6694   4.666   2.195   3.484
 1932SOL    HW1 6695   4.682   2.101   3.513
 1932SOL    HW2 6696   4.575   2.224   3.514
 1933SOL     OW 6697   0.750   2.057   6.884
 1933SOL    HW1 6698   0.720   2.152   6.887
 1933SOL    HW2 6699   0.723   2.010   6.968
 1934SOL     OW 6700   0.282   0.560   5.467
 1934SOL    HW1 6701   0.294   0.535   5.371
 1934SOL    HW2 6702   0.201   0.618   5.476
 1935SOL     OW 6703   5.165   4.583   3.277
 1935SOL    HW1 6704   5.177   4.646   3.201
 1935SOL    HW2 6705   5.084   4.608   3.329
 1936SOL     OW 6706   5.349   3.127   4.419
 1936SOL    HW1 6707   5.343   3.214   4.370
 1936SOL    HW2 6708   5.354   3.145   4.517
 1937SOL     OW 6709   4.913   5.387   6.517
 1937SOL    HW1 6710   5.009   5.359   6.517
 1937SOL    HW2 6711   4.903   5.472   6.568
 1938SOL     OW 6712   0.646   1.964   6.439
 1938SOL    HW1 6713   0.732   2.014   6.443
 1938SOL    HW2 6714   0.587   2.005   6.369
 1939SOL     OW 6715   0.864   5.697   5.107
 1939SOL    HW1 6716   0.835   5.634   5.179
 1939SOL    HW2 6717   0.955   5.733   5.129
 1940SOL     OW 6718   6.061   4.821   1.801
 1940SOL    HW1 6719   6.127   4.896   1.796
 1940SOL    HW2 6720   5.985   4.847   1.861
 1941SOL     OW 6721   0.988   3.112   3.914
 1941SOL    HW1 6722   1.032   3.165   3.987
 1941SOL    HW2 6723   0.946   3.030   3.953
 1942SOL     OW 6724   5.471   3.498   2.773
 1942SOL    HW1 6725   5.401   3.569   2.777
 1942SOL    HW2 6726   5.458   3.435   2.850
 1943SOL     OW 6727   1.487   1.195   2.222
 1943SOL    HW1 6728   1.397   1.156   2.245
 1943SOL    HW2 6729   1.559   1.141   2.265
 1944SOL     OW 6730   0.304   3.038   0.888
 1944SOL    HW1 6731   0.317   2.983   0.805
 1944SOL    HW2 6732   0.313   2.979   0.968
 1945SOL     OW 6733   3.944   6.681   0.728
 1945SOL    HW1 6734   4.038   6.650   0.713
 1945SOL    HW2 6735   3.923   6.758   0.668
 1946SOL     OW 6736   6.979   6.109   1.252
 1946SOL    HW1 6737   6.956   6.166   1.331
 1946SOL    HW2 6738   6.942   6.017   1.266
 1947SOL     OW 6739   5.570   3.791   3.461
 1947SOL    HW1 6740   5.550   3.802   3.364
 1947SOL    HW2 6741   5.544   3.699   3.490
 1948SOL     OW 6742   5.839   3.450   2.894
 1948SOL    HW1 6743   5.824   3.351   2.898
 1948SOL    HW2 6744   5.807   3.492   2.979
 1949SOL     OW 6745   4.007   4.793   0.701
 1949SOL    HW1 6746   4.044   4.732   0.772
 1949SOL    HW2 6747   3.939   4.854   0.742
 1950SOL     OW 6748   3.601   4.132   4.020
 1950SOL    HW1 6749   3.610   4.125   3.921
 1950SOL    HW2 6750   3.505   4.133   4.045
 1951SOL     OW 6751   6.611   4.879   5.714
 1951SOL    HW1 6752   6.650   4.799   5.760
 1951SOL    HW2 6753   6.518   4.857   5.683
 1952SOL     OW 6754   5.779   3.649   0.652
 1952SOL    HW1 6755   5.699   3.706   0.674
 1952SOL    HW2 6756   5.759   3.554   0.676
 1953SOL     OW 6757   0.706   1.318   6.451
 1953SOL    HW1 6758   0.640   1.390   6.470
 1953SOL    HW2 6759   0.774   1.351   6.386
 1954SOL     OW 6760   3.895   0.274   1.426
 1954SOL    HW1 6761   3.845   0.252   1.342
 1954SOL    HW2 6762   3.944   0.360   1.414
 1955SOL     OW 6763   1.067   1.537   2.084
 1955SOL    HW1 6764   1.033   1.631   2.084
 1955SOL    HW2 6765   1.016   1.483   2.017
 1956SOL     OW 6766   6.175   0.857   1.981
 1956SOL    HW1 6767   6.129   0.828   1.896
 1956SOL    HW2 6768   6.156   0.791   2.053
 1957SOL     OW 6769   5.402   2.284   3.976
 1957SOL    HW1 6770   5.485   2.236   3.948
 1957SOL    HW2 6771   5.428   2.369   4.022
 1958SOL     OW 6772   4.410   1.505   0.563
 1958SOL    HW1 6773   4.384   1.597   0.590
 1958SOL    HW2 6774   4.421   1.501   0.464
 1959SOL     OW 6775   6.823   0.030   3.837
 1959SOL    HW1 6776   6.766   0.004   3.760
 1959SOL    HW2 6777   6.903   6.996   3.841
 1960SOL     OW 6778   5.833   3.153   2.864
 1960SOL    HW1 6779   5.865   3.068   2.906
 1960SOL    HW2 6780   5.892   3.176   2.786
 1961SOL     OW 6781   6.397   4.223   5.399
 1961SOL    HW1 6782   6.345   4.308   5.408
 1961SOL    HW2 6783   6.387   4.187   5.306
 1962SOL     OW 6784   1.283   6.893   3.089
 1962SOL    HW1 6785   1.363   6.950   3.072
 1962SOL    HW2 6786   1.263   6.838   3.008
 1963SOL     OW 6787   1.012   1.833   1.746
 1963SOL    HW1 6788   1.039   1.800   1.655
 1963SOL    HW2 6789   1.093   1.863   1.796
 1964SOL     OW 6790   5.651   4.637   1.859
 1964SOL    HW1 6791   5.590   4.579   1.803
 1964SOL    HW2 6792   5.672   4.589   1.944
 1965SOL     OW 6793   0.210   4.655   4.519
 1965SOL    HW1 6794   0.146   4.719   4.476
 1965SOL    HW2 6795   0.226   4.578   4.459
 1966SOL     OW 6796   1.872   4.754   1.173
 1966SOL    HW1 6797   1.840   4.659   1.170
 1966SOL    HW2 6798   1.862   4.790   1.266
 1967SOL     OW 6799   6.292   2.779   3.254
 1967SOL    HW1 6800   6.258   2.867   3.220
 1967SOL    HW2 6801   6.372   2.794   3.311
 1968SOL     OW 6802   2.129   1.525   5.614
 1968SOL    HW1 6803   2.194   1.452   5.631
 1968SOL    HW2 6804   2.089   1.513   5.523
 1969SOL     OW 6805   2.842   0.005   1.081
 1969SOL    HW1 6806   2.762   6.985   1.044
 1969SOL    HW2 6807   2.910   6.962   1.108
 1970SOL     OW 6808   6.617   5.512   4.788
 1970SOL    HW1 6809   6.714   5.515   4.766
 1970SOL    HW2 6810   6.597   5.579   4.860
 1971SOL     OW 6811   1.512   6.917   5.393
 1971SOL    HW1 6812   1.566   6.991   5.434
 1971SOL    HW2 6813   1.483   6.944   5.302
 1972SOL     OW 6814   6.402   2.478   1.391
 1972SOL    HW1 6815   6.333   2.458   1.321
 1972SOL    HW2 6816   6.371   2.554   1.447
 1973SOL     OW 6817   2.369   4.041   0.671
 1973SOL    HW1 6818   2.414   4.128   0.656
 1973SOL    HW2 6819   2.393   4.007   0.762
 1974SOL     OW 6820   3.754   6.683   5.132
 1974SOL    HW1 6821   3.851   6.661   5.134
 1974SOL    HW2 6822   3.704   6.610   5.086
 1975SOL     OW 6823   1.648   3.492   2.944
 1975SOL    HW1 6824   1.644   3.495   3.044
 1975SOL    HW2 6825   1.658   3.397   2.914
 1976SOL     OW 6826   6.708   0.323   6.165
 1976SOL    HW1 6827   6.674   0.417   6.158
 1976SOL    HW2 6828   6.716   0.298   6.262
 1977SOL     OW 6829   1.802   4.180   6.946
 1977SOL    HW1 6830   1.733   4.129   6.996
 1977SOL    HW2 6831   1.768   4.202   6.855
 1978SOL     OW 6832   2.575   6.914   2.388
 1978SOL    HW1 6833   2.504   6.925   2.458
 1978SOL    HW2 6834   2.663   6.899   2.432
 1979SOL     OW 6835   5.930   5.514   6.485
 1979SOL    HW1 6836   5.856   5.527   6.419
 1979SOL    HW2 6837   5.894   5.478   6.570
 1980SOL     OW 6838   2.919   1.487   1.887
 1980SOL    HW1 6839   2.854   1.424   1.843
 1980SOL    HW2 6840   2.889   1.504   1.981
 1981SOL     OW 6841   4.628   2.632   3.166
 1981SOL    HW1 6842   4.582   2.575   3.234
 1981SOL    HW2 6843   4.680   2.704   3.211
 1982SOL     OW 6844   6.626   3.075   3.753
 1982SOL    HW1 6845   6.613   3.172   3.776
 1982SOL    HW2 6846   6.538   3.027   3.757
 1983SOL     OW 6847   0.010   0.265   0.930
 1983SOL    HW1 6848   0.080   0.309   0.986
 1983SOL    HW2 6849   0.031   0.167   0.921
 1984SOL     OW 6850   5.978   2.850   5.106
 1984SOL    HW1 6851   6.033   2.836   5.024
 1984SOL    HW2 6852   5.899   2.789   5.105
 1985SOL     OW 6853   6.557   4.778   2.137
 1985SOL    HW1 6854   6.634   4.801   2.196
 1985SOL    HW2 6855   6.500   4.709   2.181
 1986SOL     OW 6856   3.600   1.717   0.152
 1986SOL    HW1 6857   3.612   1.636   0.210
 1986SOL    HW2 6858   3.593   1.799   0.210
 1987SOL     OW 6859   1.502   0.569   3.331
 1987SOL    HW1 6860   1.561   0.647   3.352
 1987SOL    HW2 6861   1.425   0.568   3.395
 1988SOL     OW 6862   6.923   2.236   0.981
 1988SOL    HW1 6863   7.016   2.270   0.994
 1988SOL    HW2 6864   6.919   2.140   1.008
 1989SOL     OW 6865   2.964   5.037   5.570
 1989SOL    HW1 6866   2.906   4.962   5.536
 1989SOL    HW2 6867   3.029   5.001   5.637
 1990SOL     OW 6868   3.561   0.786   0.047
 1990SOL    HW1 6869   3.564   0.851   0.123
 1990SOL    HW2 6870   3.539   0.695   0.082
 1991SOL     OW 6871   3.077   5.526   0.473
 1991SOL    HW1 6872   3.033   5.603   0.519
 1991SOL    HW2 6873   3.176   5.537   0.477
 1992SOL     OW 6874   0.424   6.422   0.450
 1992SOL    HW1 6875   0.340   6.374   0.472
 1992SOL    HW2 6876   0.479   6.435   0.532
 1993SOL     OW 6877   1.881   3.440   4.499
 1993SOL    HW1 6878   1.794   3.481   4.527
 1993SOL    HW2 6879   1.955   3.507   4.512
 1994SOL     OW 6880   3.608   3.566   0.233
 1994SOL    HW1 6881   3.571   3.656   0.257
 1994SOL    HW2 6882   3.619   3.512   0.317
 1995SOL     OW 6883   5.727   2.141   4.592
 1995SOL    HW1 6884   5.690   2.207   4.527
 1995SOL    HW2 6885   5.653   2.081   4.623
 1996SOL     OW 6886   3.802   1.507   0.906
 1996SOL    HW1 6887   3.820   1.497   1.004
 1996SOL    HW2 6888   3.823   1.421   0.859
 1997SOL     OW 6889   3.170   1.420   3.624
 1997SOL    HW1 6890   3.142   1.378   3.710
 1997SOL    HW2 6891   3.097   1.478   3.590
 1998SOL     OW 6892   1.024   3.051   1.479
 1998SOL    HW1 6893   1.030   2.963   1.525
 1998SOL    HW2 6894   0.971   3.115   1.535
 1999SOL     OW 6895   0.846   0.189   5.361
 1999SOL    HW1 6896   0.910   0.175   5.286
 1999SOL    HW2 6897   0.887   0.247   5.430
 2000SOL     OW 6898   3.858   3.977   6.975
 2000SOL    HW1 6899   3.910   3.892   6.988
 2000SOL    HW2 6900   3.762   3.961   6.998
 2001SOL     OW 6901   2.017   1.385   6.695
 2001SOL    HW1 6902   2.023   1.427   6.605
 2001SOL    HW2 6903   2.107   1.351   6.723
 2002SOL     OW 6904   6.472   5.589   0.896
 2002SOL    HW1 6905   6.393   5.539   0.929
 2002SOL    HW2 6906   6.489   5.565   0.800
 2003SOL     OW 6907   6.155   5.200   2.266
 2003SOL    HW1 6908   6.224   5.138   2.304
 2003SOL    HW2 6909   6.152   5.284   2.321
 2004SOL     OW 6910   3.556   0.829   3.625
 2004SOL    HW1 6911   3.574   0.767   3.702
 2004SOL    HW2 6912   3.575   0.923   3.653
 2005SOL     OW 6913   1.132   6.116   0.577
 2005SOL    HW1 6914   1.058   6.090   0.515
 2005SOL    HW2 6915   1.116   6.208   0.612
 2006SOL     OW 6916   5.152   6.770   3.330
 2006SOL    HW1 6917   5.081   6.757   3.261
 2006SOL    HW2 6918   5.110   6.771   3.421
 2007SOL     OW 6919   5.325   4.425   0.350
 2007SOL    HW1 6920   5.380   4.387   0.423
 2007SOL    HW2 6921   5.249   4.363   0.328
 2008SOL     OW 6922   2.249   4.074   3.618
 2008SOL    HW1 6923   2.276   4.130   3.696
 2008SOL    HW2 6924   2.187   4.002   3.649
 2009SOL     OW 6925   6.651   6.220   1.859
 2009SOL    HW1 6926   6.644   6.231   1.958
 2009SOL    HW2 6927   6.744   6.193   1.835
 2010SOL     OW 6928   1.324   2.379   1.822
 2010SOL    HW1 6929   1.231   2.407   1.801
 2010SOL    HW2 6930   1.388   2.451   1.792
 2011SOL     OW 6931   6.911   6.188   5.478
 2011SOL    HW1 6932   6.999   6.152   5.448
 2011SOL    HW2 6933   6.855   6.114   5.515
 2012SOL     OW 6934   1.419   3.096   2.735
 2012SOL    HW1 6935   1.331   3.142   2.742
 2012SOL    HW2 6936   1.475   3.117   2.816
 2013SOL     OW 6937   0.843   3.202   3.354
 2013SOL    HW1 6938   0.905   3.253   3.414
 2013SOL    HW2 6939   0.896   3.155   3.283
 2014SOL     OW 6940   2.988   0.430   3.805
 2014SOL    HW1 6941   3.036   0.342   3.806
 2014SOL    HW2 6942   3.009   0.481   3.888
 2015SOL     OW 6943   3.762   0.817   1.926
 2015SOL    HW1 6944   3.670   0.779   1.931
 2015SOL    HW2 6945   3.820   0.772   1.994
 2016SOL     OW 6946   2.080   6.999   6.131
 2016SOL    HW1 6947   2.037   6.946   6.058
 2016SOL    HW2 6948   2.026   0.056   6.149
 2017SOL     OW 6949   4.105   6.984   2.662
 2017SOL    HW1 6950   4.030   6.922   2.643
 2017SOL    HW2 6951   4.143   6.965   2.753
 2018SOL     OW 6952   0.481   1.650   3.084
 2018SOL    HW1 6953   0.446   1.571   3.134
 2018SOL    HW2 6954   0.542   1.703   3.144
 2019SOL     OW 6955   6.539   4.685   6.170
 2019SOL    HW1 6956   6.474   4.626   6.218
 2019SOL    HW2 6957   6.499   4.716   6.084
 2020SOL     OW 6958   1.580   6.482   6.132
 2020SOL    HW1 6959   1.486   6.449   6.117
 2020SOL    HW2 6960   1.577   6.580   6.150
 2021SOL     OW 6961   5.981   6.223   3.438
 2021SOL    HW1 6962   5.971   6.176   3.350
 2021SOL    HW2 6963   5.891   6.251   3.471
 2022SOL     OW 6964   2.090   4.286   5.374
 2022SOL    HW1 6965   2.188   4.287   5.391
 2022SOL    HW2 6966   2.071   4.234   5.291
 2023SOL     OW 6967   0.145   6.819   6.863
 2023SOL    HW1 6968   0.133   6.909   6.904
 2023SOL    HW2 6969   0.080   6.755   6.905
 2024SOL     OW 6970   0.834   5.578   4.511
 2024SOL    HW1 6971   0.868   5.652   4.453
 2024SOL    HW2 6972   0.878   5.582   4.600
 2025SOL     OW 6973   2.310   0.457   4.827
 2025SOL    HW1 6974   2.319   0.359   4.807
 2025SOL    HW2 6975   2.327   0.473   4.924
 2026SOL     OW 6976   6.061   1.061   6.143
 2026SOL    HW1 6977   6.140   1.071   6.082
 2026SOL    HW2 6978   5.998   1.137   6.129
 2027SOL     OW 6979   0.684   6.016   2.527
 2027SOL    HW1 6980   0.669   5.930   2.478
 2027SOL    HW2 6981   0.596   6.060   2.545
 2028SOL     OW 6982   4.034   5.785   2.729
 2028SOL    HW1 6983   4.108   5.849   2.750
 2028SOL    HW2 6984   4.073   5.702   2.689
 2029SOL     OW 6985   6.820   2.912   5.964
 2029SOL    HW1 6986   6.811   2.974   6.042
 2029SOL    HW2 6987   6.904   2.934   5.914
 2030SOL     OW 6988   2.543   5.977   3.226
 2030SOL    HW1 6989   2.633   5.961   3.267
 2030SOL    HW2 6990   2.485   6.025   3.292
 2031SOL     OW 6991   6.554   5.696   3.026
 2031SOL    HW1 6992   6.578   5.630   3.098
 2031SOL    HW2 6993   6.635   5.750   3.003
 2032SOL     OW 6994   3.151   1.598   6.498
 2032SOL    HW1 6995   3.146   1.555   6.588
 2032SOL    HW2 6996   3.240   1.578   6.457
 2033SOL     OW 6997   2.149   1.404   1.226
 2033SOL    HW1 6998   2.099   1.488   1.244
 2033SOL    HW2 6999   2.245   1.426   1.206
 2034SOL     OW 7000   0.598   4.735   6.111
 2034SOL    HW1 7001   0.623   4.642   6.086
 2034SOL    HW2 7002   0.672   4.797   6.086
 2035SOL     OW 7003   5.732   0.279   2.460
 2035SOL    HW1 7004   5.722   0.214   2.385
 2035SOL    HW2 7005   5.829   0.287   2.485
 2036SOL     OW 7006   0.592   3.700   2.097
 2036SOL    HW1 7007   0.647   3.713   2.179
 2036SOL    HW2 7008   0.513   3.761   2.099
 2037SOL     OW 7009   0.458   2.997   6.443
 2037SOL    HW1 7010   0.552   3.019   6.469
 2037SOL    HW2 7011   0.395   3.053   6.497
 2038SOL     OW 7012   2.183   1.503   0.521
 2038SOL    HW1 7013   2.199   1.439   0.596
 2038SOL    HW2 7014   2.085   1.512   0.505
 2039SOL     OW 7015   6.427   6.023   2.370
 2039SOL    HW1 7016   6.457   5.974   2.452
 2039SOL    HW2 7017   6.423   5.959   2.293
 2040SOL     OW 7018   2.523   2.990   6.940
 2040SOL    HW1 7019   2.437   2.968   6.986
 2040SOL    HW2 7020   2.555   3.080   6.970
 2041SOL     OW 7021   1.863   0.300   6.546
 2041SOL    HW1 7022   1.779   0.296   6.491
 2041SOL    HW2 7023   1.841   0.274   6.641
 2042SOL     OW 7024   4.832   1.019   5.564
 2042SOL    HW1 7025   4.822   0.919   5.569
 2042SOL    HW2 7026   4.851   1.055   5.655
 2043SOL     OW 7027   6.538   3.742   1.286
 2043SOL    HW1 7028   6.598   3.709   1.214
 2043SOL    HW2 7029   6.586   3.738   1.374
 2044SOL     OW 7030   5.027   0.753   0.714
 2044SOL    HW1 7031   4.946   0.695   0.704
 2044SOL    HW2 7032   5.034   0.816   0.637
 2045SOL     OW 7033   1.569   6.465   6.487
 2045SOL    HW1 7034   1.629   6.386   6.502
 2045SOL    HW2 7035   1.483   6.433   6.447
 2046SOL     OW 7036   0.929   2.446   5.211
 2046SOL    HW1 7037   0.966   2.476   5.122
 2046SOL    HW2 7038   0.971   2.500   5.284
 2047SOL     OW 7039   6.590   1.586   6.684
 2047SOL    HW1 7040   6.558   1.654   6.749
 2047SOL    HW2 7041   6.655   1.629   6.620
 2048SOL     OW 7042   1.097   1.310   4.516
 2048SOL    HW1 7043   1.149   1.355   4.443
 2048SOL    HW2 7044   1.027   1.252   4.475
 2049SOL     OW 7045   4.729   1.677   4.638
 2049SOL    HW1 7046   4.804   1.692   4.574
 2049SOL    HW2 7047   4.747   1.729   4.722
 2050SOL     OW 7048   0.700   1.338   3.813
 2050SOL    HW1 7049   0.606   1.365   3.837
 2050SOL    HW2 7050   0.736   1.277   3.883
 2051SOL     OW 7051   3.372   6.120   1.105
 2051SOL    HW1 7052   3.461   6.132   1.061
 2051SOL    HW2 7053   3.367   6.029   1.146
 2052SOL     OW 7054   1.350   4.148   0.039
 2052SOL    HW1 7055   1.379   4.225   0.096
 2052SOL    HW2 7056   1.256   4.124   0.061
 2053SOL     OW 7057   0.756   5.066   3.853
 2053SOL    HW1 7058   0.731   5.127   3.778
 2053SOL    HW2 7059   0.687   5.071   3.925
 2054SOL     OW 7060   3.363   3.274   3.654
 2054SOL    HW1 7061   3.263   3.275   3.659
 2054SOL    HW2 7062   3.398   3.189   3.695
 2055SOL     OW 7063   2.820   2.196   5.828
 2055SOL    HW1 7064   2.727   2.227   5.807
 2055SOL    HW2 7065   2.820   2.151   5.917
 2056SOL     OW 7066   4.036   4.804   1.021
 2056SOL    HW1 7067   4.110   4.871   1.015
 2056SOL    HW2 7068   4.003   4.800   1.115
 2057SOL     OW 7069   5.984   2.418   4.108
 2057SOL    HW1 7070   5.896   2.431   4.062
 2057SOL    HW2 7071   5.996   2.487   4.179
 2058SOL     OW 7072   0.627   5.952   3.460
 2058SOL    HW1 7073   0.571   5.869   3.460
 2058SOL    HW2 7074   0.568   6.032   3.452
 2059SOL     OW 7075   1.675   6.928   5.916
 2059SOL    HW1 7076   1.745   6.939   5.846
 2059SOL    HW2 7077   1.645   7.018   5.948
 2060SOL     OW 7078   1.041   3.481   6.909
 2060SOL    HW1 7079   1.052   3.528   6.822
 2060SOL    HW2 7080   0.981   3.402   6.896
 2061SOL     OW 7081   2.155   2.206   2.765
 2061SOL    HW1 7082   2.115   2.137   2.705
 2061SOL    HW2 7083   2.255   2.198   2.763
 2062SOL     OW 7084   6.794   5.217   5.129
 2062SOL    HW1 7085   6.818   5.283   5.058
 2062SOL    HW2 7086   6.811   5.124   5.096
 2063SOL     OW 7087   1.623   1.128   4.993
 2063SOL    HW1 7088   1.697   1.161   4.934
 2063SOL    HW2 7089   1.578   1.205   5.038
 2064SOL     OW 7090   0.219   3.110   3.547
 2064SOL    HW1 7091   0.283   3.045   3.587
 2064SOL    HW2 7092   0.256   3.147   3.462
 2065SOL     OW 7093   4.433   2.515   5.799
 2065SOL    HW1 7094   4.520   2.554   5.770
 2065SOL    HW2 7095   4.358   2.558   5.748
 2066SOL     OW 7096   6.285   3.100   5.042
 2066SOL    HW1 7097   6.268   3.148   4.956
 2066SOL    HW2 7098   6.384   3.085   5.053
 2067SOL     OW 7099   6.465   4.872   1.058
 2067SOL    HW1 7100   6.508   4.936   0.994
 2067SOL    HW2 7101   6.488   4.778   1.031
 2068SOL     OW 7102   3.867   0.645   3.999
 2068SOL    HW1 7103   3.868   0.714   4.071
 2068SOL    HW2 7104   3.918   0.564   4.029
 2069SOL     OW 7105   0.311   2.494   3.811
 2069SOL    HW1 7106   0.373   2.549   3.868
 2069SOL    HW2 7107   0.242   2.554   3.771
 2070SOL     OW 7108   0.636   4.420   2.221
 2070SOL    HW1 7109   0.680   4.501   2.183
 2070SOL    HW2 7110   0.614   4.356   2.147
 2071SOL     OW 7111   6.681   1.559   6.128
 2071SOL    HW1 7112   6.677   1.505   6.212
 2071SOL    HW2 7113   6.717   1.650   6.149
 2072SOL     OW 7114   3.809   4.726   5.528
 2072SOL    HW1 7115   3.764   4.810   5.496
 2072SOL    HW2 7116   3.862   4.687   5.452
 2073SOL     OW 7117   3.467   6.237   0.446
 2073SOL    HW1 7118   3.503   6.249   0.539
 2073SOL    HW2 7119   3.423   6.148   0.439
 2074SOL     OW 7120   1.162   3.891   5.305
 2074SOL    HW1 7121   1.227   3.953   5.349
 2074SOL    HW2 7122   1.071   3.931   5.306
 2075SOL     OW 7123   6.756   1.850   1.633
 2075SOL    HW1 7124   6.671   1.902   1.621
 2075SOL    HW2 7125   6.782   1.808   1.546
 2076SOL     OW 7126   5.331   6.489   4.563
 2076SOL    HW1 7127   5.378   6.416   4.611
 2076SOL    HW2 7128   5.233   6.468   4.558
 2077SOL     OW 7129   6.944   3.890   1.054
 2077SOL    HW1 7130   6.860   3.842   1.079
 2077SOL    HW2 7131   6.994   3.915   1.136
 2078SOL     OW 7132   1.559   3.451   5.931
 2078SOL    HW1 7133   1.536   3.524   5.996
 2078SOL    HW2 7134   1.602   3.375   5.979
 2079SOL     OW 7135   5.247   2.012   1.860
 2079SOL    HW1 7136   5.223   1.918   1.835
 2079SOL    HW2 7137   5.318   2.009   1.931
 2080SOL     OW 7138   2.346   3.089   5.578
 2080SOL    HW1 7139   2.361   3.119   5.484
 2080SOL    HW2 7140   2.249   3.067   5.591
 2081SOL     OW 7141   6.485   0.395   3.447
 2081SOL    HW1 7142   6.402   0.427   3.402
 2081SOL    HW2 7143   6.564   0.418   3.391
 2082SOL     OW 7144   0.234   6.095   2.406
 2082SOL    HW1 7145   0.240   6.185   2.362
 2082SOL    HW2 7146   0.148   6.051   2.381
 2083SOL     OW 7147   6.888   6.303   4.448
 2083SOL    HW1 7148   6.792   6.286   4.472
 2083SOL    HW2 7149   6.946   6.279   4.526
 2084SOL     OW 7150   0.296   2.569   1.983
 2084SOL    HW1 7151   0.362   2.631   2.025
 2084SOL    HW2 7152   0.310   2.476   2.016
 2085SOL     OW 7153   5.271   5.302   0.836
 2085SOL    HW1 7154   5.324   5.339   0.760
 2085SOL    HW2 7155   5.221   5.221   0.805
 2086SOL     OW 7156   4.238   0.165   6.842
 2086SOL    HW1 7157   4.160   0.110   6.872
 2086SOL    HW2 7158   4.318   0.106   6.829
 2087SOL     OW 7159   4.071   2.389   6.663
 2087SOL    HW1 7160   4.128   2.310   6.687
 2087SOL    HW2 7161   4.046   2.384   6.566
 2088SOL     OW 7162   0.211   5.994   4.865
 2088SOL    HW1 7163   0.205   5.897   4.841
 2088SOL    HW2 7164   0.294   6.011   4.918
 2089SOL     OW 7165   3.178   3.542   6.785
 2089SOL    HW1 7166   3.204   3.592   6.867
 2089SOL    HW2 7167   3.097   3.585   6.744
 2090SOL     OW 7168   4.471   3.395   5.312
 2090SOL    HW1 7169   4.521   3.467   5.265
 2090SOL    HW2 7170   4.533   3.345   5.372
 2091SOL     OW 7171   6.006   5.600   1.835
 2091SOL    HW1 7172   5.950   5.608   1.753
 2091SOL    HW2 7173   6.023   5.690   1.874
 2092SOL     OW 7174   4.537   3.698   1.337
 2092SOL    HW1 7175   4.550   3.766   1.265
 2092SOL    HW2 7176   4.623   3.649   1.353
 2093SOL     OW 7177   3.698   1.997   3.041
 2093SOL    HW1 7178   3.609   1.953   3.051
 2093SOL    HW2 7179   3.731   1.986   2.947
 2094SOL     OW 7180   5.579   2.501   6.143
 2094SOL    HW1 7181   5.601   2.581   6.089
 2094SOL    HW2 7182   5.551   2.529   6.235
 2095SOL     OW 7183   5.088   6.374   3.801
 2095SOL    HW1 7184   5.021   6.343   3.734
 2095SOL    HW2 7185   5.179   6.373   3.759
 2096SOL     OW 7186   4.627   6.637   2.586
 2096SOL    HW1 7187   4.561   6.563   2.575
 2096SOL    HW2 7188   4.583   6.714   2.633
 2097SOL     OW 7189   1.426   5.070   6.411
 2097SOL    HW1 7190   1.469   4.980   6.417
 2097SOL    HW2 7191   1.345   5.065   6.353
 2098SOL     OW 7192   3.159   6.412   3.098
 2098SOL    HW1 7193   3.209   6.467   3.031
 2098SOL    HW2 7194   3.224   6.370   3.161
 2099SOL     OW 7195   5.544   1.311   0.036
 2099SOL    HW1 7196   5.525   1.326   0.133
 2099SOL    HW2 7197   5.643   1.309   0.021
 2100SOL     OW 7198   5.522   0.630   1.242
 2100SOL    HW1 7199   5.566   0.699   1.185
 2100SOL    HW2 7200   5.423   0.632   1.227
 2101SOL     OW 7201   0.065   6.652   1.799
 2101SOL    HW1 7202   0.071   6.575   1.862
 2101SOL    HW2 7203   0.056   6.737   1.851
 2102SOL     OW 7204   3.381   3.351   0.580
 2102SOL    HW1 7205   3.344   3.417   0.646
 2102SOL    HW2 7206   3.336   3.263   0.591
 2103SOL     OW 7207   2.917   6.030   0.914
 2103SOL    HW1 7208   2.946   6.121   0.944
 2103SOL    HW2 7209   2.917   6.027   0.814
 2104SOL     OW 7210   1.240   5.257   2.781
 2104SOL    HW1 7211   1.337   5.236   2.790
 2104SOL    HW2 7212   1.187   5.195   2.839
 2105SOL     OW 7213   5.598   3.794   6.336
 2105SOL    HW1 7214   5.629   3.871   6.281
 2105SOL    HW2 7215   5.622   3.708   6.291
 2106SOL     OW 7216   5.325   3.652   1.764
 2106SOL    HW1 7217   5.247   3.645   1.701
 2106SOL    HW2 7218   5.295   3.697   1.848
 2107SOL     OW 7219   5.533   3.632   5.582
 2107SOL    HW1 7220   5.452   3.634   5.641
 2107SOL    HW2 7221   5.505   3.622   5.487
 2108SOL     OW 7222   5.848   0.079   5.831
 2108SOL    HW1 7223   5.815   0.084   5.926
 2108SOL    HW2 7224   5.772   0.097   5.769
 2109SOL     OW 7225   2.207   5.812   3.370
 2109SOL    HW1 7226   2.281   5.840   3.309
 2109SOL    HW2 7227   2.213   5.865   3.455
 2110SOL     OW 7228   4.361   0.308   6.355
 2110SOL    HW1 7229   4.339   0.328   6.451
 2110SOL    HW2 7230   4.288   0.253   6.315
 2111SOL     OW 7231   1.063   2.392   5.889
 2111SOL    HW1 7232   1.020   2.483   5.885
 2111SOL    HW2 7233   1.125   2.381   5.812
 2112SOL     OW 7234   0.250   1.462   0.437
 2112SOL    HW1 7235   0.158   1.482   0.471
 2112SOL    HW2 7236   0.252   1.473   0.338
 2113SOL     OW 7237   1.390   0.141   4.664
 2113SOL    HW1 7238   1.365   0.227   4.707
 2113SOL    HW2 7239   1.319   0.073   4.682
 2114SOL     OW 7240   2.062   2.417   6.624
 2114SOL    HW1 7241   2.101   2.494   6.675
 2114SOL    HW2 7242   2.098   2.331   6.660
 2115SOL     OW 7243   6.438   5.995   3.286
 2115SOL    HW1 7244   6.455   6.093   3.302
 2115SOL    HW2 7245   6.340   5.980   3.278
 2116SOL     OW 7246   0.638   2.622   6.873
 2116SOL    HW1 7247   0.733   2.592   6.873
 2116SOL    HW2 7248   0.632   2.712   6.831
 2117SOL     OW 7249   6.237   1.111   1.929
 2117SOL    HW1 7250   6.154   1.146   1.971
 2117SOL    HW2 7251   6.241   1.011   1.941
 2118SOL     OW 7252   6.319   2.496   2.104
 2118SOL    HW1 7253   6.332   2.531   2.197
 2118SOL    HW2 7254   6.340   2.398   2.103
 2119SOL     OW 7255   3.261   0.776   0.179
 2119SOL    HW1 7256   3.303   0.790   0.269
 2119SOL    HW2 7257   3.316   0.712   0.126
 2120SOL     OW 7258   5.733   1.623   0.640
 2120SOL    HW1 7259   5.758   1.528   0.660
 2120SOL    HW2 7260   5.815   1.676   0.619
 2121SOL     OW 7261   1.250   0.530   6.551
 2121SOL    HW1 7262   1.282   0.511   6.643
 2121SOL    HW2 7263   1.248   0.629   6.536
 2122SOL     OW 7264   6.094   1.017   4.698
 2122SOL    HW1 7265   6.192   1.003   4.714
 2122SOL    HW2 7266   6.050   0.929   4.681
 2123SOL     OW 7267   1.587   5.849   3.670
 2123SOL    HW1 7268   1.532   5.770   3.699
 2123SOL    HW2 7269   1.533   5.932   3.681
 2124SOL     OW 7270   3.799   3.297   5.855
 2124SOL    HW1 7271   3.704   3.291   5.883
 2124SOL    HW2 7272   3.826   3.394   5.850
 2125SOL     OW 7273   1.259   5.835   3.822
 2125SOL    HW1 7274   1.330   5.772   3.791
 2125SOL    HW2 7275   1.170   5.791   3.814
 2126SOL     OW 7276   3.462   4.483   6.823
 2126SOL    HW1 7277   3.448   4.389   6.792
 2126SOL    HW2 7278   3.413   4.498   6.909
 2127SOL     OW 7279   0.534   2.480   5.152
 2127SOL    HW1 7280   0.532   2.559   5.213
 2127SOL    HW2 7281   0.557   2.511   5.059
 2128SOL     OW 7282   5.408   2.656   1.400
 2128SOL    HW1 7283   5.367   2.569   1.425
 2128SOL    HW2 7284   5.505   2.642   1.377
 2129SOL     OW 7285   5.074   4.518   3.651
 2129SOL    HW1 7286   5.110   4.553   3.737
 2129SOL    HW2 7287   5.010   4.584   3.612
 2130SOL     OW 7288   2.563   1.169   2.917
 2130SOL    HW1 7289   2.547   1.191   2.820
 2130SOL    HW2 7290   2.478   1.182   2.968
 2131SOL     OW 7291   5.817   1.676   5.823
 2131SOL    HW1 7292   5.889   1.674   5.892
 2131SOL    HW2 7293   5.787   1.770   5.808
 2132SOL     OW 7294   2.561   2.437   0.162
 2132SOL    HW1 7295   2.494   2.387   0.217
 2132SOL    HW2 7296   2.522   2.525   0.135
 2133SOL     OW 7297   2.732   2.132   1.981
 2133SOL    HW1 7298   2.782   2.215   2.006
 2133SOL    HW2 7299   2.796   2.064   1.945
 2134SOL     OW 7300   0.905   6.606   4.870
 2134SOL    HW1 7301   0.850   6.681   4.908
 2134SOL    HW2 7302   0.923   6.624   4.773
 2135SOL     OW 7303   1.019   1.054   3.284
 2135SOL    HW1 7304   1.056   1.087   3.197
 2135SOL    HW2 7305   0.949   1.119   3.315
 2136SOL     OW 7306   0.650   4.514   3.547
 2136SOL    HW1 7307   0.603   4.542   3.463
 2136SOL    HW2 7308   0.612   4.427   3.579
 2137SOL     OW 7309   1.593   0.382   5.307
 2137SOL    HW1 7310   1.599   0.460   5.244
 2137SOL    HW2 7311   1.498   0.358   5.320
 2138SOL     OW 7312   0.614   2.539   0.777
 2138SOL    HW1 7313   0.660   2.486   0.849
 2138SOL    HW2 7314   0.652   2.513   0.688
 2139SOL     OW 7315   2.876   0.729   5.787
 2139SOL    HW1 7316   2.917   0.680   5.864
 2139SOL    HW2 7317   2.932   0.715   5.706
 2140SOL     OW 7318   2.638   5.553   3.229
 2140SOL    HW1 7319   2.539   5.538   3.231
 2140SOL    HW2 7320   2.675   5.547   3.321
 2141SOL     OW 7321   5.585   2.278   1.014
 2141SOL    HW1 7322   5.633   2.312   0.933
 2141SOL    HW2 7323   5.647   2.282   1.093
 2142SOL     OW 7324   2.090   2.234   3.257
 2142SOL    HW1 7325   2.190   2.234   3.260
 2142SOL    HW2 7326   2.057   2.329   3.256
 2143SOL     OW 7327   2.934   0.010   1.443
 2143SOL    HW1 7328   2.980   6.948   1.430
 2143SOL    HW2 7329   2.835   7.022   1.442
 2144SOL     OW 7330   0.683   1.011   3.419
 2144SOL    HW1 7331   0.641   1.064   3.345
 2144SOL    HW2 7332   0.741   1.071   3.474
 2145SOL     OW 7333   3.797   4.988   3.261
 2145SOL    HW1 7334   3.769   5.077   3.226
 2145SOL    HW2 7335   3.871   5.000   3.327
 2146SOL     OW 7336   3.986   3.108   2.992
 2146SOL    HW1 7337   4.048   3.129   3.067
 2146SOL    HW2 7338   3.893   3.098   3.028
 2147SOL     OW 7339   1.456   0.897   5.464
 2147SOL    HW1 7340   1.432   0.986   5.426
 2147SOL    HW2 7341   1.383   0.832   5.446
 2148SOL     OW 7342   5.057   3.555   2.741
 2148SOL    HW1 7343   5.108   3.631   2.701
 2148SOL    HW2 7344   5.022   3.496   2.668
 2149SOL     OW 7345   4.283   1.240   2.907
 2149SOL    HW1 7346   4.267   1.266   2.811
 2149SOL    HW2 7347   4.217   1.169   2.932
 2150SOL     OW 7348   3.086   2.188   3.325
 2150SOL    HW1 7349   3.086   2.124   3.403
 2150SOL    HW2 7350   3.157   2.162   3.261
 2151SOL     OW 7351   3.750   2.893   5.594
 2151SOL    HW1 7352   3.753   2.888   5.495
 2151SOL    HW2 7353   3.710   2.810   5.631
 2152SOL     OW 7354   6.119   5.867   1.806
 2152SOL    HW1 7355   6.182   5.875   1.884
 2152SOL    HW2 7356   6.031   5.909   1.830
 2153SOL     OW 7357   4.786   2.833   3.367
 2153SOL    HW1 7358   4.861   2.828   3.433
 2153SOL    HW2 7359   4.763   2.929   3.350
 2154SOL     OW 7360   3.630   6.220   5.177
 2154SOL    HW1 7361   3.722   6.209   5.139
 2154SOL    HW2 7362   3.623   6.169   5.263
 2155SOL     OW 7363   7.015   3.810   0.106
 2155SOL    HW1 7364   0.025   3.903   0.115
 2155SOL    HW2 7365   7.016   3.765   0.195
 2156SOL     OW 7366   1.810   0.232   2.079
 2156SOL    HW1 7367   1.825   0.315   2.026
 2156SOL    HW2 7368   1.899   0.192   2.105
 2157SOL     OW 7369   0.726   1.727   5.028
 2157SOL    HW1 7370   0.788   1.694   4.957
 2157SOL    HW2 7371   0.632   1.721   4.996
 2158SOL     OW 7372   3.063   6.869   1.686
 2158SOL    HW1 7373   3.017   6.872   1.597
 2158SOL    HW2 7374   3.162   6.877   1.673
 2159SOL     OW 7375   1.451   6.540   4.946
 2159SOL    HW1 7376   1.413   6.583   4.865
 2159SOL    HW2 7377   1.428   6.594   5.027
 2160SOL     OW 7378   3.203   3.786   1.180
 2160SOL    HW1 7379   3.215   3.775   1.082
 2160SOL    HW2 7380   3.111   3.759   1.206
 2161SOL     OW 7381   5.632   2.624   3.337
 2161SOL    HW1 7382   5.607   2.715   3.304
 2161SOL    HW2 7383   5.631   2.624   3.437
 2162SOL     OW 7384   0.766   0.334   6.693
 2162SOL    HW1 7385   0.787   0.374   6.782
 2162SOL    HW2 7386   0.798   0.239   6.690
 2163SOL     OW 7387   1.922   1.687   0.763
 2163SOL    HW1 7388   1.890   1.630   0.687
 2163SOL    HW2 7389   1.856   1.760   0.781
 2164SOL     OW 7390   1.241   1.181   0.082
 2164SOL    HW1 7391   1.267   1.121   0.158
 2164SOL    HW2 7392   1.304   1.259   0.079
 2165SOL     OW 7393   2.526   6.951   3.046
 2165SOL    HW1 7394   2.574   6.867   3.022
 2165SOL    HW2 7395   2.569   6.993   3.126
 2166SOL     OW 7396   0.154   2.860   6.494
 2166SOL    HW1 7397   0.081   2.882   6.558
 2166SOL    HW2 7398   0.165   2.935   6.429
 2167SOL     OW 7399   3.464   0.725   2.968
 2167SOL    HW1 7400   3.488   0.641   2.919
 2167SOL    HW2 7401   3.434   0.794   2.902
 2168SOL     OW 7402   5.700   4.879   4.786
 2168SOL    HW1 7403   5.671   4.837   4.700
 2168SOL    HW2 7404   5.766   4.952   4.766
 2169SOL     OW 7405   5.356   1.872   5.860
 2169SOL    HW1 7406   5.295   1.910   5.929
 2169SOL    HW2 7407   5.449   1.868   5.897
 2170SOL     OW 7408   3.969   5.044   4.892
 2170SOL    HW1 7409   3.992   4.984   4.815
 2170SOL    HW2 7410   3.874   5.073   4.884
 2171SOL     OW 7411   0.296   2.658   0.069
 2171SOL    HW1 7412   0.254   2.621   0.152
 2171SOL    HW2 7413   0.238   2.731   0.032
 2172SOL     OW 7414   3.391   0.566   0.937
 2172SOL    HW1 7415   3.329   0.590   1.012
 2172SOL    HW2 7416   3.402   0.467   0.933
 2173SOL     OW 7417   5.512   1.265   5.638
 2173SOL    HW1 7418   5.499   1.242   5.542
 2173SOL    HW2 7419   5.591   1.326   5.647
 2174SOL     OW 7420   0.173   5.341   4.894
 2174SOL    HW1 7421   0.222   5.335   4.808
 2174SOL    HW2 7422   0.212   5.276   4.959
 2175SOL     OW 7423   1.664   6.804   4.630
 2175SOL    HW1 7424   1.694   6.900   4.626
 2175SOL    HW2 7425   1.660   6.775   4.725
 2176SOL     OW 7426   1.661   2.800   3.091
 2176SOL    HW1 7427   1.589   2.779   3.025
 2176SOL    HW2 7428   1.662   2.731   3.163
 2177SOL     OW 7429   0.251   2.464   1.344
 2177SOL    HW1 7430   0.249   2.519   1.260
 2177SOL    HW2 7431   0.344   2.433   1.362
 2178SOL     OW 7432   0.447   4.741   0.096
 2178SOL    HW1 7433   0.386   4.817   0.071
 2178SOL    HW2 7434   0.451   4.733   0.196
 2179SOL     OW 7435   1.624   5.454   4.364
 2179SOL    HW1 7436   1.532   5.414   4.363
 2179SOL    HW2 7437   1.691   5.380   4.364
 2180SOL     OW 7438   3.364   2.948   2.706
 2180SOL    HW1 7439   3.280   2.997   2.682
 2180SOL    HW2 7440   3.355   2.910   2.798
 2181SOL     OW 7441   5.000   5.346   5.959
 2181SOL    HW1 7442   4.966   5.440   5.965
 2181SOL    HW2 7443   4.922   5.284   5.946
 2182SOL     OW 7444   6.569   3.149   6.285
 2182SOL    HW1 7445   6.469   3.139   6.289
 2182SOL    HW2 7446   6.612   3.064   6.315
 2183SOL     OW 7447   3.482   3.254   1.068
 2183SOL    HW1 7448   3.476   3.354   1.071
 2183SOL    HW2 7449   3.559   3.223   1.124
 2184SOL     OW 7450   3.957   2.678   6.643
 2184SOL    HW1 7451   4.041   2.624   6.633
 2184SOL    HW2 7452   3.900   2.639   6.715
 2185SOL     OW 7453   1.601   1.237   1.576
 2185SOL    HW1 7454   1.538   1.290   1.633
 2185SOL    HW2 7455   1.657   1.178   1.634
 2186SOL     OW 7456   0.372   6.117   3.120
 2186SOL    HW1 7457   0.417   6.128   3.032
 2186SOL    HW2 7458   0.312   6.195   3.136
 2187SOL     OW 7459   0.184   1.250   6.128
 2187SOL    HW1 7460   0.236   1.327   6.165
 2187SOL    HW2 7461   0.243   1.170   6.121
 2188SOL     OW 7462   5.654   0.174   3.091
 2188SOL    HW1 7463   5.570   0.202   3.045
 2188SOL    HW2 7464   5.733   0.197   3.034
 2189SOL     OW 7465   2.079   0.121   6.492
 2189SOL    HW1 7466   2.052   0.027   6.512
 2189SOL    HW2 7467   2.005   0.183   6.519
 2190SOL     OW 7468   5.002   2.120   1.954
 2190SOL    HW1 7469   4.947   2.043   1.987
 2190SOL    HW2 7470   5.094   2.088   1.930
 2191SOL     OW 7471   3.383   2.788   6.389
 2191SOL    HW1 7472   3.405   2.691   6.376
 2191SOL    HW2 7473   3.455   2.832   6.443
 2192SOL     OW 7474   4.715   5.879   4.867
 2192SOL    HW1 7475   4.708   5.843   4.775
 2192SOL    HW2 7476   4.812   5.884   4.893
 2193SOL     OW 7477   1.363   4.790   6.212
 2193SOL    HW1 7478   1.414   4.798   6.298
 2193SOL    HW2 7479   1.423   4.816   6.136
 2194SOL     OW 7480   2.645   0.399   1.723
 2194SOL    HW1 7481   2.617   0.303   1.719
 2194SOL    HW2 7482   2.669   0.422   1.817
 2195SOL     OW 7483   1.674   4.783   2.710
 2195SOL    HW1 7484   1.655   4.881   2.702
 2195SOL    HW2 7485   1.588   4.732   2.706
 2196SOL     OW 7486   3.496   2.273   6.213
 2196SOL    HW1 7487   3.588   2.236   6.222
 2196SOL    HW2 7488   3.492   2.365   6.251
 2197SOL     OW 7489   4.579   5.275   1.113
 2197SOL    HW1 7490   4.673   5.247   1.130
 2197SOL    HW2 7491   4.546   5.230   1.029
 2198SOL     OW 7492   6.462   3.771   0.472
 2198SOL    HW1 7493   6.548   3.777   0.523
 2198SOL    HW2 7494   6.427   3.678   0.477
 2199SOL     OW 7495   4.849   0.497   1.592
 2199SOL    HW1 7496   4.845   0.510   1.493
 2199SOL    HW2 7497   4.779   0.432   1.621
 2200SOL     OW 7498   3.039   0.991   4.838
 2200SOL    HW1 7499   3.010   1.004   4.744
 2200SOL    HW2 7500   3.049   0.893   4.857
 2201SOL     OW 7501   5.541   2.929   1.821
 2201SOL    HW1 7502   5.592   2.966   1.898
 2201SOL    HW2 7503   5.595   2.940   1.737
 2202SOL     OW 7504   4.632   6.054   3.788
 2202SOL    HW1 7505   4.701   6.019   3.724
 2202SOL    HW2 7506   4.574   6.120   3.741
 2203SOL     OW 7507   3.300   1.991   3.392
 2203SOL    HW1 7508   3.335   2.019   3.302
 2203SOL    HW2 7509   3.368   1.931   3.436
 2204SOL     OW 7510   3.276   2.659   0.368
 2204SOL    HW1 7511   3.227   2.651   0.281
 2204SOL    HW2 7512   3.267   2.574   0.419
 2205SOL     OW 7513   3.053   6.849   0.478
 2205SOL    HW1 7514   3.089   6.786   0.409
 2205SOL    HW2 7515   3.129   6.885   0.532
 2206SOL     OW 7516   2.191   2.955   6.776
 2206SOL    HW1 7517   2.233   2.919   6.693
 2206SOL    HW2 7518   2.176   3.053   6.766
 2207SOL     OW 7519   0.856   4.243   5.585
 2207SOL    HW1 7520   0.817   4.177   5.649
 2207SOL    HW2 7521   0.798   4.249   5.503
 2208SOL     OW 7522   0.617   4.079   1.719
 2208SOL    HW1 7523   0.562   3.997   1.737
 2208SOL    HW2 7524   0.713   4.053   1.708
 2209SOL     OW 7525   1.065   5.926   0.312
 2209SOL    HW1 7526   1.116   5.846   0.343
 2209SOL    HW2 7527   0.968   5.912   0.331
 2210SOL     OW 7528   0.297   5.762   4.312
 2210SOL    HW1 7529   0.227   5.754   4.242
 2210SOL    HW2 7530   0.338   5.672   4.329
 2211SOL     OW 7531   6.442   1.424   5.627
 2211SOL    HW1 7532   6.520   1.412   5.565
 2211SOL    HW2 7533   6.366   1.465   5.576
 2212SOL     OW 7534   1.386   6.994   6.151
 2212SOL    HW1 7535   1.303   0.019   6.175
 2212SOL    HW2 7536   1.459   0.033   6.131
 2213SOL     OW 7537   3.779   1.266   3.612
 2213SOL    HW1 7538   3.716   1.303   3.681
 2213SOL    HW2 7539   3.808   1.339   3.550
 2214SOL     OW 7540   4.127   0.179   4.149
 2214SOL    HW1 7541   4.155   0.112   4.081
 2214SOL    HW2 7542   4.161   0.153   4.239
 2215SOL     OW 7543   5.920   2.649   5.384
 2215SOL    HW1 7544   5.880   2.671   5.295
 2215SOL    HW2 7545   5.856   2.594   5.438
 2216SOL     OW 7546   2.115   6.930   1.657
 2216SOL    HW1 7547   2.138   7.013   1.606
 2216SOL    HW2 7548   2.118   6.950   1.755
 2217SOL     OW 7549   4.039   0.485   1.332
 2217SOL    HW1 7550   4.095   0.521   1.406
 2217SOL    HW2 7551   3.944   0.517   1.344
 2218SOL     OW 7552   0.990   5.552   0.882
 2218SOL    HW1 7553   1.006   5.611   0.803
 2218SOL    HW2 7554   0.904   5.502   0.870
 2219SOL     OW 7555   1.335   3.717   3.264
 2219SOL    HW1 7556   1.344   3.671   3.352
 2219SOL    HW2 7557   1.357   3.814   3.273
 2220SOL     OW 7558   0.011   1.068   0.009
 2220SOL    HW1 7559   0.028   0.976   6.999
 2220SOL    HW2 7560   0.052   1.136   6.975
 2221SOL     OW 7561   6.924   2.584   1.050
 2221SOL    HW1 7562   6.877   2.512   1.102
 2221SOL    HW2 7563   6.875   2.600   0.964
 2222SOL     OW 7564   5.128   6.609   2.692
 2222SOL    HW1 7565   5.069   6.528   2.697
 2222SOL    HW2 7566   5.175   6.621   2.780
 2223SOL     OW 7567   5.502   5.620   2.227
 2223SOL    HW1 7568   5.489   5.525   2.200
 2223SOL    HW2 7569   5.442   5.641   2.305
 2224SOL     OW 7570   1.459   4.864   1.153
 2224SOL    HW1 7571   1.378   4.869   1.095
 2224SOL    HW2 7572   1.507   4.952   1.151
 2225SOL     OW 7573   6.321   4.844   2.038
 2225SOL    HW1 7574   6.311   4.858   1.940
 2225SOL    HW2 7575   6.415   4.816   2.059
 2226SOL     OW 7576   4.384   4.052   1.154
 2226SOL    HW1 7577   4.389   4.083   1.249
 2226SOL    HW2 7578   4.428   3.963   1.146
 2227SOL     OW 7579   0.290   4.169   4.888
 2227SOL    HW1 7580   0.212   4.217   4.928
 2227SOL    HW2 7581   0.263   4.076   4.862
 2228SOL     OW 7582   3.147   4.947   5.742
 2228SOL    HW1 7583   3.140   4.875   5.810
 2228SOL    HW2 7584   3.215   5.015   5.772
 2229SOL     OW 7585   4.770   0.431   3.520
 2229SOL    HW1 7586   4.763   0.333   3.498
 2229SOL    HW2 7587   4.678   0.468   3.535
 2230SOL     OW 7588   1.174   6.153   0.211
 2230SOL    HW1 7589   1.264   6.174   0.251
 2230SOL    HW2 7590   1.145   6.062   0.240
 2231SOL     OW 7591   2.751   7.019   1.712
 2231SOL    HW1 7592   2.663   0.039   1.725
 2231SOL    HW2 7593   2.781   6.978   1.798
 2232SOL     OW 7594   6.411   3.055   2.954
 2232SOL    HW1 7595   6.420   3.012   2.864
 2232SOL    HW2 7596   6.500   3.061   2.998
 2233SOL     OW 7597   3.959   0.632   6.830
 2233SOL    HW1 7598   3.933   0.701   6.762
 2233SOL    HW2 7599   4.007   0.557   6.785
 2234SOL     OW 7600   3.305   1.420   0.723
 2234SOL    HW1 7601   3.344   1.328   0.730
 2234SOL    HW2 7602   3.311   1.451   0.629
 2235SOL     OW 7603   1.879   6.741   1.323
 2235SOL    HW1 7604   1.882   6.798   1.404
 2235SOL    HW2 7605   1.874   6.798   1.241
 2236SOL     OW 7606   6.710   4.260   0.823
 2236SOL    HW1 7607   6.699   4.359   0.823
 2236SOL    HW2 7608   6.637   4.218   0.876
 2237SOL     OW 7609   6.395   2.432   4.111
 2237SOL    HW1 7610   6.429   2.340   4.130
 2237SOL    HW2 7611   6.309   2.426   4.062
 2238SOL     OW 7612   0.925   6.198   2.184
 2238SOL    HW1 7613   0.915   6.247   2.097
 2238SOL    HW2 7614   1.020   6.200   2.213
 2239SOL     OW 7615   4.569   4.946   3.183
 2239SOL    HW1 7616   4.514   4.972   3.262
 2239SOL    HW2 7617   4.658   4.990   3.188
 2240SOL     OW 7618   5.699   4.116   2.399
 2240SOL    HW1 7619   5.730   4.028   2.363
 2240SOL    HW2 7620   5.736   4.129   2.490
 2241SOL     OW 7621   0.691   0.592   2.042
 2241SOL    HW1 7622   0.666   0.524   1.974
 2241SOL    HW2 7623   0.620   0.596   2.113
 2242SOL     OW 7624   5.331   2.238   2.371
 2242SOL    HW1 7625   5.235   2.264   2.381
 2242SOL    HW2 7626   5.383   2.317   2.339
 2243SOL     OW 7627   2.289   6.141   5.394
 2243SOL    HW1 7628   2.384   6.152   5.423
 2243SOL    HW2 7629   2.264   6.216   5.333
 2244SOL     OW 7630   2.855   0.552   5.387
 2244SOL    HW1 7631   2.853   0.550   5.287
 2244SOL    HW2 7632   2.763   0.535   5.423
 2245SOL     OW 7633   1.564   1.546   1.421
 2245SOL    HW1 7634   1.556   1.466   1.361
 2245SOL    HW2 7635   1.550   1.518   1.516
 2246SOL     OW 7636   1.480   3.695   5.158
 2246SOL    HW1 7637   1.411   3.745   5.106
 2246SOL    HW2 7638   1.557   3.756   5.179
 2247SOL     OW 7639   1.869   2.063   6.047
 2247SOL    HW1 7640   1.947   2.008   6.015
 2247SOL    HW2 7641   1.795   2.002   6.075
 2248SOL     OW 7642   5.040   3.258   5.027
 2248SOL    HW1 7643   5.007   3.172   5.068
 2248SOL    HW2 7644   5.129   3.282   5.067
 2249SOL     OW 7645   4.951   5.390   4.379
 2249SOL    HW1 7646   5.008   5.309   4.366
 2249SOL    HW2 7647   4.933   5.433   4.290
 2250SOL     OW 7648   6.158   4.691   6.854
 2250SOL    HW1 7649   6.163   4.784   6.816
 2250SOL    HW2 7650   6.227   4.634   6.810
 2251SOL     OW 7651   6.276   0.870   6.708
 2251SOL    HW1 7652   6.189   0.821   6.710
 2251SOL    HW2 7653   6.271   0.946   6.643
 2252SOL     OW 7654   4.024   1.787   5.787
 2252SOL    HW1 7655   4.104   1.835   5.750
 2252SOL    HW2 7656   4.026   1.791   5.887
 2253SOL     OW 7657   2.095   3.220   6.799
 2253SOL    HW1 7658   2.005   3.227   6.756
 2253SOL    HW2 7659   2.142   3.308   6.794
 2254SOL     OW 7660   2.091   3.679   6.579
 2254SOL    HW1 7661   2.026   3.662   6.653
 2254SOL    HW2 7662   2.136   3.768   6.593
 2255SOL     OW 7663   5.736   2.566   1.807
 2255SOL    HW1 7664   5.803   2.492   1.818
 2255SOL    HW2 7665   5.693   2.584   1.896
 2256SOL     OW 7666   4.188   4.837   1.559
 2256SOL    HW1 7667   4.133   4.897   1.618
 2256SOL    HW2 7668   4.254   4.787   1.615
 2257SOL     OW 7669   2.334   4.345   4.206
 2257SOL    HW1 7670   2.266   4.285   4.163
 2257SOL    HW2 7671   2.411   4.358   4.143
 2258SOL     OW 7672   1.515   5.478   3.994
 2258SOL    HW1 7673   1.429   5.506   4.037
 2258SOL    HW2 7674   1.590   5.535   4.028
 2259SOL     OW 7675   5.971   2.951   6.701
 2259SOL    HW1 7676   5.981   2.862   6.656
 2259SOL    HW2 7677   6.038   3.015   6.662
 2260SOL     OW 7678   5.688   5.232   0.757
 2260SOL    HW1 7679   5.757   5.245   0.828
 2260SOL    HW2 7680   5.598   5.256   0.793
 2261SOL     OW 7681   4.645   6.263   6.187
 2261SOL    HW1 7682   4.669   6.298   6.277
 2261SOL    HW2 7683   4.708   6.189   6.162
 2262SOL     OW 7684   4.118   1.711   3.074
 2262SOL    HW1 7685   4.204   1.732   3.120
 2262SOL    HW2 7686   4.087   1.792   3.022
 2263SOL     OW 7687   0.283   5.335   6.210
 2263SOL    HW1 7688   0.331   5.279   6.278
 2263SOL    HW2 7689   0.238   5.412   6.255
 2264SOL     OW 7690   3.336   4.164   4.057
 2264SOL    HW1 7691   3.281   4.151   3.975
 2264SOL    HW2 7692   3.277   4.189   4.134
 2265SOL     OW 7693   0.194   0.575   1.675
 2265SOL    HW1 7694   0.240   0.491   1.705
 2265SOL    HW2 7695   0.208   0.588   1.577
 2266SOL     OW 7696   5.970   6.640   0.962
 2266SOL    HW1 7697   5.992   6.579   1.039
 2266SOL    HW2 7698   5.891   6.697   0.987
 2267SOL     OW 7699   5.723   2.259   5.649
 2267SOL    HW1 7700   5.765   2.258   5.740
 2267SOL    HW2 7701   5.624   2.259   5.658
 2268SOL     OW 7702   6.195   5.572   0.428
 2268SOL    HW1 7703   6.179   5.648   0.365
 2268SOL    HW2 7704   6.155   5.594   0.517
 2269SOL     OW 7705   0.210   5.537   5.103
 2269SOL    HW1 7706   0.202   5.454   5.048
 2269SOL    HW2 7707   0.207   5.617   5.043
 2270SOL     OW 7708   4.214   3.508   1.857
 2270SOL    HW1 7709   4.231   3.435   1.923
 2270SOL    HW2 7710   4.284   3.504   1.785
 2271SOL     OW 7711   5.965   4.366   2.815
 2271SOL    HW1 7712   6.063   4.384   2.823
 2271SOL    HW2 7713   5.914   4.435   2.867
 2272SOL     OW 7714   5.489   2.030   6.227
 2272SOL    HW1 7715   5.570   1.974   6.245
 2272SOL    HW2 7716   5.466   2.082   6.309
 2273SOL     OW 7717   1.546   1.785   3.343
 2273SOL    HW1 7718   1.498   1.698   3.342
 2273SOL    HW2 7719   1.638   1.773   3.307
 2274SOL     OW 7720   1.786   3.513   3.667
 2274SOL    HW1 7721   1.856   3.582   3.685
 2274SOL    HW2 7722   1.775   3.455   3.748
 2275SOL     OW 7723   4.886   6.024   3.685
 2275SOL    HW1 7724   4.901   5.955   3.756
 2275SOL    HW2 7725   4.966   6.082   3.677
 2276SOL     OW 7726   4.851   4.904   1.327
 2276SOL    HW1 7727   4.948   4.900   1.304
 2276SOL    HW2 7728   4.841   4.906   1.426
 2277SOL     OW 7729   2.923   3.873   0.115
 2277SOL    HW1 7730   2.855   3.925   0.167
 2277SOL    HW2 7731   2.914   3.776   0.136
 2278SOL     OW 7732   5.847   6.372   1.214
 2278SOL    HW1 7733   5.767   6.420   1.176
 2278SOL    HW2 7734   5.931   6.419   1.185
 2279SOL     OW 7735   5.670   4.247   4.396
 2279SOL    HW1 7736   5.614   4.329   4.401
 2279SOL    HW2 7737   5.766   4.270   4.415
 2280SOL     OW 7738   5.908   6.825   6.155
 2280SOL    HW1 7739   5.844   6.902   6.150
 2280SOL    HW2 7740   5.995   6.851   6.112
 2281SOL     OW 7741   3.657   3.185   0.726
 2281SOL    HW1 7742   3.580   3.138   0.769
 2281SOL    HW2 7743   3.655   3.282   0.750
 2282SOL     OW 7744   3.802   5.263   3.123
 2282SOL    HW1 7745   3.711   5.297   3.101
 2282SOL    HW2 7746   3.861   5.340   3.148
 2283SOL     OW 7747   6.882   3.709   3.020
 2283SOL    HW1 7748   6.926   3.750   2.940
 2283SOL    HW2 7749   6.901   3.765   3.101
 2284SOL     OW 7750   2.209   2.759   2.156
 2284SOL    HW1 7751   2.300   2.723   2.140
 2284SOL    HW2 7752   2.178   2.810   2.075
 2285SOL     OW 7753   2.266   4.640   0.378
 2285SOL    HW1 7754   2.208   4.562   0.403
 2285SOL    HW2 7755   2.352   4.635   0.429
 2286SOL     OW 7756   6.098   6.693   4.802
 2286SOL    HW1 7757   6.170   6.750   4.841
 2286SOL    HW2 7758   6.140   6.611   4.762
 2287SOL     OW 7759   2.043   2.870   1.962
 2287SOL    HW1 7760   1.963   2.811   1.951
 2287SOL    HW2 7761   2.063   2.917   1.876
 2288SOL     OW 7762   0.360   6.532   4.110
 2288SOL    HW1 7763   0.450   6.539   4.153
 2288SOL    HW2 7764   0.294   6.587   4.162
 2289SOL     OW 7765   4.841   2.680   1.284
 2289SOL    HW1 7766   4.799   2.752   1.340
 2289SOL    HW2 7767   4.812   2.591   1.317
 2290SOL     OW 7768   3.197   3.395   3.192
 2290SOL    HW1 7769   3.135   3.469   3.220
 2290SOL    HW2 7770   3.248   3.363   3.272
 2291SOL     OW 7771   2.179   2.532   0.046
 2291SOL    HW1 7772   2.130   2.540   0.133
 2291SOL    HW2 7773   2.259   2.591   0.048
 2292SOL     OW 7774   4.225   2.295   2.649
 2292SOL    HW1 7775   4.221   2.327   2.554
 2292SOL    HW2 7776   4.315   2.254   2.666
 2293SOL     OW 7777   6.301   1.647   0.011
 2293SOL    HW1 7778   6.359   1.725   0.035
 2293SOL    HW2 7779   6.295   1.638   6.937
 2294SOL     OW 7780   0.339   1.761   5.754
 2294SOL    HW1 7781   0.343   1.672   5.800
 2294SOL    HW2 7782   0.249   1.803   5.770
 2295SOL     OW 7783   6.093   6.481   1.133
 2295SOL    HW1 7784   6.151   6.400   1.144
 2295SOL    HW2 7785   6.116   6.548   1.204
 2296SOL     OW 7786   2.828   5.694   4.356
 2296SOL    HW1 7787   2.753   5.753   4.386
 2296SOL    HW2 7788   2.875   5.656   4.435
 2297SOL     OW 7789   4.293   4.311   5.336
 2297SOL    HW1 7790   4.302   4.365   5.253
 2297SOL    HW2 7791   4.205   4.264   5.337
 2298SOL     OW 7792   4.033   3.509   4.523
 2298SOL    HW1 7793   4.085   3.434   4.483
 2298SOL    HW2 7794   3.959   3.473   4.578
 2299SOL     OW 7795   5.328   3.497   4.808
 2299SOL    HW1 7796   5.293   3.545   4.728
 2299SOL    HW2 7797   5.313   3.553   4.890
 2300SOL     OW 7798   4.407   6.490   2.396
 2300SOL    HW1 7799   4.350   6.541   2.460
 2300SOL    HW2 7800   4.390   6.392   2.408
 2301SOL     OW 7801   3.992   3.138   4.416
 2301SOL    HW1 7802   4.040   3.208   4.363
 2301SOL    HW2 7803   4.039   3.124   4.503
 2302SOL     OW 7804   4.153   2.243   0.523
 2302SOL    HW1 7805   4.065   2.270   0.562
 2302SOL    HW2 7806   4.204   2.324   0.496
 2303SOL     OW 7807   3.879   2.336   0.211
 2303SOL    HW1 7808   3.787   2.320   0.177
 2303SOL    HW2 7809   3.945   2.293   0.149
 2304SOL     OW 7810   5.308   6.048   2.122
 2304SOL    HW1 7811   5.329   6.085   2.213
 2304SOL    HW2 7812   5.386   5.995   2.089
 2305SOL     OW 7813   2.100   1.148   5.427
 2305SOL    HW1 7814   2.171   1.215   5.450
 2305SOL    HW2 7815   2.030   1.147   5.498
 2306SOL     OW 7816   1.809   5.040   4.205
 2306SOL    HW1 7817   1.822   5.136   4.179
 2306SOL    HW2 7818   1.743   4.998   4.143
 2307SOL     OW 7819   0.292   3.529   6.030
 2307SOL    HW1 7820   0.390   3.523   6.047
 2307SOL    HW2 7821   0.276   3.583   5.947
 2308SOL     OW 7822   2.242   4.631   1.887
 2308SOL    HW1 7823   2.288   4.614   1.974
 2308SOL    HW2 7824   2.296   4.695   1.833
 2309SOL     OW 7825   2.129   6.644   5.667
 2309SOL    HW1 7826   2.043   6.679   5.704
 2309SOL    HW2 7827   2.160   6.566   5.721
 2310SOL     OW 7828   4.658   6.689   1.544
 2310SOL    HW1 7829   4.640   6.600   1.586
 2310SOL    HW2 7830   4.578   6.718   1.492
 2311SOL     OW 7831   2.901   5.842   1.604
 2311SOL    HW1 7832   2.997   5.819   1.589
 2311SOL    HW2 7833   2.855   5.767   1.651
 2312SOL     OW 7834   3.239   4.985   2.762
 2312SOL    HW1 7835   3.145   4.975   2.728
 2312SOL    HW2 7836   3.247   4.940   2.850
 2313SOL     OW 7837   4.415   5.927   1.729
 2313SOL    HW1 7838   4.352   5.853   1.703
 2313SOL    HW2 7839   4.453   5.968   1.646
 2314SOL     OW 7840   2.075   5.450   4.148
 2314SOL    HW1 7841   2.123   5.449   4.060
 2314SOL    HW2 7842   2.104   5.530   4.200
 2315SOL     OW 7843   4.384   2.995   6.782
 2315SOL    HW1 7844   4.296   2.966   6.745
 2315SOL    HW2 7845   4.445   3.022   6.708
 2316SOL     OW 7846   5.589   3.453   2.532
 2316SOL    HW1 7847   5.535   3.467   2.615
 2316SOL    HW2 7848   5.640   3.367   2.539
 2317SOL     OW 7849   1.124   4.940   4.086
 2317SOL    HW1 7850   1.223   4.946   4.097
 2317SOL    HW2 7851   1.102   4.917   3.991
 2318SOL     OW 7852   6.803   1.499   3.473
 2318SOL    HW1 7853   6.886   1.449   3.448
 2318SOL    HW2 7854   6.827   1.577   3.530
 2319SOL     OW 7855   1.003   4.252   3.901
 2319SOL    HW1 7856   1.016   4.180   3.832
 2319SOL    HW2 7857   1.090   4.300   3.914
 2320SOL     OW 7858   6.183   4.194   4.960
 2320SOL    HW1 7859   6.153   4.103   4.931
 2320SOL    HW2 7860   6.185   4.254   4.880
 2321SOL     OW 7861   2.579   6.135   5.456
 2321SOL    HW1 7862   2.641   6.170   5.386
 2321SOL    HW2 7863   2.620   6.054   5.498
 2322SOL     OW 7864   2.687   0.112   5.857
 2322SOL    HW1 7865   2.776   0.101   5.901
 2322SOL    HW2 7866   2.614   0.104   5.925
 2323SOL     OW 7867   5.243   4.946   2.010
 2323SOL    HW1 7868   5.308   4.886   1.963
 2323SOL    HW2 7869   5.288   4.988   2.089
 2324SOL     OW 7870   6.449   5.190   3.599
 2324SOL    HW1 7871   6.405   5.245   3.670
 2324SOL    HW2 7872   6.414   5.097   3.602
 2325SOL     OW 7873   6.735   3.328   0.726
 2325SOL    HW1 7874   6.796   3.407   0.731
 2325SOL    HW2 7875   6.769   3.255   0.785
 2326SOL     OW 7876   1.818   5.287   7.007
 2326SOL    HW1 7877   1.879   5.365   7.023
 2326SOL    HW2 7878   1.826   5.222   0.056
 2327SOL     OW 7879   5.253   2.693   5.059
 2327SOL    HW1 7880   5.179   2.722   4.999
 2327SOL    HW2 7881   5.225   2.613   5.111
 2328SOL     OW 7882   4.925   6.329   3.594
 2328SOL    HW1 7883   4.975   6.364   3.515
 2328SOL    HW2 7884   4.832   6.366   3.593
 2329SOL     OW 7885   6.892   5.934   3.844
 2329SOL    HW1 7886   6.921   5.916   3.938
 2329SOL    HW2 7887   6.954   6.000   3.802
 2330SOL     OW 7888   0.348   3.925   2.599
 2330SOL    HW1 7889   0.285   3.847   2.605
 2330SOL    HW2 7890   0.351   3.971   2.688
 2331SOL     OW 7891   1.101   4.613   5.407
 2331SOL    HW1 7892   1.054   4.576   5.487
 2331SOL    HW2 7893   1.084   4.711   5.400
 2332SOL     OW 7894   5.642   2.844   4.798
 2332SOL    HW1 7895   5.610   2.936   4.779
 2332SOL    HW2 7896   5.724   2.826   4.744
 2333SOL     OW 7897   1.204   5.476   4.315
 2333SOL    HW1 7898   1.206   5.532   4.398
 2333SOL    HW2 7899   1.240   5.528   4.238
 2334SOL     OW 7900   2.843   0.152   0.428
 2334SOL    HW1 7901   2.825   0.101   0.344
 2334SOL    HW2 7902   2.760   0.156   0.483
 2335SOL     OW 7903   5.038   0.094   4.051
 2335SOL    HW1 7904   5.132   0.099   4.086
 2335SOL    HW2 7905   5.020   0.174   3.994
 2336SOL     OW 7906   4.508   1.378   6.336
 2336SOL    HW1 7907   4.543   1.290   6.303
 2336SOL    HW2 7908   4.454   1.422   6.265
 2337SOL     OW 7909   5.745   0.537   2.851
 2337SOL    HW1 7910   5.660   0.584   2.829
 2337SOL    HW2 7911   5.821   0.602   2.843
 2338SOL     OW 7912   1.048   6.862   6.217
 2338SOL    HW1 7913   1.080   6.954   6.240
 2338SOL    HW2 7914   1.102   6.794   6.266
 2339SOL     OW 7915   3.645   4.408   0.234
 2339SOL    HW1 7916   3.725   4.391   0.177
 2339SOL    HW2 7917   3.611   4.321   0.271
 2340SOL     OW 7918   3.376   4.977   4.956
 2340SOL    HW1 7919   3.339   5.064   4.925
 2340SOL    HW2 7920   3.336   4.903   4.902
 2341SOL     OW 7921   5.944   5.450   0.042
 2341SOL    HW1 7922   5.937   5.495   0.131
 2341SOL    HW2 7923   5.962   5.352   0.056
 2342SOL     OW 7924   6.453   0.384   5.281
 2342SOL    HW1 7925   6.425   0.400   5.186
 2342SOL    HW2 7926   6.550   0.403   5.291
 2343SOL     OW 7927   1.286   6.859   0.466
 2343SOL    HW1 7928   1.385   6.864   0.475
 2343SOL    HW2 7929   1.260   6.863   0.369
 2344SOL     OW 7930   1.794   2.138   2.630
 2344SOL    HW1 7931   1.859   2.076   2.675
 2344SOL    HW2 7932   1.843   2.219   2.597
 2345SOL     OW 7933   1.932   1.672   4.054
 2345SOL    HW1 7934   1.848   1.679   4.109
 2345SOL    HW2 7935   1.959   1.576   4.048
 2346SOL     OW 7936   4.712   3.451   5.837
 2346SOL    HW1 7937   4.664   3.536   5.858
 2346SOL    HW2 7938   4.645   3.381   5.811
 2347SOL     OW 7939   1.330   3.020   1.145
 2347SOL    HW1 7940   1.399   3.062   1.085
 2347SOL    HW2 7941   1.297   2.935   1.104
 2348SOL     OW 7942   2.607   6.603   2.076
 2348SOL    HW1 7943   2.565   6.578   2.164
 2348SOL    HW2 7944   2.675   6.675   2.092
 2349SOL     OW 7945   4.950   5.643   6.027
 2349SOL    HW1 7946   5.046   5.628   6.006
 2349SOL    HW2 7947   4.901   5.670   5.944
 2350SOL     OW 7948   2.435   6.470   5.376
 2350SOL    HW1 7949   2.336   6.482   5.372
 2350SOL    HW2 7950   2.479   6.542   5.322
 2351SOL     OW 7951   2.190   5.496   4.579
 2351SOL    HW1 7952   2.097   5.496   4.616
 2351SOL    HW2 7953   2.254   5.465   4.649
 2352SOL     OW 7954   0.196   3.373   2.234
 2352SOL    HW1 7955   0.198   3.275   2.254
 2352SOL    HW2 7956   0.239   3.391   2.146
 2353SOL     OW 7957   2.759   4.172   6.367
 2353SOL    HW1 7958   2.662   4.175   6.344
 2353SOL    HW2 7959   2.774   4.108   6.442
 2354SOL     OW 7960   4.039   2.680   0.681
 2354SOL    HW1 7961   3.995   2.753   0.630
 2354SOL    HW2 7962   4.028   2.594   0.632
 2355SOL     OW 7963   0.563   6.796   0.939
 2355SOL    HW1 7964   0.490   6.810   0.872
 2355SOL    HW2 7965   0.605   6.706   0.925
 2356SOL     OW 7966   2.829   5.099   3.346
 2356SOL    HW1 7967   2.864   5.172   3.404
 2356SOL    HW2 7968   2.730   5.090   3.360
 2357SOL     OW 7969   6.619   4.554   1.412
 2357SOL    HW1 7970   6.654   4.625   1.351
 2357SOL    HW2 7971   6.541   4.590   1.464
 2358SOL     OW 7972   3.941   1.341   5.726
 2358SOL    HW1 7973   3.945   1.436   5.757
 2358SOL    HW2 7974   3.920   1.339   5.628
 2359SOL     OW 7975   1.372   1.532   5.556
 2359SOL    HW1 7976   1.422   1.457   5.599
 2359SOL    HW2 7977   1.336   1.501   5.468
 2360SOL     OW 7978   4.527   4.422   0.592
 2360SOL    HW1 7979   4.524   4.519   0.570
 2360SOL    HW2 7980   4.622   4.394   0.605
 2361SOL     OW 7981   3.936   6.087   1.771
 2361SOL    HW1 7982   3.912   6.077   1.675
 2361SOL    HW2 7983   4.033   6.109   1.780
 2362SOL     OW 7984   4.019   6.300   3.755
 2362SOL    HW1 7985   4.017   6.213   3.705
 2362SOL    HW2 7986   4.092   6.297   3.823
 2363SOL     OW 7987   2.846   3.935   0.730
 2363SOL    HW1 7988   2.841   4.026   0.773
 2363SOL    HW2 7989   2.812   3.940   0.637
 2364SOL     OW 7990   4.252   1.550   2.487
 2364SOL    HW1 7991   4.161   1.542   2.446
 2364SOL    HW2 7992   4.289   1.641   2.466
 2365SOL     OW 7993   4.872   3.274   3.480
 2365SOL    HW1 7994   4.923   3.247   3.561
 2365SOL    HW2 7995   4.887   3.208   3.407
 2366SOL     OW 7996   2.634   4.696   5.236
 2366SOL    HW1 7997   2.673   4.671   5.324
 2366SOL    HW2 7998   2.685   4.651   5.163
 2367SOL     OW 7999   6.873   4.438   5.961
 2367SOL    HW1 8000   6.854   4.507   6.031
 2367SOL    HW2 8001   6.932   4.366   5.999
 2368SOL     OW 8002   5.491   6.675   4.142
 2368SOL    HW1 8003   5.418   6.743   4.143
 2368SOL    HW2 8004   5.512   6.647   4.236
 2369SOL     OW 8005   3.004   1.851   4.768
 2369SOL    HW1 8006   2.952   1.895   4.841
 2369SOL    HW2 8007   3.047   1.767   4.803
 2370SOL     OW 8008   5.553   2.657   1.047
 2370SOL    HW1 8009   5.468   2.608   1.024
 2370SOL    HW2 8010   5.591   2.618   1.132
 2371SOL     OW 8011   0.818   0.081   3.093
 2371SOL    HW1 8012   0.914   0.062   3.116
 2371SOL    HW2 8013   0.762   0.076   3.176
 2372SOL     OW 8014   6.255   1.113   5.968
 2372SOL    HW1 8015   6.344   1.101   5.923
 2372SOL    HW2 8016   6.234   1.210   5.976
 2373SOL     OW 8017   6.050   5.792   6.232
 2373SOL    HW1 8018   6.069   5.831   6.322
 2373SOL    HW2 8019   6.055   5.864   6.163
 2374SOL     OW 8020   5.689   6.179   1.928
 2374SOL    HW1 8021   5.681   6.182   2.028
 2374SOL    HW2 8022   5.743   6.257   1.897
 2375SOL     OW 8023   1.028   0.261   4.568
 2375SOL    HW1 8024   0.962   0.222   4.503
 2375SOL    HW2 8025   1.100   0.194   4.585
 2376SOL     OW 8026   5.985   1.504   3.204
 2376SOL    HW1 8027   5.886   1.510   3.218
 2376SOL    HW2 8028   6.003   1.469   3.112
 2377SOL     OW 8029   4.542   4.800   5.371
 2377SOL    HW1 8030   4.540   4.899   5.385
 2377SOL    HW2 8031   4.469   4.758   5.426
 2378SOL     OW 8032   6.914   1.081   0.665
 2378SOL    HW1 8033   6.941   1.145   0.594
 2378SOL    HW2 8034   6.832   1.114   0.711
 2379SOL     OW 8035   6.861   5.116   0.953
 2379SOL    HW1 8036   6.924   5.041   0.972
 2379SOL    HW2 8037   6.787   5.083   0.893
 2380SOL     OW 8038   4.905   4.746   5.025
 2380SOL    HW1 8039   4.851   4.663   5.012
 2380SOL    HW2 8040   4.945   4.745   5.117
 2381SOL     OW 8041   2.229   4.784   4.861
 2381SOL    HW1 8042   2.219   4.727   4.781
 2381SOL    HW2 8043   2.205   4.732   4.943
 2382SOL     OW 8044   0.944   6.062   2.438
 2382SOL    HW1 8045   0.901   6.086   2.351
 2382SOL    HW2 8046   0.874   6.037   2.505
 2383SOL     OW 8047   5.528   5.576   5.281
 2383SOL    HW1 8048   5.595   5.530   5.340
 2383SOL    HW2 8049   5.454   5.512   5.260
 2384SOL     OW 8050   0.805   1.802   2.376
 2384SOL    HW1 8051   0.876   1.794   2.307
 2384SOL    HW2 8052   0.771   1.711   2.399
 2385SOL     OW 8053   0.823   2.185   1.197
 2385SOL    HW1 8054   0.908   2.206   1.149
 2385SOL    HW2 8055   0.781   2.270   1.229
 2386SOL     OW 8056   4.963   6.176   4.264
 2386SOL    HW1 8057   4.897   6.139   4.198
 2386SOL    HW2 8058   4.970   6.114   4.342
 2387SOL     OW 8059   1.324   1.923   4.299
 2387SOL    HW1 8060   1.283   1.840   4.259
 2387SOL    HW2 8061   1.389   1.962   4.235
 2388SOL     OW 8062   6.974   2.125   5.455
 2388SOL    HW1 8063   6.988   2.026   5.456
 2388SOL    HW2 8064   6.879   2.145   5.429
 2389SOL     OW 8065   5.274   4.474   4.378
 2389SOL    HW1 8066   5.239   4.381   4.373
 2389SOL    HW2 8067   5.198   4.538   4.390
 2390SOL     OW 8068   4.182   4.080   5.979
 2390SOL    HW1 8069   4.142   4.145   5.914
 2390SOL    HW2 8070   4.119   4.003   5.992
 2391SOL     OW 8071   3.567   3.997   6.149
 2391SOL    HW1 8072   3.553   4.085   6.105
 2391SOL    HW2 8073   3.610   4.010   6.238
 2392SOL     OW 8074   4.051   5.176   5.569
 2392SOL    HW1 8075   4.027   5.127   5.652
 2392SOL    HW2 8076   4.079   5.269   5.593
 2393SOL     OW 8077   3.119   5.254   1.671
 2393SOL    HW1 8078   3.149   5.187   1.739
 2393SOL    HW2 8079   3.161   5.342   1.690
 2394SOL     OW 8080   1.295   3.036   3.398
 2394SOL    HW1 8081   1.213   3.028   3.454
 2394SOL    HW2 8082   1.361   2.965   3.425
 2395SOL     OW 8083   0.136   1.912   4.473
 2395SOL    HW1 8084   0.211   1.910   4.540
 2395SOL    HW2 8085   0.159   1.852   4.396
 2396SOL     OW 8086   6.758   1.185   5.235
 2396SOL    HW1 8087   6.662   1.159   5.227
 2396SOL    HW2 8088   6.808   1.115   5.285
 2397SOL     OW 8089   0.476   4.835   5.688
 2397SOL    HW1 8090   0.492   4.881   5.775
 2397SOL    HW2 8091   0.564   4.818   5.643
 2398SOL     OW 8092   3.262   6.098   3.494
 2398SOL    HW1 8093   3.241   6.008   3.455
 2398SOL    HW2 8094   3.178   6.150   3.508
 2399SOL     OW 8095   2.733   2.323   4.326
 2399SOL    HW1 8096   2.689   2.234   4.319
 2399SOL    HW2 8097   2.754   2.357   4.234
 2400SOL     OW 8098   0.565   4.389   0.893
 2400SOL    HW1 8099   0.514   4.370   0.809
 2400SOL    HW2 8100   0.575   4.488   0.904
 2401SOL     OW 8101   3.076   6.637   5.977
 2401SOL    HW1 8102   3.028   6.696   5.912
 2401SOL    HW2 8103   3.031   6.548   5.982
 2402SOL     OW 8104   1.244   4.370   2.669
 2402SOL    HW1 8105   1.291   4.331   2.590
 2402SOL    HW2 8106   1.155   4.325   2.680
 2403SOL     OW 8107   3.978   3.786   3.118
 2403SOL    HW1 8108   3.946   3.835   3.037
 2403SOL    HW2 8109   3.983   3.850   3.195
 2404SOL     OW 8110   6.162   1.836   0.668
 2404SOL    HW1 8111   6.231   1.894   0.626
 2404SOL    HW2 8112   6.195   1.805   0.757
 2405SOL     OW 8113   2.058   3.412   0.620
 2405SOL    HW1 8114   2.034   3.317   0.596
 2405SOL    HW2 8115   2.154   3.416   0.647
 2406SOL     OW 8116   1.970   6.326   4.625
 2406SOL    HW1 8117   1.938   6.360   4.714
 2406SOL    HW2 8118   2.060   6.284   4.636
 2407SOL     OW 8119   3.417   1.256   3.722
 2407SOL    HW1 8120   3.414   1.193   3.645
 2407SOL    HW2 8121   3.324   1.288   3.743
 2408SOL     OW 8122   3.296   5.572   5.002
 2408SOL    HW1 8123   3.262   5.644   4.942
 2408SOL    HW2 8124   3.236   5.563   5.082
 2409SOL     OW 8125   1.569   2.938   1.725
 2409SOL    HW1 8126   1.529   2.982   1.805
 2409SOL    HW2 8127   1.565   3.000   1.647
 2410SOL     OW 8128   0.800   3.563   5.153
 2410SOL    HW1 8129   0.713   3.612   5.150
 2410SOL    HW2 8130   0.814   3.526   5.245
 2411SOL     OW 8131   2.832   4.119   0.292
 2411SOL    HW1 8132   2.854   4.216   0.299
 2411SOL    HW2 8133   2.735   4.108   0.271
 2412SOL     OW 8134   3.683   1.809   6.685
 2412SOL    HW1 8135   3.723   1.807   6.594
 2412SOL    HW2 8136   3.727   1.740   6.743
 2413SOL     OW 8137   6.781   2.928   6.829
 2413SOL    HW1 8138   6.734   2.951   6.914
 2413SOL    HW2 8139   6.815   2.834   6.833
 2414SOL     OW 8140   6.219   2.447   4.357
 2414SOL    HW1 8141   6.204   2.357   4.319
 2414SOL    HW2 8142   6.316   2.471   4.349
 2415SOL     OW 8143   2.692   5.636   0.914
 2415SOL    HW1 8144   2.697   5.555   0.854
 2415SOL    HW2 8145   2.668   5.607   1.006
 2416SOL     OW 8146   6.667   3.654   2.417
 2416SOL    HW1 8147   6.610   3.623   2.493
 2416SOL    HW2 8148   6.655   3.593   2.339
 2417SOL     OW 8149   3.177   3.443   1.506
 2417SOL    HW1 8150   3.111   3.499   1.456
 2417SOL    HW2 8151   3.266   3.448   1.462
 2418SOL     OW 8152   4.566   3.679   5.879
 2418SOL    HW1 8153   4.536   3.773   5.897
 2418SOL    HW2 8154   4.546   3.655   5.784
 2419SOL     OW 8155   1.433   6.460   4.369
 2419SOL    HW1 8156   1.462   6.384   4.311
 2419SOL    HW2 8157   1.444   6.546   4.318
 2420SOL     OW 8158   1.434   4.229   2.480
 2420SOL    HW1 8159   1.514   4.271   2.438
 2420SOL    HW2 8160   1.462   4.148   2.531
 2421SOL     OW 8161   2.518   6.376   4.125
 2421SOL    HW1 8162   2.470   6.298   4.165
 2421SOL    HW2 8163   2.608   6.346   4.093
 2422SOL     OW 8164   4.409   6.193   0.069
 2422SOL    HW1 8165   4.388   6.147   7.008
 2422SOL    HW2 8166   4.413   6.126   0.143
 2423SOL     OW 8167   2.300   5.022   2.394
 2423SOL    HW1 8168   2.272   5.089   2.463
 2423SOL    HW2 8169   2.305   4.931   2.436
 2424SOL     OW 8170   5.601   1.183   5.889
 2424SOL    HW1 8171   5.565   1.133   5.810
 2424SOL    HW2 8172   5.603   1.281   5.869
 2425SOL     OW 8173   5.154   5.635   5.313
 2425SOL    HW1 8174   5.088   5.710   5.315
 2425SOL    HW2 8175   5.153   5.588   5.401
 2426SOL     OW 8176   1.987   4.781   5.978
 2426SOL    HW1 8177   1.912   4.813   6.036
 2426SOL    HW2 8178   2.046   4.721   6.032
 2427SOL     OW 8179   4.950   0.768   0.256
 2427SOL    HW1 8180   4.870   0.808   0.211
 2427SOL    HW2 8181   4.994   0.837   0.314
 2428SOL     OW 8182   0.212   0.650   3.553
 2428SOL    HW1 8183   0.220   0.554   3.527
 2428SOL    HW2 8184   0.290   0.676   3.610
 2429SOL     OW 8185   5.170   5.546   1.682
 2429SOL    HW1 8186   5.235   5.503   1.620
 2429SOL    HW2 8187   5.090   5.577   1.631
 2430SOL     OW 8188   6.004   2.084   6.495
 2430SOL    HW1 8189   5.961   2.166   6.459
 2430SOL    HW2 8190   6.022   2.095   6.593
 2431SOL     OW 8191   6.904   2.205   1.346
 2431SOL    HW1 8192   6.869   2.219   1.439
 2431SOL    HW2 8193   7.004   2.203   1.347
 2432SOL     OW 8194   3.585   5.215   2.671
 2432SOL    HW1 8195   3.520   5.186   2.741
 2432SOL    HW2 8196   3.550   5.297   2.626
 2433SOL     OW 8197   6.294   4.548   6.520
 2433SOL    HW1 8198   6.385   4.542   6.563
 2433SOL    HW2 8199   6.232   4.484   6.566
 2434SOL     OW 8200   4.584   1.757   3.152
 2434SOL    HW1 8201   4.643   1.832   3.182
 2434SOL    HW2 8202   4.626   1.710   3.075
 2435SOL     OW 8203   5.519   6.690   6.779
 2435SOL    HW1 8204   5.472   6.659   6.696
 2435SOL    HW2 8205   5.590   6.624   6.804
 2436SOL     OW 8206   2.281   1.683   2.156
 2436SOL    HW1 8207   2.381   1.673   2.160
 2436SOL    HW2 8208   2.238   1.604   2.199
 2437SOL     OW 8209   7.024   4.700   3.086
 2437SOL    HW1 8210   0.033   4.632   3.021
 2437SOL    HW2 8211   0.064   4.712   3.160
 2438SOL     OW 8212   3.406   1.575   5.024
 2438SOL    HW1 8213   3.313   1.609   5.011
 2438SOL    HW2 8214   3.437   1.531   4.940
 2439SOL     OW 8215   0.769   5.933   0.728
 2439SOL    HW1 8216   0.788   5.918   0.826
 2439SOL    HW2 8217   0.762   6.031   0.710
 2440SOL     OW 8218   4.998   0.963   5.348
 2440SOL    HW1 8219   4.972   1.047   5.301
 2440SOL    HW2 8220   4.932   0.943   5.421
 2441SOL     OW 8221   5.914   0.393   7.010
 2441SOL    HW1 8222   5.935   0.306   6.965
 2441SOL    HW2 8223   5.998   0.431   0.023
 2442SOL     OW 8224   5.174   3.219   2.140
 2442SOL    HW1 8225   5.209   3.184   2.053
 2442SOL    HW2 8226   5.115   3.150   2.182
 2443SOL     OW 8227   1.706   2.197   0.741
 2443SOL    HW1 8228   1.689   2.249   0.657
 2443SOL    HW2 8229   1.720   2.261   0.817
 2444SOL     OW 8230   3.879   5.801   1.354
 2444SOL    HW1 8231   3.896   5.889   1.397
 2444SOL    HW2 8232   3.797   5.759   1.393
 2445SOL     OW 8233   6.817   2.659   0.795
 2445SOL    HW1 8234   6.810   2.677   0.697
 2445SOL    HW2 8235   6.836   2.745   0.844
 2446SOL     OW 8236   1.791   4.493   1.122
 2446SOL    HW1 8237   1.711   4.434   1.107
 2446SOL    HW2 8238   1.874   4.437   1.124
 2447SOL     OW 8239   3.583   0.238   0.532
 2447SOL    HW1 8240   3.490   0.251   0.566
 2447SOL    HW2 8241   3.595   0.143   0.504
 2448SOL     OW 8242   6.096   1.339   3.598
 2448SOL    HW1 8243   6.109   1.438   3.612
 2448SOL    HW2 8244   6.023   1.306   3.658
 2449SOL     OW 8245   1.583   4.463   1.616
 2449SOL    HW1 8246   1.547   4.406   1.542
 2449SOL    HW2 8247   1.510   4.488   1.679
 2450SOL     OW 8248   1.522   6.119   6.027
 2450SOL    HW1 8249   1.601   6.180   6.026
 2450SOL    HW2 8250   1.471   6.128   5.942
 2451SOL     OW 8251   0.740   0.244   4.944
 2451SOL    HW1 8252   0.774   0.330   4.905
 2451SOL    HW2 8253   0.649   0.259   4.983
 2452SOL     OW 8254   3.035   1.993   4.072
 2452SOL    HW1 8255   2.989   1.914   4.113
 2452SOL    HW2 8256   3.054   2.061   4.143
 2453SOL     OW 8257   1.088   1.511   6.818
 2453SOL    HW1 8258   1.174   1.516   6.767
 2453SOL    HW2 8259   1.064   1.602   6.851
 2454SOL     OW 8260   3.545   5.794   0.978
 2454SOL    HW1 8261   3.609   5.730   1.020
 2454SOL    HW2 8262   3.543   5.779   0.879
 2455SOL     OW 8263   4.038   1.274   0.335
 2455SOL    HW1 8264   4.005   1.215   0.262
 2455SOL    HW2 8265   4.104   1.340   0.298
 2456SOL     OW 8266   0.646   4.436   6.788
 2456SOL    HW1 8267   0.609   4.385   6.711
 2456SOL    HW2 8268   0.587   4.515   6.808
 2457SOL     OW 8269   5.579   2.147   5.386
 2457SOL    HW1 8270   5.597   2.178   5.479
 2457SOL    HW2 8271   5.538   2.055   5.389
 2458SOL     OW 8272   1.344   7.025   2.167
 2458SOL    HW1 8273   1.324   6.993   2.074
 2458SOL    HW2 8274   1.298   0.087   2.183
 2459SOL     OW 8275   2.542   5.864   1.280
 2459SOL    HW1 8276   2.610   5.812   1.229
 2459SOL    HW2 8277   2.586   5.912   1.356
 2460SOL     OW 8278   1.627   0.702   5.888
 2460SOL    HW1 8279   1.551   0.767   5.890
 2460SOL    HW2 8280   1.607   0.629   5.822
 2461SOL     OW 8281   3.778   1.053   4.464
 2461SOL    HW1 8282   3.811   1.006   4.382
 2461SOL    HW2 8283   3.685   1.022   4.484
 2462SOL     OW 8284   0.265   5.115   1.077
 2462SOL    HW1 8285   0.300   5.208   1.063
 2462SOL    HW2 8286   0.329   5.063   1.134
 2463SOL     OW 8287   0.119   1.158   6.410
 2463SOL    HW1 8288   0.078   1.207   6.333
 2463SOL    HW2 8289   0.124   1.061   6.389
 2464SOL     OW 8290   0.789   1.828   3.181
 2464SOL    HW1 8291   0.858   1.839   3.252
 2464SOL    HW2 8292   0.701   1.861   3.215
 2465SOL     OW 8293   0.825   4.923   5.605
 2465SOL    HW1 8294   0.917   4.931   5.567
 2465SOL    HW2 8295   0.794   5.013   5.637
 2466SOL     OW 8296   1.113   2.419   2.095
 2466SOL    HW1 8297   1.211   2.412   2.075
 2466SOL    HW2 8298   1.062   2.424   2.010
 2467SOL     OW 8299   4.903   1.565   5.810
 2467SOL    HW1 8300   4.960   1.647   5.808
 2467SOL    HW2 8301   4.938   1.503   5.880
 2468SOL     OW 8302   3.536   6.909   5.569
 2468SOL    HW1 8303   3.519   7.004   5.598
 2468SOL    HW2 8304   3.622   6.905   5.519
 2469SOL     OW 8305   3.454   2.989   5.338
 2469SOL    HW1 8306   3.493   3.035   5.418
 2469SOL    HW2 8307   3.523   2.932   5.294
 2470SOL     OW 8308   3.576   5.020   0.138
 2470SOL    HW1 8309   3.519   5.078   0.196
 2470SOL    HW2 8310   3.572   4.926   0.172
 2471SOL     OW 8311   4.297   6.168   1.323
 2471SOL    HW1 8312   4.382   6.147   1.275
 2471SOL    HW2 8313   4.310   6.252   1.376
 2472SOL     OW 8314   4.764   1.947   4.238
 2472SOL    HW1 8315   4.763   2.008   4.317
 2472SOL    HW2 8316   4.671   1.919   4.215
 2473SOL     OW 8317   0.473   4.765   5.011
 2473SOL    HW1 8318   0.396   4.703   5.028
 2473SOL    HW2 8319   0.528   4.729   4.935
 2474SOL     OW 8320   0.817   5.492   1.673
 2474SOL    HW1 8321   0.893   5.511   1.735
 2474SOL    HW2 8322   0.817   5.560   1.600
 2475SOL     OW 8323   5.022   0.319   0.835
 2475SOL    HW1 8324   5.032   0.378   0.755
 2475SOL    HW2 8325   5.112   0.285   0.863
 2476SOL     OW 8326   6.046   0.272   0.532
 2476SOL    HW1 8327   6.019   0.239   0.622
 2476SOL    HW2 8328   5.982   0.237   0.463
 2477SOL     OW 8329   3.621   0.758   3.368
 2477SOL    HW1 8330   3.610   0.802   3.457
 2477SOL    HW2 8331   3.531   0.749   3.324
 2478SOL     OW 8332   4.328   1.775   3.245
 2478SOL    HW1 8333   4.337   1.867   3.284
 2478SOL    HW2 8334   4.418   1.740   3.218
 2479SOL     OW 8335   0.921   2.955   0.799
 2479SOL    HW1 8336   0.948   3.035   0.853
 2479SOL    HW2 8337   0.933   2.873   0.854
 2480SOL     OW 8338   3.305   2.541   1.094
 2480SOL    HW1 8339   3.353   2.510   1.177
 2480SOL    HW2 8340   3.369   2.589   1.035
 2481SOL     OW 8341   3.365   0.862   1.591
 2481SOL    HW1 8342   3.327   0.949   1.620
 2481SOL    HW2 8343   3.464   0.868   1.587
 2482SOL     OW 8344   5.575   3.534   7.000
 2482SOL    HW1 8345   5.498   3.470   7.002
 2482SOL    HW2 8346   5.565   3.601   0.047
 2483SOL     OW 8347   0.732   2.461   0.552
 2483SOL    HW1 8348   0.787   2.465   0.468
 2483SOL    HW2 8349   0.792   2.440   0.629
 2484SOL     OW 8350   4.882   1.524   2.557
 2484SOL    HW1 8351   4.857   1.565   2.645
 2484SOL    HW2 8352   4.799   1.501   2.506
 2485SOL     OW 8353   5.133   2.352   6.239
 2485SOL    HW1 8354   5.225   2.318   6.221
 2485SOL    HW2 8355   5.085   2.364   6.152
 2486SOL     OW 8356   0.480   4.349   6.013
 2486SOL    HW1 8357   0.516   4.260   6.042
 2486SOL    HW2 8358   0.440   4.396   6.092
 2487SOL     OW 8359   4.899   6.362   0.654
 2487SOL    HW1 8360   4.829   6.292   0.666
 2487SOL    HW2 8361   4.935   6.389   0.743
 2488SOL     OW 8362   6.839   4.512   2.085
 2488SOL    HW1 8363   6.904   4.543   2.015
 2488SOL    HW2 8364   6.820   4.415   2.071
 2489SOL     OW 8365   0.096   6.207   4.144
 2489SOL    HW1 8366   0.059   6.297   4.118
 2489SOL    HW2 8367   0.078   6.141   4.071
 2490SOL     OW 8368   1.897   6.136   2.336
 2490SOL    HW1 8369   1.828   6.093   2.279
 2490SOL    HW2 8370   1.940   6.068   2.394
 2491SOL     OW 8371   4.140   4.480   1.633
 2491SOL    HW1 8372   4.140   4.496   1.534
 2491SOL    HW2 8373   4.191   4.397   1.653
 2492SOL     OW 8374   5.071   3.454   0.867
 2492SOL    HW1 8375   5.089   3.359   0.889
 2492SOL    HW2 8376   4.991   3.460   0.807
 2493SOL     OW 8377   6.705   6.531   1.260
 2493SOL    HW1 8378   6.711   6.631   1.263
 2493SOL    HW2 8379   6.617   6.504   1.220
 2494SOL     OW 8380   5.962   2.421   1.745
 2494SOL    HW1 8381   6.059   2.444   1.732
 2494SOL    HW2 8382   5.928   2.373   1.665
 2495SOL     OW 8383   5.330   5.806   3.658
 2495SOL    HW1 8384   5.314   5.797   3.757
 2495SOL    HW2 8385   5.242   5.804   3.611
 2496SOL     OW 8386   0.178   3.649   6.962
 2496SOL    HW1 8387   0.117   3.684   0.008
 2496SOL    HW2 8388   0.124   3.618   6.884
 2497SOL     OW 8389   0.283   0.595   1.081
 2497SOL    HW1 8390   0.215   0.623   1.014
 2497SOL    HW2 8391   0.367   0.569   1.034
 2498SOL     OW 8392   3.162   3.026   5.936
 2498SOL    HW1 8393   3.258   3.048   5.949
 2498SOL    HW2 8394   3.105   3.095   5.980
 2499SOL     OW 8395   6.060   3.185   1.280
 2499SOL    HW1 8396   6.059   3.095   1.236
 2499SOL    HW2 8397   6.020   3.252   1.218
 2500SOL     OW 8398   3.624   3.603   5.889
 2500SOL    HW1 8399   3.643   3.539   5.964
 2500SOL    HW2 8400   3.573   3.556   5.817
 2501SOL     OW 8401   5.812   5.853   6.907
 2501SOL    HW1 8402   5.823   5.889   6.999
 2501SOL    HW2 8403   5.823   5.753   6.908
 2502SOL     OW 8404   2.355   6.112   5.065
 2502SOL    HW1 8405   2.418   6.045   5.103
 2502SOL    HW2 8406   2.261   6.082   5.080
 2503SOL     OW 8407   3.113   6.333   5.874
 2503SOL    HW1 8408   3.133   6.257   5.936
 2503SOL    HW2 8409   3.022   6.368   5.893
 2504SOL     OW 8410   3.168   5.357   2.825
 2504SOL    HW1 8411   3.116   5.336   2.742
 2504SOL    HW2 8412   3.265   5.366   2.802
 2505SOL     OW 8413   0.416   5.860   3.186
 2505SOL    HW1 8414   0.381   5.953   3.172
 2505SOL    HW2 8415   0.485   5.839   3.118
 2506SOL     OW 8416   6.030   3.702   6.158
 2506SOL    HW1 8417   6.089   3.696   6.078
 2506SOL    HW2 8418   5.943   3.658   6.139
 2507SOL     OW 8419   0.022   3.114   0.195
 2507SOL    HW1 8420   7.021   3.183   0.127
 2507SOL    HW2 8421   7.021   3.023   0.162
 2508SOL     OW 8422   2.716   2.341   4.890
 2508SOL    HW1 8423   2.811   2.323   4.867
 2508SOL    HW2 8424   2.711   2.393   4.975
 2509SOL     OW 8425   6.809   4.086   0.108
 2509SOL    HW1 8426   6.728   4.103   0.164
 2509SOL    HW2 8427   6.785   4.025   0.032
 2510SOL     OW 8428   3.799   4.006   1.515
 2510SOL    HW1 8429   3.795   3.950   1.597
 2510SOL    HW2 8430   3.709   4.009   1.472
 2511SOL     OW 8431   2.343   1.219   5.203
 2511SOL    HW1 8432   2.258   1.260   5.168
 2511SOL    HW2 8433   2.320   1.147   5.268
 2512SOL     OW 8434   3.924   4.441   5.417
 2512SOL    HW1 8435   3.972   4.526   5.397
 2512SOL    HW2 8436   3.831   4.446   5.381
 2513SOL     OW 8437   2.309   6.145   6.031
 2513SOL    HW1 8438   2.275   6.107   6.117
 2513SOL    HW2 8439   2.382   6.087   5.996
 2514SOL     OW 8440   0.881   3.709   4.126
 2514SOL    HW1 8441   0.882   3.643   4.051
 2514SOL    HW2 8442   0.839   3.668   4.206
 2515SOL     OW 8443   2.336   0.280   1.554
 2515SOL    HW1 8444   2.266   0.222   1.512
 2515SOL    HW2 8445   2.379   0.337   1.484
 2516SOL     OW 8446   4.865   1.289   3.317
 2516SOL    HW1 8447   4.836   1.282   3.222
 2516SOL    HW2 8448   4.952   1.339   3.323
 2517SOL     OW 8449   2.184   0.413   5.734
 2517SOL    HW1 8450   2.213   0.497   5.688
 2517SOL    HW2 8451   2.262   0.350   5.738
 2518SOL     OW 8452   2.089   5.872   1.069
 2518SOL    HW1 8453   2.057   5.868   1.163
 2518SOL    HW2 8454   2.062   5.790   1.020
 2519SOL     OW 8455   3.492   1.061   1.235
 2519SOL    HW1 8456   3.402   1.019   1.229
 2519SOL    HW2 8457   3.490   1.135   1.302
 2520SOL     OW 8458   3.114   2.080   6.824
 2520SOL    HW1 8459   3.207   2.080   6.861
 2520SOL    HW2 8460   3.048   2.090   6.898
 2521SOL     OW 8461   4.000   1.995   5.269
 2521SOL    HW1 8462   3.949   1.997   5.355
 2521SOL    HW2 8463   4.083   2.050   5.279
 2522SOL     OW 8464   1.101   1.673   5.268
 2522SOL    HW1 8465   1.017   1.646   5.313
 2522SOL    HW2 8466   1.082   1.748   5.204
 2523SOL     OW 8467   1.603   4.291   1.042
 2523SOL    HW1 8468   1.643   4.253   1.126
 2523SOL    HW2 8469   1.670   4.285   0.968
 2524SOL     OW 8470   0.147   6.808   4.774
 2524SOL    HW1 8471   0.155   6.905   4.752
 2524SOL    HW2 8472   0.172   6.793   4.870
 2525SOL     OW 8473   1.513   3.115   4.955
 2525SOL    HW1 8474   1.467   3.185   4.900
 2525SOL    HW2 8475   1.611   3.134   4.958
 2526SOL     OW 8476   1.739   4.910   6.956
 2526SOL    HW1 8477   1.788   4.864   6.882
 2526SOL    HW2 8478   1.733   5.008   6.937
 2527SOL     OW 8479   5.637   5.840   5.658
 2527SOL    HW1 8480   5.657   5.742   5.666
 2527SOL    HW2 8481   5.607   5.875   5.746
 2528SOL     OW 8482   5.528   3.886   5.283
 2528SOL    HW1 8483   5.507   3.932   5.198
 2528SOL    HW2 8484   5.626   3.863   5.286
 2529SOL     OW 8485   0.602   0.494   6.538
 2529SOL    HW1 8486   0.680   0.445   6.578
 2529SOL    HW2 8487   0.566   0.559   6.605
 2530SOL     OW 8488   2.155   5.964   5.763
 2530SOL    HW1 8489   2.097   6.043   5.783
 2530SOL    HW2 8490   2.154   5.947   5.665
 2531SOL     OW 8491   5.498   5.601   5.986
 2531SOL    HW1 8492   5.532   5.534   6.052
 2531SOL    HW2 8493   5.572   5.664   5.962
 2532SOL     OW 8494   0.135   6.019   0.779
 2532SOL    HW1 8495   0.190   6.099   0.752
 2532SOL    HW2 8496   0.188   5.962   0.841
 2533SOL     OW 8497   4.596   1.328   3.831
 2533SOL    HW1 8498   4.544   1.373   3.758
 2533SOL    HW2 8499   4.546   1.336   3.917
 2534SOL     OW 8500   4.668   1.448   1.554
 2534SOL    HW1 8501   4.710   1.466   1.643
 2534SOL    HW2 8502   4.740   1.441   1.484
 2535SOL     OW 8503   3.294   2.732   6.920
 2535SOL    HW1 8504   3.353   2.788   6.978
 2535SOL    HW2 8505   3.219   2.788   6.885
 2536SOL     OW 8506   1.515   0.958   5.944
 2536SOL    HW1 8507   1.592   0.954   6.007
 2536SOL    HW2 8508   1.462   1.041   5.961
 2537SOL     OW 8509   3.384   6.853   6.225
 2537SOL    HW1 8510   3.367   6.754   6.218
 2537SOL    HW2 8511   3.458   6.879   6.162
 2538SOL     OW 8512   0.362   4.163   3.961
 2538SOL    HW1 8513   0.266   4.132   3.959
 2538SOL    HW2 8514   0.400   4.161   3.869
 2539SOL     OW 8515   5.712   0.750   3.707
 2539SOL    HW1 8516   5.681   0.720   3.617
 2539SOL    HW2 8517   5.661   0.832   3.734
 2540SOL     OW 8518   4.359   2.019   3.016
 2540SOL    HW1 8519   4.440   2.015   2.958
 2540SOL    HW2 8520   4.387   2.022   3.112
 2541SOL     OW 8521   2.390   6.727   5.641
 2541SOL    HW1 8522   2.311   6.685   5.596
 2541SOL    HW2 8523   2.416   6.672   5.720
 2542SOL     OW 8524   3.112   4.230   6.767
 2542SOL    HW1 8525   3.108   4.149   6.709
 2542SOL    HW2 8526   3.060   4.215   6.851
 2543SOL     OW 8527   1.092   1.237   4.063
 2543SOL    HW1 8528   1.147   1.245   3.980
 2543SOL    HW2 8529   1.152   1.216   4.141
 2544SOL     OW 8530   0.430   5.931   0.825
 2544SOL    HW1 8531   0.437   6.028   0.846
 2544SOL    HW2 8532   0.474   5.913   0.737
 2545SOL     OW 8533   1.534   0.016   2.583
 2545SOL    HW1 8534   1.627   0.039   2.611
 2545SOL    HW2 8535   1.537   6.970   2.513
 2546SOL     OW 8536   6.665   1.680   0.845
 2546SOL    HW1 8537   6.669   1.661   0.943
 2546SOL    HW2 8538   6.717   1.610   0.795
 2547SOL     OW 8539   0.446   3.353   6.918
 2547SOL    HW1 8540   0.420   3.432   6.972
 2547SOL    HW2 8541   0.466   3.381   6.824
 2548SOL     OW 8542   0.266   0.069   4.480
 2548SOL    HW1 8543   0.351   0.117   4.459
 2548SOL    HW2 8544   0.276   6.997   4.458
 2549SOL     OW 8545   0.960   0.652   1.503
 2549SOL    HW1 8546   1.029   0.631   1.573
 2549SOL    HW2 8547   0.917   0.740   1.525
 2550SOL     OW 8548   6.258   6.384   0.360
 2550SOL    HW1 8549   6.245   6.421   0.451
 2550SOL    HW2 8550   6.356   6.387   0.336
 2551SOL     OW 8551   3.368   4.892   0.430
 2551SOL    HW1 8552   3.452   4.839   0.442
 2551SOL    HW2 8553   3.389   4.978   0.382
 2552SOL     OW 8554   2.471   5.500   5.226
 2552SOL    HW1 8555   2.449   5.410   5.265
 2552SOL    HW2 8556   2.566   5.500   5.194
 2553SOL     OW 8557   3.911   3.550   5.914
 2553SOL    HW1 8558   3.938   3.591   6.001
 2553SOL    HW2 8559   3.870   3.620   5.856
 2554SOL     OW 8560   2.341   1.042   0.152
 2554SOL    HW1 8561   2.353   1.140   0.143
 2554SOL    HW2 8562   2.243   1.020   0.155
 2555SOL     OW 8563   5.218   2.508   4.264
 2555SOL    HW1 8564   5.220   2.432   4.329
 2555SOL    HW2 8565   5.126   2.514   4.224
 2556SOL     OW 8566   3.939   5.899   0.274
 2556SOL    HW1 8567   4.018   5.912   0.214
 2556SOL    HW2 8568   3.886   5.820   0.243
 2557SOL     OW 8569   1.941   3.506   6.780
 2557SOL    HW1 8570   1.874   3.577   6.802
 2557SOL    HW2 8571   1.898   3.437   6.721
 2558SOL     OW 8572   5.214   0.865   5.491
 2558SOL    HW1 8573   5.133   0.881   5.434
 2558SOL    HW2 8574   5.207   0.775   5.534
 2559SOL     OW 8575   1.301   4.193   5.641
 2559SOL    HW1 8576   1.356   4.217   5.721
 2559SOL    HW2 8577   1.227   4.131   5.668
 2560SOL     OW 8578   6.878   2.562   5.846
 2560SOL    HW1 8579   6.790   2.538   5.805
 2560SOL    HW2 8580   6.942   2.591   5.775
 2561SOL     OW 8581   2.916   5.339   5.238
 2561SOL    HW1 8582   2.825   5.300   5.224
 2561SOL    HW2 8583   2.980   5.265   5.258
 2562SOL     OW 8584   2.316   4.563   1.236
 2562SOL    HW1 8585   2.223   4.596   1.253
 2562SOL    HW2 8586   2.338   4.491   1.302
 2563SOL     OW 8587   3.001   1.313   0.653
 2563SOL    HW1 8588   2.993   1.369   0.570
 2563SOL    HW2 8589   3.071   1.243   0.640
 2564SOL     OW 8590   1.226   5.133   0.855
 2564SOL    HW1 8591   1.296   5.139   0.784
 2564SOL    HW2 8592   1.229   5.042   0.897
 2565SOL     OW 8593   0.964   0.864   0.622
 2565SOL    HW1 8594   1.003   0.799   0.557
 2565SOL    HW2 8595   0.878   0.901   0.585
 2566SOL     OW 8596   2.501   6.603   1.628
 2566SOL    HW1 8597   2.460   6.513   1.641
 2566SOL    HW2 8598   2.463   6.645   1.545
 2567SOL     OW 8599   1.437   0.107   1.036
 2567SOL    HW1 8600   1.514   0.170   1.047
 2567SOL    HW2 8601   1.461   0.018   1.076
 2568SOL     OW 8602   4.453   2.437   6.954
 2568SOL    HW1 8603   4.423   2.404   0.017
 2568SOL    HW2 8604   4.502   2.523   6.965
 2569SOL     OW 8605   3.442   1.163   3.273
 2569SOL    HW1 8606   3.468   1.153   3.177
 2569SOL    HW2 8607   3.375   1.237   3.283
 2570SOL     OW 8608   5.988   0.982   5.728
 2570SOL    HW1 8609   6.063   0.953   5.787
 2570SOL    HW2 8610   5.902   0.947   5.764
 2571SOL     OW 8611   1.337   5.040   3.915
 2571SOL    HW1 8612   1.386   5.084   3.839
 2571SOL    HW2 8613   1.239   5.043   3.899
 2572SOL     OW 8614   2.958   4.981   2.753
 2572SOL    HW1 8615   2.931   4.920   2.828
 2572SOL    HW2 8616   2.914   5.070   2.764
 2573SOL     OW 8617   0.842   1.837   0.876
 2573SOL    HW1 8618   0.778   1.902   0.837
 2573SOL    HW2 8619   0.891   1.790   0.802
 2574SOL     OW 8620   5.404   3.471   0.694
 2574SOL    HW1 8621   5.436   3.380   0.722
 2574SOL    HW2 8622   5.308   3.482   0.719
 2575SOL     OW 8623   6.023   5.782   6.529
 2575SOL    HW1 8624   5.938   5.827   6.556
 2575SOL    HW2 8625   6.007   5.685   6.513
 2576SOL     OW 8626   4.481   6.223   4.753
 2576SOL    HW1 8627   4.493   6.200   4.656
 2576SOL    HW2 8628   4.423   6.304   4.761
 2577SOL     OW 8629   2.780   4.728   2.344
 2577SOL    HW1 8630   2.745   4.774   2.426
 2577SOL    HW2 8631   2.877   4.752   2.332
 2578SOL     OW 8632   4.044   1.355   4.003
 2578SOL    HW1 8633   4.043   1.368   4.102
 2578SOL    HW2 8634   4.003   1.435   3.959
 2579SOL     OW 8635   0.220   6.399   3.892
 2579SOL    HW1 8636   0.209   6.307   3.928
 2579SOL    HW2 8637   0.246   6.461   3.966
 2580SOL     OW 8638   2.048   4.776   0.253
 2580SOL    HW1 8639   2.127   4.748   0.308
 2580SOL    HW2 8640   2.002   4.695   0.216
 2581SOL     OW 8641   2.364   6.225   6.832
 2581SOL    HW1 8642   2.454   6.184   6.849
 2581SOL    HW2 8643   2.341   6.218   6.735
 2582SOL     OW 8644   0.090   3.968   1.255
 2582SOL    HW1 8645   0.104   4.057   1.212
 2582SOL    HW2 8646   0.056   3.981   1.348
 2583SOL     OW 8647   0.465   0.435   0.306
 2583SOL    HW1 8648   0.474   0.532   0.288
 2583SOL    HW2 8649   0.399   0.395   0.242
 2584SOL     OW 8650   4.570   4.965   5.768
 2584SOL    HW1 8651   4.665   4.946   5.746
 2584SOL    HW2 8652   4.515   4.883   5.751
 2585SOL     OW 8653   3.179   4.967   6.917
 2585SOL    HW1 8654   3.203   5.052   6.870
 2585SOL    HW2 8655   3.102   4.983   6.978
 2586SOL     OW 8656   2.814   0.986   5.826
 2586SOL    HW1 8657   2.890   1.043   5.795
 2586SOL    HW2 8658   2.843   0.890   5.830
 2587SOL     OW 8659   0.766   1.148   2.982
 2587SOL    HW1 8660   0.777   1.165   2.884
 2587SOL    HW2 8661   0.807   1.223   3.034
 2588SOL     OW 8662   4.039   2.359   5.631
 2588SOL    HW1 8663   4.100   2.313   5.695
 2588SOL    HW2 8664   3.958   2.302   5.616
 2589SOL     OW 8665   0.871   6.604   6.888
 2589SOL    HW1 8666   0.956   6.556   6.913
 2589SOL    HW2 8667   0.806   6.598   6.964
 2590SOL     OW 8668   2.785   5.076   0.444
 2590SOL    HW1 8669   2.730   5.088   0.362
 2590SOL    HW2 8670   2.860   5.142   0.444
 2591SOL     OW 8671   6.152   5.417   3.625
 2591SOL    HW1 8672   6.091   5.485   3.665
 2591SOL    HW2 8673   6.217   5.386   3.695
 2592SOL     OW 8674   2.340   4.257   6.680
 2592SOL    HW1 8675   2.418   4.305   6.641
 2592SOL    HW2 8676   2.347   4.159   6.660
 2593SOL     OW 8677   3.271   5.803   1.073
 2593SOL    HW1 8678   3.202   5.818   1.002
 2593SOL    HW2 8679   3.360   5.787   1.030
 2594SOL     OW 8680   2.506   4.436   6.032
 2594SOL    HW1 8681   2.589   4.395   5.996
 2594SOL    HW2 8682   2.442   4.453   5.957
 2595SOL     OW 8683   0.785   1.365   4.339
 2595SOL    HW1 8684   0.774   1.299   4.413
 2595SOL    HW2 8685   0.801   1.456   4.378
 2596SOL     OW 8686   1.759   3.014   1.296
 2596SOL    HW1 8687   1.744   3.113   1.285
 2596SOL    HW2 8688   1.673   2.966   1.277
 2597SOL     OW 8689   0.476   4.968   5.911
 2597SOL    HW1 8690   0.408   5.012   5.970
 2597SOL    HW2 8691   0.568   4.999   5.937
 2598SOL     OW 8692   5.810   1.457   1.873
 2598SOL    HW1 8693   5.828   1.525   1.802
 2598SOL    HW2 8694   5.832   1.366   1.838
 2599SOL     OW 8695   2.523   6.189   1.456
 2599SOL    HW1 8696   2.468   6.239   1.522
 2599SOL    HW2 8697   2.472   6.178   1.371
 2600SOL     OW 8698   6.259   3.602   4.795
 2600SOL    HW1 8699   6.295   3.668   4.728
 2600SOL    HW2 8700   6.260   3.643   4.886
 2601SOL     OW 8701   1.613   1.352   1.852
 2601SOL    HW1 8702   1.665   1.437   1.859
 2601SOL    HW2 8703   1.518   1.373   1.828
 2602SOL     OW 8704   2.234   4.581   4.015
 2602SOL    HW1 8705   2.224   4.661   4.075
 2602SOL    HW2 8706   2.261   4.502   4.070
 2603SOL     OW 8707   2.802   0.952   2.239
 2603SOL    HW1 8708   2.804   0.869   2.183
 2603SOL    HW2 8709   2.721   1.006   2.215
 2604SOL     OW 8710   5.214   1.739   1.533
 2604SOL    HW1 8711   5.310   1.726   1.510
 2604SOL    HW2 8712   5.189   1.680   1.610
 2605SOL     OW 8713   1.197   3.894   2.081
 2605SOL    HW1 8714   1.257   3.818   2.055
 2605SOL    HW2 8715   1.239   3.946   2.155
 2606SOL     OW 8716   5.416   4.543   1.442
 2606SOL    HW1 8717   5.395   4.446   1.445
 2606SOL    HW2 8718   5.500   4.558   1.391
 2607SOL     OW 8719   1.589   2.532   1.433
 2607SOL    HW1 8720   1.551   2.566   1.520
 2607SOL    HW2 8721   1.545   2.445   1.410
 2608SOL     OW 8722   2.070   6.461   6.839
 2608SOL    HW1 8723   2.133   6.501   6.905
 2608SOL    HW2 8724   2.045   6.369   6.869
 2609SOL     OW 8725   0.791   1.247   0.959
 2609SOL    HW1 8726   0.744   1.278   0.876
 2609SOL    HW2 8727   0.725   1.204   1.020
 2610SOL     OW 8728   0.938   5.095   4.506
 2610SOL    HW1 8729   0.929   4.997   4.524
 2610SOL    HW2 8730   0.958   5.110   4.409
 2611SOL     OW 8731   4.816   6.280   0.059
 2611SOL    HW1 8732   4.827   6.322   0.149
 2611SOL    HW2 8733   4.812   6.181   0.069
 2612SOL     OW 8734   5.089   0.194   4.562
 2612SOL    HW1 8735   5.006   0.208   4.617
 2612SOL    HW2 8736   5.091   0.260   4.487
 2613SOL     OW 8737   0.877   6.058   6.572
 2613SOL    HW1 8738   0.808   6.019   6.633
 2613SOL    HW2 8739   0.933   5.984   6.533
 2614SOL     OW 8740   5.923   1.300   6.075
 2614SOL    HW1 8741   5.949   1.297   5.979
 2614SOL    HW2 8742   5.838   1.249   6.088
 2615SOL     OW 8743   0.934   3.606   1.077
 2615SOL    HW1 8744   0.943   3.512   1.045
 2615SOL    HW2 8745   0.863   3.653   1.024
 2616SOL     OW 8746   1.533   0.852   5.036
 2616SOL    HW1 8747   1.463   0.863   5.107
 2616SOL    HW2 8748   1.574   0.941   5.017
 2617SOL     OW 8749   5.312   0.195   0.663
 2617SOL    HW1 8750   5.237   0.168   0.602
 2617SOL    HW2 8751   5.281   0.187   0.758
 2618SOL     OW 8752   1.619   5.745   6.085
 2618SOL    HW1 8753   1.524   5.774   6.074
 2618SOL    HW2 8754   1.647   5.759   6.180
 2619SOL     OW 8755   4.230   1.787   1.777
 2619SOL    HW1 8756   4.186   1.821   1.860
 2619SOL    HW2 8757   4.262   1.865   1.723
 2620SOL     OW 8758   6.562   5.879   1.629
 2620SOL    HW1 8759   6.478   5.828   1.649
 2620SOL    HW2 8760   6.546   5.942   1.554
 2621SOL     OW 8761   0.581   5.814   2.989
 2621SOL    HW1 8762   0.671   5.777   3.014
 2621SOL    HW2 8763   0.590   5.871   2.908
 2622SOL     OW 8764   2.986   3.201   6.057
 2622SOL    HW1 8765   2.920   3.157   6.118
 2622SOL    HW2 8766   3.050   3.257   6.111
 2623SOL     OW 8767   0.513   6.985   4.316
 2623SOL    HW1 8768   0.525   6.980   4.216
 2623SOL    HW2 8769   0.541   6.898   4.357
 2624SOL     OW 8770   6.578   1.939   4.332
 2624SOL    HW1 8771   6.664   1.956   4.381
 2624SOL    HW2 8772   6.598   1.905   4.240
 2625SOL     OW 8773   1.805   5.474   5.569
 2625SOL    HW1 8774   1.742   5.423   5.628
 2625SOL    HW2 8775   1.890   5.490   5.617
 2626SOL     OW 8776   6.352   6.764   5.454
 2626SOL    HW1 8777   6.417   6.741   5.381
 2626SOL    HW2 8778   6.401   6.807   5.530
 2627SOL     OW 8779   0.979   0.004   5.869
 2627SOL    HW1 8780   1.019   0.093   5.849
 2627SOL    HW2 8781   1.051   6.960   5.873
 2628SOL     OW 8782   1.625   3.818   3.193
 2628SOL    HW1 8783   1.549   3.757   3.218
 2628SOL    HW2 8784   1.710   3.765   3.193
 2629SOL     OW 8785   3.320   4.144   3.366
 2629SOL    HW1 8786   3.309   4.130   3.267
 2629SOL    HW2 8787   3.404   4.099   3.396
 2630SOL     OW 8788   3.951   1.479   3.041
 2630SOL    HW1 8789   3.979   1.572   3.067
 2630SOL    HW2 8790   3.974   1.416   3.115
 2631SOL     OW 8791   5.632   0.372   6.962
 2631SOL    HW1 8792   5.729   0.365   6.985
 2631SOL    HW2 8793   5.588   0.283   6.976
 2632SOL     OW 8794   5.703   4.909   2.250
 2632SOL    HW1 8795   5.605   4.919   2.268
 2632SOL    HW2 8796   5.717   4.846   2.174
 2633SOL     OW 8797   6.789   2.652   5.067
 2633SOL    HW1 8798   6.865   2.679   5.126
 2633SOL    HW2 8799   6.801   2.556   5.041
 2634SOL     OW 8800   6.191   0.178   4.801
 2634SOL    HW1 8801   6.128   0.109   4.766
 2634SOL    HW2 8802   6.232   0.146   4.886
 2635SOL     OW 8803   5.135   5.617   3.777
 2635SOL    HW1 8804   5.041   5.607   3.742
 2635SOL    HW2 8805   5.200   5.590   3.707
 2636SOL     OW 8806   3.913   0.640   5.857
 2636SOL    HW1 8807   3.956   0.597   5.778
 2636SOL    HW2 8808   3.981   0.649   5.931
 2637SOL     OW 8809   1.109   1.690   2.762
 2637SOL    HW1 8810   1.145   1.675   2.670
 2637SOL    HW2 8811   1.178   1.737   2.817
 2638SOL     OW 8812   1.158   0.406   4.246
 2638SOL    HW1 8813   1.136   0.397   4.343
 2638SOL    HW2 8814   1.253   0.434   4.235
 2639SOL     OW 8815   4.594   4.902   4.577
 2639SOL    HW1 8816   4.658   4.936   4.508
 2639SOL    HW2 8817   4.500   4.920   4.546
 2640SOL     OW 8818   0.856   6.916   4.432
 2640SOL    HW1 8819   0.799   6.842   4.395
 2640SOL    HW2 8820   0.836   6.928   4.529
 2641SOL     OW 8821   5.160   2.527   0.101
 2641SOL    HW1 8822   5.082   2.509   0.161
 2641SOL    HW2 8823   5.154   2.621   0.067
 2642SOL     OW 8824   0.171   1.431   3.752
 2642SOL    HW1 8825   0.123   1.420   3.839
 2642SOL    HW2 8826   0.125   1.502   3.698
 2643SOL     OW 8827   1.081   4.191   3.400
 2643SOL    HW1 8828   1.133   4.232   3.475
 2643SOL    HW2 8829   1.049   4.100   3.427
 2644SOL     OW 8830   4.976   5.525   4.678
 2644SOL    HW1 8831   5.027   5.556   4.597
 2644SOL    HW2 8832   5.005   5.433   4.703
 2645SOL     OW 8833   4.325   5.122   3.746
 2645SOL    HW1 8834   4.306   5.147   3.651
 2645SOL    HW2 8835   4.396   5.052   3.748
 2646SOL     OW 8836   0.468   3.946   5.923
 2646SOL    HW1 8837   0.526   3.927   6.003
 2646SOL    HW2 8838   0.385   3.993   5.953
 2647SOL     OW 8839   5.238   0.006   2.099
 2647SOL    HW1 8840   5.206   6.937   2.090
 2647SOL    HW2 8841   5.330   0.013   2.060
 2648SOL     OW 8842   0.775   0.398   4.265
 2648SOL    HW1 8843   0.740   0.367   4.176
 2648SOL    HW2 8844   0.804   0.319   4.319
 2649SOL     OW 8845   4.957   2.579   2.028
 2649SOL    HW1 8846   4.950   2.667   1.981
 2649SOL    HW2 8847   5.044   2.574   2.077
 2650SOL     OW 8848   3.411   5.896   5.068
 2650SOL    HW1 8849   3.378   5.853   4.984
 2650SOL    HW2 8850   3.373   5.988   5.075
 2651SOL     OW 8851   4.393   1.729   5.539
 2651SOL    HW1 8852   4.318   1.675   5.576
 2651SOL    HW2 8853   4.421   1.692   5.451
 2652SOL     OW 8854   5.146   3.390   5.602
 2652SOL    HW1 8855   5.099   3.478   5.616
 2652SOL    HW2 8856   5.082   3.315   5.620
 2653SOL     OW 8857   3.332   6.291   6.792
 2653SOL    HW1 8858   3.427   6.314   6.769
 2653SOL    HW2 8859   3.322   6.285   6.891
 2654SOL     OW 8860   5.135   0.544   0.223
 2654SOL    HW1 8861   5.054   0.585   0.266
 2654SOL    HW2 8862   5.157   0.594   0.139
 2655SOL     OW 8863   5.150   6.206   2.884
 2655SOL    HW1 8864   5.121   6.301   2.872
 2655SOL    HW2 8865   5.249   6.199   2.871
 2656SOL     OW 8866   3.759   5.631   3.888
 2656SOL    HW1 8867   3.747   5.539   3.925
 2656SOL    HW2 8868   3.725   5.634   3.794
 2657SOL     OW 8869   2.533   3.262   0.461
 2657SOL    HW1 8870   2.473   3.188   0.429
 2657SOL    HW2 8871   2.517   3.344   0.407
 2658SOL     OW 8872   4.143   4.442   6.065
 2658SOL    HW1 8873   4.122   4.357   6.113
 2658SOL    HW2 8874   4.242   4.457   6.063
 2659SOL     OW 8875   5.880   2.154   4.830
 2659SOL    HW1 8876   5.821   2.117   4.901
 2659SOL    HW2 8877   5.834   2.147   4.741
 2660SOL     OW 8878   1.432   1.644   1.028
 2660SOL    HW1 8879   1.423   1.557   1.076
 2660SOL    HW2 8880   1.353   1.656   0.968
 2661SOL     OW 8881   1.577   0.657   1.270
 2661SOL    HW1 8882   1.484   0.682   1.296
 2661SOL    HW2 8883   1.605   0.713   1.192
 2662SOL     OW 8884   3.149   0.748   3.013
 2662SOL    HW1 8885   3.170   0.834   3.059
 2662SOL    HW2 8886   3.162   0.759   2.914
 2663SOL     OW 8887   3.872   6.645   6.396
 2663SOL    HW1 8888   3.840   6.736   6.423
 2663SOL    HW2 8889   3.934   6.610   6.465
 2664SOL     OW 8890   4.024   2.695   5.565
 2664SOL    HW1 8891   3.977   2.695   5.477
 2664SOL    HW2 8892   4.009   2.783   5.611
 2665SOL     OW 8893   2.219   3.940   5.322
 2665SOL    HW1 8894   2.143   3.986   5.276
 2665SOL    HW2 8895   2.303   3.952   5.268
 2666SOL     OW 8896   2.306   4.041   2.059
 2666SOL    HW1 8897   2.404   4.019   2.055
 2666SOL    HW2 8898   2.261   4.003   1.979
 2667SOL     OW 8899   5.797   3.922   3.868
 2667SOL    HW1 8900   5.728   3.852   3.849
 2667SOL    HW2 8901   5.751   4.007   3.894
 2668SOL     OW 8902   5.923   1.516   4.408
 2668SOL    HW1 8903   5.837   1.486   4.448
 2668SOL    HW2 8904   5.904   1.579   4.332
 2669SOL     OW 8905   2.403   0.351   0.560
 2669SOL    HW1 8906   2.382   0.378   0.654
 2669SOL    HW2 8907   2.341   0.398   0.497
 2670SOL     OW 8908   6.915   1.346   5.612
 2670SOL    HW1 8909   6.985   1.329   5.681
 2670SOL    HW2 8910   6.884   1.441   5.620
 2671SOL     OW 8911   4.266   5.530   5.868
 2671SOL    HW1 8912   4.259   5.628   5.883
 2671SOL    HW2 8913   4.358   5.499   5.892
 2672SOL     OW 8914   4.230   0.855   1.950
 2672SOL    HW1 8915   4.152   0.809   1.908
 2672SOL    HW2 8916   4.248   0.815   2.040
 2673SOL     OW 8917   4.741   0.137   2.688
 2673SOL    HW1 8918   4.652   0.118   2.728
 2673SOL    HW2 8919   4.730   0.165   2.593
 2674SOL     OW 8920   1.278   5.541   3.158
 2674SOL    HW1 8921   1.209   5.480   3.197
 2674SOL    HW2 8922   1.238   5.631   3.144
 2675SOL     OW 8923   6.334   7.015   3.993
 2675SOL    HW1 8924   6.280   6.941   4.032
 2675SOL    HW2 8925   6.431   7.000   4.012
 2676SOL     OW 8926   3.504   3.733   3.174
 2676SOL    HW1 8927   3.430   3.763   3.234
 2676SOL    HW2 8928   3.466   3.691   3.092
 2677SOL     OW 8929   2.137   5.123   1.563
 2677SOL    HW1 8930   2.160   5.133   1.467
 2677SOL    HW2 8931   2.200   5.177   1.619
 2678SOL     OW 8932   5.697   2.509   2.769
 2678SOL    HW1 8933   5.629   2.553   2.711
 2678SOL    HW2 8934   5.687   2.409   2.763
 2679SOL     OW 8935   2.189   5.152   3.234
 2679SOL    HW1 8936   2.175   5.250   3.221
 2679SOL    HW2 8937   2.286   5.131   3.233
 2680SOL     OW 8938   1.405   2.144   6.813
 2680SOL    HW1 8939   1.432   2.197   6.893
 2680SOL    HW2 8940   1.478   2.147   6.744
 2681SOL     OW 8941   1.433   3.012   5.205
 2681SOL    HW1 8942   1.441   3.029   5.107
 2681SOL    HW2 8943   1.525   3.001   5.244
 2682SOL     OW 8944   4.897   4.174   1.645
 2682SOL    HW1 8945   4.992   4.159   1.673
 2682SOL    HW2 8946   4.857   4.246   1.702
 2683SOL     OW 8947   2.187   3.993   2.488
 2683SOL    HW1 8948   2.105   3.968   2.540
 2683SOL    HW2 8949   2.164   3.999   2.391
 2684SOL     OW 8950   5.411   6.255   1.963
 2684SOL    HW1 8951   5.362   6.180   2.006
 2684SOL    HW2 8952   5.495   6.221   1.922
 2685SOL     OW 8953   0.427   5.648   4.931
 2685SOL    HW1 8954   0.489   5.726   4.923
 2685SOL    HW2 8955   0.343   5.666   4.879
 2686SOL     OW 8956   1.054   1.481   5.040
 2686SOL    HW1 8957   1.058   1.517   5.133
 2686SOL    HW2 8958   1.063   1.556   4.975
 2687SOL     OW 8959   4.253   1.513   2.066
 2687SOL    HW1 8960   4.190   1.588   2.084
 2687SOL    HW2 8961   4.202   1.427   2.063
 2688SOL     OW 8962   3.422   3.069   5.991
 2688SOL    HW1 8963   3.446   3.092   6.086
 2688SOL    HW2 8964   3.502   3.079   5.933
 2689SOL     OW 8965   0.619   4.260   3.206
 2689SOL    HW1 8966   0.715   4.266   3.181
 2689SOL    HW2 8967   0.609   4.203   3.288
 2690SOL     OW 8968   3.456   1.687   6.070
 2690SOL    HW1 8969   3.487   1.765   6.014
 2690SOL    HW2 8970   3.435   1.610   6.010
 2691SOL     OW 8971   0.148   4.516   3.911
 2691SOL    HW1 8972   0.086   4.454   3.959
 2691SOL    HW2 8973   0.242   4.481   3.918
 2692SOL     OW 8974   3.008   5.657   2.718
 2692SOL    HW1 8975   3.088   5.657   2.659
 2692SOL    HW2 8976   2.974   5.751   2.729
 2693SOL     OW 8977   1.447   5.866   4.065
 2693SOL    HW1 8978   1.542   5.884   4.039
 2693SOL    HW2 8979   1.386   5.891   3.989
 2694SOL     OW 8980   3.188   6.564   4.217
 2694SOL    HW1 8981   3.259   6.623   4.179
 2694SOL    HW2 8982   3.131   6.529   4.143
 2695SOL     OW 8983   6.706   6.347   3.248
 2695SOL    HW1 8984   6.753   6.401   3.178
 2695SOL    HW2 8985   6.766   6.337   3.328
 2696SOL     OW 8986   5.041   4.129   5.734
 2696SOL    HW1 8987   5.055   4.078   5.819
 2696SOL    HW2 8988   4.976   4.080   5.675
 2697SOL     OW 8989   3.944   2.412   0.607
 2697SOL    HW1 8990   3.920   2.429   0.703
 2697SOL    HW2 8991   3.874   2.451   0.548
 2698SOL     OW 8992   1.569   4.545   6.423
 2698SOL    HW1 8993   1.605   4.516   6.335
 2698SOL    HW2 8994   1.479   4.504   6.437
 2699SOL     OW 8995   3.641   5.950   2.046
 2699SOL    HW1 8996   3.547   5.947   2.080
 2699SOL    HW2 8997   3.659   5.867   1.992
 2700SOL     OW 8998   2.866   1.965   1.410
 2700SOL    HW1 8999   2.930   2.038   1.434
 2700SOL    HW2 9000   2.778   1.981   1.454
 2701SOL     OW 9001   5.060   2.737   4.654
 2701SOL    HW1 9002   4.994   2.673   4.615
 2701SOL    HW2 9003   5.140   2.744   4.594
 2702SOL     OW 9004   2.440   2.050   4.663
 2702SOL    HW1 9005   2.440   2.128   4.725
 2702SOL    HW2 9006   2.514   1.988   4.689
 2703SOL     OW 9007   1.223   6.734   2.548
 2703SOL    HW1 9008   1.264   6.766   2.463
 2703SOL    HW2 9009   1.174   6.810   2.592
 2704SOL     OW 9010   6.441   6.272   3.271
 2704SOL    HW1 9011   6.375   6.344   3.251
 2704SOL    HW2 9012   6.533   6.302   3.244
 2705SOL     OW 9013   0.419   0.407   4.831
 2705SOL    HW1 9014   0.429   0.506   4.834
 2705SOL    HW2 9015   0.416   0.371   4.925
 2706SOL     OW 9016   6.480   4.486   4.407
 2706SOL    HW1 9017   6.498   4.542   4.488
 2706SOL    HW2 9018   6.391   4.509   4.369
 2707SOL     OW 9019   4.227   0.495   3.277
 2707SOL    HW1 9020   4.241   0.594   3.278
 2707SOL    HW2 9021   4.282   0.455   3.203
 2708SOL     OW 9022   5.357   2.780   6.885
 2708SOL    HW1 9023   5.425   2.847   6.854
 2708SOL    HW2 9024   5.368   2.764   6.983
 2709SOL     OW 9025   5.368   0.258   5.128
 2709SOL    HW1 9026   5.350   0.300   5.218
 2709SOL    HW2 9027   5.342   0.322   5.056
 2710SOL     OW 9028   1.539   3.203   4.195
 2710SOL    HW1 9029   1.453   3.178   4.239
 2710SOL    HW2 9030   1.607   3.132   4.213
 2711SOL     OW 9031   3.448   2.122   3.566
 2711SOL    HW1 9032   3.544   2.129   3.537
 2711SOL    HW2 9033   3.401   2.054   3.511
 2712SOL     OW 9034   3.893   5.496   2.594
 2712SOL    HW1 9035   3.986   5.524   2.568
 2712SOL    HW2 9036   3.881   5.399   2.575
 2713SOL     OW 9037   3.990   4.741   6.614
 2713SOL    HW1 9038   3.957   4.660   6.663
 2713SOL    HW2 9039   4.045   4.712   6.536
 2714SOL     OW 9040   3.036   4.153   0.015
 2714SOL    HW1 9041   3.051   4.235   0.071
 2714SOL    HW2 9042   2.964   4.097   0.057
 2715SOL     OW 9043   5.166   1.228   1.122
 2715SOL    HW1 9044   5.231   1.172   1.070
 2715SOL    HW2 9045   5.201   1.244   1.214
 2716SOL     OW 9046   4.019   1.924   2.876
 2716SOL    HW1 9047   4.031   2.014   2.835
 2716SOL    HW2 9048   4.051   1.853   2.813
 2717SOL     OW 9049   0.925   1.379   2.766
 2717SOL    HW1 9050   1.023   1.360   2.762
 2717SOL    HW2 9051   0.909   1.455   2.829
 2718SOL     OW 9052   0.296   0.334   6.009
 2718SOL    HW1 9053   0.358   0.400   5.967
 2718SOL    HW2 9054   0.277   0.261   5.944
 2719SOL     OW 9055   1.616   3.917   1.841
 2719SOL    HW1 9056   1.598   3.818   1.846
 2719SOL    HW2 9057   1.686   3.941   1.909
 2720SOL     OW 9058   1.139   6.988   5.292
 2720SOL    HW1 9059   1.105   6.992   5.386
 2720SOL    HW2 9060   1.062   6.999   5.229
 2721SOL     OW 9061   2.802   5.366   1.714
 2721SOL    HW1 9062   2.735   5.326   1.651
 2721SOL    HW2 9063   2.886   5.311   1.713
 2722SOL     OW 9064   4.315   5.232   6.777
 2722SOL    HW1 9065   4.409   5.240   6.810
 2722SOL    HW2 9066   4.257   5.294   6.830
 2723SOL     OW 9067   3.383   6.647   0.673
 2723SOL    HW1 9068   3.466   6.608   0.712
 2723SOL    HW2 9069   3.303   6.607   0.718
 2724SOL     OW 9070   1.000   5.770   0.718
 2724SOL    HW1 9071   1.055   5.846   0.753
 2724SOL    HW2 9072   0.903   5.795   0.718
 2725SOL     OW 9073   5.448   3.302   4.628
 2725SOL    HW1 9074   5.389   3.371   4.670
 2725SOL    HW2 9075   5.427   3.212   4.668
 2726SOL     OW 9076   0.559   1.685   1.452
 2726SOL    HW1 9077   0.652   1.651   1.466
 2726SOL    HW2 9078   0.493   1.615   1.481
 2727SOL     OW 9079   2.042   4.060   4.625
 2727SOL    HW1 9080   2.113   4.070   4.555
 2727SOL    HW2 9081   2.034   3.963   4.651
 2728SOL     OW 9082   5.541   5.082   6.471
 2728SOL    HW1 9083   5.487   5.076   6.387
 2728SOL    HW2 9084   5.634   5.051   6.453
 2729SOL     OW 9085   5.398   6.213   6.146
 2729SOL    HW1 9086   5.455   6.131   6.143
 2729SOL    HW2 9087   5.348   6.222   6.060
 2730SOL     OW 9088   0.670   5.901   2.047
 2730SOL    HW1 9089   0.752   5.898   1.990
 2730SOL    HW2 9090   0.591   5.871   1.993
 2731SOL     OW 9091   3.049   3.183   3.798
 2731SOL    HW1 9092   3.081   3.094   3.765
 2731SOL    HW2 9093   3.113   3.219   3.865
 2732SOL     OW 9094   5.292   1.437   1.645
 2732SOL    HW1 9095   5.335   1.433   1.555
 2732SOL    HW2 9096   5.359   1.468   1.713
 2733SOL     OW 9097   0.416   0.472   5.803
 2733SOL    HW1 9098   0.338   0.445   5.746
 2733SOL    HW2 9099   0.500   0.464   5.750
 2734SOL     OW 9100   3.427   5.996   1.777
 2734SOL    HW1 9101   3.495   5.995   1.849
 2734SOL    HW2 9102   3.362   5.921   1.790
 2735SOL     OW 9103   1.241   1.965   1.167
 2735SOL    HW1 9104   1.183   2.008   1.235
 2735SOL    HW2 9105   1.305   1.903   1.212
 2736SOL     OW 9106   4.726   5.666   3.452
 2736SOL    HW1 9107   4.665   5.590   3.433
 2736SOL    HW2 9108   4.794   5.673   3.378
 2737SOL     OW 9109   2.885   2.002   6.374
 2737SOL    HW1 9110   2.963   1.947   6.405
 2737SOL    HW2 9111   2.901   2.032   6.280
 2738SOL     OW 9112   5.783   0.162   1.288
 2738SOL    HW1 9113   5.883   0.158   1.287
 2738SOL    HW2 9114   5.751   0.186   1.380
 2739SOL     OW 9115   0.720   5.593   2.134
 2739SOL    HW1 9116   0.711   5.692   2.138
 2739SOL    HW2 9117   0.646   5.555   2.079
 2740SOL     OW 9118   6.782   6.351   2.626
 2740SOL    HW1 9119   6.757   6.399   2.710
 2740SOL    HW2 9120   6.859   6.291   2.644
 2741SOL     OW 9121   1.248   2.347   4.417
 2741SOL    HW1 9122   1.192   2.280   4.369
 2741SOL    HW2 9123   1.324   2.300   4.463
 2742SOL     OW 9124   3.388   4.697   1.685
 2742SOL    HW1 9125   3.474   4.661   1.722
 2742SOL    HW2 9126   3.336   4.741   1.757
 2743SOL     OW 9127   6.356   4.572   2.287
 2743SOL    HW1 9128   6.289   4.619   2.230
 2743SOL    HW2 9129   6.375   4.482   2.247
 2744SOL     OW 9130   3.428   3.867   2.713
 2744SOL    HW1 9131   3.518   3.825   2.724
 2744SOL    HW2 9132   3.410   3.881   2.615
 2745SOL     OW 9133   6.800   1.056   5.685
 2745SOL    HW1 9134   6.832   1.151   5.689
 2745SOL    HW2 9135   6.732   1.047   5.612
 2746SOL     OW 9136   1.236   0.893   3.689
 2746SOL    HW1 9137   1.204   0.888   3.595
 2746SOL    HW2 9138   1.157   0.900   3.751
 2747SOL     OW 9139   3.633   6.063   1.005
 2747SOL    HW1 9140   3.595   5.970   1.007
 2747SOL    HW2 9141   3.708   6.066   0.939
 2748SOL     OW 9142   4.462   6.787   1.362
 2748SOL    HW1 9143   4.503   6.875   1.339
 2748SOL    HW2 9144   4.387   6.768   1.299
 2749SOL     OW 9145   2.319   3.270   0.677
 2749SOL    HW1 9146   2.309   3.188   0.620
 2749SOL    HW2 9147   2.407   3.267   0.724
 2750SOL     OW 9148   2.171   5.525   2.567
 2750SOL    HW1 9149   2.261   5.563   2.544
 2750SOL    HW2 9150   2.178   5.471   2.651
 2751SOL     OW 9151   1.217   2.697   1.510
 2751SOL    HW1 9152   1.302   2.692   1.561
 2751SOL    HW2 9153   1.160   2.772   1.545
 2752SOL     OW 9154   4.088   4.767   5.634
 2752SOL    HW1 9155   4.084   4.697   5.705
 2752SOL    HW2 9156   4.015   4.752   5.567
 2753SOL     OW 9157   6.101   6.441   5.154
 2753SOL    HW1 9158   6.078   6.403   5.244
 2753SOL    HW2 9159   6.034   6.412   5.087
 2754SOL     OW 9160   0.445   6.269   6.217
 2754SOL    HW1 9161   0.511   6.328   6.170
 2754SOL    HW2 9162   0.490   6.183   6.242
 2755SOL     OW 9163   2.714   6.627   3.339
 2755SOL    HW1 9164   2.780   6.696   3.311
 2755SOL    HW2 9165   2.690   6.570   3.261
 2756SOL     OW 9166   5.347   6.546   0.579
 2756SOL    HW1 9167   5.294   6.520   0.498
 2756SOL    HW2 9168   5.413   6.617   0.554
 2757SOL     OW 9169   0.774   4.845   1.747
 2757SOL    HW1 9170   0.684   4.888   1.741
 2757SOL    HW2 9171   0.763   4.747   1.764
 2758SOL     OW 9172   5.217   0.608   5.943
 2758SOL    HW1 9173   5.245   0.512   5.953
 2758SOL    HW2 9174   5.131   0.623   5.991
 2759SOL     OW 9175   5.707   6.340   4.130
 2759SOL    HW1 9176   5.698   6.332   4.031
 2759SOL    HW2 9177   5.620   6.373   4.169
 2760SOL     OW 9178   2.148   5.052   2.185
 2760SOL    HW1 9179   2.222   5.021   2.244
 2760SOL    HW2 9180   2.136   5.151   2.195
 2761SOL     OW 9181   1.292   5.816   3.533
 2761SOL    HW1 9182   1.252   5.901   3.566
 2761SOL    HW2 9183   1.389   5.830   3.513
 2762SOL     OW 9184   1.307   6.629   5.424
 2762SOL    HW1 9185   1.345   6.636   5.332
 2762SOL    HW2 9186   1.334   6.709   5.478
 2763SOL     OW 9187   5.769   2.416   3.888
 2763SOL    HW1 9188   5.769   2.503   3.839
 2763SOL    HW2 9189   5.775   2.341   3.822
 2764SOL     OW 9190   5.625   0.109   1.026
 2764SOL    HW1 9191   5.660   0.180   1.087
 2764SOL    HW2 9192   5.584   0.152   0.945
 2765SOL     OW 9193   5.514   1.460   1.849
 2765SOL    HW1 9194   5.491   1.380   1.904
 2765SOL    HW2 9195   5.614   1.467   1.840
 2766SOL     OW 9196   5.531   1.499   1.217
 2766SOL    HW1 9197   5.602   1.565   1.195
 2766SOL    HW2 9198   5.472   1.486   1.138
 2767SOL     OW 9199   5.877   4.066   6.107
 2767SOL    HW1 9200   5.876   4.098   6.013
 2767SOL    HW2 9201   5.905   3.970   6.110
 2768SOL     OW 9202   4.772   1.230   6.937
 2768SOL    HW1 9203   4.858   1.179   6.934
 2768SOL    HW2 9204   4.729   1.229   6.846
 2769SOL     OW 9205   6.805   4.088   2.451
 2769SOL    HW1 9206   6.763   4.008   2.494
 2769SOL    HW2 9207   6.896   4.103   2.490
 2770SOL     OW 9208   1.546   5.251   1.955
 2770SOL    HW1 9209   1.447   5.234   1.956
 2770SOL    HW2 9210   1.562   5.348   1.943
 2771SOL     OW 9211   5.368   1.976   1.227
 2771SOL    HW1 9212   5.395   1.892   1.180
 2771SOL    HW2 9213   5.283   2.011   1.185
 2772SOL     OW 9214   4.561   2.691   0.407
 2772SOL    HW1 9215   4.584   2.628   0.333
 2772SOL    HW2 9216   4.645   2.733   0.442
 2773SOL     OW 9217   4.429   3.861   6.007
 2773SOL    HW1 9218   4.415   3.960   6.001
 2773SOL    HW2 9219   4.457   3.837   6.100
 2774SOL     OW 9220   5.873   2.773   2.031
 2774SOL    HW1 9221   5.874   2.724   1.944
 2774SOL    HW2 9222   5.938   2.849   2.027
 2775SOL     OW 9223   0.180   5.383   1.220
 2775SOL    HW1 9224   0.156   5.286   1.222
 2775SOL    HW2 9225   0.110   5.436   1.268
 2776SOL     OW 9226   3.740   6.383   5.563
 2776SOL    HW1 9227   3.773   6.388   5.657
 2776SOL    HW2 9228   3.666   6.316   5.557
 2777SOL     OW 9229   3.093   1.212   2.375
 2777SOL    HW1 9230   3.071   1.184   2.281
 2777SOL    HW2 9231   3.188   1.189   2.395
 2778SOL     OW 9232   2.443   2.028   5.522
 2778SOL    HW1 9233   2.522   2.001   5.577
 2778SOL    HW2 9234   2.369   1.963   5.537
 2779SOL     OW 9235   5.141   0.033   0.142
 2779SOL    HW1 9236   5.152   0.093   0.221
 2779SOL    HW2 9237   5.057   0.058   0.093
 2780SOL     OW 9238   4.625   5.512   6.192
 2780SOL    HW1 9239   4.700   5.451   6.219
 2780SOL    HW2 9240   4.656   5.607   6.196
 2781SOL     OW 9241   5.940   4.569   1.890
 2781SOL    HW1 9242   5.996   4.646   1.860
 2781SOL    HW2 9243   5.952   4.492   1.827
 2782SOL     OW 9244   3.175   2.804   6.620
 2782SOL    HW1 9245   3.160   2.715   6.662
 2782SOL    HW2 9246   3.252   2.798   6.556
 2783SOL     OW 9247   6.647   4.283   5.481
 2783SOL    HW1 9248   6.555   4.245   5.469
 2783SOL    HW2 9249   6.689   4.295   5.391
 2784SOL     OW 9250   1.890   2.898   1.515
 2784SOL    HW1 9251   1.827   2.937   1.447
 2784SOL    HW2 9252   1.915   2.806   1.488
 2785SOL     OW 9253   6.463   1.101   0.191
 2785SOL    HW1 9254   6.426   1.009   0.202
 2785SOL    HW2 9255   6.562   1.098   0.202
 2786SOL     OW 9256   4.133   6.410   0.664
 2786SOL    HW1 9257   4.172   6.462   0.588
 2786SOL    HW2 9258   4.077   6.336   0.628
 2787SOL     OW 9259   1.883   3.490   6.147
 2787SOL    HW1 9260   1.839   3.577   6.125
 2787SOL    HW2 9261   1.873   3.427   6.070
 2788SOL     OW 9262   2.564   4.039   0.356
 2788SOL    HW1 9263   2.507   3.959   0.375
 2788SOL    HW2 9264   2.522   4.120   0.396
 2789SOL     OW 9265   1.253   1.786   3.502
 2789SOL    HW1 9266   1.272   1.868   3.448
 2789SOL    HW2 9267   1.323   1.717   3.483
 2790SOL     OW 9268   3.418   5.156   3.181
 2790SOL    HW1 9269   3.319   5.169   3.182
 2790SOL    HW2 9270   3.461   5.217   3.248
 2791SOL     OW 9271   1.641   4.034   5.333
 2791SOL    HW1 9272   1.658   4.132   5.345
 2791SOL    HW2 9273   1.599   4.018   5.244
 2792SOL     OW 9274   1.283   1.045   5.038
 2792SOL    HW1 9275   1.199   1.093   5.014
 2792SOL    HW2 9276   1.268   0.989   5.119
 2793SOL     OW 9277   5.140   1.417   2.611
 2793SOL    HW1 9278   5.047   1.437   2.581
 2793SOL    HW2 9279   5.200   1.493   2.586
 2794SOL     OW 9280   0.495   2.268   0.056
 2794SOL    HW1 9281   0.522   2.315   6.998
 2794SOL    HW2 9282   0.552   2.301   0.132
 2795SOL     OW 9283   3.103   4.081   1.214
 2795SOL    HW1 9284   3.126   3.989   1.246
 2795SOL    HW2 9285   3.041   4.124   1.279
 2796SOL     OW 9286   5.999   3.724   2.475
 2796SOL    HW1 9287   5.928   3.677   2.423
 2796SOL    HW2 9288   5.957   3.795   2.533
 2797SOL     OW 9289   5.275   5.328   4.750
 2797SOL    HW1 9290   5.181   5.296   4.735
 2797SOL    HW2 9291   5.289   5.345   4.847
 2798SOL     OW 9292   0.715   3.887   3.426
 2798SOL    HW1 9293   0.682   3.901   3.333
 2798SOL    HW2 9294   0.733   3.976   3.469
 2799SOL     OW 9295   0.114   5.534   6.337
 2799SOL    HW1 9296   0.165   5.605   6.288
 2799SOL    HW2 9297   0.073   5.574   6.420
 2800SOL     OW 9298   4.464   5.057   0.108
 2800SOL    HW1 9299   4.373   5.100   0.114
 2800SOL    HW2 9300   4.499   5.067   0.015
 2801SOL     OW 9301   5.168   5.212   2.229
 2801SOL    HW1 9302   5.099   5.245   2.165
 2801SOL    HW2 9303   5.126   5.192   2.317
 2802SOL     OW 9304   3.775   1.818   5.969
 2802SOL    HW1 9305   3.686   1.832   6.013
 2802SOL    HW2 9306   3.767   1.836   5.871
 2803SOL     OW 9307   2.439   6.279   6.374
 2803SOL    HW1 9308   2.478   6.341   6.442
 2803SOL    HW2 9309   2.512   6.232   6.325
 2804SOL     OW 9310   6.756   4.791   3.396
 2804SOL    HW1 9311   6.666   4.831   3.379
 2804SOL    HW2 9312   6.794   4.830   3.480
 2805SOL     OW 9313   5.163   3.247   1.290
 2805SOL    HW1 9314   5.077   3.246   1.238
 2805SOL    HW2 9315   5.162   3.174   1.358
 2806SOL     OW 9316   6.155   5.317   2.904
 2806SOL    HW1 9317   6.227   5.386   2.900
 2806SOL    HW2 9318   6.077   5.347   2.849
 2807SOL     OW 9319   4.606   4.586   3.623
 2807SOL    HW1 9320   4.663   4.545   3.551
 2807SOL    HW2 9321   4.598   4.523   3.700
 2808SOL     OW 9322   5.145   1.325   3.301
 2808SOL    HW1 9323   5.198   1.395   3.348
 2808SOL    HW2 9324   5.206   1.255   3.265
 2809SOL     OW 9325   6.241   2.353   1.185
 2809SOL    HW1 9326   6.146   2.345   1.217
 2809SOL    HW2 9327   6.244   2.411   1.104
 2810SOL     OW 9328   2.819   6.674   5.609
 2810SOL    HW1 9329   2.751   6.716   5.549
 2810SOL    HW2 9330   2.862   6.597   5.562
 2811SOL     OW 9331   0.603   0.887   2.703
 2811SOL    HW1 9332   0.533   0.859   2.638
 2811SOL    HW2 9333   0.692   0.853   2.673
 2812SOL     OW 9334   5.040   3.439   2.477
 2812SOL    HW1 9335   4.991   3.512   2.429
 2812SOL    HW2 9336   5.138   3.451   2.464
 2813SOL     OW 9337   5.623   6.782   5.403
 2813SOL    HW1 9338   5.559   6.774   5.479
 2813SOL    HW2 9339   5.576   6.758   5.318
 2814SOL     OW 9340   4.069   4.247   5.796
 2814SOL    HW1 9341   4.128   4.327   5.808
 2814SOL    HW2 9342   3.985   4.274   5.750
 2815SOL     OW 9343   6.412   1.269   4.336
 2815SOL    HW1 9344   6.389   1.173   4.352
 2815SOL    HW2 9345   6.371   1.325   4.409
 2816SOL     OW 9346   6.020   6.792   3.718
 2816SOL    HW1 9347   5.956   6.859   3.756
 2816SOL    HW2 9348   5.972   6.734   3.652
 2817SOL     OW 9349   1.664   1.065   1.355
 2817SOL    HW1 9350   1.743   1.023   1.399
 2817SOL    HW2 9351   1.636   1.146   1.406
 2818SOL     OW 9352   6.878   5.081   6.274
 2818SOL    HW1 9353   6.796   5.027   6.292
 2818SOL    HW2 9354   6.892   5.088   6.175
 2819SOL     OW 9355   0.210   2.222   0.356
 2819SOL    HW1 9356   0.116   2.227   0.324
 2819SOL    HW2 9357   0.269   2.189   0.283
 2820SOL     OW 9358   0.135   2.479   2.552
 2820SOL    HW1 9359   0.176   2.539   2.483
 2820SOL    HW2 9360   0.204   2.457   2.622
 2821SOL     OW 9361   2.187   4.252   5.887
 2821SOL    HW1 9362   2.155   4.342   5.858
 2821SOL    HW2 9363   2.234   4.206   5.811
 2822SOL     OW 9364   4.646   2.535   0.217
 2822SOL    HW1 9365   4.627   2.449   0.263
 2822SOL    HW2 9366   4.596   2.538   0.130
 2823SOL     OW 9367   2.629   6.649   2.536
 2823SOL    HW1 9368   2.536   6.611   2.536
 2823SOL    HW2 9369   2.643   6.702   2.452
 2824SOL     OW 9370   2.599   1.319   5.158
 2824SOL    HW1 9371   2.575   1.413   5.133
 2824SOL    HW2 9372   2.515   1.266   5.171
 2825SOL     OW 9373   6.862   6.681   0.871
 2825SOL    HW1 9374   6.866   6.593   0.918
 2825SOL    HW2 9375   6.883   6.754   0.936
 2826SOL     OW 9376   5.433   1.926   5.414
 2826SOL    HW1 9377   5.351   1.956   5.463
 2826SOL    HW2 9378   5.463   1.839   5.451
 2827SOL     OW 9379   6.535   1.523   4.976
 2827SOL    HW1 9380   6.483   1.466   4.913
 2827SOL    HW2 9381   6.493   1.614   4.979
 2828SOL     OW 9382   3.769   0.885   6.213
 2828SOL    HW1 9383   3.817   0.841   6.137
 2828SOL    HW2 9384   3.671   0.874   6.200
 2829SOL     OW 9385   4.094   5.466   6.479
 2829SOL    HW1 9386   4.000   5.476   6.447
 2829SOL    HW2 9387   4.155   5.520   6.421
 2830SOL     OW 9388   5.942   3.480   6.399
 2830SOL    HW1 9389   5.973   3.570   6.431
 2830SOL    HW2 9390   5.943   3.415   6.475
 2831SOL     OW 9391   5.943   6.351   4.397
 2831SOL    HW1 9392   5.872   6.317   4.335
 2831SOL    HW2 9393   6.004   6.276   4.421
 2832SOL     OW 9394   0.032   1.432   1.395
 2832SOL    HW1 9395   0.002   1.360   1.457
 2832SOL    HW2 9396   0.081   1.391   1.317
 2833SOL     OW 9397   6.030   1.979   2.067
 2833SOL    HW1 9398   6.116   2.015   2.031
 2833SOL    HW2 9399   6.015   2.015   2.159
 2834SOL     OW 9400   3.141   1.477   6.731
 2834SOL    HW1 9401   3.042   1.467   6.724
 2834SOL    HW2 9402   3.183   1.387   6.723
 2835SOL     OW 9403   0.457   6.816   1.851
 2835SOL    HW1 9404   0.389   6.890   1.850
 2835SOL    HW2 9405   0.515   6.824   1.770
 2836SOL     OW 9406   6.846   6.863   1.584
 2836SOL    HW1 9407   6.873   6.767   1.596
 2836SOL    HW2 9408   6.897   6.921   1.647
 2837SOL     OW 9409   5.372   2.984   3.027
 2837SOL    HW1 9410   5.459   3.029   3.051
 2837SOL    HW2 9411   5.296   3.044   3.050
 2838SOL     OW 9412   2.565   4.576   1.793
 2838SOL    HW1 9413   2.536   4.671   1.780
 2838SOL    HW2 9414   2.642   4.573   1.857
 2839SOL     OW 9415   5.782   1.484   2.138
 2839SOL    HW1 9416   5.781   1.472   2.039
 2839SOL    HW2 9417   5.737   1.569   2.162
 2840SOL     OW 9418   0.374   1.353   4.847
 2840SOL    HW1 9419   0.358   1.300   4.930
 2840SOL    HW2 9420   0.448   1.310   4.794
 2841SOL     OW 9421   0.822   6.382   0.303
 2841SOL    HW1 9422   0.807   6.286   0.325
 2841SOL    HW2 9423   0.901   6.390   0.241
 2842SOL     OW 9424   6.920   3.525   3.545
 2842SOL    HW1 9425   6.957   3.480   3.464
 2842SOL    HW2 9426   6.929   3.465   3.624
 2843SOL     OW 9427   3.270   1.332   4.022
 2843SOL    HW1 9428   3.208   1.287   3.958
 2843SOL    HW2 9429   3.331   1.264   4.063
 2844SOL     OW 9430   1.087   4.112   0.104
 2844SOL    HW1 9431   1.065   4.147   0.195
 2844SOL    HW2 9432   1.014   4.050   0.074
 2845SOL     OW 9433   0.775   3.861   0.264
 2845SOL    HW1 9434   0.865   3.825   0.289
 2845SOL    HW2 9435   0.785   3.926   0.189
 2846SOL     OW 9436   5.000   1.706   6.740
 2846SOL    HW1 9437   4.913   1.729   6.783
 2846SOL    HW2 9438   5.003   1.748   6.649
 2847SOL     OW 9439   6.037   3.775   3.806
 2847SOL    HW1 9440   6.080   3.826   3.731
 2847SOL    HW2 9441   5.950   3.818   3.829
 2848SOL     OW 9442   0.352   4.517   5.465
 2848SOL    HW1 9443   0.279   4.582   5.484
 2848SOL    HW2 9444   0.428   4.534   5.528
 2849SOL     OW 9445   3.561   0.918   0.476
 2849SOL    HW1 9446   3.612   0.993   0.519
 2849SOL    HW2 9447   3.572   0.923   0.377
 2850SOL     OW 9448   3.213   0.486   1.428
 2850SOL    HW1 9449   3.222   0.507   1.525
 2850SOL    HW2 9450   3.301   0.499   1.382
 2851SOL     OW 9451   1.229   4.861   5.097
 2851SOL    HW1 9452   1.271   4.774   5.124
 2851SOL    HW2 9453   1.218   4.920   5.178
 2852SOL     OW 9454   5.902   3.703   6.648
 2852SOL    HW1 9455   5.942   3.717   6.557
 2852SOL    HW2 9456   5.970   3.722   6.718
 2853SOL     OW 9457   3.097   2.601   0.734
 2853SOL    HW1 9458   3.171   2.566   0.677
 2853SOL    HW2 9459   3.098   2.555   0.823
 2854SOL     OW 9460   2.577   0.921   4.103
 2854SOL    HW1 9461   2.483   0.909   4.133
 2854SOL    HW2 9462   2.613   0.834   4.069
 2855SOL     OW 9463   2.140   0.743   6.157
 2855SOL    HW1 9464   2.044   0.753   6.185
 2855SOL    HW2 9465   2.146   0.677   6.083
 2856SOL     OW 9466   2.344   2.774   5.896
 2856SOL    HW1 9467   2.406   2.759   5.973
 2856SOL    HW2 9468   2.357   2.702   5.828
 2857SOL     OW 9469   2.941   1.769   1.578
 2857SOL    HW1 9470   3.036   1.759   1.548
 2857SOL    HW2 9471   2.895   1.837   1.521
 2858SOL     OW 9472   6.647   2.595   2.291
 2858SOL    HW1 9473   6.593   2.526   2.339
 2858SOL    HW2 9474   6.689   2.656   2.358
 2859SOL     OW 9475   4.962   0.961   0.869
 2859SOL    HW1 9476   5.010   0.964   0.957
 2859SOL    HW2 9477   4.969   0.869   0.831
 2860SOL     OW 9478   4.052   1.582   1.692
 2860SOL    HW1 9479   4.106   1.656   1.731
 2860SOL    HW2 9480   4.042   1.508   1.759
 2861SOL     OW 9481   4.640   5.508   5.656
 2861SOL    HW1 9482   4.588   5.428   5.687
 2861SOL    HW2 9483   4.596   5.548   5.576
 2862SOL     OW 9484   5.648   2.137   3.867
 2862SOL    HW1 9485   5.651   2.083   3.951
 2862SOL    HW2 9486   5.705   2.092   3.797
 2863SOL     OW 9487   6.412   1.889   0.275
 2863SOL    HW1 9488   6.371   1.936   0.354
 2863SOL    HW2 9489   6.494   1.938   0.246
 2864SOL     OW 9490   3.857   0.774   0.973
 2864SOL    HW1 9491   3.858   0.819   1.063
 2864SOL    HW2 9492   3.863   0.843   0.901
 2865SOL     OW 9493   4.553   4.278   5.302
 2865SOL    HW1 9494   4.595   4.367   5.320
 2865SOL    HW2 9495   4.459   4.278   5.337
 2866SOL     OW 9496   6.647   6.278   6.706
 2866SOL    HW1 9497   6.659   6.359   6.647
 2866SOL    HW2 9498   6.631   6.198   6.649
 2867SOL     OW 9499   6.181   4.202   2.156
 2867SOL    HW1 9500   6.165   4.130   2.223
 2867SOL    HW2 9501   6.278   4.229   2.158
 2868SOL     OW 9502   0.266   3.791   5.547
 2868SOL    HW1 9503   0.190   3.750   5.496
 2868SOL    HW2 9504   0.251   3.778   5.645
 2869SOL     OW 9505   6.725   0.643   2.368
 2869SOL    HW1 9506   6.647   0.626   2.308
 2869SOL    HW2 9507   6.704   0.720   2.429
 2870SOL     OW 9508   6.716   2.037   3.881
 2870SOL    HW1 9509   6.732   1.975   3.804
 2870SOL    HW2 9510   6.729   2.131   3.852
 2871SOL     OW 9511   2.018   1.908   6.635
 2871SOL    HW1 9512   2.009   1.820   6.682
 2871SOL    HW2 9513   2.075   1.896   6.554
 2872SOL     OW 9514   2.795   1.703   3.887
 2872SOL    HW1 9515   2.873   1.661   3.933
 2872SOL    HW2 9516   2.773   1.790   3.932
 2873SOL     OW 9517   0.392   5.883   2.675
 2873SOL    HW1 9518   0.442   5.952   2.728
 2873SOL    HW2 9519   0.296   5.911   2.666
 2874SOL     OW 9520   5.050   4.143   2.126
 2874SOL    HW1 9521   5.080   4.053   2.094
 2874SOL    HW2 9522   4.969   4.171   2.075
 2875SOL     OW 9523   3.962   6.583   6.079
 2875SOL    HW1 9524   3.868   6.559   6.103
 2875SOL    HW2 9525   4.025   6.538   6.143
 2876SOL     OW 9526   0.825   0.888   1.815
 2876SOL    HW1 9527   0.867   0.969   1.855
 2876SOL    HW2 9528   0.881   0.808   1.835
 2877SOL     OW 9529   3.228   2.814   5.328
 2877SOL    HW1 9530   3.141   2.862   5.312
 2877SOL    HW2 9531   3.303   2.880   5.327
 2878SOL     OW 9532   2.483   4.849   5.058
 2878SOL    HW1 9533   2.503   4.947   5.056
 2878SOL    HW2 9534   2.547   4.802   5.119
 2879SOL     OW 9535   5.204   5.225   6.855
 2879SOL    HW1 9536   5.248   5.217   6.765
 2879SOL    HW2 9537   5.251   5.294   6.910
 2880SOL     OW 9538   6.756   6.016   0.591
 2880SOL    HW1 9539   6.716   6.015   0.500
 2880SOL    HW2 9540   6.806   6.102   0.605
 2881SOL     OW 9541   6.565   6.038   1.177
 2881SOL    HW1 9542   6.527   6.050   1.086
 2881SOL    HW2 9543   6.624   5.957   1.178
 2882SOL     OW 9544   0.653   3.596   2.599
 2882SOL    HW1 9545   0.573   3.572   2.655
 2882SOL    HW2 9546   0.734   3.550   2.636
 2883SOL     OW 9547   3.461   6.830   3.561
 2883SOL    HW1 9548   3.407   6.902   3.516
 2883SOL    HW2 9549   3.481   6.758   3.495
 2884SOL     OW 9550   0.883   6.840   3.380
 2884SOL    HW1 9551   0.907   6.746   3.356
 2884SOL    HW2 9552   0.796   6.864   3.338
 2885SOL     OW 9553   0.200   2.443   2.878
 2885SOL    HW1 9554   0.103   2.439   2.902
 2885SOL    HW2 9555   0.252   2.383   2.939
 2886SOL     OW 9556   1.866   2.613   6.979
 2886SOL    HW1 9557   1.836   2.526   6.941
 2886SOL    HW2 9558   1.871   2.682   6.907
 2887SOL     OW 9559   2.721   0.079   5.132
 2887SOL    HW1 9560   2.766   0.088   5.043
 2887SOL    HW2 9561   2.744   7.015   5.172
 2888SOL     OW 9562   0.006   4.750   6.257
 2888SOL    HW1 9563   0.054   4.677   6.305
 2888SOL    HW2 9564   0.042   4.839   6.286
 2889SOL     OW 9565   1.915   0.794   1.610
 2889SOL    HW1 9566   1.905   0.715   1.548
 2889SOL    HW2 9567   1.947   0.762   1.699
 2890SOL     OW 9568   3.429   0.599   1.294
 2890SOL    HW1 9569   3.494   0.551   1.235
 2890SOL    HW2 9570   3.378   0.666   1.239
 2891SOL     OW 9571   2.336   4.716   3.420
 2891SOL    HW1 9572   2.267   4.644   3.412
 2891SOL    HW2 9573   2.408   4.686   3.483
 2892SOL     OW 9574   3.915   4.032   6.693
 2892SOL    HW1 9575   3.904   4.130   6.675
 2892SOL    HW2 9576   3.895   4.012   6.789
 2893SOL     OW 9577   1.893   6.574   6.000
 2893SOL    HW1 9578   1.918   6.612   6.089
 2893SOL    HW2 9579   1.900   6.474   6.004
 2894SOL     OW 9580   2.659   2.768   6.900
 2894SOL    HW1 9581   2.735   2.751   6.962
 2894SOL    HW2 9582   2.635   2.865   6.902
 2895SOL     OW 9583   3.765   3.287   6.722
 2895SOL    HW1 9584   3.843   3.274   6.660
 2895SOL    HW2 9585   3.736   3.198   6.757
 2896SOL     OW 9586   2.765   5.416   0.390
 2896SOL    HW1 9587   2.696   5.353   0.425
 2896SOL    HW2 9588   2.852   5.400   0.437
 2897SOL     OW 9589   2.250   6.652   3.898
 2897SOL    HW1 9590   2.317   6.639   3.971
 2897SOL    HW2 9591   2.296   6.675   3.813
 2898SOL     OW 9592   4.242   5.255   2.605
 2898SOL    HW1 9593   4.319   5.194   2.625
 2898SOL    HW2 9594   4.176   5.250   2.680
 2899SOL     OW 9595   6.692   0.508   6.560
 2899SOL    HW1 9596   6.594   0.526   6.558
 2899SOL    HW2 9597   6.740   0.591   6.590
 2900SOL     OW 9598   1.326   4.830   5.753
 2900SOL    HW1 9599   1.392   4.843   5.678
 2900SOL    HW2 9600   1.310   4.732   5.766
 2901SOL     OW 9601   2.407   0.859   2.283
 2901SOL    HW1 9602   2.416   0.901   2.373
 2901SOL    HW2 9603   2.446   0.921   2.214
 2902SOL     OW 9604   5.221   6.006   0.645
 2902SOL    HW1 9605   5.167   6.028   0.563
 2902SOL    HW2 9606   5.203   5.911   0.671
 2903SOL     OW 9607   3.564   0.753   2.182
 2903SOL    HW1 9608   3.520   0.833   2.222
 2903SOL    HW2 9609   3.512   0.671   2.205
 2904SOL     OW 9610   2.438   3.292   5.351
 2904SOL    HW1 9611   2.487   3.210   5.320
 2904SOL    HW2 9612   2.356   3.304   5.296
 2905SOL     OW 9613   1.351   1.158   2.544
 2905SOL    HW1 9614   1.445   1.187   2.526
 2905SOL    HW2 9615   1.302   1.144   2.458
 2906SOL     OW 9616   5.481   5.415   1.873
 2906SOL    HW1 9617   5.415   5.349   1.837
 2906SOL    HW2 9618   5.466   5.427   1.971
 2907SOL     OW 9619   7.018   1.637   5.053
 2907SOL    HW1 9620   6.955   1.702   5.096
 2907SOL    HW2 9621   6.979   1.605   4.967
 2908SOL     OW 9622   3.611   6.671   4.367
 2908SOL    HW1 9623   3.572   6.631   4.284
 2908SOL    HW2 9624   3.649   6.761   4.345
 2909SOL     OW 9625   0.763   5.325   4.547
 2909SOL    HW1 9626   0.840   5.261   4.548
 2909SOL    HW2 9627   0.794   5.413   4.509
 2910SOL     OW 9628   2.875   6.426   5.473
 2910SOL    HW1 9629   2.801   6.400   5.412
 2910SOL    HW2 9630   2.939   6.350   5.483
 2911SOL     OW 9631   2.553   5.056   3.286
 2911SOL    HW1 9632   2.591   4.978   3.236
 2911SOL    HW2 9633   2.575   5.141   3.238
 2912SOL     OW 9634   3.069   5.612   0.143
 2912SOL    HW1 9635   3.096   5.701   0.106
 2912SOL    HW2 9636   3.141   5.545   0.124
 2913SOL     OW 9637   1.387   3.662   2.026
 2913SOL    HW1 9638   1.452   3.639   1.953
 2913SOL    HW2 9639   1.437   3.703   2.103
 2914SOL     OW 9640   5.593   4.665   5.575
 2914SOL    HW1 9641   5.508   4.718   5.574
 2914SOL    HW2 9642   5.667   4.719   5.615
 2915SOL     OW 9643   4.248   1.476   4.188
 2915SOL    HW1 9644   4.260   1.384   4.151
 2915SOL    HW2 9645   4.190   1.472   4.269
 2916SOL     OW 9646   6.202   4.410   5.474
 2916SOL    HW1 9647   6.143   4.365   5.540
 2916SOL    HW2 9648   6.173   4.386   5.381
 2917SOL     OW 9649   4.448   0.180   0.830
 2917SOL    HW1 9650   4.408   0.272   0.833
 2917SOL    HW2 9651   4.386   0.119   0.781
 2918SOL     OW 9652   0.433   3.431   3.219
 2918SOL    HW1 9653   0.488   3.483   3.285
 2918SOL    HW2 9654   0.490   3.407   3.140
 2919SOL     OW 9655   6.341   6.989   0.042
 2919SOL    HW1 9656   6.440   6.981   0.029
 2919SOL    HW2 9657   6.309   0.050   0.003
 2920SOL     OW 9658   3.554   2.083   2.519
 2920SOL    HW1 9659   3.534   2.003   2.462
 2920SOL    HW2 9660   3.649   2.111   2.505
 2921SOL     OW 9661   0.263   1.353   2.296
 2921SOL    HW1 9662   0.204   1.336   2.216
 2921SOL    HW2 9663   0.230   1.434   2.344
 2922SOL     OW 9664   5.110   6.756   5.749
 2922SOL    HW1 9665   5.034   6.735   5.811
 2922SOL    HW2 9666   5.191   6.777   5.803
 2923SOL     OW 9667   6.943   5.077   2.457
 2923SOL    HW1 9668   6.910   5.104   2.548
 2923SOL    HW2 9669   6.942   4.978   2.449
 2924SOL     OW 9670   1.132   1.383   5.840
 2924SOL    HW1 9671   1.075   1.318   5.789
 2924SOL    HW2 9672   1.128   1.472   5.795
 2925SOL     OW 9673   5.905   2.428   2.484
 2925SOL    HW1 9674   5.914   2.528   2.487
 2925SOL    HW2 9675   5.931   2.395   2.393
 2926SOL     OW 9676   0.193   1.787   4.942
 2926SOL    HW1 9677   0.117   1.728   4.968
 2926SOL    HW2 9678   0.175   1.880   4.975
 2927SOL     OW 9679   1.031   2.581   2.311
 2927SOL    HW1 9680   1.034   2.507   2.244
 2927SOL    HW2 9681   1.124   2.616   2.327
 2928SOL     OW 9682   6.826   0.796   6.784
 2928SOL    HW1 9683   6.759   0.725   6.807
 2928SOL    HW2 9684   6.781   0.886   6.786
 2929SOL     OW 9685   0.427   0.778   6.213
 2929SOL    HW1 9686   0.363   0.715   6.257
 2929SOL    HW2 9687   0.519   0.766   6.252
 2930SOL     OW 9688   5.196   0.505   4.792
 2930SOL    HW1 9689   5.208   0.407   4.778
 2930SOL    HW2 9690   5.249   0.533   4.873
 2931SOL     OW 9691   4.698   6.075   6.457
 2931SOL    HW1 9692   4.778   6.018   6.439
 2931SOL    HW2 9693   4.720   6.170   6.436
 2932SOL     OW 9694   1.399   4.499   1.826
 2932SOL    HW1 9695   1.394   4.482   1.924
 2932SOL    HW2 9696   1.309   4.529   1.793
 2933SOL     OW 9697   5.441   2.514   4.112
 2933SOL    HW1 9698   5.469   2.609   4.128
 2933SOL    HW2 9699   5.344   2.504   4.134
 2934SOL     OW 9700   3.907   6.896   0.481
 2934SOL    HW1 9701   3.893   6.990   0.451
 2934SOL    HW2 9702   3.946   6.842   0.406
 2935SOL     OW 9703   6.606   3.281   1.220
 2935SOL    HW1 9704   6.696   3.278   1.263
 2935SOL    HW2 9705   6.536   3.263   1.288
 2936SOL     OW 9706   4.725   5.803   0.722
 2936SOL    HW1 9707   4.728   5.729   0.655
 2936SOL    HW2 9708   4.633   5.843   0.723
 2937SOL     OW 9709   3.336   5.290   1.106
 2937SOL    HW1 9710   3.264   5.331   1.051
 2937SOL    HW2 9711   3.369   5.206   1.062
 2938SOL     OW 9712   4.905   5.042   5.250
 2938SOL    HW1 9713   4.935   4.950   5.274
 2938SOL    HW2 9714   4.808   5.041   5.228
 2939SOL     OW 9715   5.755   0.117   4.826
 2939SOL    HW1 9716   5.772   0.161   4.738
 2939SOL    HW2 9717   5.803   0.029   4.828
 2940SOL     OW 9718   5.311   6.769   5.205
 2940SOL    HW1 9719   5.370   6.845   5.177
 2940SOL    HW2 9720   5.219   6.803   5.226
 2941SOL     OW 9721   1.354   2.316   5.249
 2941SOL    HW1 9722   1.404   2.383   5.303
 2941SOL    HW2 9723   1.397   2.226   5.260
 2942SOL     OW 9724   3.086   0.285   2.350
 2942SOL    HW1 9725   3.141   0.274   2.268
 2942SOL    HW2 9726   3.018   0.357   2.335
 2943SOL     OW 9727   5.725   2.811   2.637
 2943SOL    HW1 9728   5.698   2.886   2.577
 2943SOL    HW2 9729   5.643   2.766   2.673
 2944SOL     OW 9730   3.322   5.152   5.806
 2944SOL    HW1 9731   3.407   5.114   5.844
 2944SOL    HW2 9732   3.263   5.182   5.880
 2945SOL     OW 9733   3.908   3.124   3.297
 2945SOL    HW1 9734   3.830   3.093   3.241
 2945SOL    HW2 9735   3.965   3.186   3.243
 2946SOL     OW 9736   6.515   6.209   5.573
 2946SOL    HW1 9737   6.572   6.128   5.559
 2946SOL    HW2 9738   6.442   6.187   5.637
 2947SOL     OW 9739   6.644   3.851   6.266
 2947SOL    HW1 9740   6.655   3.758   6.230
 2947SOL    HW2 9741   6.549   3.881   6.252
 2948SOL     OW 9742   6.595   3.238   5.780
 2948SOL    HW1 9743   6.589   3.148   5.825
 2948SOL    HW2 9744   6.550   3.233   5.691
 2949SOL     OW 9745   1.497   6.435   1.074
 2949SOL    HW1 9746   1.562   6.371   1.033
 2949SOL    HW2 9747   1.438   6.472   1.002
 2950SOL     OW 9748   5.523   3.491   4.128
 2950SOL    HW1 9749   5.600   3.554   4.132
 2950SOL    HW2 9750   5.440   3.541   4.102
 2951SOL     OW 9751   7.015   2.121   0.027
 2951SOL    HW1 9752   6.934   2.156   7.005
 2951SOL    HW2 9753   0.038   2.198   0.069
 2952SOL     OW 9754   0.784   4.541   3.000
 2952SOL    HW1 9755   0.863   4.509   3.052
 2952SOL    HW2 9756   0.802   4.631   2.961
 2953SOL     OW 9757   4.763   2.418   2.266
 2953SOL    HW1 9758   4.810   2.378   2.187
 2953SOL    HW2 9759   4.788   2.514   2.275
 2954SOL     OW 9760   0.671   6.317   1.893
 2954SOL    HW1 9761   0.633   6.240   1.945
 2954SOL    HW2 9762   0.667   6.400   1.949
 2955SOL     OW 9763   0.572   3.215   0.618
 2955SOL    HW1 9764   0.587   3.197   0.521
 2955SOL    HW2 9765   0.581   3.130   0.670
 2956SOL     OW 9766   0.218   5.900   2.960
 2956SOL    HW1 9767   0.264   5.813   2.977
 2956SOL    HW2 9768   0.158   5.921   3.038
 2957SOL     OW 9769   0.498   3.874   0.593
 2957SOL    HW1 9770   0.590   3.837   0.587
 2957SOL    HW2 9771   0.484   3.941   0.520
 2958SOL     OW 9772   1.637   4.430   6.157
 2958SOL    HW1 9773   1.704   4.467   6.094
 2958SOL    HW2 9774   1.662   4.335   6.180
 2959SOL     OW 9775   5.714   4.658   5.947
 2959SOL    HW1 9776   5.747   4.714   5.871
 2959SOL    HW2 9777   5.639   4.599   5.914
 2960SOL     OW 9778   2.971   1.544   0.521
 2960SOL    HW1 9779   2.983   1.574   0.616
 2960SOL    HW2 9780   2.875   1.549   0.496
 2961SOL     OW 9781   5.570   3.711   4.785
 2961SOL    HW1 9782   5.506   3.637   4.806
 2961SOL    HW2 9783   5.606   3.750   4.870
 2962SOL     OW 9784   4.827   1.489   3.896
 2962SOL    HW1 9785   4.883   1.449   3.968
 2962SOL    HW2 9786   4.744   1.434   3.883
 2963SOL     OW 9787   2.075   1.933   5.943
 2963SOL    HW1 9788   2.174   1.942   5.955
 2963SOL    HW2 9789   2.050   1.836   5.943
 2964SOL     OW 9790   1.647   0.065   1.904
 2964SOL    HW1 9791   1.697   0.128   1.963
 2964SOL    HW2 9792   1.575   0.116   1.855
 2965SOL     OW 9793   0.498   0.675   5.086
 2965SOL    HW1 9794   0.422   0.736   5.109
 2965SOL    HW2 9795   0.503   0.665   4.986
 2966SOL     OW 9796   5.270   4.179   3.444
 2966SOL    HW1 9797   5.345   4.231   3.483
 2966SOL    HW2 9798   5.277   4.084   3.471
 2967SOL     OW 9799   5.859   2.474   3.338
 2967SOL    HW1 9800   5.939   2.511   3.385
 2967SOL    HW2 9801   5.788   2.545   3.333
 2968SOL     OW 9802   0.811   3.885   5.029
 2968SOL    HW1 9803   0.815   3.786   5.042
 2968SOL    HW2 9804   0.833   3.907   4.934
 2969SOL     OW 9805   5.530   1.893   4.915
 2969SOL    HW1 9806   5.458   1.847   4.967
 2969SOL    HW2 9807   5.598   1.930   4.977
 2970SOL     OW 9808   1.195   4.780   6.691
 2970SOL    HW1 9809   1.237   4.690   6.698
 2970SOL    HW2 9810   1.267   4.850   6.685
 2971SOL     OW 9811   5.944   3.293   3.984
 2971SOL    HW1 9812   5.887   3.252   4.056
 2971SOL    HW2 9813   5.932   3.243   3.899
 2972SOL     OW 9814   6.305   3.577   6.600
 2972SOL    HW1 9815   6.243   3.591   6.523
 2972SOL    HW2 9816   6.378   3.645   6.598
 2973SOL     OW 9817   5.529   0.488   4.046
 2973SOL    HW1 9818   5.505   0.522   4.137
 2973SOL    HW2 9819   5.606   0.425   4.052
 2974SOL     OW 9820   5.829   4.370   3.119
 2974SOL    HW1 9821   5.902   4.435   3.137
 2974SOL    HW2 9822   5.740   4.415   3.130
 2975SOL     OW 9823   0.657   1.643   5.323
 2975SOL    HW1 9824   0.665   1.661   5.225
 2975SOL    HW2 9825   0.599   1.562   5.337
 2976SOL     OW 9826   3.835   1.149   2.615
 2976SOL    HW1 9827   3.765   1.215   2.642
 2976SOL    HW2 9828   3.847   1.082   2.688
 2977SOL     OW 9829   2.936   0.075   4.336
 2977SOL    HW1 9830   3.013   0.046   4.279
 2977SOL    HW2 9831   2.955   0.049   4.431
 2978SOL     OW 9832   4.786   5.195   0.161
 2978SOL    HW1 9833   4.709   5.133   0.146
 2978SOL    HW2 9834   4.871   5.150   0.133
 2979SOL     OW 9835   3.108   0.358   3.412
 2979SOL    HW1 9836   3.115   0.320   3.319
 2979SOL    HW2 9837   3.162   0.443   3.416
 2980SOL     OW 9838   0.641   6.754   4.362
 2980SOL    HW1 9839   0.588   6.704   4.431
 2980SOL    HW2 9840   0.654   6.697   4.282
 2981SOL     OW 9841   1.536   1.093   5.687
 2981SOL    HW1 9842   1.553   1.037   5.606
 2981SOL    HW2 9843   1.602   1.070   5.758
 2982SOL     OW 9844   4.294   5.897   2.714
 2982SOL    HW1 9845   4.359   5.953   2.764
 2982SOL    HW2 9846   4.330   5.804   2.705
 2983SOL     OW 9847   0.565   0.833   4.228
 2983SOL    HW1 9848   0.579   0.739   4.261
 2983SOL    HW2 9849   0.467   0.850   4.216
 2984SOL     OW 9850   6.289   5.553   1.455
 2984SOL    HW1 9851   6.350   5.611   1.401
 2984SOL    HW2 9852   6.341   5.478   1.495
 2985SOL     OW 9853   0.709   1.871   4.461
 2985SOL    HW1 9854   0.740   1.777   4.472
 2985SOL    HW2 9855   0.686   1.910   4.550
 2986SOL     OW 9856   2.285   3.908   5.572
 2986SOL    HW1 9857   2.380   3.879   5.581
 2986SOL    HW2 9858   2.266   3.933   5.477
 2987SOL     OW 9859   4.884   1.240   4.590
 2987SOL    HW1 9860   4.828   1.169   4.549
 2987SOL    HW2 9861   4.908   1.308   4.520
 2988SOL     OW 9862   1.216   0.450   1.918
 2988SOL    HW1 9863   1.288   0.447   1.987
 2988SOL    HW2 9864   1.185   0.357   1.897
 2989SOL     OW 9865   6.720   4.791   1.208
 2989SOL    HW1 9866   6.648   4.814   1.142
 2989SOL    HW2 9867   6.710   4.848   1.289
 2990SOL     OW 9868   3.544   0.508   2.828
 2990SOL    HW1 9869   3.618   0.457   2.871
 2990SOL    HW2 9870   3.566   0.527   2.733
 2991SOL     OW 9871   6.986   3.949   0.432
 2991SOL    HW1 9872   6.905   3.984   0.384
 2991SOL    HW2 9873   7.004   3.855   0.403
 2992SOL     OW 9874   3.435   5.396   6.577
 2992SOL    HW1 9875   3.525   5.361   6.601
 2992SOL    HW2 9876   3.430   5.414   6.479
 2993SOL     OW 9877   2.157   4.313   1.801
 2993SOL    HW1 9878   2.095   4.261   1.859
 2993SOL    HW2 9879   2.189   4.394   1.850
 2994SOL     OW 9880   5.076   0.458   6.870
 2994SOL    HW1 9881   5.039   0.429   6.782
 2994SOL    HW2 9882   5.148   0.395   6.898
 2995SOL     OW 9883   1.314   1.829   0.158
 2995SOL    HW1 9884   1.230   1.819   0.210
 2995SOL    HW2 9885   1.293   1.871   0.069
 2996SOL     OW 9886   2.855   5.525   5.427
 2996SOL    HW1 9887   2.844   5.620   5.397
 2996SOL    HW2 9888   2.879   5.468   5.348
 2997SOL     OW 9889   5.193   5.986   1.768
 2997SOL    HW1 9890   5.119   6.018   1.827
 2997SOL    HW2 9891   5.230   5.901   1.804
 2998SOL     OW 9892   5.175   5.898   4.257
 2998SOL    HW1 9893   5.272   5.916   4.247
 2998SOL    HW2 9894   5.127   5.921   4.172
 2999SOL     OW 9895   3.366   6.021   3.733
 2999SOL    HW1 9896   3.302   5.985   3.801
 2999SOL    HW2 9897   3.316   6.062   3.657
 3000SOL     OW 9898   1.775   3.678   5.506
 3000SOL    HW1 9899   1.741   3.594   5.464
 3000SOL    HW2 9900   1.864   3.701   5.466
 3001SOL     OW 9901   4.687   0.495   5.746
 3001SOL    HW1 9902   4.684   0.551   5.829
 3001SOL    HW2 9903   4.622   0.420   5.754
 3002SOL     OW 9904   4.311   0.249   5.181
 3002SOL    HW1 9905   4.306   0.164   5.129
 3002SOL    HW2 9906   4.218   0.280   5.202
 3003SOL     OW 9907   2.464   6.333   5.919
 3003SOL    HW1 9908   2.399   6.288   5.982
 3003SOL    HW2 9909   2.451   6.296   5.827
 3004SOL     OW 9910   6.150   4.085   3.762
 3004SOL    HW1 9911   6.113   4.177   3.750
 3004SOL    HW2 9912   6.150   4.038   3.674
 3005SOL     OW 9913   3.500   2.952   1.506
 3005SOL    HW1 9914   3.488   2.922   1.600
 3005SOL    HW2 9915   3.491   2.873   1.444
 3006SOL     OW 9916   5.774   1.172   1.022
 3006SOL    HW1 9917   5.791   1.268   1.001
 3006SOL    HW2 9918   5.804   1.151   1.115
 3007SOL     OW 9919   5.693   5.266   2.465
 3007SOL    HW1 9920   5.683   5.178   2.512
 3007SOL    HW2 9921   5.708   5.250   2.367
 3008SOL     OW 9922   3.572   0.076   5.799
 3008SOL    HW1 9923   3.551   0.164   5.755
 3008SOL    HW2 9924   3.492   0.046   5.850
 3009SOL     OW 9925   0.842   0.467   2.451
 3009SOL    HW1 9926   0.751   0.500   2.473
 3009SOL    HW2 9927   0.910   0.516   2.505
 3010SOL     OW 9928   4.335   6.064   3.121
 3010SOL    HW1 9929   4.255   6.009   3.099
 3010SOL    HW2 9930   4.379   6.094   3.036
 3011SOL     OW 9931   5.992   0.875   6.644
 3011SOL    HW1 9932   5.944   0.940   6.702
 3011SOL    HW2 9933   5.997   0.910   6.551
 3012SOL     OW 9934   0.046   3.503   3.946
 3012SOL    HW1 9935   7.023   3.589   3.962
 3012SOL    HW2 9936   0.016   3.464   3.859
 3013SOL     OW 9937   5.993   6.218   2.420
 3013SOL    HW1 9938   6.088   6.238   2.440
 3013SOL    HW2 9939   5.962   6.142   2.477
 3014SOL     OW 9940   5.553   1.556   3.901
 3014SOL    HW1 9941   5.513   1.573   3.811
 3014SOL    HW2 9942   5.544   1.638   3.958
 3015SOL     OW 9943   2.436   2.297   0.963
 3015SOL    HW1 9944   2.471   2.215   1.009
 3015SOL    HW2 9945   2.474   2.378   1.007
 3016SOL     OW 9946   3.431   5.643   4.158
 3016SOL    HW1 9947   3.390   5.552   4.161
 3016SOL    HW2 9948   3.469   5.665   4.248
 3017SOL     OW 9949   0.837   5.333   1.233
 3017SOL    HW1 9950   0.827   5.316   1.135
 3017SOL    HW2 9951   0.843   5.431   1.249
 3018SOL     OW 9952   4.011   0.413   6.627
 3018SOL    HW1 9953   4.076   0.340   6.647
 3018SOL    HW2 9954   3.935   0.375   6.573
 3019SOL     OW 9955   3.399   6.397   1.130
 3019SOL    HW1 9956   3.496   6.380   1.110
 3019SOL    HW2 9957   3.354   6.311   1.153
 3020SOL     OW 9958   3.254   3.619   2.098
 3020SOL    HW1 9959   3.321   3.554   2.134
 3020SOL    HW2 9960   3.295   3.710   2.093
 3021SOL     OW 9961   1.705   1.948   6.961
 3021SOL    HW1 9962   1.761   2.013   6.911
 3021SOL    HW2 9963   1.661   1.994   0.013
 3022SOL     OW 9964   3.704   6.018   2.740
 3022SOL    HW1 9965   3.741   5.946   2.800
 3022SOL    HW2 9966   3.615   6.047   2.774
 3023SOL     OW 9967   3.598   5.922   3.628
 3023SOL    HW1 9968   3.609   6.013   3.589
 3023SOL    HW2 9969   3.517   5.920   3.686
 3024SOL     OW 9970   3.096   0.791   6.555
 3024SOL    HW1 9971   3.065   0.784   6.650
 3024SOL    HW2 9972   3.021   0.826   6.498
 3025SOL     OW 9973   3.045   3.232   0.771
 3025SOL    HW1 9974   3.077   3.208   0.862
 3025SOL    HW2 9975   2.962   3.181   0.750
 3026SOL     OW 9976   1.723   3.558   1.149
 3026SOL    HW1 9977   1.721   3.584   1.053
 3026SOL    HW2 9978   1.648   3.602   1.198
 3027SOL     OW 9979   3.826   0.927   2.423
 3027SOL    HW1 9980   3.852   0.977   2.506
 3027SOL    HW2 9981   3.807   0.992   2.350
 3028SOL     OW 9982   1.397   4.786   0.176
 3028SOL    HW1 9983   1.354   4.714   0.231
 3028SOL    HW2 9984   1.481   4.816   0.221
 3029SOL     OW 9985   5.945   4.745   5.288
 3029SOL    HW1 9986   5.916   4.684   5.214
 3029SOL    HW2 9987   6.040   4.726   5.312
 3030SOL     OW 9988   0.981   0.861   5.543
 3030SOL    HW1 9989   0.969   0.946   5.595
 3030SOL    HW2 9990   0.981   0.783   5.605
 3031SOL     OW 9991   0.942   3.293   0.364
 3031SOL    HW1 9992   0.952   3.332   0.272
 3031SOL    HW2 9993   0.856   3.242   0.369
 3032SOL     OW 9994   4.899   0.093   6.839
 3032SOL    HW1 9995   4.842   0.130   6.766
 3032SOL    HW2 9996   4.993   0.086   6.807
 3033SOL     OW 9997   0.914   3.483   0.155
 3033SOL    HW1 9998   0.818   3.463   0.136
 3033SOL    HW2 9999   0.964   3.486   0.068
 3034SOL     OW10000   2.221   6.371   3.660
 3034SOL    HW110001   2.219   6.350   3.758
 3034SOL    HW210002   2.128   6.370   3.624
 3035SOL     OW10003   6.722   1.474   0.421
 3035SOL    HW110004   6.694   1.555   0.368
 3035SOL    HW210005   6.652   1.403   0.412
 3036SOL     OW10006   1.458   3.716   6.855
 3036SOL    HW110007   1.476   3.618   6.849
 3036SOL    HW210008   1.397   3.734   6.932
 3037SOL     OW10009   6.241   5.628   4.441
 3037SOL    HW110010   6.192   5.543   4.420
 3037SOL    HW210011   6.208   5.701   4.382
 3038SOL     OW10012   5.605   0.013   6.428
 3038SOL    HW110013   5.628   0.108   6.408
 3038SOL    HW210014   5.506   0.001   6.420
 3039SOL     OW10015   6.675   4.879   2.449
 3039SOL    HW110016   6.763   4.833   2.445
 3039SOL    HW210017   6.601   4.812   2.444
 3040SOL     OW10018   3.623   3.728   6.260
 3040SOL    HW110019   3.564   3.657   6.221
 3040SOL    HW210020   3.596   3.817   6.222
 3041SOL     OW10021   1.867   2.895   5.791
 3041SOL    HW110022   1.855   2.864   5.696
 3041SOL    HW210023   1.833   2.824   5.853
 3042SOL     OW10024   5.411   0.626   1.860
 3042SOL    HW110025   5.312   0.620   1.855
 3042SOL    HW210026   5.451   0.609   1.770
 3043SOL     OW10027   0.734   5.509   0.407
 3043SOL    HW110028   0.649   5.482   0.452
 3043SOL    HW210029   0.712   5.557   0.322
 3044SOL     OW10030   3.222   4.321   5.484
 3044SOL    HW110031   3.273   4.248   5.531
 3044SOL    HW210032   3.286   4.373   5.426
 3045SOL     OW10033   5.158   0.989   2.631
 3045SOL    HW110034   5.204   1.069   2.592
 3045SOL    HW210035   5.074   0.970   2.580
 3046SOL     OW10036   1.104   3.624   5.392
 3046SOL    HW110037   1.201   3.599   5.386
 3046SOL    HW210038   1.092   3.719   5.363
 3047SOL     OW10039   5.756   4.753   1.621
 3047SOL    HW110040   5.836   4.695   1.608
 3047SOL    HW210041   5.693   4.710   1.686
 3048SOL     OW10042   4.201   3.390   1.507
 3048SOL    HW110043   4.264   3.353   1.439
 3048SOL    HW210044   4.252   3.418   1.588
 3049SOL     OW10045   0.994   0.101   1.606
 3049SOL    HW110046   0.993   0.135   1.700
 3049SOL    HW210047   0.975   0.176   1.542
 3050SOL     OW10048   3.277   6.260   3.913
 3050SOL    HW110049   3.239   6.175   3.876
 3050SOL    HW210050   3.255   6.267   4.010
 3051SOL     OW10051   2.769   5.013   6.841
 3051SOL    HW110052   2.673   4.990   6.827
 3051SOL    HW210053   2.818   5.005   6.754
 3052SOL     OW10054   3.753   0.744   2.925
 3052SOL    HW110055   3.653   0.752   2.914
 3052SOL    HW210056   3.796   0.738   2.835
 3053SOL     OW10057   5.938   0.887   0.107
 3053SOL    HW110058   5.892   0.812   0.061
 3053SOL    HW210059   6.001   0.850   0.175
 3054SOL     OW10060   0.138   3.146   0.434
 3054SOL    HW110061   0.070   3.128   0.363
 3054SOL    HW210062   0.102   3.214   0.497
 3055SOL     OW10063   5.419   7.017   3.564
 3055SOL    HW110064   5.320   7.007   3.573
 3055SOL    HW210065   5.445   0.085   3.589
 3056SOL     OW10066   6.670   0.156   0.089
 3056SOL    HW110067   6.607   0.147   0.166
 3056SOL    HW210068   6.625   0.204   0.014
 3057SOL     OW10069   5.375   5.023   2.233
 3057SOL    HW110070   5.355   4.947   2.294
 3057SOL    HW210071   5.311   5.098   2.250
 3058SOL     OW10072   6.301   5.893   1.270
 3058SOL    HW110073   6.348   5.952   1.204
 3058SOL    HW210074   6.340   5.801   1.265
 3059SOL     OW10075   0.845   3.079   5.065
 3059SOL    HW110076   0.927   3.029   5.034
 3059SOL    HW210077   0.864   3.122   5.153
 3060SOL     OW10078   0.632   0.129   0.547
 3060SOL    HW110079   0.660   0.220   0.576
 3060SOL    HW210080   0.545   0.135   0.499
 3061SOL     OW10081   6.962   0.940   4.927
 3061SOL    HW110082   6.961   0.855   4.874
 3061SOL    HW210083   0.029   0.977   4.929
 3062SOL     OW10084   2.437   6.689   1.892
 3062SOL    HW110085   2.492   6.642   1.962
 3062SOL    HW210086   2.473   6.667   1.802
 3063SOL     OW10087   1.920   4.612   2.106
 3063SOL    HW110088   1.890   4.656   2.022
 3063SOL    HW210089   1.998   4.663   2.144
 3064SOL     OW10090   6.317   3.630   4.005
 3064SOL    HW110091   6.239   3.568   4.011
 3064SOL    HW210092   6.299   3.713   4.057
 3065SOL     OW10093   1.837   0.854   6.548
 3065SOL    HW110094   1.766   0.812   6.604
 3065SOL    HW210095   1.816   0.839   6.451
 3066SOL     OW10096   6.231   4.376   0.432
 3066SOL    HW110097   6.158   4.415   0.377
 3066SOL    HW210098   6.212   4.279   0.449
 3067SOL     OW10099   3.821   0.909   4.821
 3067SOL    HW110100   3.870   0.901   4.734
 3067SOL    HW210101   3.875   0.866   4.893
 3068SOL     OW10102   5.992   6.421   0.818
 3068SOL    HW110103   5.999   6.501   0.877
 3068SOL    HW210104   6.056   6.351   0.849
 3069SOL     OW10105   0.524   5.472   2.009
 3069SOL    HW110106   0.432   5.436   2.024
 3069SOL    HW210107   0.533   5.502   1.914
 3070SOL     OW10108   2.341   1.705   2.860
 3070SOL    HW110109   2.360   1.659   2.947
 3070SOL    HW210110   2.311   1.799   2.878
 3071SOL     OW10111   5.871   0.284   3.628
 3071SOL    HW110112   5.852   0.366   3.573
 3071SOL    HW210113   5.969   0.277   3.644
 3072SOL     OW10114   0.906   6.670   1.883
 3072SOL    HW110115   0.880   6.646   1.789
 3072SOL    HW210116   0.871   6.761   1.906
 3073SOL     OW10117   0.633   3.287   5.043
 3073SOL    HW110118   0.689   3.365   5.072
 3073SOL    HW210119   0.678   3.202   5.071
 3074SOL     OW10120   4.500   3.133   0.402
 3074SOL    HW110121   4.433   3.153   0.474
 3074SOL    HW210122   4.492   3.037   0.376
 3075SOL     OW10123   1.652   6.542   1.485
 3075SOL    HW110124   1.683   6.523   1.392
 3075SOL    HW210125   1.731   6.568   1.541
 3076SOL     OW10126   6.286   0.637   4.814
 3076SOL    HW110127   6.196   0.630   4.771
 3076SOL    HW210128   6.290   0.720   4.869
 3077SOL     OW10129   5.666   4.935   3.726
 3077SOL    HW110130   5.691   5.030   3.747
 3077SOL    HW210131   5.606   4.901   3.798
 3078SOL     OW10132   2.034   3.661   1.968
 3078SOL    HW110133   1.954   3.627   2.019
 3078SOL    HW210134   2.111   3.600   1.983
 3079SOL     OW10135   1.226   2.635   4.921
 3079SOL    HW110136   1.246   2.725   4.882
 3079SOL    HW210137   1.304   2.605   4.977
 3080SOL     OW10138   6.445   4.819   1.432
 3080SOL    HW110139   6.534   4.866   1.430
 3080SOL    HW210140   6.437   4.761   1.351
 3081SOL     OW10141   0.551   4.675   6.391
 3081SOL    HW110142   0.463   4.698   6.432
 3081SOL    HW210143   0.547   4.692   6.293
 3082SOL     OW10144   3.393   0.177   2.910
 3082SOL    HW110145   3.418   0.252   2.971
 3082SOL    HW210146   3.476   0.137   2.872
 3083SOL     OW10147   3.467   0.272   2.512
 3083SOL    HW110148   3.487   0.249   2.607
 3083SOL    HW210149   3.548   0.257   2.456
 3084SOL     OW10150   4.627   4.781   4.043
 3084SOL    HW110151   4.573   4.704   4.077
 3084SOL    HW210152   4.723   4.753   4.033
 3085SOL     OW10153   6.508   5.135   3.349
 3085SOL    HW110154   6.606   5.149   3.358
 3085SOL    HW210155   6.466   5.135   3.440
 3086SOL     OW10156   4.401   0.874   2.257
 3086SOL    HW110157   4.414   0.784   2.215
 3086SOL    HW210158   4.304   0.895   2.261
 3087SOL     OW10159   6.357   4.105   3.254
 3087SOL    HW110160   6.341   4.006   3.247
 3087SOL    HW210161   6.387   4.127   3.346
 3088SOL     OW10162   2.514   5.117   5.471
 3088SOL    HW110163   2.551   5.041   5.525
 3088SOL    HW210164   2.575   5.196   5.480
 3089SOL     OW10165   1.216   2.596   7.017
 3089SOL    HW110166   1.190   2.536   0.067
 3089SOL    HW210167   1.227   2.541   6.934
 3090SOL     OW10168   1.809   1.756   1.364
 3090SOL    HW110169   1.818   1.823   1.438
 3090SOL    HW210170   1.719   1.713   1.369
 3091SOL     OW10171   3.216   0.262   0.253
 3091SOL    HW110172   3.244   0.354   0.277
 3091SOL    HW210173   3.295   0.200   0.258
 3092SOL     OW10174   5.542   6.805   0.209
 3092SOL    HW110175   5.458   6.811   0.154
 3092SOL    HW210176   5.620   6.793   0.148
 3093SOL     OW10177   6.059   5.267   5.911
 3093SOL    HW110178   6.008   5.352   5.903
 3093SOL    HW210179   6.092   5.256   6.004
 3094SOL     OW10180   2.986   5.747   5.113
 3094SOL    HW110181   2.988   5.835   5.160
 3094SOL    HW210182   3.052   5.685   5.155
 3095SOL     OW10183   2.216   4.505   4.360
 3095SOL    HW110184   2.126   4.500   4.317
 3095SOL    HW210185   2.279   4.445   4.311
 3096SOL     OW10186   6.408   0.234   4.620
 3096SOL    HW110187   6.332   0.224   4.684
 3096SOL    HW210188   6.407   0.159   4.554
 3097SOL     OW10189   0.552   2.809   0.785
 3097SOL    HW110190   0.571   2.821   0.882
 3097SOL    HW210191   0.570   2.715   0.759
 3098SOL     OW10192   2.437   3.711   0.785
 3098SOL    HW110193   2.479   3.729   0.695
 3098SOL    HW210194   2.461   3.785   0.848
 3099SOL     OW10195   6.841   5.775   4.690
 3099SOL    HW110196   6.763   5.749   4.634
 3099SOL    HW210197   6.914   5.812   4.631
 3100SOL     OW10198   6.620   6.839   5.001
 3100SOL    HW110199   6.675   6.784   5.064
 3100SOL    HW210200   6.678   6.908   4.958
 3101SOL     OW10201   4.651   5.912   5.708
 3101SOL    HW110202   4.679   6.000   5.746
 3101SOL    HW210203   4.624   5.923   5.613
 3102SOL     OW10204   1.128   4.666   1.348
 3102SOL    HW110205   1.143   4.648   1.251
 3102SOL    HW210206   1.060   4.602   1.384
 3103SOL     OW10207   3.300   2.259   0.671
 3103SOL    HW110208   3.358   2.178   0.661
 3103SOL    HW210209   3.299   2.287   0.767
 3104SOL     OW10210   5.488   6.356   4.270
 3104SOL    HW110211   5.498   6.365   4.369
 3104SOL    HW210212   5.391   6.346   4.248
 3105SOL     OW10213   5.566   5.861   3.468
 3105SOL    HW110214   5.572   5.957   3.444
 3105SOL    HW210215   5.497   5.848   3.540
 3106SOL     OW10216   6.750   2.425   2.608
 3106SOL    HW110217   6.725   2.334   2.642
 3106SOL    HW210218   6.772   2.418   2.510
 3107SOL     OW10219   3.071   0.561   4.089
 3107SOL    HW110220   3.124   0.477   4.080
 3107SOL    HW210221   3.057   0.582   4.185
 3108SOL     OW10222   1.894   0.838   4.652
 3108SOL    HW110223   1.958   0.900   4.697
 3108SOL    HW210224   1.808   0.835   4.704
 3109SOL     OW10225   5.061   5.983   2.747
 3109SOL    HW110226   5.047   6.067   2.799
 3109SOL    HW210227   5.078   6.005   2.651
 3110SOL     OW10228   6.869   3.091   3.364
 3110SOL    HW110229   6.915   3.080   3.452
 3110SOL    HW210230   6.770   3.085   3.377
 3111SOL     OW10231   5.988   5.454   4.054
 3111SOL    HW110232   6.035   5.521   3.998
 3111SOL    HW210233   6.035   5.366   4.048
 3112SOL     OW10234   4.529   2.688   6.230
 3112SOL    HW110235   4.508   2.777   6.188
 3112SOL    HW210236   4.460   2.621   6.202
 3113SOL     OW10237   2.785   6.792   3.777
 3113SOL    HW110238   2.718   6.793   3.703
 3113SOL    HW210239   2.833   6.704   3.777
 3114SOL     OW10240   5.434   3.980   6.665
 3114SOL    HW110241   5.438   3.906   6.599
 3114SOL    HW210242   5.525   4.022   6.673
 3115SOL     OW10243   3.697   4.044   0.568
 3115SOL    HW110244   3.790   4.012   0.549
 3115SOL    HW210245   3.682   4.132   0.523
 3116SOL     OW10246   6.606   2.730   6.079
 3116SOL    HW110247   6.554   2.703   5.998
 3116SOL    HW210248   6.680   2.791   6.053
 3117SOL     OW10249   4.350   3.409   5.554
 3117SOL    HW110250   4.353   3.411   5.454
 3117SOL    HW210251   4.376   3.318   5.586
 3118SOL     OW10252   6.345   4.913   6.792
 3118SOL    HW110253   6.402   4.990   6.761
 3118SOL    HW210254   6.340   4.913   6.892
 3119SOL     OW10255   2.023   4.540   5.283
 3119SOL    HW110256   2.018   4.449   5.326
 3119SOL    HW210257   1.941   4.592   5.307
 3120SOL     OW10258   1.944   5.765   4.593
 3120SOL    HW110259   1.916   5.672   4.618
 3120SOL    HW210260   1.990   5.808   4.671
 3121SOL     OW10261   0.422   1.691   2.194
 3121SOL    HW110262   0.327   1.677   2.167
 3121SOL    HW210263   0.480   1.693   2.112
 3122SOL     OW10264   3.116   5.341   6.407
 3122SOL    HW110265   3.115   5.244   6.429
 3122SOL    HW210266   3.025   5.368   6.376
 3123SOL     OW10267   3.552   6.288   3.677
 3123SOL    HW110268   3.630   6.316   3.733
 3123SOL    HW210269   3.513   6.204   3.714
 3124SOL     OW10270   4.682   0.512   5.189
 3124SOL    HW110271   4.765   0.456   5.181
 3124SOL    HW210272   4.654   0.516   5.285
 3125SOL     OW10273   6.364   1.846   5.473
 3125SOL    HW110274   6.367   1.824   5.376
 3125SOL    HW210275   6.278   1.815   5.512
 3126SOL     OW10276   5.447   4.554   5.870
 3126SOL    HW110277   5.358   4.541   5.913
 3126SOL    HW210278   5.450   4.644   5.825
 3127SOL     OW10279   1.588   1.359   3.537
 3127SOL    HW110280   1.649   1.295   3.490
 3127SOL    HW210281   1.633   1.397   3.617
 3128SOL     OW10282   2.181   0.858   0.342
 3128SOL    HW110283   2.118   0.877   0.417
 3128SOL    HW210284   2.268   0.825   0.378
 3129SOL     OW10285   0.380   3.956   5.369
 3129SOL    HW110286   0.336   3.908   5.445
 3129SOL    HW210287   0.469   3.913   5.350
 3130SOL     OW10288   2.389   4.429   2.711
 3130SOL    HW110289   2.420   4.439   2.616
 3130SOL    HW210290   2.311   4.367   2.714
 3131SOL     OW10291   0.750   3.213   2.696
 3131SOL    HW110292   0.705   3.194   2.609
 3131SOL    HW210293   0.768   3.128   2.745
 3132SOL     OW10294   5.186   5.920   5.507
 3132SOL    HW110295   5.281   5.905   5.480
 3132SOL    HW210296   5.128   5.918   5.426
 3133SOL     OW10297   1.923   1.899   3.934
 3133SOL    HW110298   2.008   1.949   3.949
 3133SOL    HW210299   1.931   1.806   3.970
 3134SOL     OW10300   4.771   3.345   1.519
 3134SOL    HW110301   4.710   3.325   1.596
 3134SOL    HW210302   4.866   3.343   1.551
 3135SOL     OW10303   4.093   1.910   4.252
 3135SOL    HW110304   4.128   1.901   4.346
 3135SOL    HW210305   4.062   2.004   4.237
 3136SOL     OW10306   5.540   5.996   6.217
 3136SOL    HW110307   5.550   6.064   6.290
 3136SOL    HW210308   5.593   5.915   6.240
 3137SOL     OW10309   5.209   1.822   4.033
 3137SOL    HW110310   5.224   1.768   3.950
 3137SOL    HW210311   5.111   1.827   4.052
 3138SOL     OW10312   5.999   1.801   4.621
 3138SOL    HW110313   6.068   1.743   4.578
 3138SOL    HW210314   6.011   1.896   4.591
 3139SOL     OW10315   5.071   6.636   5.506
 3139SOL    HW110316   5.054   6.698   5.582
 3139SOL    HW210317   5.146   6.671   5.450
 3140SOL     OW10318   6.882   6.645   6.448
 3140SOL    HW110319   6.963   6.611   6.400
 3140SOL    HW210320   6.911   6.705   6.523
 3141SOL     OW10321   0.471   6.413   0.087
 3141SOL    HW110322   0.437   6.413   0.180
 3141SOL    HW210323   0.538   6.487   0.076
 3142SOL     OW10324   4.850   6.095   6.830
 3142SOL    HW110325   4.931   6.043   6.860
 3142SOL    HW210326   4.768   6.051   6.865
 3143SOL     OW10327   0.235   1.941   6.644
 3143SOL    HW110328   0.193   1.956   6.733
 3143SOL    HW210329   0.334   1.947   6.652
 3144SOL     OW10330   1.851   3.853   0.196
 3144SOL    HW110331   1.925   3.833   0.261
 3144SOL    HW210332   1.764   3.821   0.233
 3145SOL     OW10333   2.839   5.880   2.857
 3145SOL    HW110334   2.762   5.874   2.792
 3145SOL    HW210335   2.808   5.854   2.948
 3146SOL     OW10336   1.677   0.043   3.227
 3146SOL    HW110337   1.611   0.088   3.167
 3146SOL    HW210338   1.654   0.062   3.322
 3147SOL     OW10339   4.499   4.850   0.934
 3147SOL    HW110340   4.508   4.778   1.002
 3147SOL    HW210341   4.576   4.846   0.871
 3148SOL     OW10342   4.037   5.540   3.895
 3148SOL    HW110343   4.100   5.617   3.897
 3148SOL    HW210344   3.943   5.574   3.897
 3149SOL     OW10345   3.184   0.468   5.571
 3149SOL    HW110346   3.101   0.412   5.567
 3149SOL    HW210347   3.158   0.564   5.585
 3150SOL     OW10348   5.224   0.033   5.064
 3150SOL    HW110349   5.164   7.017   5.132
 3150SOL    HW210350   5.270   0.112   5.105
 3151SOL     OW10351   4.671   1.170   6.277
 3151SOL    HW110352   4.726   1.252   6.265
 3151SOL    HW210353   4.715   1.109   6.343
 3152SOL     OW10354   0.537   4.952   1.650
 3152SOL    HW110355   0.502   4.890   1.579
 3152SOL    HW210356   0.549   5.043   1.612
 3153SOL     OW10357   6.220   3.738   1.810
 3153SOL    HW110358   6.127   3.746   1.772
 3153SOL    HW210359   6.286   3.770   1.742
 3154SOL     OW10360   6.275   2.529   6.267
 3154SOL    HW110361   6.329   2.612   6.260
 3154SOL    HW210362   6.335   2.450   6.278
 3155SOL     OW10363   6.422   5.241   1.131
 3155SOL    HW110364   6.471   5.190   1.061
 3155SOL    HW210365   6.485   5.264   1.206
 3156SOL     OW10366   3.872   3.948   3.312
 3156SOL    HW110367   3.782   3.992   3.314
 3156SOL    HW210368   3.890   3.905   3.400
 3157SOL     OW10369   2.092   3.529   4.761
 3157SOL    HW110370   2.157   3.549   4.835
 3157SOL    HW210371   2.004   3.504   4.801
 3158SOL     OW10372   4.946   6.566   1.632
 3158SOL    HW110373   4.851   6.561   1.602
 3158SOL    HW210374   4.961   6.503   1.708
 3159SOL     OW10375   5.014   5.596   6.294
 3159SOL    HW110376   5.056   5.506   6.278
 3159SOL    HW210377   4.975   5.630   6.209
 3160SOL     OW10378   5.232   3.724   6.019
 3160SOL    HW110379   5.294   3.716   6.097
 3160SOL    HW210380   5.158   3.658   6.028
 3161SOL     OW10381   1.907   0.834   2.796
 3161SOL    HW110382   1.936   0.803   2.705
 3161SOL    HW210383   1.965   0.790   2.865
 3162SOL     OW10384   0.376   5.570   6.662
 3162SOL    HW110385   0.374   5.493   6.597
 3162SOL    HW210386   0.285   5.585   6.698
 3163SOL     OW10387   3.812   2.886   6.981
 3163SOL    HW110388   3.764   2.816   6.929
 3163SOL    HW210389   3.789   2.878   0.052
 3164SOL     OW10390   5.196   4.214   0.791
 3164SOL    HW110391   5.171   4.131   0.741
 3164SOL    HW210392   5.220   4.190   0.885
 3165SOL     OW10393   0.660   0.258   2.009
 3165SOL    HW110394   0.649   0.253   2.109
 3165SOL    HW210395   0.756   0.275   1.987
 3166SOL     OW10396   4.542   2.950   6.101
 3166SOL    HW110397   4.634   2.922   6.074
 3166SOL    HW210398   4.544   2.983   6.196
 3167SOL     OW10399   0.446   4.627   1.608
 3167SOL    HW110400   0.355   4.667   1.623
 3167SOL    HW210401   0.497   4.683   1.543
 3168SOL     OW10402   5.552   2.764   0.531
 3168SOL    HW110403   5.622   2.755   0.603
 3168SOL    HW210404   5.478   2.822   0.564
 3169SOL     OW10405   0.854   2.441   5.647
 3169SOL    HW110406   0.908   2.358   5.629
 3169SOL    HW210407   0.788   2.454   5.574
 3170SOL     OW10408   4.038   0.687   6.097
 3170SOL    HW110409   3.996   0.637   6.172
 3170SOL    HW210410   4.098   0.758   6.133
 3171SOL     OW10411   6.441   7.013   1.529
 3171SOL    HW110412   6.484   6.933   1.571
 3171SOL    HW210413   6.510   0.056   1.510
 3172SOL     OW10414   6.187   6.949   5.238
 3172SOL    HW110415   6.108   6.888   5.232
 3172SOL    HW210416   6.248   6.918   5.311
 3173SOL     OW10417   2.292   0.291   1.984
 3173SOL    HW110418   2.380   0.243   1.989
 3173SOL    HW210419   2.237   0.270   2.065
 3174SOL     OW10420   3.081   2.538   5.934
 3174SOL    HW110421   3.088   2.472   5.859
 3174SOL    HW210422   3.094   2.631   5.898
 3175SOL     OW10423   1.175   6.374   0.657
 3175SOL    HW110424   1.270   6.405   0.651
 3175SOL    HW210425   1.135   6.406   0.743
 3176SOL     OW10426   1.393   4.031   6.806
 3176SOL    HW110427   1.440   3.943   6.812
 3176SOL    HW210428   1.403   4.080   6.893
 3177SOL     OW10429   5.555   5.304   5.620
 3177SOL    HW110430   5.470   5.262   5.652
 3177SOL    HW210431   5.574   5.387   5.673
 3178SOL     OW10432   0.339   4.507   2.294
 3178SOL    HW110433   0.430   4.468   2.276
 3178SOL    HW210434   0.346   4.570   2.371
 3179SOL     OW10435   1.783   1.847   2.070
 3179SOL    HW110436   1.799   1.930   2.017
 3179SOL    HW210437   1.810   1.768   2.016
 3180SOL     OW10438   5.708   0.068   5.606
 3180SOL    HW110439   5.685   7.012   5.553
 3180SOL    HW210440   5.646   0.142   5.581
 3181SOL     OW10441   1.164   1.250   3.792
 3181SOL    HW110442   1.101   1.173   3.785
 3181SOL    HW210443   1.258   1.216   3.781
 3182SOL     OW10444   0.923   6.203   5.723
 3182SOL    HW110445   0.838   6.210   5.775
 3182SOL    HW210446   0.908   6.152   5.639
 3183SOL     OW10447   4.621   4.829   1.703
 3183SOL    HW110448   4.574   4.869   1.624
 3183SOL    HW210449   4.562   4.760   1.744
 3184SOL     OW10450   2.675   1.979   2.750
 3184SOL    HW110451   2.694   1.955   2.845
 3184SOL    HW210452   2.647   1.897   2.700
 3185SOL     OW10453   0.130   6.883   5.522
 3185SOL    HW110454   0.092   6.963   5.569
 3185SOL    HW210455   0.222   6.904   5.490
 3186SOL     OW10456   3.488   1.067   3.028
 3186SOL    HW110457   3.493   1.142   2.962
 3186SOL    HW210458   3.580   1.034   3.048
 3187SOL     OW10459   3.401   4.785   0.044
 3187SOL    HW110460   3.475   4.741   7.020
 3187SOL    HW210461   3.362   4.858   7.012
 3188SOL     OW10462   3.674   5.669   3.308
 3188SOL    HW110463   3.748   5.685   3.243
 3188SOL    HW210464   3.619   5.751   3.317
 3189SOL     OW10465   1.308   0.510   3.523
 3189SOL    HW110466   1.307   0.410   3.523
 3189SOL    HW210467   1.238   0.544   3.460
 3190SOL     OW10468   1.519   6.038   1.925
 3190SOL    HW110469   1.433   6.076   1.959
 3190SOL    HW210470   1.595   6.094   1.958
 3191SOL     OW10471   4.247   0.368   0.746
 3191SOL    HW110472   4.237   0.294   0.679
 3191SOL    HW210473   4.174   0.435   0.733
 3192SOL     OW10474   0.434   2.771   2.141
 3192SOL    HW110475   0.435   2.870   2.126
 3192SOL    HW210476   0.477   2.751   2.229
 3193SOL     OW10477   4.339   2.199   6.041
 3193SOL    HW110478   4.429   2.236   6.067
 3193SOL    HW210479   4.308   2.135   6.111
 3194SOL     OW10480   1.357   3.249   5.896
 3194SOL    HW110481   1.305   3.312   5.954
 3194SOL    HW210482   1.308   3.236   5.810
 3195SOL     OW10483   1.110   3.050   3.654
 3195SOL    HW110484   1.078   2.955   3.649
 3195SOL    HW210485   1.071   3.094   3.735
 3196SOL     OW10486   0.077   0.130   4.766
 3196SOL    HW110487   0.043   0.138   4.859
 3196SOL    HW210488   0.109   0.219   4.733
 3197SOL     OW10489   1.114   4.863   3.820
 3197SOL    HW110490   1.178   4.793   3.851
 3197SOL    HW210491   1.092   4.848   3.724
 3198SOL     OW10492   0.473   2.078   6.269
 3198SOL    HW110493   0.533   2.135   6.213
 3198SOL    HW210494   0.405   2.034   6.212
 3199SOL     OW10495   4.506   1.676   2.221
 3199SOL    HW110496   4.464   1.619   2.151
 3199SOL    HW210497   4.438   1.740   2.257
 3200SOL     OW10498   6.581   2.259   0.335
 3200SOL    HW110499   6.488   2.277   0.301
 3200SOL    HW210500   6.633   2.210   0.265
 3201SOL     OW10501   5.143   3.906   3.857
 3201SOL    HW110502   5.092   3.881   3.774
 3201SOL    HW210503   5.154   4.005   3.860
 3202SOL     OW10504   1.650   4.460   2.034
 3202SOL    HW110505   1.555   4.428   2.041
 3202SOL    HW210506   1.674   4.510   2.117
 3203SOL     OW10507   6.851   0.684   1.139
 3203SOL    HW110508   6.858   0.751   1.065
 3203SOL    HW210509   6.823   0.596   1.102
 3204SOL     OW10510   6.930   5.644   1.808
 3204SOL    HW110511   7.006   5.593   1.767
 3204SOL    HW210512   6.878   5.583   1.868
 3205SOL     OW10513   0.418   3.853   5.012
 3205SOL    HW110514   0.327   3.841   5.053
 3205SOL    HW210515   0.408   3.871   4.914
 3206SOL     OW10516   1.134   6.793   5.958
 3206SOL    HW110517   1.233   6.784   5.969
 3206SOL    HW210518   1.093   6.813   6.047
 3207SOL     OW10519   0.719   0.924   4.961
 3207SOL    HW110520   0.792   0.861   4.986
 3207SOL    HW210521   0.728   0.948   4.864
 3208SOL     OW10522   4.674   5.636   5.019
 3208SOL    HW110523   4.692   5.722   4.971
 3208SOL    HW210524   4.699   5.647   5.116
 3209SOL     OW10525   2.341   0.285   4.095
 3209SOL    HW110526   2.282   0.360   4.126
 3209SOL    HW210527   2.297   0.198   4.117
 3210SOL     OW10528   6.441   4.530   2.787
 3210SOL    HW110529   6.423   4.622   2.750
 3210SOL    HW210530   6.494   4.538   2.871
 3211SOL     OW10531   1.849   4.601   1.532
 3211SOL    HW110532   1.893   4.611   1.621
 3211SOL    HW210533   1.759   4.560   1.543
 3212SOL     OW10534   5.387   2.369   6.826
 3212SOL    HW110535   5.393   2.372   6.926
 3212SOL    HW210536   5.478   2.351   6.788
 3213SOL     OW10537   5.750   5.742   2.480
 3213SOL    HW110538   5.654   5.742   2.507
 3213SOL    HW210539   5.762   5.796   2.397
 3214SOL     OW10540   4.023   5.643   6.666
 3214SOL    HW110541   4.039   5.552   6.629
 3214SOL    HW210542   3.924   5.659   6.674
 3215SOL     OW10543   5.882   2.327   6.437
 3215SOL    HW110544   5.964   2.353   6.488
 3215SOL    HW210545   5.877   2.382   6.353
 3216SOL     OW10546   5.449   6.935   2.726
 3216SOL    HW110547   5.487   7.023   2.697
 3216SOL    HW210548   5.482   6.913   2.818
 3217SOL     OW10549   0.092   4.517   2.401
 3217SOL    HW110550   0.142   4.498   2.317
 3217SOL    HW210551   7.020   4.509   2.384
 3218SOL     OW10552   3.962   0.769   3.719
 3218SOL    HW110553   3.920   0.743   3.806
 3218SOL    HW210554   3.917   0.720   3.644
 3219SOL     OW10555   0.341   0.625   3.271
 3219SOL    HW110556   0.285   0.545   3.248
 3219SOL    HW210557   0.314   0.702   3.212
 3220SOL     OW10558   0.184   4.279   5.560
 3220SOL    HW110559   0.108   4.322   5.609
 3220SOL    HW210560   0.270   4.321   5.588
 3221SOL     OW10561   3.045   6.948   3.474
 3221SOL    HW110562   3.098   7.014   3.528
 3221SOL    HW210563   3.094   6.860   3.471
 3222SOL     OW10564   6.028   2.445   3.077
 3222SOL    HW110565   6.013   2.509   3.002
 3222SOL    HW210566   5.980   2.477   3.159
 3223SOL     OW10567   2.214   5.172   6.158
 3223SOL    HW110568   2.161   5.175   6.073
 3223SOL    HW210569   2.240   5.078   6.178
 3224SOL     OW10570   4.505   4.697   0.507
 3224SOL    HW110571   4.419   4.730   0.468
 3224SOL    HW210572   4.580   4.716   0.444
 3225SOL     OW10573   2.565   3.359   0.860
 3225SOL    HW110574   2.589   3.440   0.807
 3225SOL    HW210575   2.600   3.369   0.954
 3226SOL     OW10576   1.278   0.499   3.934
 3226SOL    HW110577   1.293   0.456   4.023
 3226SOL    HW210578   1.365   0.533   3.898
 3227SOL     OW10579   3.442   0.873   5.385
 3227SOL    HW110580   3.416   0.924   5.467
 3227SOL    HW210581   3.389   0.905   5.307
 3228SOL     OW10582   5.528   3.915   4.615
 3228SOL    HW110583   5.530   3.827   4.663
 3228SOL    HW210584   5.435   3.934   4.584
 3229SOL     OW10585   4.159   1.415   5.386
 3229SOL    HW110586   4.226   1.342   5.400
 3229SOL    HW210587   4.161   1.478   5.464
 3230SOL     OW10588   1.048   0.389   3.848
 3230SOL    HW110589   1.134   0.439   3.861
 3230SOL    HW210590   0.987   0.410   3.924
 3231SOL     OW10591   5.925   6.456   0.564
 3231SOL    HW110592   5.950   6.421   0.655
 3231SOL    HW210593   5.931   6.556   0.564
 3232SOL     OW10594   2.758   4.783   4.576
 3232SOL    HW110595   2.817   4.743   4.647
 3232SOL    HW210596   2.663   4.783   4.608
 3233SOL     OW10597   0.461   4.207   1.534
 3233SOL    HW110598   0.481   4.222   1.437
 3233SOL    HW210599   0.547   4.192   1.583
 3234SOL     OW10600   0.184   1.555   6.463
 3234SOL    HW110601   0.189   1.646   6.422
 3234SOL    HW210602   0.276   1.517   6.471
 3235SOL     OW10603   5.181   6.928   2.791
 3235SOL    HW110604   5.274   6.926   2.754
 3235SOL    HW210605   5.133   7.009   2.758
 3236SOL     OW10606   0.542   3.275   2.262
 3236SOL    HW110607   0.594   3.319   2.188
 3236SOL    HW210608   0.491   3.344   2.312
 3237SOL     OW10609   3.017   0.120   4.675
 3237SOL    HW110610   3.068   0.204   4.658
 3237SOL    HW210611   3.059   0.045   4.625
 3238SOL     OW10612   0.163   6.212   6.235
 3238SOL    HW110613   0.148   6.137   6.298
 3238SOL    HW210614   0.262   6.225   6.222
 3239SOL     OW10615   6.554   0.112   5.066
 3239SOL    HW110616   6.598   0.038   5.014
 3239SOL    HW210617   6.578   0.103   5.163
 3240SOL     OW10618   1.486   0.416   4.963
 3240SOL    HW110619   1.464   0.427   4.866
 3240SOL    HW210620   1.533   0.498   4.995
 3241SOL     OW10621   4.691   0.853   3.659
 3241SOL    HW110622   4.736   0.874   3.572
 3241SOL    HW210623   4.707   0.927   3.724
 3242SOL     OW10624   4.010   6.520   0.064
 3242SOL    HW110625   3.985   6.573   0.146
 3242SOL    HW210626   4.107   6.496   0.069
 3243SOL     OW10627   4.532   5.143   0.877
 3243SOL    HW110628   4.556   5.163   0.782
 3243SOL    HW210629   4.497   5.050   0.883
 3244SOL     OW10630   2.992   6.228   6.681
 3244SOL    HW110631   3.010   6.134   6.711
 3244SOL    HW210632   3.061   6.256   6.614
 3245SOL     OW10633   3.351   2.314   6.545
 3245SOL    HW110634   3.286   2.239   6.551
 3245SOL    HW210635   3.347   2.370   6.628
 3246SOL     OW10636   5.652   6.095   2.989
 3246SOL    HW110637   5.690   6.080   2.897
 3246SOL    HW210638   5.688   6.180   3.027
 3247SOL     OW10639   0.764   2.683   4.110
 3247SOL    HW110640   0.836   2.638   4.057
 3247SOL    HW210641   0.754   2.637   4.198
 3248SOL     OW10642   6.184   3.091   1.841
 3248SOL    HW110643   6.209   3.023   1.772
 3248SOL    HW210644   6.225   3.179   1.818
 3249SOL     OW10645   2.399   4.569   5.251
 3249SOL    HW110646   2.325   4.625   5.289
 3249SOL    HW210647   2.482   4.624   5.244
 3250SOL     OW10648   4.830   6.576   2.416
 3250SOL    HW110649   4.756   6.586   2.483
 3250SOL    HW210650   4.893   6.653   2.425
 3251SOL     OW10651   3.707   1.949   3.292
 3251SOL    HW110652   3.698   1.961   3.193
 3251SOL    HW210653   3.677   2.032   3.339
 3252SOL     OW10654   2.883   1.039   2.491
 3252SOL    HW110655   2.962   1.088   2.455
 3252SOL    HW210656   2.825   1.009   2.415
 3253SOL     OW10657   5.366   2.922   0.838
 3253SOL    HW110658   5.363   2.917   0.739
 3253SOL    HW210659   5.280   2.961   0.872
 3254SOL     OW10660   4.954   4.069   3.228
 3254SOL    HW110661   5.024   4.139   3.214
 3254SOL    HW210662   4.875   4.108   3.275
 3255SOL     OW10663   4.699   5.486   0.250
 3255SOL    HW110664   4.670   5.431   0.172
 3255SOL    HW210665   4.745   5.568   0.218
 3256SOL     OW10666   5.285   6.517   5.314
 3256SOL    HW110667   5.372   6.482   5.350
 3256SOL    HW210668   5.301   6.561   5.226
 3257SOL     OW10669   1.743   2.617   1.193
 3257SOL    HW110670   1.702   2.586   1.279
 3257SOL    HW210671   1.810   2.688   1.212
 3258SOL     OW10672   5.396   6.469   2.141
 3258SOL    HW110673   5.305   6.505   2.157
 3258SOL    HW210674   5.390   6.384   2.088
 3259SOL     OW10675   4.297   0.010   4.028
 3259SOL    HW110676   4.343   6.964   4.081
 3259SOL    HW210677   4.352   0.033   3.948
 3260SOL     OW10678   1.988   2.340   6.979
 3260SOL    HW110679   1.941   2.368   6.896
 3260SOL    HW210680   2.055   2.411   7.004
 3261SOL     OW10681   4.537   0.044   1.280
 3261SOL    HW110682   4.550   0.129   1.229
 3261SOL    HW210683   4.439   0.030   1.298
 3262SOL     OW10684   3.863   1.715   3.316
 3262SOL    HW110685   3.800   1.789   3.291
 3262SOL    HW210686   3.942   1.717   3.255
 3263SOL     OW10687   3.936   6.568   1.296
 3263SOL    HW110688   3.936   6.592   1.392
 3263SOL    HW210689   3.937   6.651   1.240
 3264SOL     OW10690   5.726   4.746   6.941
 3264SOL    HW110691   5.742   4.829   6.995
 3264SOL    HW210692   5.631   4.718   6.951
 3265SOL     OW10693   4.968   0.710   6.039
 3265SOL    HW110694   5.027   0.790   6.052
 3265SOL    HW210695   4.931   0.711   5.947
 3266SOL     OW10696   1.162   1.195   6.228
 3266SOL    HW110697   1.237   1.143   6.269
 3266SOL    HW210698   1.127   1.261   6.295
 3267SOL     OW10699   3.021   2.111   0.638
 3267SOL    HW110700   3.119   2.123   0.659
 3267SOL    HW210701   2.979   2.052   0.706
 3268SOL     OW10702   1.293   4.497   6.390
 3268SOL    HW110703   1.307   4.484   6.292
 3268SOL    HW210704   1.250   4.585   6.407
 3269SOL     OW10705   4.130   4.079   1.379
 3269SOL    HW110706   4.105   4.059   1.284
 3269SOL    HW210707   4.229   4.094   1.384
 3270SOL     OW10708   0.541   6.326   4.316
 3270SOL    HW110709   0.579   6.305   4.226
 3270SOL    HW210710   0.556   6.249   4.378
 3271SOL     OW10711   5.984   1.841   1.130
 3271SOL    HW110712   6.011   1.935   1.148
 3271SOL    HW210713   5.970   1.828   1.032
 3272SOL     OW10714   4.663   0.136   0.540
 3272SOL    HW110715   4.680   0.226   0.581
 3272SOL    HW210716   4.668   0.066   0.611
 3273SOL     OW10717   0.160   6.349   2.223
 3273SOL    HW110718   0.161   6.447   2.208
 3273SOL    HW210719   0.068   6.314   2.208
 3274SOL     OW10720   3.132   2.088   5.702
 3274SOL    HW110721   3.186   2.155   5.754
 3274SOL    HW210722   3.056   2.056   5.758
 3275SOL     OW10723   2.736   0.464   6.605
 3275SOL    HW110724   2.736   0.544   6.545
 3275SOL    HW210725   2.664   0.473   6.673
 3276SOL     OW10726   3.399   6.683   0.342
 3276SOL    HW110727   3.481   6.730   0.307
 3276SOL    HW210728   3.392   6.698   0.440
 3277SOL     OW10729   0.468   6.046   4.976
 3277SOL    HW110730   0.537   5.976   4.992
 3277SOL    HW210731   0.449   6.094   5.061
 3278SOL     OW10732   1.082   0.716   6.179
 3278SOL    HW110733   1.016   0.777   6.136
 3278SOL    HW210734   1.035   0.639   6.221
 3279SOL     OW10735   1.015   7.010   0.775
 3279SOL    HW110736   1.094   0.043   0.795
 3279SOL    HW210737   0.974   6.979   0.860
 3280SOL     OW10738   2.501   4.746   6.027
 3280SOL    HW110739   2.434   4.813   6.058
 3280SOL    HW210740   2.455   4.672   5.979
 3281SOL     OW10741   2.352   5.646   1.022
 3281SOL    HW110742   2.378   5.638   0.925
 3281SOL    HW210743   2.411   5.715   1.066
 3282SOL     OW10744   2.681   5.479   3.486
 3282SOL    HW110745   2.762   5.423   3.467
 3282SOL    HW210746   2.602   5.418   3.502
 3283SOL     OW10747   2.250   0.919   3.640
 3283SOL    HW110748   2.294   1.007   3.624
 3283SOL    HW210749   2.304   0.846   3.598
 3284SOL     OW10750   0.125   4.896   6.837
 3284SOL    HW110751   0.170   4.923   6.922
 3284SOL    HW210752   0.069   4.814   6.854
 3285SOL     OW10753   1.111   1.519   4.069
 3285SOL    HW110754   1.055   1.550   4.145
 3285SOL    HW210755   1.118   1.420   4.070
 3286SOL     OW10756   3.467   3.457   4.708
 3286SOL    HW110757   3.541   3.525   4.712
 3286SOL    HW210758   3.404   3.474   4.784
 3287SOL     OW10759   1.457   5.361   0.948
 3287SOL    HW110760   1.525   5.423   0.910
 3287SOL    HW210761   1.369   5.409   0.957
 3288SOL     OW10762   0.066   5.929   6.511
 3288SOL    HW110763   0.159   5.965   6.524
 3288SOL    HW210764   0.025   5.973   6.431
 3289SOL     OW10765   1.400   6.201   4.803
 3289SOL    HW110766   1.429   6.237   4.892
 3289SOL    HW210767   1.452   6.118   4.783
 3290SOL     OW10768   6.606   5.167   1.699
 3290SOL    HW110769   6.669   5.092   1.677
 3290SOL    HW210770   6.548   5.140   1.776
 3291SOL     OW10771   2.109   6.709   0.662
 3291SOL    HW110772   2.141   6.692   0.755
 3291SOL    HW210773   2.036   6.778   0.664
 3292SOL     OW10774   0.442   6.339   5.674
 3292SOL    HW110775   0.496   6.415   5.711
 3292SOL    HW210776   0.354   6.334   5.722
 3293SOL     OW10777   0.252   1.100   2.408
 3293SOL    HW110778   0.211   1.106   2.499
 3293SOL    HW210779   0.259   1.192   2.369
 3294SOL     OW10780   0.282   0.657   0.172
 3294SOL    HW110781   0.317   0.704   0.091
 3294SOL    HW210782   0.251   0.725   0.239
 3295SOL     OW10783   1.562   2.561   6.872
 3295SOL    HW110784   1.585   2.621   6.948
 3295SOL    HW210785   1.540   2.616   6.791
 3296SOL     OW10786   1.994   0.064   2.635
 3296SOL    HW110787   2.061   0.102   2.572
 3296SOL    HW210788   2.038   0.040   2.721
 3297SOL     OW10789   3.405   2.515   6.357
 3297SOL    HW110790   3.375   2.455   6.431
 3297SOL    HW210791   3.356   2.492   6.273
 3298SOL     OW10792   6.272   3.261   2.844
 3298SOL    HW110793   6.305   3.180   2.891
 3298SOL    HW210794   6.325   3.341   2.874
 3299SOL     OW10795   1.870   6.958   5.166
 3299SOL    HW110796   1.873   0.030   5.190
 3299SOL    HW210797   1.831   6.906   5.241
 3300SOL     OW10798   6.565   6.832   4.512
 3300SOL    HW110799   6.592   6.758   4.451
 3300SOL    HW210800   6.493   6.799   4.574
 3301SOL     OW10801   0.742   3.733   2.885
 3301SOL    HW110802   0.769   3.650   2.837
 3301SOL    HW210803   0.818   3.798   2.886
 3302SOL     OW10804   1.140   4.309   3.645
 3302SOL    HW110805   1.224   4.285   3.694
 3302SOL    HW210806   1.091   4.380   3.697
 3303SOL     OW10807   4.130   3.558   3.248
 3303SOL    HW110808   4.161   3.597   3.335
 3303SOL    HW210809   4.100   3.632   3.188
 3304SOL     OW10810   0.193   6.500   4.464
 3304SOL    HW110811   0.194   6.400   4.464
 3304SOL    HW210812   0.110   6.533   4.508
 3305SOL     OW10813   1.919   1.136   2.354
 3305SOL    HW110814   1.993   1.182   2.404
 3305SOL    HW210815   1.958   1.088   2.275
 3306SOL     OW10816   1.628   4.357   3.431
 3306SOL    HW110817   1.710   4.333   3.379
 3306SOL    HW210818   1.548   4.315   3.388
 3307SOL     OW10819   6.979   5.682   6.541
 3307SOL    HW110820   6.887   5.690   6.580
 3307SOL    HW210821   0.005   5.766   6.559
 3308SOL     OW10822   4.698   6.195   0.748
 3308SOL    HW110823   4.646   6.158   0.671
 3308SOL    HW210824   4.634   6.232   0.816
 3309SOL     OW10825   0.070   4.768   3.357
 3309SOL    HW110826   0.109   4.857   3.332
 3309SOL    HW210827   7.014   4.782   3.412
 3310SOL     OW10828   1.028   5.487   1.842
 3310SOL    HW110829   1.013   5.502   1.940
 3310SOL    HW210830   1.125   5.497   1.821
 3311SOL     OW10831   4.561   6.570   0.784
 3311SOL    HW110832   4.649   6.579   0.830
 3311SOL    HW210833   4.549   6.644   0.718
 3312SOL     OW10834   3.592   3.982   0.039
 3312SOL    HW110835   3.492   3.978   0.033
 3312SOL    HW210836   3.621   3.954   0.130
 3313SOL     OW10837   6.585   5.533   3.785
 3313SOL    HW110838   6.610   5.551   3.690
 3313SOL    HW210839   6.664   5.548   3.844
 3314SOL     OW10840   1.416   3.483   5.333
 3314SOL    HW110841   1.437   3.570   5.288
 3314SOL    HW210842   1.495   3.452   5.385
 3315SOL     OW10843   0.232   1.978   3.521
 3315SOL    HW110844   0.326   1.946   3.532
 3315SOL    HW210845   0.173   1.934   3.589
 3316SOL     OW10846   4.751   1.743   6.788
 3316SOL    HW110847   4.682   1.672   6.806
 3316SOL    HW210848   4.719   1.803   6.715
 3317SOL     OW10849   4.363   2.837   0.969
 3317SOL    HW110850   4.421   2.775   0.915
 3317SOL    HW210851   4.267   2.810   0.958
 3318SOL     OW10852   2.293   5.282   5.708
 3318SOL    HW110853   2.292   5.193   5.754
 3318SOL    HW210854   2.387   5.314   5.700
 3319SOL     OW10855   0.541   5.415   5.056
 3319SOL    HW110856   0.584   5.397   4.967
 3319SOL    HW210857   0.467   5.482   5.046
 3320SOL     OW10858   6.921   0.928   6.118
 3320SOL    HW110859   6.951   0.852   6.061
 3320SOL    HW210860   6.886   1.001   6.060
 3321SOL     OW10861   3.739   3.656   3.250
 3321SOL    HW110862   3.821   3.702   3.218
 3321SOL    HW210863   3.658   3.708   3.223
 3322SOL     OW10864   3.988   1.663   0.456
 3322SOL    HW110865   3.974   1.668   0.555
 3322SOL    HW210866   3.927   1.727   0.411
 3323SOL     OW10867   2.225   5.169   0.205
 3323SOL    HW110868   2.152   5.111   0.169
 3323SOL    HW210869   2.299   5.111   0.240
 3324SOL     OW10870   0.850   2.326   0.812
 3324SOL    HW110871   0.871   2.259   0.741
 3324SOL    HW210872   0.920   2.322   0.883
 3325SOL     OW10873   1.312   3.017   0.753
 3325SOL    HW110874   1.359   3.102   0.777
 3325SOL    HW210875   1.284   2.970   0.836
 3326SOL     OW10876   6.091   1.599   1.188
 3326SOL    HW110877   6.034   1.680   1.202
 3326SOL    HW210878   6.147   1.584   1.269
 3327SOL     OW10879   3.178   6.406   2.329
 3327SOL    HW110880   3.175   6.448   2.239
 3327SOL    HW210881   3.269   6.367   2.346
 3328SOL     OW10882   4.535   0.844   2.621
 3328SOL    HW110883   4.512   0.909   2.549
 3328SOL    HW210884   4.479   0.761   2.611
 3329SOL     OW10885   4.964   0.194   5.458
 3329SOL    HW110886   4.915   0.209   5.544
 3329SOL    HW210887   5.039   0.129   5.473
 3330SOL     OW10888   6.513   5.863   2.823
 3330SOL    HW110889   6.452   5.943   2.822
 3330SOL    HW210890   6.493   5.807   2.903
 3331SOL     OW10891   2.126   3.557   2.958
 3331SOL    HW110892   2.197   3.601   3.013
 3331SOL    HW210893   2.167   3.483   2.904
 3332SOL     OW10894   4.178   5.392   1.076
 3332SOL    HW110895   4.084   5.420   1.059
 3332SOL    HW210896   4.179   5.318   1.143
 3333SOL     OW10897   3.638   3.447   1.690
 3333SOL    HW110898   3.708   3.387   1.650
 3333SOL    HW210899   3.658   3.542   1.665
 3334SOL     OW10900   1.739   2.659   2.209
 3334SOL    HW110901   1.746   2.567   2.170
 3334SOL    HW210902   1.824   2.682   2.256
 3335SOL     OW10903   4.029   4.690   5.338
 3335SOL    HW110904   3.977   4.750   5.277
 3335SOL    HW210905   4.126   4.714   5.336
 3336SOL     OW10906   4.760   6.110   4.076
 3336SOL    HW110907   4.716   6.195   4.105
 3336SOL    HW210908   4.735   6.091   3.981
 3337SOL     OW10909   3.641   3.562   3.492
 3337SOL    HW110910   3.576   3.515   3.431
 3337SOL    HW210911   3.707   3.613   3.437
 3338SOL     OW10912   2.498   1.763   1.464
 3338SOL    HW110913   2.567   1.690   1.462
 3338SOL    HW210914   2.535   1.843   1.510
 3339SOL     OW10915   1.861   6.985   5.741
 3339SOL    HW110916   1.906   0.048   5.725
 3339SOL    HW210917   1.924   6.923   5.787
 3340SOL     OW10918   4.091   0.742   4.209
 3340SOL    HW110919   4.014   0.805   4.207
 3340SOL    HW210920   4.166   0.778   4.153
 3341SOL     OW10921   1.599   4.572   3.142
 3341SOL    HW110922   1.674   4.571   3.208
 3341SOL    HW210923   1.608   4.494   3.080
 3342SOL     OW10924   0.255   0.456   2.688
 3342SOL    HW110925   0.351   0.456   2.716
 3342SOL    HW210926   0.212   0.371   2.718
 3343SOL     OW10927   4.931   5.102   6.198
 3343SOL    HW110928   4.967   5.017   6.237
 3343SOL    HW210929   4.903   5.086   6.103
 3344SOL     OW10930   0.599   3.090   3.332
 3344SOL    HW110931   0.582   3.051   3.241
 3344SOL    HW210932   0.690   3.130   3.334
 3345SOL     OW10933   6.907   4.637   0.248
 3345SOL    HW110934   6.889   4.701   0.174
 3345SOL    HW210935   6.835   4.644   0.317
 3346SOL     OW10936   2.052   1.054   0.098
 3346SOL    HW110937   2.006   0.974   0.059
 3346SOL    HW210938   2.020   1.069   0.191
 3347SOL     OW10939   7.014   3.619   6.774
 3347SOL    HW110940   7.012   3.716   6.797
 3347SOL    HW210941   6.975   3.605   6.683
 3348SOL     OW10942   3.922   3.660   6.175
 3348SOL    HW110943   3.984   3.597   6.223
 3348SOL    HW210944   3.864   3.705   6.242
 3349SOL     OW10945   2.195   4.920   3.834
 3349SOL    HW110946   2.149   4.998   3.793
 3349SOL    HW210947   2.157   4.901   3.924
 3350SOL     OW10948   0.473   4.327   5.280
 3350SOL    HW110949   0.412   4.264   5.233
 3350SOL    HW210950   0.418   4.394   5.331
 3351SOL     OW10951   5.379   0.864   1.253
 3351SOL    HW110952   5.442   0.931   1.215
 3351SOL    HW210953   5.427   0.804   1.317
 3352SOL     OW10954   5.675   2.170   6.515
 3352SOL    HW110955   5.697   2.080   6.477
 3352SOL    HW210956   5.748   2.235   6.493
 3353SOL     OW10957   3.025   0.256   1.520
 3353SOL    HW110958   3.086   0.332   1.495
 3353SOL    HW210959   3.005   0.202   1.438
 3354SOL     OW10960   3.630   3.692   6.600
 3354SOL    HW110961   3.611   3.696   6.698
 3354SOL    HW210962   3.545   3.690   6.549
 3355SOL     OW10963   2.126   0.692   5.122
 3355SOL    HW110964   2.131   0.708   5.221
 3355SOL    HW210965   2.121   0.780   5.074
 3356SOL     OW10966   1.788   6.807   5.382
 3356SOL    HW110967   1.722   6.828   5.455
 3356SOL    HW210968   1.879   6.797   5.421
 3357SOL     OW10969   2.819   3.341   1.568
 3357SOL    HW110970   2.737   3.360   1.622
 3357SOL    HW210971   2.894   3.399   1.599
 3358SOL     OW10972   7.010   1.159   1.566
 3358SOL    HW110973   7.004   1.218   1.646
 3358SOL    HW210974   0.055   1.090   1.580
 3359SOL     OW10975   6.515   6.408   3.967
 3359SOL    HW110976   6.571   6.342   3.917
 3359SOL    HW210977   6.442   6.443   3.908
 3360SOL     OW10978   0.183   3.368   5.127
 3360SOL    HW110979   0.182   3.392   5.030
 3360SOL    HW210980   0.271   3.327   5.151
 3361SOL     OW10981   0.110   0.913   4.549
 3361SOL    HW110982   0.173   0.988   4.527
 3361SOL    HW210983   0.067   0.880   4.465
 3362SOL     OW10984   3.637   1.385   3.818
 3362SOL    HW110985   3.544   1.361   3.789
 3362SOL    HW210986   3.654   1.348   3.909
 3363SOL     OW10987   6.054   3.695   0.457
 3363SOL    HW110988   5.968   3.740   0.483
 3363SOL    HW210989   6.103   3.753   0.392
 3364SOL     OW10990   2.121   3.912   3.827
 3364SOL    HW110991   2.170   3.901   3.913
 3364SOL    HW210992   2.077   4.002   3.824
 3365SOL     OW10993   2.152   4.175   4.120
 3365SOL    HW110994   2.089   4.156   4.195
 3365SOL    HW210995   2.101   4.178   4.033
 3366SOL     OW10996   6.019   3.824   4.374
 3366SOL    HW110997   5.952   3.897   4.363
 3366SOL    HW210998   5.982   3.738   4.340
 3367SOL     OW10999   3.854   3.308   4.023
 3367SOL    HW111000   3.761   3.286   4.052
 3367SOL    HW211001   3.904   3.224   4.003
 3368SOL     OW11002   1.138   5.841   1.343
 3368SOL    HW111003   1.083   5.874   1.419
 3368SOL    HW211004   1.225   5.806   1.378
 3369SOL     OW11005   4.553   2.988   1.066
 3369SOL    HW111006   4.483   2.924   1.035
 3369SOL    HW211007   4.518   3.043   1.142
 3370SOL     OW11008   0.660   5.995   2.803
 3370SOL    HW111009   0.685   6.009   2.707
 3370SOL    HW211010   0.668   6.081   2.853
 3371SOL     OW11011   1.446   2.860   3.568
 3371SOL    HW111012   1.511   2.806   3.621
 3371SOL    HW211013   1.428   2.815   3.481
 3372SOL     OW11014   6.467   4.017   1.875
 3372SOL    HW111015   6.538   4.083   1.897
 3372SOL    HW211016   6.436   3.972   1.959
 3373SOL     OW11017   6.879   2.619   1.718
 3373SOL    HW111018   6.793   2.611   1.666
 3373SOL    HW211019   6.931   2.697   1.684
 3374SOL     OW11020   0.396   0.374   4.219
 3374SOL    HW111021   0.406   0.359   4.121
 3374SOL    HW211022   0.457   0.448   4.248
 3375SOL     OW11023   6.510   5.308   5.830
 3375SOL    HW111024   6.426   5.262   5.801
 3375SOL    HW211025   6.574   5.242   5.867
 3376SOL     OW11026   2.812   3.841   5.291
 3376SOL    HW111027   2.801   3.933   5.330
 3376SOL    HW211028   2.722   3.801   5.274
 3377SOL     OW11029   6.252   4.355   3.199
 3377SOL    HW111030   6.331   4.410   3.227
 3377SOL    HW211031   6.267   4.260   3.226
 3378SOL     OW11032   1.275   6.222   0.896
 3378SOL    HW111033   1.319   6.202   0.984
 3378SOL    HW211034   1.327   6.294   0.849
 3379SOL     OW11035   6.464   4.513   3.621
 3379SOL    HW111036   6.521   4.519   3.539
 3379SOL    HW211037   6.479   4.425   3.666
 3380SOL     OW11038   3.424   4.564   6.335
 3380SOL    HW111039   3.454   4.475   6.369
 3380SOL    HW211040   3.461   4.636   6.393
 3381SOL     OW11041   1.690   3.755   0.608
 3381SOL    HW111042   1.605   3.737   0.557
 3381SOL    HW211043   1.761   3.694   0.575
 3382SOL     OW11044   0.001   2.793   1.571
 3382SOL    HW111045   7.006   2.718   1.507
 3382SOL    HW211046   0.100   2.805   1.578
 3383SOL     OW11047   5.347   5.381   0.008
 3383SOL    HW111048   5.363   5.472   6.996
 3383SOL    HW211049   5.425   5.322   7.013
 3384SOL     OW11050   2.614   4.358   6.993
 3384SOL    HW111051   2.527   4.376   0.015
 3384SOL    HW211052   2.655   4.445   6.965
 3385SOL     OW11053   0.560   2.324   4.152
 3385SOL    HW111054   0.499   2.245   4.140
 3385SOL    HW211055   0.590   2.329   4.247
 3386SOL     OW11056   0.280   4.656   5.802
 3386SOL    HW111057   0.240   4.672   5.711
 3386SOL    HW211058   0.213   4.679   5.872
 3387SOL     OW11059   6.231   0.430   3.287
 3387SOL    HW111060   6.231   0.438   3.187
 3387SOL    HW211061   6.270   0.513   3.327
 3388SOL     OW11062   6.853   3.229   1.358
 3388SOL    HW111063   6.877   3.187   1.446
 3388SOL    HW211064   6.902   3.182   1.285
 3389SOL     OW11065   6.125   6.076   0.234
 3389SOL    HW111066   6.086   6.149   0.290
 3389SOL    HW211067   6.158   6.115   0.148
 3390SOL     OW11068   3.919   6.803   5.816
 3390SOL    HW111069   3.898   6.896   5.787
 3390SOL    HW211070   3.838   6.760   5.856
 3391SOL     OW11071   5.622   3.027   4.461
 3391SOL    HW111072   5.644   3.124   4.449
 3391SOL    HW211073   5.538   3.019   4.516
 3392SOL     OW11074   4.456   6.216   5.591
 3392SOL    HW111075   4.367   6.223   5.546
 3392SOL    HW211076   4.473   6.298   5.646
 3393SOL     OW11077   4.893   5.742   1.067
 3393SOL    HW111078   4.917   5.802   0.991
 3393SOL    HW211079   4.826   5.675   1.037
 3394SOL     OW11080   2.730   5.196   1.484
 3394SOL    HW111081   2.638   5.172   1.451
 3394SOL    HW211082   2.746   5.151   1.572
 3395SOL     OW11083   2.779   0.060   3.503
 3395SOL    HW111084   2.808   0.153   3.523
 3395SOL    HW211085   2.858   0.003   3.482
 3396SOL     OW11086   4.833   2.122   4.438
 3396SOL    HW111087   4.830   2.045   4.501
 3396SOL    HW211088   4.924   2.129   4.398
 3397SOL     OW11089   2.046   6.137   0.471
 3397SOL    HW111090   2.114   6.073   0.437
 3397SOL    HW211091   1.980   6.158   0.399
 3398SOL     OW11092   6.979   2.410   3.940
 3398SOL    HW111093   6.889   2.397   3.897
 3398SOL    HW211094   0.019   2.348   3.897
 3399SOL     OW11095   6.580   5.969   2.131
 3399SOL    HW111096   6.566   6.067   2.117
 3399SOL    HW211097   6.596   5.925   2.043
 3400SOL     OW11098   5.199   1.586   6.186
 3400SOL    HW111099   5.286   1.538   6.198
 3400SOL    HW211100   5.217   1.683   6.167
 3401SOL     OW11101   6.844   3.327   5.593
 3401SOL    HW111102   6.908   3.281   5.532
 3401SOL    HW211103   6.789   3.391   5.540
 3402SOL     OW11104   6.301   3.263   1.371
 3402SOL    HW111105   6.201   3.259   1.359
 3402SOL    HW211106   6.326   3.350   1.413
 3403SOL     OW11107   4.806   6.562   6.853
 3403SOL    HW111108   4.715   6.567   6.893
 3403SOL    HW211109   4.853   6.650   6.866
 3404SOL     OW11110   5.258   4.244   5.008
 3404SOL    HW111111   5.347   4.249   5.053
 3404SOL    HW211112   5.226   4.149   5.008
 3405SOL     OW11113   5.227   5.650   5.953
 3405SOL    HW111114   5.224   5.705   5.869
 3405SOL    HW211115   5.318   5.611   5.964
 3406SOL     OW11116   2.469   4.824   1.718
 3406SOL    HW111117   2.514   4.892   1.661
 3406SOL    HW211118   2.372   4.818   1.693
 3407SOL     OW11119   1.569   3.572   0.089
 3407SOL    HW111120   1.485   3.517   0.097
 3407SOL    HW211121   1.643   3.528   0.140
 3408SOL     OW11122   4.901   2.067   3.720
 3408SOL    HW111123   4.946   2.131   3.658
 3408SOL    HW211124   4.958   2.054   3.801
 3409SOL     OW11125   4.467   0.447   0.462
 3409SOL    HW111126   4.517   0.400   0.535
 3409SOL    HW211127   4.400   0.509   0.502
 3410SOL     OW11128   5.399   0.217   2.900
 3410SOL    HW111129   5.305   0.183   2.898
 3410SOL    HW211130   5.398   0.317   2.904
 3411SOL     OW11131   6.263   2.535   0.430
 3411SOL    HW111132   6.288   2.493   0.517
 3411SOL    HW211133   6.328   2.609   0.409
 3412SOL     OW11134   5.658   3.150   1.347
 3412SOL    HW111135   5.658   3.250   1.349
 3412SOL    HW211136   5.738   3.115   1.396
 3413SOL     OW11137   0.394   3.175   6.116
 3413SOL    HW111138   0.475   3.218   6.154
 3413SOL    HW211139   0.405   3.075   6.118
 3414SOL     OW11140   3.041   4.199   0.747
 3414SOL    HW111141   3.116   4.134   0.763
 3414SOL    HW211142   2.997   4.220   0.834
 3415SOL     OW11143   2.177   2.286   5.785
 3415SOL    HW111144   2.211   2.380   5.777
 3415SOL    HW211145   2.245   2.230   5.831
 3416SOL     OW11146   6.146   0.551   6.585
 3416SOL    HW111147   6.090   0.623   6.545
 3416SOL    HW211148   6.210   0.518   6.516
 3417SOL     OW11149   6.333   6.876   3.095
 3417SOL    HW111150   6.254   6.833   3.051
 3417SOL    HW211151   6.365   6.953   3.040
 3418SOL     OW11152   4.994   4.574   0.631
 3418SOL    HW111153   5.075   4.538   0.677
 3418SOL    HW211154   4.913   4.561   0.689
 3419SOL     OW11155   2.413   5.944   5.885
 3419SOL    HW111156   2.446   5.850   5.868
 3419SOL    HW211157   2.320   5.953   5.850
 3420SOL     OW11158   4.341   2.429   2.880
 3420SOL    HW111159   4.258   2.445   2.825
 3420SOL    HW211160   4.416   2.482   2.842
 3421SOL     OW11161   6.445   2.414   3.316
 3421SOL    HW111162   6.452   2.343   3.246
 3421SOL    HW211163   6.355   2.409   3.359
 3422SOL     OW11164   2.464   6.678   1.108
 3422SOL    HW111165   2.478   6.579   1.116
 3422SOL    HW211166   2.551   6.725   1.123
 3423SOL     OW11167   1.368   4.527   6.087
 3423SOL    HW111168   1.328   4.618   6.074
 3423SOL    HW211169   1.466   4.531   6.067
 3424SOL     OW11170   4.241   0.336   2.042
 3424SOL    HW111171   4.337   0.317   2.063
 3424SOL    HW211172   4.206   0.405   2.105
 3425SOL     OW11173   5.754   3.373   0.736
 3425SOL    HW111174   5.832   3.342   0.681
 3425SOL    HW211175   5.716   3.296   0.787
 3426SOL     OW11176   5.558   2.986   6.920
 3426SOL    HW111177   5.559   3.067   6.862
 3426SOL    HW211178   5.640   2.932   6.903
 3427SOL     OW11179   1.611   2.389   0.555
 3427SOL    HW111180   1.535   2.337   0.516
 3427SOL    HW211181   1.590   2.411   0.650
 3428SOL     OW11182   4.600   6.490   5.688
 3428SOL    HW111183   4.556   6.569   5.732
 3428SOL    HW211184   4.670   6.452   5.748
 3429SOL     OW11185   6.353   0.061   0.750
 3429SOL    HW111186   6.437   0.115   0.752
 3429SOL    HW211187   6.361   7.015   0.680
 3430SOL     OW11188   2.419   4.548   5.551
 3430SOL    HW111189   2.370   4.616   5.496
 3430SOL    HW211190   2.399   4.457   5.517
 3431SOL     OW11191   1.722   5.377   3.085
 3431SOL    HW111192   1.671   5.355   3.169
 3431SOL    HW211193   1.711   5.474   3.064
 3432SOL     OW11194   1.463   4.112   0.578
 3432SOL    HW111195   1.526   4.127   0.654
 3432SOL    HW211196   1.391   4.182   0.581
 3433SOL     OW11197   2.393   1.785   6.808
 3433SOL    HW111198   2.327   1.782   6.883
 3433SOL    HW211199   2.483   1.758   6.842
 3434SOL     OW11200   3.051   2.500   0.997
 3434SOL    HW111201   3.043   2.403   0.971
 3434SOL    HW211202   3.141   2.515   1.040
 3435SOL     OW11203   2.435   0.605   1.081
 3435SOL    HW111204   2.411   0.667   1.006
 3435SOL    HW211205   2.429   0.655   1.168
 3436SOL     OW11206   3.366   6.294   6.508
 3436SOL    HW111207   3.397   6.249   6.591
 3436SOL    HW211208   3.282   6.344   6.527
 3437SOL     OW11209   1.253   0.201   6.514
 3437SOL    HW111210   1.223   0.197   6.609
 3437SOL    HW211211   1.232   0.292   6.477
 3438SOL     OW11212   1.468   3.682   1.212
 3438SOL    HW111213   1.465   3.759   1.149
 3438SOL    HW211214   1.399   3.614   1.186
 3439SOL     OW11215   2.658   5.185   1.882
 3439SOL    HW111216   2.622   5.275   1.855
 3439SOL    HW211217   2.583   5.128   1.916
 3440SOL     OW11218   3.689   3.588   4.655
 3440SOL    HW111219   3.710   3.564   4.560
 3440SOL    HW211220   3.692   3.687   4.665
 3441SOL     OW11221   5.395   4.761   6.096
 3441SOL    HW111222   5.331   4.684   6.101
 3441SOL    HW211223   5.343   4.847   6.092
 3442SOL     OW11224   3.167   3.207   1.011
 3442SOL    HW111225   3.252   3.255   1.033
 3442SOL    HW211226   3.188   3.112   0.987
 3443SOL     OW11227   1.411   6.196   2.434
 3443SOL    HW111228   1.390   6.247   2.518
 3443SOL    HW211229   1.504   6.217   2.405
 3444SOL     OW11230   6.323   3.926   6.840
 3444SOL    HW111231   6.335   3.992   6.915
 3444SOL    HW211232   6.344   3.834   6.873
 3445SOL     OW11233   6.057   4.326   3.472
 3445SOL    HW111234   6.098   4.414   3.444
 3445SOL    HW211235   6.086   4.255   3.408
 3446SOL     OW11236   5.157   0.865   1.096
 3446SOL    HW111237   5.193   0.836   1.007
 3446SOL    HW211238   5.227   0.854   1.166
 3447SOL     OW11239   5.344   1.108   6.787
 3447SOL    HW111240   5.422   1.125   6.728
 3447SOL    HW211241   5.315   1.193   6.831
 3448SOL     OW11242   1.576   6.045   5.110
 3448SOL    HW111243   1.661   6.081   5.148
 3448SOL    HW211244   1.513   6.121   5.090
 3449SOL     OW11245   6.832   4.181   5.684
 3449SOL    HW111246   6.874   4.270   5.700
 3449SOL    HW211247   6.751   4.193   5.627
 3450SOL     OW11248   2.386   6.354   1.629
 3450SOL    HW111249   2.292   6.354   1.596
 3450SOL    HW211250   2.393   6.295   1.710
 3451SOL     OW11251   2.109   1.181   1.493
 3451SOL    HW111252   2.135   1.167   1.588
 3451SOL    HW211253   2.191   1.178   1.435
 3452SOL     OW11254   4.698   0.523   4.687
 3452SOL    HW111255   4.700   0.472   4.600
 3452SOL    HW211256   4.609   0.568   4.696
 3453SOL     OW11257   4.678   6.329   6.459
 3453SOL    HW111258   4.625   6.413   6.449
 3453SOL    HW211259   4.742   6.339   6.536
 3454SOL     OW11260   0.662   2.817   1.584
 3454SOL    HW111261   0.577   2.868   1.570
 3454SOL    HW211262   0.729   2.877   1.629
 3455SOL     OW11263   0.546   3.005   5.507
 3455SOL    HW111264   0.510   2.942   5.576
 3455SOL    HW211265   0.479   3.017   5.434
 3456SOL     OW11266   5.324   4.541   2.863
 3456SOL    HW111267   5.231   4.530   2.897
 3456SOL    HW211268   5.323   4.545   2.763
 3457SOL     OW11269   3.985   4.976   5.778
 3457SOL    HW111270   4.014   4.900   5.720
 3457SOL    HW211271   3.892   5.003   5.754
 3458SOL     OW11272   4.117   1.209   2.567
 3458SOL    HW111273   4.022   1.184   2.583
 3458SOL    HW211274   4.146   1.276   2.635
 3459SOL     OW11275   4.848   6.243   3.011
 3459SOL    HW111276   4.850   6.144   3.004
 3459SOL    HW211277   4.753   6.274   3.024
 3460SOL     OW11278   4.322   1.610   5.155
 3460SOL    HW111279   4.257   1.585   5.226
 3460SOL    HW211280   4.402   1.653   5.196
 3461SOL     OW11281   6.191   5.549   5.151
 3461SOL    HW111282   6.110   5.607   5.147
 3461SOL    HW211283   6.203   5.502   5.064
 3462SOL     OW11284   1.835   3.887   6.370
 3462SOL    HW111285   1.898   3.934   6.431
 3462SOL    HW211286   1.880   3.807   6.329
 3463SOL     OW11287   5.895   3.825   1.163
 3463SOL    HW111288   5.895   3.925   1.169
 3463SOL    HW211289   5.980   3.794   1.120
 3464SOL     OW11290   0.275   5.070   6.097
 3464SOL    HW111291   0.290   5.164   6.127
 3464SOL    HW211292   0.177   5.049   6.100
 3465SOL     OW11293   1.881   0.593   0.980
 3465SOL    HW111294   1.860   0.498   1.005
 3465SOL    HW211295   1.795   0.645   0.974
 3466SOL     OW11296   6.497   3.992   5.651
 3466SOL    HW111297   6.512   3.923   5.722
 3466SOL    HW211298   6.402   4.023   5.655
 3467SOL     OW11299   2.139   1.845   6.988
 3467SOL    HW111300   2.184   1.926   0.000
 3467SOL    HW211301   2.040   1.857   6.995
 3468SOL     OW11302   3.511   0.124   4.042
 3468SOL    HW111303   3.536   0.219   4.061
 3468SOL    HW211304   3.463   0.119   3.955
 3469SOL     OW11305   5.252   2.418   2.913
 3469SOL    HW111306   5.272   2.479   2.990
 3469SOL    HW211307   5.208   2.335   2.946
 3470SOL     OW11308   0.394   5.354   1.038
 3470SOL    HW111309   0.410   5.421   0.965
 3470SOL    HW211310   0.330   5.392   1.105
 3471SOL     OW11311   3.958   6.407   4.742
 3471SOL    HW111312   3.906   6.357   4.811
 3471SOL    HW211313   3.895   6.460   4.685
 3472SOL     OW11314   3.396   1.338   5.259
 3472SOL    HW111315   3.384   1.408   5.189
 3472SOL    HW211316   3.307   1.320   5.303
 3473SOL     OW11317   5.438   0.803   5.884
 3473SOL    HW111318   5.357   0.745   5.884
 3473SOL    HW211319   5.421   0.884   5.827
 3474SOL     OW11320   4.676   5.612   0.948
 3474SOL    HW111321   4.594   5.573   0.989
 3474SOL    HW211322   4.650   5.690   0.890
 3475SOL     OW11323   1.655   5.746   4.719
 3475SOL    HW111324   1.665   5.734   4.818
 3475SOL    HW211325   1.743   5.774   4.680
 3476SOL     OW11326   4.886   0.847   4.070
 3476SOL    HW111327   4.843   0.829   4.159
 3476SOL    HW211328   4.973   0.799   4.066
 3477SOL     OW11329   4.204   6.143   1.800
 3477SOL    HW111330   4.275   6.075   1.778
 3477SOL    HW211331   4.247   6.227   1.833
 3478SOL     OW11332   4.247   4.498   0.325
 3478SOL    HW111333   4.249   4.589   0.282
 3478SOL    HW211334   4.306   4.436   0.274
 3479SOL     OW11335   1.143   0.709   2.193
 3479SOL    HW111336   1.183   0.690   2.283
 3479SOL    HW211337   1.057   0.659   2.183
 3480SOL     OW11338   1.404   1.408   3.071
 3480SOL    HW111339   1.379   1.490   3.123
 3480SOL    HW211340   1.366   1.414   2.979
 3481SOL     OW11341   2.203   6.563   0.050
 3481SOL    HW111342   2.166   6.652   0.024
 3481SOL    HW211343   2.275   6.575   0.118
 3482SOL     OW11344   0.295   2.373   0.555
 3482SOL    HW111345   0.379   2.421   0.529
 3482SOL    HW211346   0.257   2.326   0.476
 3483SOL     OW11347   3.019   6.784   1.386
 3483SOL    HW111348   3.108   6.789   1.341
 3483SOL    HW211349   2.975   6.697   1.363
 3484SOL     OW11350   3.416   3.884   3.595
 3484SOL    HW111351   3.345   3.814   3.591
 3484SOL    HW211352   3.374   3.973   3.613
 3485SOL     OW11353   0.979   2.503   4.954
 3485SOL    HW111354   0.958   2.477   4.860
 3485SOL    HW211355   1.067   2.551   4.956
 3486SOL     OW11356   4.279   1.781   2.329
 3486SOL    HW111357   4.214   1.754   2.258
 3486SOL    HW211358   4.267   1.878   2.351
 3487SOL     OW11359   6.604   0.481   0.253
 3487SOL    HW111360   6.674   0.435   0.307
 3487SOL    HW211361   6.615   0.580   0.260
 3488SOL     OW11362   5.788   3.519   4.003
 3488SOL    HW111363   5.827   3.605   3.971
 3488SOL    HW211364   5.849   3.443   3.976
 3489SOL     OW11365   3.153   6.902   1.042
 3489SOL    HW111366   3.181   6.969   1.111
 3489SOL    HW211367   3.175   6.810   1.074
 3490SOL     OW11368   4.373   3.832   0.447
 3490SOL    HW111369   4.435   3.796   0.517
 3490SOL    HW211370   4.346   3.757   0.386
 3491SOL     OW11371   0.481   3.119   4.536
 3491SOL    HW111372   0.516   3.213   4.538
 3491SOL    HW211373   0.557   3.055   4.531
 3492SOL     OW11374   6.315   4.832   6.514
 3492SOL    HW111375   6.334   4.863   6.608
 3492SOL    HW211376   6.307   4.733   6.513
 3493SOL     OW11377   6.623   4.393   0.548
 3493SOL    HW111378   6.656   4.441   0.630
 3493SOL    HW211379   6.582   4.460   0.486
 3494SOL     OW11380   3.278   0.266   0.684
 3494SOL    HW111381   3.268   0.365   0.673
 3494SOL    HW211382   3.201   0.219   0.642
 3495SOL     OW11383   5.128   4.936   0.287
 3495SOL    HW111384   5.224   4.942   0.315
 3495SOL    HW211385   5.072   4.911   0.367
 3496SOL     OW11386   2.052   3.300   1.225
 3496SOL    HW111387   2.101   3.323   1.141
 3496SOL    HW211388   2.075   3.206   1.252
 3497SOL     OW11389   4.718   0.141   3.487
 3497SOL    HW111390   4.628   0.126   3.446
 3497SOL    HW211391   4.789   0.124   3.419
 3498SOL     OW11392   2.486   1.374   1.739
 3498SOL    HW111393   2.431   1.427   1.803
 3498SOL    HW211394   2.447   1.383   1.647
 3499SOL     OW11395   6.637   3.339   3.838
 3499SOL    HW111396   6.566   3.331   3.908
 3499SOL    HW211397   6.622   3.421   3.784
 3500SOL     OW11398   6.776   3.240   0.276
 3500SOL    HW111399   6.791   3.181   0.356
 3500SOL    HW211400   6.780   3.184   0.193
 3501SOL     OW11401   1.458   4.459   4.257
 3501SOL    HW111402   1.412   4.539   4.296
 3501SOL    HW211403   1.550   4.451   4.295
 3502SOL     OW11404   0.515   3.227   1.655
 3502SOL    HW111405   0.439   3.288   1.677
 3502SOL    HW211406   0.599   3.261   1.698
 3503SOL     OW11407   4.968   5.906   4.444
 3503SOL    HW111408   4.889   5.893   4.385
 3503SOL    HW211409   5.052   5.906   4.388
 3504SOL     OW11410   2.164   3.307   1.751
 3504SOL    HW111411   2.238   3.363   1.790
 3504SOL    HW211412   2.202   3.241   1.686
 3505SOL     OW11413   5.506   5.283   5.019
 3505SOL    HW111414   5.473   5.279   5.113
 3505SOL    HW211415   5.508   5.190   4.981
 3506SOL     OW11416   4.850   5.346   2.412
 3506SOL    HW111417   4.842   5.424   2.474
 3506SOL    HW211418   4.933   5.295   2.434
 3507SOL     OW11419   0.916   0.493   6.235
 3507SOL    HW111420   0.919   0.475   6.333
 3507SOL    HW211421   0.866   0.420   6.189
 3508SOL     OW11422   6.104   3.065   6.994
 3508SOL    HW111423   6.063   3.069   6.903
 3508SOL    HW211424   6.045   3.012   0.029
 3509SOL     OW11425   6.516   6.548   0.662
 3509SOL    HW111426   6.582   6.591   0.601
 3509SOL    HW211427   6.490   6.458   0.627
 3510SOL     OW11428   1.819   3.346   2.169
 3510SOL    HW111429   1.897   3.309   2.119
 3510SOL    HW211430   1.797   3.285   2.246
 3511SOL     OW11431   0.711   1.477   5.669
 3511SOL    HW111432   0.648   1.549   5.639
 3511SOL    HW211433   0.706   1.400   5.605
 3512SOL     OW11434   2.847   3.630   0.955
 3512SOL    HW111435   2.856   3.539   0.994
 3512SOL    HW211436   2.801   3.624   0.867
 3513SOL     OW11437   6.361   4.632   1.227
 3513SOL    HW111438   6.264   4.654   1.230
 3513SOL    HW211439   6.386   4.602   1.135
 3514SOL     OW11440   0.826   6.086   1.512
 3514SOL    HW111441   0.856   6.175   1.547
 3514SOL    HW211442   0.752   6.052   1.569
 3515SOL     OW11443   2.615   6.252   3.745
 3515SOL    HW111444   2.559   6.192   3.802
 3515SOL    HW211445   2.555   6.313   3.692
 3516SOL     OW11446   3.294   1.228   1.006
 3516SOL    HW111447   3.229   1.301   0.988
 3516SOL    HW211448   3.367   1.262   1.066
 3517SOL     OW11449   0.941   1.054   6.130
 3517SOL    HW111450   1.008   1.118   6.168
 3517SOL    HW211451   0.881   1.022   6.203
 3518SOL     OW11452   4.081   2.978   5.703
 3518SOL    HW111453   4.065   3.069   5.663
 3518SOL    HW211454   4.047   2.977   5.798
 3519SOL     OW11455   1.865   6.182   0.273
 3519SOL    HW111456   1.848   6.276   0.244
 3519SOL    HW211457   1.878   6.124   0.192
 3520SOL     OW11458   4.271   5.605   0.712
 3520SOL    HW111459   4.343   5.562   0.660
 3520SOL    HW211460   4.287   5.591   0.810
 3521SOL     OW11461   5.974   2.575   0.460
 3521SOL    HW111462   6.073   2.593   0.454
 3521SOL    HW211463   5.951   2.499   0.399
 3522SOL     OW11464   3.082   4.814   2.383
 3522SOL    HW111465   3.154   4.855   2.328
 3522SOL    HW211466   3.122   4.751   2.450
 3523SOL     OW11467   2.767   4.891   5.895
 3523SOL    HW111468   2.766   4.800   5.855
 3523SOL    HW211469   2.703   4.894   5.972
 3524SOL     OW11470   2.480   0.131   0.965
 3524SOL    HW111471   2.502   0.153   1.060
 3524SOL    HW211472   2.529   0.193   0.904
 3525SOL     OW11473   0.819   2.923   2.942
 3525SOL    HW111474   0.880   3.000   2.961
 3525SOL    HW211475   0.871   2.838   2.945
 3526SOL     OW11476   2.373   1.184   2.428
 3526SOL    HW111477   2.395   1.234   2.512
 3526SOL    HW211478   2.357   1.088   2.450
 3527SOL     OW11479   5.153   2.746   5.848
 3527SOL    HW111480   5.110   2.696   5.774
 3527SOL    HW211481   5.163   2.842   5.823
 3528SOL     OW11482   6.863   0.091   4.614
 3528SOL    HW111483   6.841   0.021   4.546
 3528SOL    HW211484   6.954   0.073   4.651
 3529SOL     OW11485   3.683   6.247   6.072
 3529SOL    HW111486   3.709   6.167   6.127
 3529SOL    HW211487   3.700   6.331   6.124
 3530SOL     OW11488   1.730   6.130   3.301
 3530SOL    HW111489   1.804   6.128   3.233
 3530SOL    HW211490   1.702   6.225   3.315
 3531SOL     OW11491   4.771   3.926   6.837
 3531SOL    HW111492   4.788   3.899   6.743
 3531SOL    HW211493   4.856   3.954   6.881
 3532SOL     OW11494   1.739   6.967   6.846
 3532SOL    HW111495   1.751   6.913   6.930
 3532SOL    HW211496   1.657   6.934   6.798
 3533SOL     OW11497   1.667   1.556   2.659
 3533SOL    HW111498   1.636   1.603   2.577
 3533SOL    HW211499   1.596   1.561   2.729
 3534SOL     OW11500   5.396   0.937   4.291
 3534SOL    HW111501   5.364   1.028   4.264
 3534SOL    HW211502   5.317   0.878   4.310
 3535SOL     OW11503   4.570   5.714   6.539
 3535SOL    HW111504   4.564   5.758   6.450
 3535SOL    HW211505   4.565   5.614   6.527
 3536SOL     OW11506   0.884   4.317   3.234
 3536SOL    HW111507   0.926   4.273   3.314
 3536SOL    HW211508   0.955   4.347   3.171
 3537SOL     OW11509   2.386   4.663   0.739
 3537SOL    HW111510   2.390   4.640   0.836
 3537SOL    HW211511   2.315   4.609   0.694
 3538SOL     OW11512   2.969   1.013   4.593
 3538SOL    HW111513   3.008   0.943   4.532
 3538SOL    HW211514   2.870   1.016   4.580
 3539SOL     OW11515   5.381   5.594   6.312
 3539SOL    HW111516   5.442   5.652   6.366
 3539SOL    HW211517   5.329   5.650   6.249
 3540SOL     OW11518   3.079   3.584   6.489
 3540SOL    HW111519   3.075   3.676   6.526
 3540SOL    HW211520   3.014   3.575   6.414
 3541SOL     OW11521   2.772   2.640   1.345
 3541SOL    HW111522   2.836   2.674   1.414
 3541SOL    HW211523   2.775   2.701   1.265
 3542SOL     OW11524   5.710   2.167   6.039
 3542SOL    HW111525   5.618   2.205   6.023
 3542SOL    HW211526   5.721   2.147   6.136
 3543SOL     OW11527   0.773   2.439   3.527
 3543SOL    HW111528   0.689   2.414   3.576
 3543SOL    HW211529   0.841   2.366   3.539
 3544SOL     OW11530   2.776   4.469   6.342
 3544SOL    HW111531   2.739   4.394   6.286
 3544SOL    HW211532   2.820   4.431   6.423
 3545SOL     OW11533   3.484   6.659   1.190
 3545SOL    HW111534   3.468   6.564   1.164
 3545SOL    HW211535   3.519   6.662   1.284
 3546SOL     OW11536   0.352   4.093   3.279
 3546SOL    HW111537   0.331   3.997   3.295
 3546SOL    HW211538   0.300   4.126   3.200
 3547SOL     OW11539   0.970   4.523   5.642
 3547SOL    HW111540   0.897   4.584   5.675
 3547SOL    HW211541   0.929   4.437   5.611
 3548SOL     OW11542   6.046   0.760   5.108
 3548SOL    HW111543   6.094   0.686   5.154
 3548SOL    HW211544   5.981   0.722   5.042
 3549SOL     OW11545   2.844   6.535   0.064
 3549SOL    HW111546   2.889   6.498   7.009
 3549SOL    HW211547   2.755   6.490   0.077
 3550SOL     OW11548   5.472   0.843   5.413
 3550SOL    HW111549   5.504   0.837   5.318
 3550SOL    HW211550   5.372   0.851   5.414
 3551SOL     OW11551   4.182   1.890   4.520
 3551SOL    HW111552   4.269   1.840   4.519
 3551SOL    HW211553   4.147   1.894   4.614
 3552SOL     OW11554   0.516   6.778   2.787
 3552SOL    HW111555   0.432   6.820   2.752
 3552SOL    HW211556   0.516   6.680   2.765
 3553SOL     OW11557   4.983   5.575   0.158
 3553SOL    HW111558   5.061   5.614   0.207
 3553SOL    HW211559   5.013   5.543   0.068
 3554SOL     OW11560   5.470   2.905   1.089
 3554SOL    HW111561   5.507   2.813   1.103
 3554SOL    HW211562   5.430   2.910   0.997
 3555SOL     OW11563   2.753   2.022   5.199
 3555SOL    HW111564   2.800   1.941   5.235
 3555SOL    HW211565   2.769   2.100   5.260
 3556SOL     OW11566   5.413   0.986   5.663
 3556SOL    HW111567   5.432   0.928   5.584
 3556SOL    HW211568   5.460   1.073   5.653
 3557SOL     OW11569   6.711   1.014   0.869
 3557SOL    HW111570   6.615   0.988   0.869
 3557SOL    HW211571   6.735   1.055   0.958
 3558SOL     OW11572   3.501   6.603   2.231
 3558SOL    HW111573   3.591   6.604   2.187
 3558SOL    HW211574   3.495   6.526   2.294
 3559SOL     OW11575   4.723   6.208   5.463
 3559SOL    HW111576   4.629   6.226   5.493
 3559SOL    HW211577   4.780   6.289   5.479
 3560SOL     OW11578   1.945   5.360   4.401
 3560SOL    HW111579   1.929   5.263   4.417
 3560SOL    HW211580   2.023   5.372   4.340
 3561SOL     OW11581   4.843   3.862   5.368
 3561SOL    HW111582   4.838   3.762   5.375
 3561SOL    HW211583   4.751   3.898   5.350
 3562SOL     OW11584   1.899   1.390   5.872
 3562SOL    HW111585   1.901   1.482   5.832
 3562SOL    HW211586   1.969   1.333   5.829
 3563SOL     OW11587   6.359   2.719   5.017
 3563SOL    HW111588   6.361   2.742   4.920
 3563SOL    HW211589   6.302   2.638   5.032
 3564SOL     OW11590   6.121   4.160   1.882
 3564SOL    HW111591   6.115   4.182   1.979
 3564SOL    HW211592   6.061   4.083   1.861
 3565SOL     OW11593   3.899   5.777   3.145
 3565SOL    HW111594   3.864   5.860   3.190
 3565SOL    HW211595   3.999   5.782   3.139
 3566SOL     OW11596   1.334   0.377   5.698
 3566SOL    HW111597   1.302   0.294   5.652
 3566SOL    HW211598   1.271   0.400   5.772
 3567SOL     OW11599   0.324   3.799   6.464
 3567SOL    HW111600   0.298   3.833   6.555
 3567SOL    HW211601   0.386   3.721   6.475
 3568SOL     OW11602   6.186   3.772   5.664
 3568SOL    HW111603   6.179   3.866   5.696
 3568SOL    HW211604   6.094   3.734   5.653
 3569SOL     OW11605   1.555   1.659   5.321
 3569SOL    HW111606   1.600   1.583   5.275
 3569SOL    HW211607   1.488   1.624   5.386
 3570SOL     OW11608   6.551   1.788   3.732
 3570SOL    HW111609   6.492   1.861   3.696
 3570SOL    HW211610   6.524   1.701   3.692
 3571SOL     OW11611   6.286   6.264   5.711
 3571SOL    HW111612   6.285   6.316   5.626
 3571SOL    HW211613   6.308   6.324   5.787
 3572SOL     OW11614   5.840   5.184   4.478
 3572SOL    HW111615   5.809   5.279   4.484
 3572SOL    HW211616   5.798   5.141   4.398
 3573SOL     OW11617   1.180   2.766   2.807
 3573SOL    HW111618   1.229   2.785   2.722
 3573SOL    HW211619   1.114   2.693   2.791
 3574SOL     OW11620   6.900   3.600   0.717
 3574SOL    HW111621   6.933   3.600   0.811
 3574SOL    HW211622   6.829   3.670   0.706
 3575SOL     OW11623   6.082   4.843   2.206
 3575SOL    HW111624   6.163   4.846   2.148
 3575SOL    HW211625   6.019   4.916   2.179
 3576SOL     OW11626   0.360   1.480   5.888
 3576SOL    HW111627   0.342   1.424   5.807
 3576SOL    HW211628   0.450   1.456   5.925
 3577SOL     OW11629   1.223   3.139   0.140
 3577SOL    HW111630   1.217   3.218   0.201
 3577SOL    HW211631   1.144   3.079   0.155
 3578SOL     OW11632   3.581   5.151   0.808
 3578SOL    HW111633   3.606   5.236   0.761
 3578SOL    HW211634   3.594   5.074   0.746
 3579SOL     OW11635   6.836   4.272   4.665
 3579SOL    HW111636   6.823   4.302   4.571
 3579SOL    HW211637   6.913   4.322   4.706
 3580SOL     OW11638   6.276   2.100   2.346
 3580SOL    HW111639   6.181   2.073   2.335
 3580SOL    HW211640   6.330   2.022   2.379
 3581SOL     OW11641   0.094   0.215   2.755
 3581SOL    HW111642   0.014   0.241   2.809
 3581SOL    HW211643   0.064   0.180   2.666
 3582SOL     OW11644   1.166   0.321   6.174
 3582SOL    HW111645   1.237   0.377   6.216
 3582SOL    HW211646   1.088   0.378   6.148
 3583SOL     OW11647   1.139   5.346   0.392
 3583SOL    HW111648   1.104   5.381   0.305
 3583SOL    HW211649   1.172   5.252   0.380
 3584SOL     OW11650   5.036   5.671   6.602
 3584SOL    HW111651   5.043   5.665   6.502
 3584SOL    HW211652   5.123   5.643   6.643
 3585SOL     OW11653   3.232   4.872   4.186
 3585SOL    HW111654   3.328   4.873   4.159
 3585SOL    HW211655   3.225   4.896   4.283
 3586SOL     OW11656   0.131   3.126   5.682
 3586SOL    HW111657   0.161   3.174   5.764
 3586SOL    HW211658   0.187   3.155   5.604
 3587SOL     OW11659   4.488   6.577   6.846
 3587SOL    HW111660   4.428   6.648   6.809
 3587SOL    HW211661   4.501   6.592   6.944
 3588SOL     OW11662   1.393   1.847   6.037
 3588SOL    HW111663   1.339   1.869   5.956
 3588SOL    HW211664   1.375   1.752   6.064
 3589SOL     OW11665   3.142   0.893   5.408
 3589SOL    HW111666   3.172   0.885   5.503
 3589SOL    HW211667   3.117   0.988   5.388
 3590SOL     OW11668   1.863   5.252   6.420
 3590SOL    HW111669   1.781   5.256   6.476
 3590SOL    HW211670   1.944   5.248   6.478
 3591SOL     OW11671   5.086   2.278   5.697
 3591SOL    HW111672   5.072   2.222   5.615
 3591SOL    HW211673   5.063   2.224   5.778
 3592SOL     OW11674   5.101   2.885   2.410
 3592SOL    HW111675   5.143   2.974   2.392
 3592SOL    HW211676   5.098   2.832   2.325
 3593SOL     OW11677   1.565   6.222   4.017
 3593SOL    HW111678   1.609   6.133   4.001
 3593SOL    HW211679   1.482   6.229   3.962
 3594SOL     OW11680   2.911   1.529   4.237
 3594SOL    HW111681   2.901   1.628   4.221
 3594SOL    HW211682   2.830   1.482   4.203
 3595SOL     OW11683   2.738   5.955   6.509
 3595SOL    HW111684   2.683   5.879   6.544
 3595SOL    HW211685   2.826   5.921   6.477
 3596SOL     OW11686   6.424   2.044   2.689
 3596SOL    HW111687   6.401   1.986   2.611
 3596SOL    HW211688   6.341   2.089   2.722
 3597SOL     OW11689   3.210   5.804   3.834
 3597SOL    HW111690   3.175   5.719   3.873
 3597SOL    HW211691   3.157   5.882   3.868
 3598SOL     OW11692   1.109   6.739   6.760
 3598SOL    HW111693   1.198   6.758   6.801
 3598SOL    HW211694   1.113   6.653   6.709
 3599SOL     OW11695   0.407   1.764   4.772
 3599SOL    HW111696   0.408   1.864   4.762
 3599SOL    HW211697   0.328   1.737   4.827
 3600SOL     OW11698   5.703   2.236   0.515
 3600SOL    HW111699   5.793   2.220   0.556
 3600SOL    HW211700   5.710   2.307   0.445
 3601SOL     OW11701   0.030   3.859   6.443
 3601SOL    HW111702   0.064   3.951   6.460
 3601SOL    HW211703   0.108   3.796   6.436
 3602SOL     OW11704   2.131   0.863   6.890
 3602SOL    HW111705   2.047   0.917   6.896
 3602SOL    HW211706   2.145   0.813   6.976
 3603SOL     OW11707   4.177   4.718   3.813
 3603SOL    HW111708   4.162   4.668   3.729
 3603SOL    HW211709   4.192   4.815   3.793
 3604SOL     OW11710   0.397   2.663   2.920
 3604SOL    HW111711   0.364   2.755   2.942
 3604SOL    HW211712   0.322   2.608   2.884
 3605SOL     OW11713   5.512   3.384   6.173
 3605SOL    HW111714   5.435   3.377   6.237
 3605SOL    HW211715   5.594   3.412   6.223
 3606SOL     OW11716   0.706   4.241   5.379
 3606SOL    HW111717   0.760   4.230   5.295
 3606SOL    HW211718   0.618   4.281   5.356
 3607SOL     OW11719   5.362   6.891   0.648
 3607SOL    HW111720   5.262   6.897   0.647
 3607SOL    HW211721   5.398   6.917   0.559
 3608SOL     OW11722   0.467   2.334   1.739
 3608SOL    HW111723   0.433   2.385   1.818
 3608SOL    HW211724   0.456   2.236   1.757
 3609SOL     OW11725   6.587   0.758   4.567
 3609SOL    HW111726   6.570   0.663   4.594
 3609SOL    HW211727   6.600   0.814   4.648
 3610SOL     OW11728   1.330   6.430   5.928
 3610SOL    HW111729   1.390   6.362   5.885
 3610SOL    HW211730   1.297   6.494   5.858
 3611SOL     OW11731   3.830   5.438   5.782
 3611SOL    HW111732   3.840   5.363   5.847
 3611SOL    HW211733   3.836   5.525   5.831
 3612SOL     OW11734   1.492   6.812   0.889
 3612SOL    HW111735   1.448   6.864   0.815
 3612SOL    HW211736   1.465   6.716   0.883
 3613SOL     OW11737   5.777   4.952   6.457
 3613SOL    HW111738   5.852   4.974   6.520
 3613SOL    HW211739   5.748   4.858   6.472
 3614SOL     OW11740   3.854   3.007   3.521
 3614SOL    HW111741   3.885   3.071   3.450
 3614SOL    HW211742   3.795   2.938   3.481
 3615SOL     OW11743   5.897   5.677   5.465
 3615SOL    HW111744   5.986   5.699   5.426
 3615SOL    HW211745   5.839   5.635   5.395
 3616SOL     OW11746   6.820   2.027   5.000
 3616SOL    HW111747   6.756   1.984   4.935
 3616SOL    HW211748   6.873   2.097   4.952
 3617SOL     OW11749   6.705   1.482   6.387
 3617SOL    HW111750   6.715   1.574   6.424
 3617SOL    HW211751   6.792   1.433   6.394
 3618SOL     OW11752   1.895   2.082   6.824
 3618SOL    HW111753   1.977   2.132   6.853
 3618SOL    HW211754   1.923   2.004   6.768
 3619SOL     OW11755   5.663   2.275   4.355
 3619SOL    HW111756   5.675   2.331   4.272
 3619SOL    HW211757   5.579   2.222   4.347
 3620SOL     OW11758   5.812   0.291   4.579
 3620SOL    HW111759   5.867   0.259   4.501
 3620SOL    HW211760   5.865   0.359   4.630
 3621SOL     OW11761   2.449   3.519   5.708
 3621SOL    HW111762   2.523   3.482   5.764
 3621SOL    HW211763   2.371   3.457   5.711
 3622SOL     OW11764   0.912   2.225   2.216
 3622SOL    HW111765   0.902   2.199   2.312
 3622SOL    HW211766   0.958   2.313   2.210
 3623SOL     OW11767   5.039   5.008   3.356
 3623SOL    HW111768   5.108   5.047   3.296
 3623SOL    HW211769   4.986   5.082   3.398
 3624SOL     OW11770   2.661   6.696   2.975
 3624SOL    HW111771   2.623   6.618   3.025
 3624SOL    HW211772   2.761   6.692   2.977
 3625SOL     OW11773   6.075   3.191   5.208
 3625SOL    HW111774   5.993   3.133   5.213
 3625SOL    HW211775   6.150   3.140   5.167
 3626SOL     OW11776   1.911   3.968   5.273
 3626SOL    HW111777   1.821   3.988   5.314
 3626SOL    HW211778   1.944   4.048   5.224
 3627SOL     OW11779   3.130   3.765   3.834
 3627SOL    HW111780   3.053   3.701   3.831
 3627SOL    HW211781   3.174   3.760   3.923
 3628SOL     OW11782   1.932   5.634   2.535
 3628SOL    HW111783   1.895   5.594   2.452
 3628SOL    HW211784   2.017   5.587   2.560
 3629SOL     OW11785   5.815   1.625   5.090
 3629SOL    HW111786   5.878   1.631   5.168
 3629SOL    HW211787   5.749   1.700   5.095
 3630SOL     OW11788   6.339   1.914   4.439
 3630SOL    HW111789   6.352   1.958   4.527
 3630SOL    HW211790   6.414   1.937   4.378
 3631SOL     OW11791   2.881   0.260   4.874
 3631SOL    HW111792   2.960   0.309   4.910
 3631SOL    HW211793   2.908   0.207   4.794
 3632SOL     OW11794   5.145   1.003   0.550
 3632SOL    HW111795   5.168   1.077   0.612
 3632SOL    HW211796   5.225   0.944   0.537
 3633SOL     OW11797   2.558   2.782   6.095
 3633SOL    HW111798   2.627   2.833   6.044
 3633SOL    HW211799   2.598   2.748   6.180
 3634SOL     OW11800   2.101   6.017   5.140
 3634SOL    HW111801   2.107   6.068   5.226
 3634SOL    HW211802   2.010   5.976   5.132
 3635SOL     OW11803   2.742   1.818   5.981
 3635SOL    HW111804   2.701   1.735   5.943
 3635SOL    HW211805   2.731   1.817   6.080
 3636SOL     OW11806   0.483   5.531   6.003
 3636SOL    HW111807   0.523   5.621   5.984
 3636SOL    HW211808   0.557   5.464   6.016
 3637SOL     OW11809   5.642   1.116   1.399
 3637SOL    HW111810   5.649   1.202   1.450
 3637SOL    HW211811   5.606   1.045   1.460
 3638SOL     OW11812   6.885   4.391   4.423
 3638SOL    HW111813   6.870   4.452   4.346
 3638SOL    HW211814   6.980   4.358   4.421
 3639SOL     OW11815   2.135   4.712   0.980
 3639SOL    HW111816   2.180   4.623   0.980
 3639SOL    HW211817   2.056   4.709   1.042
 3640SOL     OW11818   3.469   5.469   1.493
 3640SOL    HW111819   3.494   5.491   1.587
 3640SOL    HW211820   3.437   5.374   1.488
 3641SOL     OW11821   3.302   1.057   4.920
 3641SOL    HW111822   3.213   1.016   4.902
 3641SOL    HW211823   3.340   1.094   4.835
 3642SOL     OW11824   4.975   0.432   4.388
 3642SOL    HW111825   5.073   0.435   4.368
 3642SOL    HW211826   4.933   0.355   4.340
 3643SOL     OW11827   2.472   5.143   5.076
 3643SOL    HW111828   2.388   5.161   5.127
 3643SOL    HW211829   2.453   5.149   4.978
 3644SOL     OW11830   6.494   2.449   0.867
 3644SOL    HW111831   6.504   2.379   0.938
 3644SOL    HW211832   6.579   2.454   0.813
 3645SOL     OW11833   4.644   1.678   3.600
 3645SOL    HW111834   4.732   1.639   3.571
 3645SOL    HW211835   4.571   1.613   3.582
 3646SOL     OW11836   0.190   5.073   5.751
 3646SOL    HW111837   0.271   5.016   5.767
 3646SOL    HW211838   0.218   5.163   5.718
 3647SOL     OW11839   1.440   2.726   0.798
 3647SOL    HW111840   1.473   2.631   0.798
 3647SOL    HW211841   1.456   2.766   0.708
 3648SOL     OW11842   3.341   5.274   2.205
 3648SOL    HW111843   3.384   5.246   2.291
 3648SOL    HW211844   3.270   5.341   2.224
 3649SOL     OW11845   4.422   3.653   0.963
 3649SOL    HW111846   4.345   3.652   1.027
 3649SOL    HW211847   4.422   3.740   0.913
 3650SOL     OW11848   0.216   6.040   1.141
 3650SOL    HW111849   0.133   6.051   1.196
 3650SOL    HW211850   0.236   6.125   1.093
 3651SOL     OW11851   0.350   5.832   2.405
 3651SOL    HW111852   0.369   5.803   2.498
 3651SOL    HW211853   0.311   5.924   2.406
 3652SOL     OW11854   4.555   5.999   3.509
 3652SOL    HW111855   4.588   5.909   3.538
 3652SOL    HW211856   4.456   6.005   3.523
 3653SOL     OW11857   6.494   1.758   3.051
 3653SOL    HW111858   6.510   1.682   2.987
 3653SOL    HW211859   6.408   1.742   3.099
 3654SOL     OW11860   1.999   6.465   0.469
 3654SOL    HW111861   2.042   6.375   0.477
 3654SOL    HW211862   2.002   6.512   0.558
 3655SOL     OW11863   1.814   0.300   4.608
 3655SOL    HW111864   1.809   0.219   4.667
 3655SOL    HW211865   1.726   0.313   4.563
 3656SOL     OW11866   2.098   2.514   2.202
 3656SOL    HW111867   2.150   2.599   2.192
 3656SOL    HW211868   2.153   2.447   2.253
 3657SOL     OW11869   3.935   5.509   0.979
 3657SOL    HW111870   3.926   5.501   0.880
 3657SOL    HW211871   3.851   5.477   1.022
 3658SOL     OW11872   1.156   5.685   5.383
 3658SOL    HW111873   1.208   5.646   5.307
 3658SOL    HW211874   1.070   5.723   5.349
 3659SOL     OW11875   2.886   4.873   0.129
 3659SOL    HW111876   2.977   4.848   0.161
 3659SOL    HW211877   2.820   4.856   0.203
 3660SOL     OW11878   4.896   6.001   1.916
 3660SOL    HW111879   4.873   6.095   1.894
 3660SOL    HW211880   4.837   5.939   1.863
 3661SOL     OW11881   4.840   1.592   0.662
 3661SOL    HW111882   4.842   1.629   0.755
 3661SOL    HW211883   4.850   1.667   0.596
 3662SOL     OW11884   3.600   0.288   5.290
 3662SOL    HW111885   3.612   0.217   5.221
 3662SOL    HW211886   3.513   0.274   5.337
 3663SOL     OW11887   1.582   1.928   0.436
 3663SOL    HW111888   1.602   1.831   0.449
 3663SOL    HW211889   1.667   1.981   0.443
 3664SOL     OW11890   5.293   1.652   0.730
 3664SOL    HW111891   5.226   1.588   0.693
 3664SOL    HW211892   5.248   1.711   0.797
 3665SOL     OW11893   0.340   6.923   5.316
 3665SOL    HW111894   0.405   6.997   5.298
 3665SOL    HW211895   0.297   6.894   5.230
 3666SOL     OW11896   1.714   4.189   4.176
 3666SOL    HW111897   1.811   4.182   4.199
 3666SOL    HW211898   1.660   4.197   4.259
 3667SOL     OW11899   6.578   1.184   6.604
 3667SOL    HW111900   6.563   1.256   6.672
 3667SOL    HW211901   6.634   1.112   6.644
 3668SOL     OW11902   1.483   0.049   3.012
 3668SOL    HW111903   1.559   7.020   2.978
 3668SOL    HW211904   1.494   0.144   2.979
 3669SOL     OW11905   6.141   1.917   4.266
 3669SOL    HW111906   6.203   1.924   4.344
 3669SOL    HW211907   6.129   1.821   4.242
 3670SOL     OW11908   2.257   5.674   6.714
 3670SOL    HW111909   2.180   5.664   6.777
 3670SOL    HW211910   2.272   5.771   6.694
 3671SOL     OW11911   0.583   0.278   3.318
 3671SOL    HW111912   0.600   0.219   3.397
 3671SOL    HW211913   0.509   0.240   3.263
 3672SOL     OW11914   6.327   2.343   0.211
 3672SOL    HW111915   6.307   2.376   0.118
 3672SOL    HW211916   6.293   2.409   0.278
 3673SOL     OW11917   4.340   1.119   6.986
 3673SOL    HW111918   4.366   1.141   6.892
 3673SOL    HW211919   4.242   1.130   6.998
 3674SOL     OW11920   0.537   6.799   6.841
 3674SOL    HW111921   0.469   6.787   6.913
 3674SOL    HW211922   0.526   6.727   6.772
 3675SOL     OW11923   1.631   2.528   5.682
 3675SOL    HW111924   1.591   2.532   5.773
 3675SOL    HW211925   1.621   2.436   5.644
 3676SOL     OW11926   3.681   4.886   4.240
 3676SOL    HW111927   3.707   4.877   4.337
 3676SOL    HW211928   3.588   4.922   4.235
 3677SOL     OW11929   6.930   6.498   3.133
 3677SOL    HW111930   6.876   6.576   3.103
 3677SOL    HW211931   7.006   6.530   3.189
 3678SOL     OW11932   1.373   2.248   3.938
 3678SOL    HW111933   1.382   2.174   4.005
 3678SOL    HW211934   1.289   2.299   3.957
 3679SOL     OW11935   0.556   0.861   2.391
 3679SOL    HW111936   0.487   0.851   2.462
 3679SOL    HW211937   0.549   0.952   2.350
 3680SOL     OW11938   6.300   3.219   3.646
 3680SOL    HW111939   6.372   3.267   3.596
 3680SOL    HW211940   6.281   3.132   3.602
 3681SOL     OW11941   0.730   0.032   5.964
 3681SOL    HW111942   0.671   0.031   5.884
 3681SOL    HW211943   0.825   0.019   5.935
 3682SOL     OW11944   6.613   1.759   5.300
 3682SOL    HW111945   6.688   1.720   5.353
 3682SOL    HW211946   6.536   1.695   5.299
 3683SOL     OW11947   6.198   6.398   4.724
 3683SOL    HW111948   6.141   6.318   4.704
 3683SOL    HW211949   6.274   6.370   4.783
 3684SOL     OW11950   1.871   3.169   1.585
 3684SOL    HW111951   1.875   3.070   1.570
 3684SOL    HW211952   1.960   3.202   1.613
 3685SOL     OW11953   6.157   6.217   6.034
 3685SOL    HW111954   6.165   6.184   6.128
 3685SOL    HW211955   6.196   6.149   5.971
 3686SOL     OW11956   6.497   5.120   1.947
 3686SOL    HW111957   6.573   5.109   2.012
 3686SOL    HW211958   6.417   5.070   1.980
 3687SOL     OW11959   2.618   0.055   6.672
 3687SOL    HW111960   2.622   0.093   6.764
 3687SOL    HW211961   2.628   0.129   6.605
 3688SOL     OW11962   1.312   3.479   0.033
 3688SOL    HW111963   1.213   3.492   0.032
 3688SOL    HW211964   1.350   3.504   6.970
 3689SOL     OW11965   2.035   1.535   5.335
 3689SOL    HW111966   2.108   1.602   5.345
 3689SOL    HW211967   1.948   1.575   5.364
 3690SOL     OW11968   5.745   0.613   5.806
 3690SOL    HW111969   5.835   0.612   5.763
 3690SOL    HW211970   5.706   0.521   5.805
 3691SOL     OW11971   2.993   3.890   6.851
 3691SOL    HW111972   2.905   3.913   6.810
 3691SOL    HW211973   2.980   3.870   6.948
 3692SOL     OW11974   1.008   6.095   5.034
 3692SOL    HW111975   0.937   6.070   4.967
 3692SOL    HW211976   1.035   6.013   5.086
 3693SOL     OW11977   2.869   2.290   3.581
 3693SOL    HW111978   2.887   2.278   3.678
 3693SOL    HW211979   2.956   2.294   3.531
 3694SOL     OW11980   0.785   6.204   3.431
 3694SOL    HW111981   0.766   6.110   3.459
 3694SOL    HW211982   0.872   6.207   3.381
 3695SOL     OW11983   1.552   2.116   2.502
 3695SOL    HW111984   1.525   2.206   2.534
 3695SOL    HW211985   1.648   2.099   2.527
 3696SOL     OW11986   4.415   6.513   5.432
 3696SOL    HW111987   4.323   6.473   5.439
 3696SOL    HW211988   4.479   6.458   5.485
 3697SOL     OW11989   6.768   6.915   3.602
 3697SOL    HW111990   6.839   6.852   3.632
 3697SOL    HW211991   6.682   6.894   3.649
 3698SOL     OW11992   3.326   0.041   5.883
 3698SOL    HW111993   3.259   6.999   5.914
 3698SOL    HW211994   3.280   0.116   5.836
 3699SOL     OW11995   6.789   3.831   2.252
 3699SOL    HW111996   6.871   3.871   2.293
 3699SOL    HW211997   6.734   3.787   2.324
 3700SOL     OW11998   6.197   0.222   4.069
 3700SOL    HW111999   6.104   0.205   4.103
 3700SOL    HW212000   6.250   0.137   4.071
 3701SOL     OW12001   0.064   0.987   3.824
 3701SOL    HW112002   0.039   0.891   3.813
 3701SOL    HW212003   0.042   1.016   3.918
 3702SOL     OW12004   3.781   0.559   1.386
 3702SOL    HW112005   3.740   0.576   1.296
 3702SOL    HW212006   3.708   0.558   1.455
 3703SOL     OW12007   4.081   4.686   6.194
 3703SOL    HW112008   4.093   4.592   6.163
 3703SOL    HW212009   4.096   4.748   6.118
 3704SOL     OW12010   2.791   1.296   2.551
 3704SOL    HW112011   2.834   1.207   2.540
 3704SOL    HW212012   2.824   1.340   2.635
 3705SOL     OW12013   5.034   0.261   3.726
 3705SOL    HW112014   4.982   0.321   3.788
 3705SOL    HW212015   5.113   0.224   3.774
 3706SOL     OW12016   1.800   3.406   4.154
 3706SOL    HW112017   1.845   3.317   4.162
 3706SOL    HW212018   1.793   3.447   4.245
 3707SOL     OW12019   5.473   2.178   5.692
 3707SOL    HW112020   5.471   2.223   5.782
 3707SOL    HW212021   5.401   2.109   5.688
 3708SOL     OW12022   5.884   0.601   6.699
 3708SOL    HW112023   5.913   0.693   6.671
 3708SOL    HW212024   5.963   0.539   6.696
 3709SOL     OW12025   4.025   1.037   6.078
 3709SOL    HW112026   4.030   1.076   6.170
 3709SOL    HW212027   3.934   1.052   6.040
 3710SOL     OW12028   6.230   5.293   0.456
 3710SOL    HW112029   6.287   5.285   0.538
 3710SOL    HW212030   6.195   5.386   0.449
 3711SOL     OW12031   0.312   6.200   2.051
 3711SOL    HW112032   0.410   6.194   2.067
 3711SOL    HW212033   0.274   6.274   2.106
 3712SOL     OW12034   0.554   6.450   6.467
 3712SOL    HW112035   0.650   6.473   6.483
 3712SOL    HW212036   0.542   6.418   6.373
 3713SOL     OW12037   2.713   6.086   4.959
 3713SOL    HW112038   2.775   6.141   5.015
 3713SOL    HW212039   2.665   6.021   5.017
 3714SOL     OW12040   4.259   6.868   4.368
 3714SOL    HW112041   4.172   6.822   4.351
 3714SOL    HW212042   4.300   6.833   4.453
 3715SOL     OW12043   5.147   4.831   4.046
 3715SOL    HW112044   5.223   4.896   4.036
 3715SOL    HW212045   5.122   4.824   4.143
 3716SOL     OW12046   6.727   0.330   4.523
 3716SOL    HW112047   6.735   0.241   4.568
 3716SOL    HW212048   6.656   0.384   4.568
 3717SOL     OW12049   6.058   5.644   0.647
 3717SOL    HW112050   6.018   5.616   0.734
 3717SOL    HW212051   5.994   5.704   0.599
 3718SOL     OW12052   0.960   6.818   0.195
 3718SOL    HW112053   1.006   6.878   0.129
 3718SOL    HW212054   1.019   6.740   0.216
 3719SOL     OW12055   4.835   4.915   6.975
 3719SOL    HW112056   4.895   4.848   7.020
 3719SOL    HW212057   4.777   4.867   6.908
 3720SOL     OW12058   6.794   1.794   6.190
 3720SOL    HW112059   6.722   1.857   6.160
 3720SOL    HW212060   6.870   1.847   6.228
 3721SOL     OW12061   5.916   4.554   6.921
 3721SOL    HW112062   6.008   4.586   6.898
 3721SOL    HW212063   5.858   4.632   6.943
 3722SOL     OW12064   0.003   5.668   2.617
 3722SOL    HW112065   0.062   5.597   2.579
 3722SOL    HW212066   6.946   5.676   2.561
 3723SOL     OW12067   5.377   6.910   1.663
 3723SOL    HW112068   5.305   6.972   1.694
 3723SOL    HW212069   5.435   6.957   1.596
 3724SOL     OW12070   0.925   5.401   0.551
 3724SOL    HW112071   1.006   5.379   0.498
 3724SOL    HW212072   0.852   5.431   0.489
 3725SOL     OW12073   6.867   5.990   6.638
 3725SOL    HW112074   6.894   6.013   6.731
 3725SOL    HW212075   6.949   5.983   6.581
 3726SOL     OW12076   5.547   3.622   2.211
 3726SOL    HW112077   5.619   3.596   2.275
 3726SOL    HW212078   5.550   3.562   2.131
 3727SOL     OW12079   1.081   2.951   4.982
 3727SOL    HW112080   1.152   2.996   4.927
 3727SOL    HW212081   1.100   2.853   4.987
 3728SOL     OW12082   2.295   3.243   0.080
 3728SOL    HW112083   2.300   3.143   0.080
 3728SOL    HW212084   2.230   3.273   0.009
 3729SOL     OW12085   0.926   1.851   3.399
 3729SOL    HW112086   0.873   1.870   3.482
 3729SOL    HW212087   1.022   1.873   3.415
 3730SOL     OW12088   2.920   0.881   6.829
 3730SOL    HW112089   2.923   0.844   6.922
 3730SOL    HW212090   2.941   0.978   6.830
 3731SOL     OW12091   4.326   1.308   0.746
 3731SOL    HW112092   4.349   1.379   0.680
 3731SOL    HW212093   4.372   1.327   0.833
 3732SOL     OW12094   1.935   3.552   5.787
 3732SOL    HW112095   1.921   3.651   5.783
 3732SOL    HW212096   1.848   3.506   5.766
 3733SOL     OW12097   2.578   3.956   1.264
 3733SOL    HW112098   2.557   3.859   1.276
 3733SOL    HW212099   2.633   3.988   1.341
 3734SOL     OW12100   4.207   1.424   2.716
 3734SOL    HW112101   4.284   1.452   2.773
 3734SOL    HW212102   4.218   1.463   2.624
 3735SOL     OW12103   2.170   2.603   3.040
 3735SOL    HW112104   2.130   2.564   2.958
 3735SOL    HW212105   2.219   2.686   3.017
 3736SOL     OW12106   6.278   2.651   1.027
 3736SOL    HW112107   6.291   2.710   1.107
 3736SOL    HW212108   6.366   2.628   0.987
 3737SOL     OW12109   5.127   0.234   2.937
 3737SOL    HW112110   5.146   0.330   2.915
 3737SOL    HW212111   5.065   0.196   2.868
 3738SOL     OW12112   6.165   6.164   3.666
 3738SOL    HW112113   6.146   6.234   3.734
 3738SOL    HW212114   6.116   6.184   3.581
 3739SOL     OW12115   0.946   3.598   2.105
 3739SOL    HW112116   1.014   3.638   2.167
 3739SOL    HW212117   0.856   3.602   2.147
 3740SOL     OW12118   4.929   1.428   6.803
 3740SOL    HW112119   4.946   1.526   6.812
 3740SOL    HW212120   4.934   1.385   6.893
 3741SOL     OW12121   4.560   3.356   1.087
 3741SOL    HW112122   4.573   3.314   1.177
 3741SOL    HW212123   4.527   3.449   1.098
 3742SOL     OW12124   3.874   2.222   5.874
 3742SOL    HW112125   3.969   2.201   5.852
 3742SOL    HW212126   3.815   2.189   5.800
 3743SOL     OW12127   6.788   4.993   0.273
 3743SOL    HW112128   6.880   5.009   0.307
 3743SOL    HW212129   6.793   4.949   0.183
 3744SOL     OW12130   0.026   4.875   3.989
 3744SOL    HW112131   0.115   4.848   4.025
 3744SOL    HW212132   6.994   4.794   3.977
 3745SOL     OW12133   3.504   5.613   2.537
 3745SOL    HW112134   3.547   5.661   2.460
 3745SOL    HW212135   3.558   5.629   2.620
 3746SOL     OW12136   4.522   2.328   1.692
 3746SOL    HW112137   4.504   2.420   1.726
 3746SOL    HW212138   4.554   2.270   1.767
 3747SOL     OW12139   3.086   6.899   0.032
 3747SOL    HW112140   3.133   6.840   0.098
 3747SOL    HW212141   3.103   6.865   6.965
 3748SOL     OW12142   6.046   0.576   1.240
 3748SOL    HW112143   5.948   0.584   1.259
 3748SOL    HW212144   6.077   0.659   1.194
 3749SOL     OW12145   1.330   6.738   4.337
 3749SOL    HW112146   1.235   6.721   4.364
 3749SOL    HW212147   1.362   6.823   4.379
 3750SOL     OW12148   6.998   3.693   0.344
 3750SOL    HW112149   6.916   3.651   0.305
 3750SOL    HW212150   0.045   3.625   0.349
 3751SOL     OW12151   0.294   4.469   3.118
 3751SOL    HW112152   0.349   4.530   3.061
 3751SOL    HW212153   0.286   4.380   3.074
 3752SOL     OW12154   6.269   1.381   5.855
 3752SOL    HW112155   6.305   1.372   5.762
 3752SOL    HW212156   6.189   1.441   5.855
 3753SOL     OW12157   6.542   1.066   3.735
 3753SOL    HW112158   6.479   1.136   3.702
 3753SOL    HW212159   6.611   1.047   3.666
 3754SOL     OW12160   1.840   1.577   1.962
 3754SOL    HW112161   1.918   1.639   1.951
 3754SOL    HW212162   1.863   1.487   1.926
 3755SOL     OW12163   2.767   5.173   4.300
 3755SOL    HW112164   2.696   5.128   4.246
 3755SOL    HW212165   2.738   5.267   4.321
 3756SOL     OW12166   2.615   6.398   0.044
 3756SOL    HW112167   2.576   6.332   7.005
 3756SOL    HW212168   2.602   6.365   0.137
 3757SOL     OW12169   6.394   4.613   1.657
 3757SOL    HW112170   6.375   4.711   1.660
 3757SOL    HW212171   6.456   4.589   1.731
 3758SOL     OW12172   2.106   0.235   3.072
 3758SOL    HW112173   2.054   0.267   2.993
 3758SOL    HW212174   2.054   0.165   3.121
 3759SOL     OW12175   5.111   0.705   4.064
 3759SOL    HW112176   5.141   0.610   4.049
 3759SOL    HW212177   5.136   0.734   4.156
 3760SOL     OW12178   0.237   0.392   3.531
 3760SOL    HW112179   0.268   0.301   3.556
 3760SOL    HW212180   0.243   0.403   3.431
 3761SOL     OW12181   5.668   1.017   3.923
 3761SOL    HW112182   5.674   1.117   3.922
 3761SOL    HW212183   5.732   0.980   3.989
 3762SOL     OW12184   0.971   3.756   2.396
 3762SOL    HW112185   1.017   3.844   2.403
 3762SOL    HW212186   1.031   3.683   2.429
 3763SOL     OW12187   6.976   4.220   0.269
 3763SOL    HW112188   6.948   4.238   0.363
 3763SOL    HW212189   6.905   4.166   0.223
 3764SOL     OW12190   1.946   0.348   2.805
 3764SOL    HW112191   1.897   0.394   2.731
 3764SOL    HW212192   2.044   0.346   2.783
 3765SOL     OW12193   6.036   1.709   1.976
 3765SOL    HW112194   5.962   1.680   1.916
 3765SOL    HW212195   6.022   1.804   2.003
 3766SOL     OW12196   1.715   4.097   3.144
 3766SOL    HW112197   1.710   3.997   3.139
 3766SOL    HW212198   1.809   4.125   3.165
 3767SOL     OW12199   2.539   5.084   6.507
 3767SOL    HW112200   2.526   5.169   6.457
 3767SOL    HW212201   2.537   5.102   6.605
 3768SOL     OW12202   1.829   0.204   5.258
 3768SOL    HW112203   1.874   0.227   5.171
 3768SOL    HW212204   1.752   0.266   5.273
 3769SOL     OW12205   4.670   6.020   4.537
 3769SOL    HW112206   4.675   6.043   4.440
 3769SOL    HW212207   4.685   5.922   4.549
 3770SOL     OW12208   0.837   1.049   0.285
 3770SOL    HW112209   0.876   1.116   0.347
 3770SOL    HW212210   0.791   1.096   0.209
 3771SOL     OW12211   0.890   4.637   0.319
 3771SOL    HW112212   0.833   4.641   0.237
 3771SOL    HW212213   0.852   4.569   0.382
 3772SOL     OW12214   1.474   5.800   0.739
 3772SOL    HW112215   1.482   5.838   0.831
 3772SOL    HW212216   1.412   5.857   0.685
 3773SOL     OW12217   5.968   3.430   5.892
 3773SOL    HW112218   5.939   3.341   5.927
 3773SOL    HW212219   5.898   3.498   5.912
 3774SOL     OW12220   5.541   5.987   1.352
 3774SOL    HW112221   5.622   5.968   1.296
 3774SOL    HW212222   5.463   5.939   1.313
 3775SOL     OW12223   4.234   4.683   3.518
 3775SOL    HW112224   4.319   4.723   3.554
 3775SOL    HW212225   4.211   4.728   3.431
 3776SOL     OW12226   3.413   2.503   6.762
 3776SOL    HW112227   3.481   2.556   6.712
 3776SOL    HW212228   3.362   2.564   6.823
 3777SOL     OW12229   2.951   6.128   4.394
 3777SOL    HW112230   2.869   6.079   4.367
 3777SOL    HW212231   2.938   6.226   4.382
 3778SOL     OW12232   3.134   5.527   5.202
 3778SOL    HW112233   3.209   5.480   5.248
 3778SOL    HW212234   3.048   5.479   5.219
 3779SOL     OW12235   7.007   5.056   0.088
 3779SOL    HW112236   7.015   5.133   0.025
 3779SOL    HW212237   0.002   5.087   0.181
 3780SOL     OW12238   6.823   3.615   1.236
 3780SOL    HW112239   6.918   3.633   1.262
 3780SOL    HW212240   6.784   3.545   1.296
 3781SOL     OW12241   2.210   6.339   5.222
 3781SOL    HW112242   2.243   6.323   5.129
 3781SOL    HW212243   2.178   6.433   5.231
 3782SOL     OW12244   5.077   6.051   1.505
 3782SOL    HW112245   5.123   6.033   1.592
 3782SOL    HW212246   5.062   5.964   1.458
 3783SOL     OW12247   5.945   5.122   5.657
 3783SOL    HW112248   5.957   5.219   5.635
 3783SOL    HW212249   5.963   5.107   5.754
 3784SOL     OW12250   5.346   2.546   3.606
 3784SOL    HW112251   5.432   2.592   3.588
 3784SOL    HW212252   5.343   2.460   3.555
 3785SOL     OW12253   1.065   4.050   4.108
 3785SOL    HW112254   1.057   4.137   4.060
 3785SOL    HW212255   0.975   4.008   4.118
 3786SOL     OW12256   2.473   2.630   4.611
 3786SOL    HW112257   2.558   2.583   4.590
 3786SOL    HW212258   2.407   2.565   4.649
 3787SOL     OW12259   4.528   0.156   3.167
 3787SOL    HW112260   4.573   0.078   3.124
 3787SOL    HW212261   4.468   0.124   3.240
 3788SOL     OW12262   0.234   2.793   5.202
 3788SOL    HW112263   0.147   2.751   5.176
 3788SOL    HW212264   0.288   2.728   5.256
 3789SOL     OW12265   1.890   2.835   2.734
 3789SOL    HW112266   1.806   2.884   2.709
 3789SOL    HW212267   1.909   2.848   2.831
 3790SOL     OW12268   0.423   6.935   0.708
 3790SOL    HW112269   0.511   6.982   0.702
 3790SOL    HW212270   0.348   7.002   0.706
 3791SOL     OW12271   5.706   1.122   6.149
 3791SOL    HW112272   5.668   1.127   6.057
 3791SOL    HW212273   5.709   1.027   6.179
 3792SOL     OW12274   0.825   0.786   3.660
 3792SOL    HW112275   0.741   0.836   3.682
 3792SOL    HW212276   0.870   0.758   3.744
 3793SOL     OW12277   5.905   5.975   0.109
 3793SOL    HW112278   5.936   6.065   0.077
 3793SOL    HW212279   5.971   5.939   0.175
 3794SOL     OW12280   2.161   4.075   0.193
 3794SOL    HW112281   2.168   3.975   0.187
 3794SOL    HW212282   2.194   4.115   0.107
 3795SOL     OW12283   2.737   5.602   1.221
 3795SOL    HW112284   2.702   5.614   1.314
 3795SOL    HW212285   2.822   5.654   1.211
 3796SOL     OW12286   3.809   2.392   6.729
 3796SOL    HW112287   3.774   2.301   6.753
 3796SOL    HW212288   3.905   2.386   6.704
 3797SOL     OW12289   0.675   4.721   3.320
 3797SOL    HW112290   0.637   4.630   3.307
 3797SOL    HW212291   0.760   4.730   3.267
 3798SOL     OW12292   2.335   6.521   3.104
 3798SOL    HW112293   2.375   6.505   3.014
 3798SOL    HW212294   2.315   6.434   3.148
 3799SOL     OW12295   6.950   2.436   2.913
 3799SOL    HW112296   6.854   2.441   2.941
 3799SOL    HW212297   6.959   2.374   2.835
 3800SOL     OW12298   5.694   1.751   2.854
 3800SOL    HW112299   5.619   1.817   2.844
 3800SOL    HW212300   5.728   1.754   2.948
 3801SOL     OW12301   5.423   0.095   1.891
 3801SOL    HW112302   5.490   0.064   1.823
 3801SOL    HW212303   5.408   0.193   1.880
 3802SOL     OW12304   6.009   1.703   2.253
 3802SOL    HW112305   6.033   1.696   2.157
 3802SOL    HW212306   5.910   1.694   2.264
 3803SOL     OW12307   2.963   3.693   4.539
 3803SOL    HW112308   2.958   3.633   4.458
 3803SOL    HW212309   2.989   3.785   4.511
 3804SOL     OW12310   3.487   6.740   4.596
 3804SOL    HW112311   3.462   6.837   4.602
 3804SOL    HW212312   3.518   6.720   4.503
 3805SOL     OW12313   2.269   2.974   0.002
 3805SOL    HW112314   2.243   2.971   6.931
 3805SOL    HW212315   2.197   2.933   0.057
 3806SOL     OW12316   3.658   4.235   6.937
 3806SOL    HW112317   3.618   4.144   6.949
 3806SOL    HW212318   3.742   4.241   6.992
 3807SOL     OW12319   1.314   4.709   3.899
 3807SOL    HW112320   1.379   4.633   3.909
 3807SOL    HW212321   1.362   4.788   3.861
 3808SOL     OW12322   4.390   6.963   5.953
 3808SOL    HW112323   4.341   6.962   6.040
 3808SOL    HW212324   4.465   0.004   5.957
 3809SOL     OW12325   4.852   2.209   1.493
 3809SOL    HW112326   4.773   2.156   1.524
 3809SOL    HW212327   4.848   2.301   1.533
 3810SOL     OW12328   6.641   2.124   2.173
 3810SOL    HW112329   6.630   2.119   2.273
 3810SOL    HW212330   6.682   2.212   2.149
 3811SOL     OW12331   6.557   5.045   4.808
 3811SOL    HW112332   6.533   5.132   4.766
 3811SOL    HW212333   6.626   5.060   4.879
 3812SOL     OW12334   3.794   6.389   6.968
 3812SOL    HW112335   3.821   6.294   6.954
 3812SOL    HW212336   3.868   6.439   7.013
 3813SOL     OW12337   6.505   3.513   0.816
 3813SOL    HW112338   6.461   3.448   0.878
 3813SOL    HW212339   6.595   3.478   0.789
 3814SOL     OW12340   6.888   0.250   4.324
 3814SOL    HW112341   6.850   0.295   4.404
 3814SOL    HW212342   6.864   0.302   4.242
 3815SOL     OW12343   4.714   3.617   0.409
 3815SOL    HW112344   4.804   3.589   0.440
 3815SOL    HW212345   4.701   3.587   0.314
 3816SOL     OW12346   1.252   6.051   6.389
 3816SOL    HW112347   1.333   6.047   6.331
 3816SOL    HW212348   1.175   6.088   6.336
 3817SOL     OW12349   5.294   3.483   2.492
 3817SOL    HW112350   5.389   3.449   2.496
 3817SOL    HW212351   5.294   3.582   2.479
 3818SOL     OW12352   0.398   0.777   1.983
 3818SOL    HW112353   0.453   0.717   1.926
 3818SOL    HW212354   0.449   0.860   2.004
 3819SOL     OW12355   6.098   4.961   3.732
 3819SOL    HW112356   6.075   5.041   3.787
 3819SOL    HW212357   6.025   4.893   3.740
 3820SOL     OW12358   5.469   0.191   4.273
 3820SOL    HW112359   5.540   0.157   4.211
 3820SOL    HW212360   5.454   0.124   4.346
 3821SOL     OW12361   0.456   0.177   0.006
 3821SOL    HW112362   0.472   0.120   6.951
 3821SOL    HW212363   0.463   0.274   7.006
 3822SOL     OW12364   3.750   1.329   0.082
 3822SOL    HW112365   3.791   1.239   0.063
 3822SOL    HW212366   3.822   1.396   0.096
 3823SOL     OW12367   5.224   4.557   6.023
 3823SOL    HW112368   5.177   4.541   6.110
 3823SOL    HW212369   5.169   4.520   5.948
 3824SOL     OW12370   1.919   3.159   0.166
 3824SOL    HW112371   1.920   3.094   0.242
 3824SOL    HW212372   1.965   3.243   0.193
 3825SOL     OW12373   1.650   3.614   6.335
 3825SOL    HW112374   1.721   3.685   6.341
 3825SOL    HW212375   1.586   3.638   6.262
 3826SOL     OW12376   5.485   4.308   2.389
 3826SOL    HW112377   5.451   4.274   2.302
 3826SOL    HW212378   5.570   4.262   2.413
 3827SOL     OW12379   1.211   0.985   1.559
 3827SOL    HW112380   1.209   0.938   1.648
 3827SOL    HW212381   1.301   0.971   1.517
 3828SOL     OW12382   3.892   4.088   4.800
 3828SOL    HW112383   3.966   4.024   4.780
 3828SOL    HW212384   3.823   4.083   4.728
 3829SOL     OW12385   0.236   4.458   2.625
 3829SOL    HW112386   0.179   4.463   2.543
 3829SOL    HW212387   0.331   4.476   2.600
 3830SOL     OW12388   0.473   0.668   4.817
 3830SOL    HW112389   0.550   0.704   4.765
 3830SOL    HW212390   0.388   0.682   4.765
 3831SOL     OW12391   4.835   1.926   3.500
 3831SOL    HW112392   4.818   1.985   3.578
 3831SOL    HW212393   4.867   1.837   3.532
 3832SOL     OW12394   0.936   0.530   2.188
 3832SOL    HW112395   0.904   0.501   2.278
 3832SOL    HW212396   0.860   0.528   2.124
 3833SOL     OW12397   1.163   0.073   6.298
 3833SOL    HW112398   1.134   0.163   6.266
 3833SOL    HW212399   1.211   0.082   6.385
 3834SOL     OW12400   5.004   3.783   1.451
 3834SOL    HW112401   5.073   3.716   1.477
 3834SOL    HW212402   4.922   3.736   1.420
 3835SOL     OW12403   3.576   6.109   5.431
 3835SOL    HW112404   3.671   6.087   5.455
 3835SOL    HW212405   3.519   6.028   5.438
 3836SOL     OW12406   0.373   5.102   6.373
 3836SOL    HW112407   0.318   5.019   6.385
 3836SOL    HW212408   0.457   5.078   6.324
 3837SOL     OW12409   3.905   4.890   5.176
 3837SOL    HW112410   3.916   4.974   5.229
 3837SOL    HW212411   3.889   4.913   5.080
 3838SOL     OW12412   2.123   0.965   3.332
 3838SOL    HW112413   2.095   1.016   3.251
 3838SOL    HW212414   2.215   0.928   3.318
 3839SOL     OW12415   4.449   0.127   3.420
 3839SOL    HW112416   4.372   0.098   3.476
 3839SOL    HW212417   4.456   0.227   3.420
 3840SOL     OW12418   2.614   0.600   0.545
 3840SOL    HW112419   2.614   0.590   0.644
 3840SOL    HW212420   2.576   0.517   0.503
 3841SOL     OW12421   6.379   5.053   4.262
 3841SOL    HW112422   6.425   4.984   4.206
 3841SOL    HW212423   6.401   5.144   4.227
 3842SOL     OW12424   2.366   2.761   5.198
 3842SOL    HW112425   2.437   2.745   5.268
 3842SOL    HW212426   2.366   2.858   5.173
 3843SOL     OW12427   5.180   3.147   0.605
 3843SOL    HW112428   5.198   3.201   0.687
 3843SOL    HW212429   5.088   3.109   0.609
 3844SOL     OW12430   1.227   5.229   0.120
 3844SOL    HW112431   1.293   5.270   0.184
 3844SOL    HW212432   1.270   5.222   0.029
 3845SOL     OW12433   2.311   6.241   0.379
 3845SOL    HW112434   2.228   6.207   0.423
 3845SOL    HW212435   2.299   6.242   0.280
 3846SOL     OW12436   0.830   3.516   4.301
 3846SOL    HW112437   0.799   3.441   4.242
 3846SOL    HW212438   0.860   3.479   4.389
 3847SOL     OW12439   6.038   1.413   5.223
 3847SOL    HW112440   6.108   1.341   5.214
 3847SOL    HW212441   5.965   1.380   5.282
 3848SOL     OW12442   4.995   3.168   2.488
 3848SOL    HW112443   4.958   3.138   2.400
 3848SOL    HW212444   4.996   3.268   2.491
 3849SOL     OW12445   0.363   6.111   5.933
 3849SOL    HW112446   0.318   6.135   6.019
 3849SOL    HW212447   0.462   6.117   5.946
 3850SOL     OW12448   3.026   2.128   1.546
 3850SOL    HW112449   3.015   2.219   1.584
 3850SOL    HW212450   3.114   2.089   1.575
 3851SOL     OW12451   0.141   5.618   3.401
 3851SOL    HW112452   0.110   5.602   3.307
 3851SOL    HW212453   0.070   5.588   3.465
 3852SOL     OW12454   2.982   6.757   4.318
 3852SOL    HW112455   3.068   6.711   4.296
 3852SOL    HW212456   2.918   6.746   4.242
 3853SOL     OW12457   1.973   1.383   3.781
 3853SOL    HW112458   2.028   1.364   3.862
 3853SOL    HW212459   1.973   1.303   3.721
 3854SOL     OW12460   1.779   2.438   2.900
 3854SOL    HW112461   1.799   2.473   2.992
 3854SOL    HW212462   1.865   2.431   2.848
 3855SOL     OW12463   4.887   6.421   0.282
 3855SOL    HW112464   4.968   6.396   0.335
 3855SOL    HW212465   4.851   6.508   0.313
 3856SOL     OW12466   0.018   2.123   6.043
 3856SOL    HW112467   0.028   2.038   5.991
 3856SOL    HW212468   6.996   2.191   5.987
 3857SOL     OW12469   2.466   0.043   5.994
 3857SOL    HW112470   2.501   6.980   6.023
 3857SOL    HW212471   2.481   0.110   6.066
 3858SOL     OW12472   3.617   1.685   5.179
 3858SOL    HW112473   3.656   1.764   5.133
 3858SOL    HW212474   3.522   1.673   5.150
 3859SOL     OW12475   5.355   0.373   1.083
 3859SOL    HW112476   5.375   0.311   1.159
 3859SOL    HW212477   5.330   0.463   1.119
 3860SOL     OW12478   2.002   0.902   4.403
 3860SOL    HW112479   1.952   0.866   4.482
 3860SOL    HW212480   2.025   0.828   4.341
 3861SOL     OW12481   4.467   5.423   2.419
 3861SOL    HW112482   4.417   5.361   2.480
 3861SOL    HW212483   4.402   5.473   2.362
 3862SOL     OW12484   0.531   0.206   4.414
 3862SOL    HW112485   0.489   0.256   4.339
 3862SOL    HW212486   0.554   0.113   4.384
 3863SOL     OW12487   4.322   0.776   6.877
 3863SOL    HW112488   4.258   0.732   6.940
 3863SOL    HW212489   4.359   0.707   6.814
 3864SOL     OW12490   2.361   0.510   5.100
 3864SOL    HW112491   2.395   0.454   5.176
 3864SOL    HW212492   2.279   0.560   5.128
 3865SOL     OW12493   4.813   1.000   0.199
 3865SOL    HW112494   4.729   1.025   0.150
 3865SOL    HW212495   4.811   1.039   0.291
 3866SOL     OW12496   3.367   2.078   6.962
 3866SOL    HW112497   3.399   1.987   6.937
 3866SOL    HW212498   3.327   2.076   0.028
 3867SOL     OW12499   1.361   4.664   3.252
 3867SOL    HW112500   1.341   4.622   3.341
 3867SOL    HW212501   1.434   4.614   3.207
 3868SOL     OW12502   3.747   0.590   6.493
 3868SOL    HW112503   3.772   0.502   6.452
 3868SOL    HW212504   3.661   0.621   6.454
 3869SOL     OW12505   6.924   3.770   3.897
 3869SOL    HW112506   6.846   3.833   3.909
 3869SOL    HW212507   6.950   3.768   3.800
 3870SOL     OW12508   6.737   0.153   3.255
 3870SOL    HW112509   6.670   0.147   3.330
 3870SOL    HW212510   6.765   0.061   3.228
 3871SOL     OW12511   3.018   6.253   3.523
 3871SOL    HW112512   2.961   6.252   3.441
 3871SOL    HW212513   2.967   6.217   3.601
 3872SOL     OW12514   3.310   2.881   4.064
 3872SOL    HW112515   3.243   2.889   4.138
 3872SOL    HW212516   3.369   2.802   4.081
 3873SOL     OW12517   5.098   3.923   0.718
 3873SOL    HW112518   5.043   3.946   0.798
 3873SOL    HW212519   5.180   3.875   0.747
 3874SOL     OW12520   4.269   0.167   0.392
 3874SOL    HW112521   4.334   0.242   0.403
 3874SOL    HW212522   4.279   0.103   0.468
 3875SOL     OW12523   1.938   3.196   4.354
 3875SOL    HW112524   2.012   3.141   4.391
 3875SOL    HW212525   1.930   3.281   4.407
 3876SOL     OW12526   3.879   6.160   0.163
 3876SOL    HW112527   3.867   6.142   0.065
 3876SOL    HW212528   3.920   6.080   0.206
 3877SOL     OW12529   6.723   2.157   0.609
 3877SOL    HW112530   6.770   2.175   0.523
 3877SOL    HW212531   6.692   2.243   0.649
 3878SOL     OW12532   4.741   0.100   4.444
 3878SOL    HW112533   4.798   0.145   4.375
 3878SOL    HW212534   4.741   0.002   4.428
 3879SOL     OW12535   5.719   5.014   7.010
 3879SOL    HW112536   5.674   4.998   0.072
 3879SOL    HW212537   5.679   5.095   6.966
 3880SOL     OW12538   5.193   3.882   4.700
 3880SOL    HW112539   5.212   3.786   4.679
 3880SOL    HW212540   5.094   3.897   4.698
 3881SOL     OW12541   1.278   3.304   0.947
 3881SOL    HW112542   1.364   3.296   0.897
 3881SOL    HW212543   1.290   3.366   1.024
 3882SOL     OW12544   1.590   0.993   0.061
 3882SOL    HW112545   1.585   1.015   6.989
 3882SOL    HW212546   1.562   1.073   0.114
 3883SOL     OW12547   4.658   0.525   2.676
 3883SOL    HW112548   4.731   0.594   2.680
 3883SOL    HW212549   4.618   0.524   2.584
 3884SOL     OW12550   0.682   6.287   2.896
 3884SOL    HW112551   0.608   6.354   2.893
 3884SOL    HW212552   0.718   6.282   2.989
 3885SOL     OW12553   5.753   6.597   3.121
 3885SOL    HW112554   5.812   6.628   3.195
 3885SOL    HW212555   5.666   6.565   3.159
 3886SOL     OW12556   4.833   5.673   5.751
 3886SOL    HW112557   4.781   5.758   5.750
 3886SOL    HW212558   4.775   5.598   5.720
 3887SOL     OW12559   0.798   6.633   0.392
 3887SOL    HW112560   0.888   6.659   0.356
 3887SOL    HW212561   0.787   6.533   0.385
 3888SOL     OW12562   6.064   6.171   4.667
 3888SOL    HW112563   5.974   6.150   4.704
 3888SOL    HW212564   6.084   6.109   4.590
 3889SOL     OW12565   6.301   2.638   6.668
 3889SOL    HW112566   6.269   2.571   6.736
 3889SOL    HW212567   6.249   2.723   6.678
 3890SOL     OW12568   5.468   4.412   4.167
 3890SOL    HW112569   5.415   4.459   4.237
 3890SOL    HW212570   5.455   4.313   4.176
 3891SOL     OW12571   4.990   3.839   3.641
 3891SOL    HW112572   4.916   3.895   3.679
 3891SOL    HW212573   4.953   3.751   3.612
 3892SOL     OW12574   0.304   2.958   1.355
 3892SOL    HW112575   0.315   2.880   1.416
 3892SOL    HW212576   0.367   3.031   1.382
 3893SOL     OW12577   4.266   3.608   1.343
 3893SOL    HW112578   4.365   3.618   1.356
 3893SOL    HW212579   4.232   3.537   1.405
 3894SOL     OW12580   5.369   0.583   6.752
 3894SOL    HW112581   5.365   0.663   6.691
 3894SOL    HW212582   5.403   0.611   6.841
 3895SOL     OW12583   1.946   0.271   5.022
 3895SOL    HW112584   2.038   0.239   5.047
 3895SOL    HW212585   1.947   0.370   5.010
 3896SOL     OW12586   0.337   1.151   6.552
 3896SOL    HW112587   0.326   1.070   6.609
 3896SOL    HW212588   0.265   1.154   6.483
 3897SOL     OW12589   4.128   5.510   2.296
 3897SOL    HW112590   4.080   5.561   2.224
 3897SOL    HW212591   4.115   5.412   2.281
 3898SOL     OW12592   3.627   2.509   0.088
 3898SOL    HW112593   3.603   2.589   0.143
 3898SOL    HW212594   3.545   2.472   0.045
 3899SOL     OW12595   4.872   6.731   6.213
 3899SOL    HW112596   4.788   6.680   6.231
 3899SOL    HW212597   4.874   6.761   6.118
 3900SOL     OW12598   5.529   2.775   4.014
 3900SOL    HW112599   5.544   2.774   3.915
 3900SOL    HW212600   5.602   2.828   4.058
 3901SOL     OW12601   3.312   1.012   6.526
 3901SOL    HW112602   3.224   0.979   6.560
 3901SOL    HW212603   3.379   0.938   6.528
 3902SOL     OW12604   6.013   3.013   2.025
 3902SOL    HW112605   6.067   3.060   2.094
 3902SOL    HW212606   6.055   3.026   1.935
 3903SOL     OW12607   3.722   6.589   0.366
 3903SOL    HW112608   3.649   6.557   0.306
 3903SOL    HW212609   3.797   6.522   0.366
 3904SOL     OW12610   1.633   0.440   6.741
 3904SOL    HW112611   1.556   0.409   6.685
 3904SOL    HW212612   1.689   0.362   6.768
 3905SOL     OW12613   6.929   6.533   5.767
 3905SOL    HW112614   6.935   6.632   5.771
 3905SOL    HW212615   6.905   6.497   5.857
 3906SOL     OW12616   5.745   6.704   5.865
 3906SOL    HW112617   5.828   6.759   5.874
 3906SOL    HW212618   5.768   6.617   5.821
 3907SOL     OW12619   6.202   1.034   3.919
 3907SOL    HW112620   6.289   1.083   3.916
 3907SOL    HW212621   6.162   1.043   4.010
 3908SOL     OW12622   0.912   2.616   6.884
 3908SOL    HW112623   0.941   2.711   6.900
 3908SOL    HW212624   0.954   2.583   6.800
 3909SOL     OW12625   5.670   6.004   4.606
 3909SOL    HW112626   5.707   6.059   4.681
 3909SOL    HW212627   5.579   6.039   4.581
 3910SOL     OW12628   3.592   4.113   2.741
 3910SOL    HW112629   3.578   4.162   2.827
 3910SOL    HW212630   3.526   4.038   2.734
 3911SOL     OW12631   5.854   1.292   5.428
 3911SOL    HW112632   5.794   1.219   5.396
 3911SOL    HW212633   5.809   1.381   5.415
 3912SOL     OW12634   5.691   0.660   4.663
 3912SOL    HW112635   5.620   0.730   4.671
 3912SOL    HW212636   5.719   0.652   4.567
 3913SOL     OW12637   2.405   6.871   6.369
 3913SOL    HW112638   2.446   6.846   6.456
 3913SOL    HW212639   2.395   6.970   6.364
 3914SOL     OW12640   2.908   0.934   1.519
 3914SOL    HW112641   3.003   0.907   1.506
 3914SOL    HW212642   2.853   0.853   1.541
 3915SOL     OW12643   5.357   6.364   1.099
 3915SOL    HW112644   5.312   6.301   1.036
 3915SOL    HW212645   5.331   6.341   1.193
 3916SOL     OW12646   1.169   6.899   3.657
 3916SOL    HW112647   1.163   6.957   3.576
 3916SOL    HW212648   1.160   6.803   3.630
 3917SOL     OW12649   0.229   6.277   6.738
 3917SOL    HW112650   0.172   6.312   6.664
 3917SOL    HW212651   0.258   6.354   6.796
 3918SOL     OW12652   5.643   5.753   1.155
 3918SOL    HW112653   5.618   5.800   1.070
 3918SOL    HW212654   5.674   5.661   1.135
 3919SOL     OW12655   4.703   6.768   0.034
 3919SOL    HW112656   4.640   6.843   0.012
 3919SOL    HW212657   4.745   6.785   0.123
 3920SOL     OW12658   2.733   3.546   0.709
 3920SOL    HW112659   2.682   3.617   0.660
 3920SOL    HW212660   2.813   3.521   0.655
 3921SOL     OW12661   0.090   3.391   1.181
 3921SOL    HW112662   0.180   3.350   1.163
 3921SOL    HW212663   0.092   3.487   1.155
 3922SOL     OW12664   0.225   3.981   1.754
 3922SOL    HW112665   0.283   3.907   1.720
 3922SOL    HW212666   0.281   4.051   1.798
 3923SOL     OW12667   6.730   1.067   0.269
 3923SOL    HW112668   6.829   1.081   0.277
 3923SOL    HW212669   6.688   1.072   0.359
 3924SOL     OW12670   5.368   5.230   3.778
 3924SOL    HW112671   5.370   5.132   3.762
 3924SOL    HW212672   5.444   5.257   3.837
 3925SOL     OW12673   1.726   5.019   1.483
 3925SOL    HW112674   1.640   5.054   1.447
 3925SOL    HW212675   1.716   4.996   1.580
 3926SOL     OW12676   5.296   4.774   2.367
 3926SOL    HW112677   5.304   4.723   2.453
 3926SOL    HW212678   5.368   4.745   2.304
 3927SOL     OW12679   6.599   2.851   5.119
 3927SOL    HW112680   6.670   2.794   5.077
 3927SOL    HW212681   6.510   2.808   5.107
 3928SOL     OW12682   3.690   5.838   6.542
 3928SOL    HW112683   3.593   5.853   6.522
 3928SOL    HW212684   3.735   5.798   6.463
 3929SOL     OW12685   0.179   0.377   4.681
 3929SOL    HW112686   0.184   0.440   4.604
 3929SOL    HW212687   0.268   0.371   4.726
 3930SOL     OW12688   2.956   2.207   4.467
 3930SOL    HW112689   2.872   2.237   4.423
 3930SOL    HW212690   2.951   2.109   4.485
 3931SOL     OW12691   1.398   1.742   1.445
 3931SOL    HW112692   1.445   1.801   1.511
 3931SOL    HW212693   1.450   1.658   1.432
 3932SOL     OW12694   1.289   4.558   3.498
 3932SOL    HW112695   1.381   4.572   3.536
 3932SOL    HW212696   1.235   4.502   3.561
 3933SOL     OW12697   1.799   6.491   6.770
 3933SOL    HW112698   1.784   6.557   6.696
 3933SOL    HW212699   1.898   6.477   6.782
 3934SOL     OW12700   6.632   0.600   6.829
 3934SOL    HW112701   6.620   0.505   6.858
 3934SOL    HW212702   6.550   0.652   6.851
 3935SOL     OW12703   3.428   6.707   6.881
 3935SOL    HW112704   3.345   6.689   6.933
 3935SOL    HW212705   3.408   6.700   6.783
 3936SOL     OW12706   6.706   4.958   5.434
 3936SOL    HW112707   6.653   4.957   5.519
 3936SOL    HW212708   6.691   4.872   5.385
 3937SOL     OW12709   0.576   1.463   2.888
 3937SOL    HW112710   0.527   1.515   2.958
 3937SOL    HW212711   0.644   1.404   2.931
 3938SOL     OW12712   0.339   2.289   3.059
 3938SOL    HW112713   0.414   2.251   3.005
 3938SOL    HW212714   0.299   2.216   3.116
 3939SOL     OW12715   1.850   3.167   3.339
 3939SOL    HW112716   1.786   3.121   3.277
 3939SOL    HW212717   1.847   3.123   3.429
 3940SOL     OW12718   4.833   4.486   1.165
 3940SOL    HW112719   4.754   4.543   1.186
 3940SOL    HW212720   4.882   4.465   1.249
 3941SOL     OW12721   5.522   3.333   5.103
 3941SOL    HW112722   5.543   3.251   5.155
 3941SOL    HW212723   5.572   3.332   5.016
 3942SOL     OW12724   0.462   6.615   6.653
 3942SOL    HW112725   0.376   6.661   6.630
 3942SOL    HW212726   0.490   6.558   6.576
 3943SOL     OW12727   6.928   2.762   3.562
 3943SOL    HW112728   6.981   2.819   3.500
 3943SOL    HW212729   6.882   2.690   3.510
 3944SOL     OW12730   4.736   2.871   4.576
 3944SOL    HW112731   4.791   2.919   4.508
 3944SOL    HW212732   4.793   2.805   4.625
 3945SOL     OW12733   0.416   1.987   0.008
 3945SOL    HW112734   0.454   2.078   0.029
 3945SOL    HW212735   0.347   1.996   6.963
 3946SOL     OW12736   5.445   4.175   4.766
 3946SOL    HW112737   5.361   4.183   4.712
 3946SOL    HW212738   5.506   4.108   4.723
 3947SOL     OW12739   5.348   6.184   0.041
 3947SOL    HW112740   5.393   6.235   6.993
 3947SOL    HW212741   5.300   6.247   0.101
 3948SOL     OW12742   0.200   4.917   2.898
 3948SOL    HW112743   0.120   4.902   2.839
 3948SOL    HW212744   0.270   4.967   2.847
 3949SOL     OW12745   5.347   6.608   3.436
 3949SOL    HW112746   5.403   6.601   3.353
 3949SOL    HW212747   5.272   6.672   3.420
 3950SOL     OW12748   1.977   4.610   0.567
 3950SOL    HW112749   1.942   4.700   0.594
 3950SOL    HW212750   2.036   4.574   0.639
 3951SOL     OW12751   4.583   0.669   1.383
 3951SOL    HW112752   4.601   0.570   1.379
 3951SOL    HW212753   4.493   0.685   1.425
 3952SOL     OW12754   6.803   2.302   2.043
 3952SOL    HW112755   6.838   2.379   2.096
 3952SOL    HW212756   6.879   2.258   1.994
 3953SOL     OW12757   4.044   4.484   1.330
 3953SOL    HW112758   3.992   4.404   1.360
 3953SOL    HW212759   4.080   4.467   1.238
 3954SOL     OW12760   4.215   4.970   5.458
 3954SOL    HW112761   4.185   4.905   5.528
 3954SOL    HW212762   4.151   5.046   5.454
 3955SOL     OW12763   3.226   0.353   6.011
 3955SOL    HW112764   3.209   0.337   6.108
 3955SOL    HW212765   3.304   0.414   6.000
 3956SOL     OW12766   1.682   1.001   2.343
 3956SOL    HW112767   1.773   1.040   2.336
 3956SOL    HW212768   1.629   1.050   2.412
 3957SOL     OW12769   4.443   6.851   4.174
 3957SOL    HW112770   4.371   6.847   4.243
 3957SOL    HW212771   4.528   6.812   4.212
 3958SOL     OW12772   5.483   1.473   4.278
 3958SOL    HW112773   5.410   1.536   4.305
 3958SOL    HW212774   5.457   1.426   4.194
 3959SOL     OW12775   5.077   6.290   0.456
 3959SOL    HW112776   5.048   6.314   0.549
 3959SOL    HW212777   5.073   6.191   0.444
 3960SOL     OW12778   5.004   0.913   6.421
 3960SOL    HW112779   4.978   0.819   6.441
 3960SOL    HW212780   5.070   0.944   6.489
 3961SOL     OW12781   4.919   0.972   2.509
 3961SOL    HW112782   4.835   0.968   2.564
 3961SOL    HW212783   4.898   1.013   2.421
 3962SOL     OW12784   2.401   5.272   6.355
 3962SOL    HW112785   2.367   5.353   6.401
 3962SOL    HW212786   2.337   5.243   6.284
 3963SOL     OW12787   4.664   5.443   2.244
 3963SOL    HW112788   4.747   5.396   2.274
 3963SOL    HW212789   4.592   5.429   2.311
 3964SOL     OW12790   4.499   4.812   3.585
 3964SOL    HW112791   4.536   4.867   3.660
 3964SOL    HW212792   4.545   4.724   3.582
 3965SOL     OW12793   4.966   3.210   4.332
 3965SOL    HW112794   4.942   3.277   4.402
 3965SOL    HW212795   4.968   3.119   4.373
 3966SOL     OW12796   3.982   6.375   6.498
 3966SOL    HW112797   4.052   6.312   6.532
 3966SOL    HW212798   3.893   6.330   6.497
 3967SOL     OW12799   2.126   3.917   1.887
 3967SOL    HW112800   2.057   3.990   1.878
 3967SOL    HW212801   2.083   3.836   1.926
 3968SOL     OW12802   4.235   0.881   0.897
 3968SOL    HW112803   4.161   0.819   0.926
 3968SOL    HW212804   4.318   0.828   0.880
 3969SOL     OW12805   1.477   5.082   2.397
 3969SOL    HW112806   1.513   5.045   2.482
 3969SOL    HW212807   1.551   5.097   2.332
 3970SOL     OW12808   4.971   5.975   3.424
 3970SOL    HW112809   4.911   5.976   3.504
 3970SOL    HW212810   4.979   6.068   3.388
 3971SOL     OW12811   3.004   5.275   4.189
 3971SOL    HW112812   3.058   5.311   4.264
 3971SOL    HW212813   2.925   5.226   4.225
 3972SOL     OW12814   1.571   3.832   0.214
 3972SOL    HW112815   1.483   3.839   0.260
 3972SOL    HW212816   1.578   3.743   0.169
 3973SOL     OW12817   1.156   5.684   0.069
 3973SOL    HW112818   1.144   5.767   0.014
 3973SOL    HW212819   1.215   5.705   0.147
 3974SOL     OW12820   2.012   6.804   5.914
 3974SOL    HW112821   2.109   6.814   5.933
 3974SOL    HW212822   1.985   6.708   5.929
 3975SOL     OW12823   5.028   1.444   6.026
 3975SOL    HW112824   5.068   1.353   6.013
 3975SOL    HW212825   5.098   1.507   6.061
 3976SOL     OW12826   1.594   6.063   3.015
 3976SOL    HW112827   1.615   6.041   3.110
 3976SOL    HW212828   1.548   5.986   2.971
 3977SOL     OW12829   1.728   2.709   6.368
 3977SOL    HW112830   1.769   2.752   6.448
 3977SOL    HW212831   1.710   2.779   6.298
 3978SOL     OW12832   5.451   5.384   3.403
 3978SOL    HW112833   5.496   5.324   3.337
 3978SOL    HW212834   5.480   5.479   3.385
 3979SOL     OW12835   3.912   0.774   6.606
 3979SOL    HW112836   3.836   0.721   6.568
 3979SOL    HW212837   3.998   0.739   6.569
 3980SOL     OW12838   5.736   6.917   6.622
 3980SOL    HW112839   5.684   6.915   6.707
 3980SOL    HW212840   5.688   6.975   6.556
 3981SOL     OW12841   4.202   6.292   0.322
 3981SOL    HW112842   4.128   6.358   0.319
 3981SOL    HW212843   4.182   6.222   0.391
 3982SOL     OW12844   2.089   6.246   3.368
 3982SOL    HW112845   2.063   6.271   3.461
 3982SOL    HW212846   2.007   6.228   3.314
 3983SOL     OW12847   4.822   5.111   3.802
 3983SOL    HW112848   4.890   5.133   3.872
 3983SOL    HW212849   4.851   5.150   3.715
 3984SOL     OW12850   6.834   0.896   1.630
 3984SOL    HW112851   6.857   0.929   1.722
 3984SOL    HW212852   6.827   0.974   1.567
 3985SOL     OW12853   2.833   5.285   6.904
 3985SOL    HW112854   2.791   5.196   6.886
 3985SOL    HW212855   2.767   5.346   6.947
 3986SOL     OW12856   5.212   1.696   2.506
 3986SOL    HW112857   5.223   1.737   2.597
 3986SOL    HW212858   5.121   1.719   2.470
 3987SOL     OW12859   3.465   4.921   4.001
 3987SOL    HW112860   3.551   4.875   4.022
 3987SOL    HW212861   3.450   4.921   3.902
 3988SOL     OW12862   3.487   5.022   6.903
 3988SOL    HW112863   3.421   5.095   6.884
 3988SOL    HW212864   3.516   5.028   6.999
 3989SOL     OW12865   6.920   2.203   6.655
 3989SOL    HW112866   6.998   2.173   6.600
 3989SOL    HW212867   6.914   2.303   6.652
 3990SOL     OW12868   4.608   2.620   2.429
 3990SOL    HW112869   4.557   2.568   2.360
 3990SOL    HW212870   4.654   2.697   2.385
 3991SOL     OW12871   0.010   1.656   1.535
 3991SOL    HW112872   0.014   1.578   1.474
 3991SOL    HW212873   0.059   1.733   1.495
 3992SOL     OW12874   3.352   1.495   0.476
 3992SOL    HW112875   3.299   1.576   0.450
 3992SOL    HW212876   3.329   1.419   0.414
 3993SOL     OW12877   1.283   2.797   2.556
 3993SOL    HW112878   1.301   2.713   2.505
 3993SOL    HW212879   1.251   2.868   2.493
 3994SOL     OW12880   2.974   0.115   5.931
 3994SOL    HW112881   3.018   0.043   5.984
 3994SOL    HW212882   3.043   0.182   5.903
 3995SOL     OW12883   2.462   3.977   6.358
 3995SOL    HW112884   2.485   3.969   6.261
 3995SOL    HW212885   2.384   4.040   6.368
 3996SOL     OW12886   0.207   6.819   5.042
 3996SOL    HW112887   0.205   6.750   5.114
 3996SOL    HW212888   0.300   6.853   5.031
 3997SOL     OW12889   5.835   2.018   3.430
 3997SOL    HW112890   5.814   2.106   3.388
 3997SOL    HW212891   5.934   2.008   3.439
 3998SOL     OW12892   3.452   1.108   4.189
 3998SOL    HW112893   3.446   1.021   4.142
 3998SOL    HW212894   3.395   1.106   4.271
 3999SOL     OW12895   5.867   1.768   3.934
 3999SOL    HW112896   5.842   1.799   3.842
 3999SOL    HW212897   5.917   1.682   3.928
 4000SOL     OW12898   2.965   6.543   4.031
 4000SOL    HW112899   3.035   6.570   3.966
 4000SOL    HW212900   2.905   6.621   4.048
 4001SOL     OW12901   2.547   1.832   4.167
 4001SOL    HW112902   2.541   1.902   4.238
 4001SOL    HW212903   2.471   1.844   4.102
 4002SOL     OW12904   3.606   3.727   1.556
 4002SOL    HW112905   3.507   3.720   1.545
 4002SOL    HW212906   3.627   3.762   1.647
 4003SOL     OW12907   3.246   0.347   4.036
 4003SOL    HW112908   3.192   0.274   3.994
 4003SOL    HW212909   3.284   0.316   4.123
 4004SOL     OW12910   6.044   2.094   4.512
 4004SOL    HW112911   6.065   2.105   4.415
 4004SOL    HW212912   6.087   2.168   4.564
 4005SOL     OW12913   4.816   5.061   5.945
 4005SOL    HW112914   4.781   4.967   5.938
 4005SOL    HW212915   4.825   5.099   5.853
 4006SOL     OW12916   3.996   4.992   1.712
 4006SOL    HW112917   3.923   4.929   1.738
 4006SOL    HW212918   3.958   5.083   1.697
 4007SOL     OW12919   0.276   2.986   0.102
 4007SOL    HW112920   0.241   3.078   0.084
 4007SOL    HW212921   0.260   2.963   0.198
 4008SOL     OW12922   2.474   2.277   4.804
 4008SOL    HW112923   2.570   2.300   4.819
 4008SOL    HW212924   2.425   2.359   4.771
 4009SOL     OW12925   4.269   3.163   1.714
 4009SOL    HW112926   4.291   3.070   1.686
 4009SOL    HW212927   4.178   3.187   1.679
 4010SOL     OW12928   2.548   2.871   1.475
 4010SOL    HW112929   2.574   2.775   1.487
 4010SOL    HW212930   2.537   2.914   1.564
 4011SOL     OW12931   0.967   1.811   2.143
 4011SOL    HW112932   1.007   1.903   2.138
 4011SOL    HW212933   0.900   1.800   2.069
 4012SOL     OW12934   6.659   4.306   2.337
 4012SOL    HW112935   6.607   4.324   2.421
 4012SOL    HW212936   6.745   4.260   2.361
 4013SOL     OW12937   3.789   2.122   4.863
 4013SOL    HW112938   3.825   2.105   4.771
 4013SOL    HW212939   3.865   2.143   4.924
 4014SOL     OW12940   6.201   6.693   2.273
 4014SOL    HW112941   6.214   6.791   2.265
 4014SOL    HW212942   6.131   6.663   2.208
 4015SOL     OW12943   4.953   4.320   6.225
 4015SOL    HW112944   4.925   4.300   6.131
 4015SOL    HW212945   5.047   4.289   6.239
 4016SOL     OW12946   2.604   6.076   6.275
 4016SOL    HW112947   2.529   6.011   6.269
 4016SOL    HW212948   2.657   6.058   6.358
 4017SOL     OW12949   6.603   5.605   0.231
 4017SOL    HW112950   6.604   5.658   0.146
 4017SOL    HW212951   6.689   5.618   0.280
 4018SOL     OW12952   4.649   6.415   2.282
 4018SOL    HW112953   4.734   6.447   2.322
 4018SOL    HW212954   4.572   6.459   2.327
 4019SOL     OW12955   4.930   4.307   2.866
 4019SOL    HW112956   4.849   4.336   2.814
 4019SOL    HW212957   4.972   4.229   2.821
 4020SOL     OW12958   4.618   2.626   5.145
 4020SOL    HW112959   4.581   2.697   5.205
 4020SOL    HW212960   4.565   2.624   5.059
 4021SOL     OW12961   3.665   5.262   6.621
 4021SOL    HW112962   3.662   5.212   6.708
 4021SOL    HW212963   3.760   5.272   6.592
 4022SOL     OW12964   4.797   1.941   0.205
 4022SOL    HW112965   4.718   1.948   0.143
 4022SOL    HW212966   4.822   2.033   0.236
 4023SOL     OW12967   6.543   2.263   4.940
 4023SOL    HW112968   6.590   2.284   5.026
 4023SOL    HW212969   6.502   2.172   4.946
 4024SOL     OW12970   3.871   5.519   4.354
 4024SOL    HW112971   3.930   5.452   4.399
 4024SOL    HW212972   3.859   5.493   4.258
 4025SOL     OW12973   0.539   3.653   3.396
 4025SOL    HW112974   0.599   3.723   3.357
 4025SOL    HW212975   0.593   3.588   3.448
 4026SOL     OW12976   4.852   6.894   4.118
 4026SOL    HW112977   4.888   6.802   4.100
 4026SOL    HW212978   4.921   6.962   4.094
 4027SOL     OW12979   3.739   4.442   1.491
 4027SOL    HW112980   3.798   4.368   1.459
 4027SOL    HW212981   3.665   4.456   1.425
 4028SOL     OW12982   1.799   1.989   3.664
 4028SOL    HW112983   1.766   1.901   3.631
 4028SOL    HW212984   1.801   1.989   3.764
 4029SOL     OW12985   1.877   4.329   5.538
 4029SOL    HW112986   1.882   4.270   5.619
 4029SOL    HW212987   1.962   4.320   5.486
 4030SOL     OW12988   0.680   1.968   5.173
 4030SOL    HW112989   0.715   1.883   5.135
 4030SOL    HW212990   0.588   1.954   5.209
 4031SOL     OW12991   4.110   6.101   4.243
 4031SOL    HW112992   4.084   6.037   4.315
 4031SOL    HW212993   4.209   6.094   4.227
 4032SOL     OW12994   5.205   6.920   3.794
 4032SOL    HW112995   5.267   6.954   3.865
 4032SOL    HW212996   5.179   6.826   3.815
 4033SOL     OW12997   3.037   3.130   4.515
 4033SOL    HW112998   2.988   3.195   4.572
 4033SOL    HW212999   3.078   3.059   4.572
 4034SOL     OW13000   6.831   1.757   3.607
 4034SOL    HW113001   6.743   1.764   3.655
 4034SOL    HW213002   6.835   1.827   3.535
 4035SOL     OW13003   0.798   4.034   0.055
 4035SOL    HW113004   0.797   4.105   0.126
 4035SOL    HW213005   0.708   4.029   0.013
 4036SOL     OW13006   6.219   6.735   2.832
 4036SOL    HW113007   6.209   6.732   2.733
 4036SOL    HW213008   6.128   6.729   2.875
 4037SOL     OW13009   0.932   3.226   6.873
 4037SOL    HW113010   0.915   3.204   6.969
 4037SOL    HW213011   1.030   3.220   6.854
 4038SOL     OW13012   4.700   5.050   2.845
 4038SOL    HW113013   4.688   5.088   2.753
 4038SOL    HW213014   4.668   4.956   2.847
 4039SOL     OW13015   5.147   6.378   0.130
 4039SOL    HW113016   5.054   6.376   0.166
 4039SOL    HW213017   5.201   6.443   0.182
 4040SOL     OW13018   3.213   6.694   1.179
 4040SOL    HW113019   3.194   6.596   1.187
 4040SOL    HW213020   3.312   6.709   1.176
 4041SOL     OW13021   1.349   6.315   3.878
 4041SOL    HW113022   1.329   6.338   3.783
 4041SOL    HW213023   1.298   6.232   3.903
 4042SOL     OW13024   5.727   5.350   1.719
 4042SOL    HW113025   5.666   5.413   1.768
 4042SOL    HW213026   5.722   5.369   1.621
 4043SOL     OW13027   5.888   2.193   1.606
 4043SOL    HW113028   5.984   2.168   1.614
 4043SOL    HW213029   5.848   2.143   1.529
 4044SOL     OW13030   5.886   6.932   3.330
 4044SOL    HW113031   5.912   0.002   3.343
 4044SOL    HW213032   5.823   6.925   3.252
 4045SOL     OW13033   1.891   5.842   6.664
 4045SOL    HW113034   1.881   5.768   6.597
 4045SOL    HW213035   1.837   5.921   6.634
 4046SOL     OW13036   0.767   3.023   1.762
 4046SOL    HW113037   0.835   3.033   1.836
 4046SOL    HW213038   0.709   3.104   1.759
 4047SOL     OW13039   2.688   3.664   1.645
 4047SOL    HW113040   2.614   3.716   1.688
 4047SOL    HW213041   2.730   3.719   1.573
 4048SOL     OW13042   4.848   0.447   1.014
 4048SOL    HW113043   4.896   0.396   0.942
 4048SOL    HW213044   4.896   0.533   1.032
 4049SOL     OW13045   5.146   6.601   4.801
 4049SOL    HW113046   5.146   6.700   4.814
 4049SOL    HW213047   5.230   6.562   4.839
 4050SOL     OW13048   1.998   6.979   0.935
 4050SOL    HW113049   1.948   6.949   0.854
 4050SOL    HW213050   2.096   6.984   0.913
 4051SOL     OW13051   3.517   4.003   1.388
 4051SOL    HW113052   3.479   3.917   1.424
 4051SOL    HW213053   3.477   4.080   1.438
 4052SOL     OW13054   0.595   0.798   0.268
 4052SOL    HW113055   0.647   0.781   0.185
 4052SOL    HW213056   0.651   0.851   0.332
 4053SOL     OW13057   3.911   4.864   3.731
 4053SOL    HW113058   3.948   4.957   3.739
 4053SOL    HW213059   3.939   4.811   3.811
 4054SOL     OW13060   3.613   2.470   0.957
 4054SOL    HW113061   3.555   2.482   0.876
 4054SOL    HW213062   3.707   2.454   0.928
 4055SOL     OW13063   3.838   1.580   5.821
 4055SOL    HW113064   3.795   1.619   5.902
 4055SOL    HW213065   3.908   1.642   5.787
 4056SOL     OW13066   3.401   3.793   0.227
 4056SOL    HW113067   3.354   3.866   0.177
 4056SOL    HW213068   3.426   3.827   0.318
 4057SOL     OW13069   4.700   2.862   6.825
 4057SOL    HW113070   4.781   2.804   6.824
 4057SOL    HW213071   4.674   2.885   6.732
 4058SOL     OW13072   2.034   0.778   5.894
 4058SOL    HW113073   2.037   0.865   5.944
 4058SOL    HW213074   2.061   0.793   5.799
 4059SOL     OW13075   0.855   1.610   4.799
 4059SOL    HW113076   0.945   1.600   4.756
 4059SOL    HW213077   0.823   1.520   4.829
 4060SOL     OW13078   3.908   5.023   4.455
 4060SOL    HW113079   3.894   5.069   4.367
 4060SOL    HW213080   3.824   4.975   4.481
 4061SOL     OW13081   3.106   3.130   1.740
 4061SOL    HW113082   3.075   3.112   1.647
 4061SOL    HW213083   3.179   3.199   1.739
 4062SOL     OW13084   2.790   0.757   3.341
 4062SOL    HW113085   2.870   0.725   3.392
 4062SOL    HW213086   2.820   0.795   3.253
 4063SOL     OW13087   3.043   5.050   6.470
 4063SOL    HW113088   3.118   4.993   6.503
 4063SOL    HW213089   2.993   5.001   6.399
 4064SOL     OW13090   6.530   1.084   3.430
 4064SOL    HW113091   6.516   1.182   3.444
 4064SOL    HW213092   6.608   1.053   3.486
 4065SOL     OW13093   6.527   6.293   0.390
 4065SOL    HW113094   6.505   6.221   0.324
 4065SOL    HW213095   6.621   6.324   0.375
 4066SOL     OW13096   6.394   4.142   1.655
 4066SOL    HW113097   6.397   4.099   1.745
 4066SOL    HW213098   6.340   4.226   1.659
 4067SOL     OW13099   6.061   1.319   2.039
 4067SOL    HW113100   5.989   1.355   2.098
 4067SOL    HW213101   6.123   1.394   2.014
 4068SOL     OW13102   6.089   0.464   3.522
 4068SOL    HW113103   6.140   0.461   3.437
 4068SOL    HW213104   6.152   0.464   3.599
 4069SOL     OW13105   5.901   5.272   0.931
 4069SOL    HW113106   5.941   5.184   0.957
 4069SOL    HW213107   5.922   5.340   1.001
 4070SOL     OW13108   1.498   3.629   2.739
 4070SOL    HW113109   1.404   3.598   2.725
 4070SOL    HW213110   1.542   3.573   2.809
 4071SOL     OW13111   1.053   6.946   3.879
 4071SOL    HW113112   1.105   6.890   3.944
 4071SOL    HW213113   1.084   6.928   3.786
 4072SOL     OW13114   1.597   0.135   5.009
 4072SOL    HW113115   1.613   0.112   5.104
 4072SOL    HW213116   1.569   0.231   5.002
 4073SOL     OW13117   2.284   6.270   0.068
 4073SOL    HW113118   2.248   6.362   0.078
 4073SOL    HW213119   2.298   6.249   6.997
 4074SOL     OW13120   1.715   4.038   0.704
 4074SOL    HW113121   1.723   4.024   0.802
 4074SOL    HW213122   1.716   3.950   0.657
 4075SOL     OW13123   4.881   1.627   3.490
 4075SOL    HW113124   4.939   1.640   3.410
 4075SOL    HW213125   4.922   1.558   3.550
 4076SOL     OW13126   1.922   3.827   4.358
 4076SOL    HW113127   1.922   3.791   4.265
 4076SOL    HW213128   1.828   3.840   4.389
 4077SOL     OW13129   3.683   1.161   0.554
 4077SOL    HW113130   3.734   1.226   0.610
 4077SOL    HW213131   3.660   1.204   0.466
 4078SOL     OW13132   6.218   4.031   1.460
 4078SOL    HW113133   6.121   4.013   1.478
 4078SOL    HW213134   6.248   4.107   1.518
 4079SOL     OW13135   0.597   0.901   3.778
 4079SOL    HW113136   0.636   0.929   3.866
 4079SOL    HW213137   0.512   0.952   3.761
 4080SOL     OW13138   2.974   3.049   1.520
 4080SOL    HW113139   3.013   3.043   1.428
 4080SOL    HW213140   2.894   3.109   1.518
 4081SOL     OW13141   2.308   2.466   6.013
 4081SOL    HW113142   2.407   2.465   6.023
 4081SOL    HW213143   2.266   2.425   6.094
 4082SOL     OW13144   1.104   2.728   4.351
 4082SOL    HW113145   1.112   2.788   4.271
 4082SOL    HW213146   1.195   2.712   4.390
 4083SOL     OW13147   5.861   5.210   2.713
 4083SOL    HW113148   5.836   5.226   2.617
 4083SOL    HW213149   5.889   5.115   2.725
 4084SOL     OW13150   4.944   0.613   3.713
 4084SOL    HW113151   4.888   0.632   3.632
 4084SOL    HW213152   4.889   0.562   3.779
 4085SOL     OW13153   3.428   5.130   2.869
 4085SOL    HW113154   3.353   5.091   2.814
 4085SOL    HW213155   3.435   5.080   2.955
 4086SOL     OW13156   5.800   5.666   6.266
 4086SOL    HW113157   5.884   5.721   6.264
 4086SOL    HW213158   5.809   5.588   6.204
 4087SOL     OW13159   2.920   6.826   2.682
 4087SOL    HW113160   2.822   6.831   2.705
 4087SOL    HW213161   2.955   6.736   2.707
 4088SOL     OW13162   0.489   1.626   5.551
 4088SOL    HW113163   0.550   1.665   5.482
 4088SOL    HW213164   0.440   1.699   5.597
 4089SOL     OW13165   0.378   0.200   3.935
 4089SOL    HW113166   0.371   0.299   3.927
 4089SOL    HW213167   0.293   0.163   3.972
 4090SOL     OW13168   2.876   1.337   6.402
 4090SOL    HW113169   2.938   1.374   6.332
 4090SOL    HW213170   2.785   1.325   6.362
 4091SOL     OW13171   2.316   5.750   2.277
 4091SOL    HW113172   2.299   5.743   2.375
 4091SOL    HW213173   2.267   5.676   2.229
 4092SOL     OW13174   5.520   3.143   3.951
 4092SOL    HW113175   5.563   3.148   4.041
 4092SOL    HW213176   5.470   3.056   3.943
 4093SOL     OW13177   3.884   5.169   2.878
 4093SOL    HW113178   3.882   5.071   2.893
 4093SOL    HW213179   3.845   5.216   2.957
 4094SOL     OW13180   6.519   5.348   6.419
 4094SOL    HW113181   6.470   5.396   6.492
 4094SOL    HW213182   6.610   5.322   6.451
 4095SOL     OW13183   0.716   4.778   0.083
 4095SOL    HW113184   0.703   4.875   0.107
 4095SOL    HW213185   0.627   4.737   0.062
 4096SOL     OW13186   1.604   1.108   6.742
 4096SOL    HW113187   1.561   1.196   6.721
 4096SOL    HW213188   1.703   1.119   6.742
 4097SOL     OW13189   0.028   4.760   5.255
 4097SOL    HW113190   7.009   4.691   5.199
 4097SOL    HW213191   0.059   4.835   5.197
 4098SOL     OW13192   2.592   4.605   3.226
 4098SOL    HW113193   2.567   4.622   3.322
 4098SOL    HW213194   2.626   4.512   3.217
 4099SOL     OW13195   4.417   4.766   5.665
 4099SOL    HW113196   4.455   4.675   5.656
 4099SOL    HW213197   4.318   4.759   5.682
 4100SOL     OW13198   1.282   6.764   3.926
 4100SOL    HW113199   1.253   6.751   3.831
 4100SOL    HW213200   1.382   6.763   3.931
 4101SOL     OW13201   6.137   6.617   0.255
 4101SOL    HW113202   6.206   6.689   0.247
 4101SOL    HW213203   6.177   6.536   0.297
 4102SOL     OW13204   1.252   0.998   0.284
 4102SOL    HW113205   1.282   0.902   0.285
 4102SOL    HW213206   1.269   1.039   0.374
 4103SOL     OW13207   1.366   6.755   2.860
 4103SOL    HW113208   1.362   6.816   2.780
 4103SOL    HW213209   1.449   6.700   2.856
 4104SOL     OW13210   1.209   5.993   4.446
 4104SOL    HW113211   1.219   6.055   4.524
 4104SOL    HW213212   1.257   6.031   4.367
 4105SOL     OW13213   4.878   1.188   1.151
 4105SOL    HW113214   4.816   1.175   1.073
 4105SOL    HW213215   4.967   1.221   1.117
 4106SOL     OW13216   0.238   2.083   3.239
 4106SOL    HW113217   0.144   2.111   3.224
 4106SOL    HW213218   0.253   2.067   3.337
 4107SOL     OW13219   0.604   6.270   6.717
 4107SOL    HW113220   0.570   6.308   6.802
 4107SOL    HW213221   0.578   6.329   6.641
 4108SOL     OW13222   6.481   5.364   4.360
 4108SOL    HW113223   6.429   5.366   4.445
 4108SOL    HW213224   6.418   5.364   4.282
 4109SOL     OW13225   6.750   0.009   2.800
 4109SOL    HW113226   6.656   7.024   2.833
 4109SOL    HW213227   6.757   7.001   2.706
 4110SOL     OW13228   4.652   3.883   0.681
 4110SOL    HW113229   4.746   3.854   0.700
 4110SOL    HW213230   4.601   3.806   0.641
 4111SOL     OW13231   6.574   3.888   4.150
 4111SOL    HW113232   6.644   3.858   4.216
 4111SOL    HW213233   6.486   3.847   4.174
 4112SOL     OW13234   4.783   6.548   5.214
 4112SOL    HW113235   4.864   6.500   5.181
 4112SOL    HW213236   4.734   6.588   5.136
 4113SOL     OW13237   4.390   4.954   4.929
 4113SOL    HW113238   4.334   5.010   4.990
 4113SOL    HW213239   4.333   4.887   4.882
 4114SOL     OW13240   0.182   1.965   2.329
 4114SOL    HW113241   0.149   1.873   2.307
 4114SOL    HW213242   0.115   2.033   2.301
 4115SOL     OW13243   3.855   5.867   3.901
 4115SOL    HW113244   3.809   5.783   3.931
 4115SOL    HW213245   3.791   5.944   3.906
 4116SOL     OW13246   5.470   2.943   3.663
 4116SOL    HW113247   5.539   3.015   3.670
 4116SOL    HW213248   5.436   2.939   3.569
 4117SOL     OW13249   1.344   2.440   2.830
 4117SOL    HW113250   1.251   2.403   2.832
 4117SOL    HW213251   1.405   2.379   2.880
 4118SOL     OW13252   0.272   5.837   6.007
 4118SOL    HW113253   0.284   5.916   5.946
 4118SOL    HW213254   0.309   5.755   5.963
 4119SOL     OW13255   1.398   1.092   3.795
 4119SOL    HW113256   1.495   1.065   3.800
 4119SOL    HW213257   1.351   1.034   3.729
 4120SOL     OW13258   1.564   1.307   6.414
 4120SOL    HW113259   1.501   1.238   6.379
 4120SOL    HW213260   1.547   1.320   6.512
 4121SOL     OW13261   6.385   6.576   1.806
 4121SOL    HW113262   6.317   6.505   1.788
 4121SOL    HW213263   6.453   6.577   1.732
 4122SOL     OW13264   6.472   4.505   3.225
 4122SOL    HW113265   6.527   4.500   3.142
 4122SOL    HW213266   6.524   4.469   3.302
 4123SOL     OW13267   4.291   5.370   1.742
 4123SOL    HW113268   4.274   5.398   1.648
 4123SOL    HW213269   4.351   5.437   1.787
 4124SOL     OW13270   6.223   5.794   0.231
 4124SOL    HW113271   6.265   5.764   0.146
 4124SOL    HW213272   6.201   5.892   0.226
 4125SOL     OW13273   5.830   1.668   1.705
 4125SOL    HW113274   5.844   1.764   1.727
 4125SOL    HW213275   5.869   1.648   1.615
 4126SOL     OW13276   1.358   3.265   1.974
 4126SOL    HW113277   1.279   3.211   1.947
 4126SOL    HW213278   1.328   3.347   2.023
 4127SOL     OW13279   3.891   1.540   3.847
 4127SOL    HW113280   3.812   1.481   3.828
 4127SOL    HW213281   3.861   1.636   3.848
 4128SOL     OW13282   0.567   2.844   0.406
 4128SOL    HW113283   0.595   2.858   0.501
 4128SOL    HW213284   0.573   2.930   0.355
 4129SOL     OW13285   2.152   2.349   0.809
 4129SOL    HW113286   2.234   2.337   0.865
 4129SOL    HW213287   2.123   2.260   0.774
 4130SOL     OW13288   5.671   2.765   0.779
 4130SOL    HW113289   5.638   2.723   0.864
 4130SOL    HW213290   5.692   2.861   0.796
 4131SOL     OW13291   4.684   0.358   2.936
 4131SOL    HW113292   4.706   0.395   2.845
 4131SOL    HW213293   4.613   0.288   2.926
 4132SOL     OW13294   6.780   4.530   4.096
 4132SOL    HW113295   6.791   4.572   4.186
 4132SOL    HW213296   6.834   4.581   4.028
 4133SOL     OW13297   5.700   6.947   2.516
 4133SOL    HW113298   5.630   6.982   2.579
 4133SOL    HW213299   5.788   6.942   2.564
 4134SOL     OW13300   1.795   3.303   1.300
 4134SOL    HW113301   1.756   3.362   1.230
 4134SOL    HW213302   1.892   3.288   1.280
 4135SOL     OW13303   0.356   1.529   2.669
 4135SOL    HW113304   0.400   1.456   2.721
 4135SOL    HW213305   0.423   1.598   2.644
 4136SOL     OW13306   1.404   4.743   2.237
 4136SOL    HW113307   1.351   4.794   2.169
 4136SOL    HW213308   1.501   4.762   2.224
 4137SOL     OW13309   1.782   2.332   0.145
 4137SOL    HW113310   1.764   2.409   0.205
 4137SOL    HW213311   1.863   2.351   0.089
 4138SOL     OW13312   4.984   6.685   0.873
 4138SOL    HW113313   5.057   6.724   0.929
 4138SOL    HW213314   4.980   6.731   0.785
 4139SOL     OW13315   2.185   3.280   2.895
 4139SOL    HW113316   2.223   3.187   2.899
 4139SOL    HW213317   2.106   3.286   2.955
 4140SOL     OW13318   2.546   2.374   5.400
 4140SOL    HW113319   2.539   2.370   5.300
 4140SOL    HW213320   2.455   2.361   5.439
 4141SOL     OW13321   4.536   7.021   6.394
 4141SOL    HW113322   4.472   0.068   6.418
 4141SOL    HW213323   4.601   0.028   6.326
 4142SOL     OW13324   6.794   4.625   3.178
 4142SOL    HW113325   6.887   4.652   3.150
 4142SOL    HW213326   6.763   4.685   3.252
 4143SOL     OW13327   5.340   3.245   0.318
 4143SOL    HW113328   5.324   3.155   0.277
 4143SOL    HW213329   5.307   3.246   0.412
 4144SOL     OW13330   5.923   1.784   0.554
 4144SOL    HW113331   6.012   1.811   0.592
 4144SOL    HW213332   5.890   1.856   0.493
 4145SOL     OW13333   6.940   6.606   1.589
 4145SOL    HW113334   7.002   6.616   1.667
 4145SOL    HW213335   6.951   6.515   1.549
 4146SOL     OW13336   4.677   6.239   3.518
 4146SOL    HW113337   4.774   6.217   3.522
 4146SOL    HW213338   4.624   6.154   3.515
 4147SOL     OW13339   5.189   4.278   5.564
 4147SOL    HW113340   5.126   4.224   5.619
 4147SOL    HW213341   5.281   4.238   5.570
 4148SOL     OW13342   2.531   1.455   6.057
 4148SOL    HW113343   2.532   1.519   6.133
 4148SOL    HW213344   2.443   1.408   6.054
 4149SOL     OW13345   2.172   2.591   6.781
 4149SOL    HW113346   2.105   2.665   6.781
 4149SOL    HW213347   2.214   2.583   6.871
 4150SOL     OW13348   6.017   1.986   5.639
 4150SOL    HW113349   6.008   2.085   5.632
 4150SOL    HW213350   5.931   1.947   5.673
 4151SOL     OW13351   2.107   6.559   4.151
 4151SOL    HW113352   2.129   6.486   4.215
 4151SOL    HW213353   2.185   6.621   4.145
 4152SOL     OW13354   2.416   5.151   1.467
 4152SOL    HW113355   2.433   5.184   1.374
 4152SOL    HW213356   2.415   5.051   1.467
 4153SOL     OW13357   6.839   5.007   1.677
 4153SOL    HW113358   6.916   5.046   1.727
 4153SOL    HW213359   6.844   4.907   1.682
 4154SOL     OW13360   0.897   6.148   3.754
 4154SOL    HW113361   0.818   6.210   3.754
 4154SOL    HW213362   0.892   6.090   3.673
 4155SOL     OW13363   0.661   1.683   1.086
 4155SOL    HW113364   0.602   1.721   1.015
 4155SOL    HW213365   0.737   1.746   1.104
 4156SOL     OW13366   7.003   5.572   5.225
 4156SOL    HW113367   6.971   5.507   5.294
 4156SOL    HW213368   0.065   5.540   5.188
 4157SOL     OW13369   6.937   6.164   1.865
 4157SOL    HW113370   6.962   6.184   1.770
 4157SOL    HW213371   6.953   6.068   1.884
 4158SOL     OW13372   1.540   2.882   2.318
 4158SOL    HW113373   1.520   2.818   2.393
 4158SOL    HW213374   1.498   2.849   2.234
 4159SOL     OW13375   3.168   1.683   3.466
 4159SOL    HW113376   3.250   1.703   3.520
 4159SOL    HW213377   3.087   1.709   3.518
 4160SOL     OW13378   6.469   6.601   6.733
 4160SOL    HW113379   6.519   6.551   6.663
 4160SOL    HW213380   6.484   6.699   6.721
 4161SOL     OW13381   3.456   2.750   1.337
 4161SOL    HW113382   3.368   2.724   1.378
 4161SOL    HW213383   3.483   2.680   1.271
 4162SOL     OW13384   5.498   5.858   2.090
 4162SOL    HW113385   5.507   5.785   2.158
 4162SOL    HW213386   5.518   5.822   1.999
 4163SOL     OW13387   3.825   6.547   0.923
 4163SOL    HW113388   3.899   6.593   0.873
 4163SOL    HW213389   3.808   6.596   1.009
 4164SOL     OW13390   6.517   0.490   4.637
 4164SOL    HW113391   6.473   0.402   4.619
 4164SOL    HW213392   6.478   0.531   4.719
 4165SOL     OW13393   4.700   1.076   5.144
 4165SOL    HW113394   4.622   1.136   5.127
 4165SOL    HW213395   4.682   0.986   5.105
 4166SOL     OW13396   5.989   0.802   1.733
 4166SOL    HW113397   5.893   0.830   1.737
 4166SOL    HW213398   6.022   0.805   1.639
 4167SOL     OW13399   3.897   5.405   4.956
 4167SOL    HW113400   3.854   5.475   4.900
 4167SOL    HW213401   3.907   5.439   5.050
 4168SOL     OW13402   5.027   4.018   6.531
 4168SOL    HW113403   4.943   4.059   6.495
 4168SOL    HW213404   5.069   3.961   6.460
 4169SOL     OW13405   5.025   3.638   4.857
 4169SOL    HW113406   5.124   3.628   4.853
 4169SOL    HW213407   4.982   3.548   4.853
 4170SOL     OW13408   6.658   3.751   4.365
 4170SOL    HW113409   6.571   3.704   4.371
 4170SOL    HW213410   6.732   3.688   4.386
 4171SOL     OW13411   0.347   3.309   1.198
 4171SOL    HW113412   0.364   3.408   1.198
 4171SOL    HW213413   0.405   3.266   1.129
 4172SOL     OW13414   2.828   4.768   0.570
 4172SOL    HW113415   2.865   4.860   0.559
 4172SOL    HW213416   2.776   4.763   0.655
 4173SOL     OW13417   4.967   3.026   5.126
 4173SOL    HW113418   4.908   3.026   5.206
 4173SOL    HW213419   4.916   2.995   5.046
 4174SOL     OW13420   4.244   0.425   4.900
 4174SOL    HW113421   4.174   0.367   4.941
 4174SOL    HW213422   4.201   0.507   4.862
 4175SOL     OW13423   1.470   4.352   6.754
 4175SOL    HW113424   1.384   4.347   6.705
 4175SOL    HW213425   1.453   4.371   6.851
 4176SOL     OW13426   5.350   0.061   6.325
 4176SOL    HW113427   5.301   0.142   6.291
 4176SOL    HW213428   5.360   7.020   6.251
 4177SOL     OW13429   4.703   4.147   3.360
 4177SOL    HW113430   4.716   4.232   3.309
 4177SOL    HW213431   4.615   4.106   3.334
 4178SOL     OW13432   4.056   5.258   2.166
 4178SOL    HW113433   3.964   5.280   2.198
 4178SOL    HW213434   4.100   5.196   2.231
 4179SOL     OW13435   5.055   3.149   4.764
 4179SOL    HW113436   5.058   3.186   4.857
 4179SOL    HW213437   5.050   3.225   4.699
 4180SOL     OW13438   5.100   3.900   0.295
 4180SOL    HW113439   5.156   3.823   0.323
 4180SOL    HW213440   5.030   3.869   0.231
 4181SOL     OW13441   4.645   0.436   5.472
 4181SOL    HW113442   4.614   0.347   5.439
 4181SOL    HW213443   4.665   0.429   5.570
 4182SOL     OW13444   6.728   6.497   4.120
 4182SOL    HW113445   6.711   6.519   4.216
 4182SOL    HW213446   6.640   6.486   4.073
 4183SOL     OW13447   3.684   1.933   1.704
 4183SOL    HW113448   3.704   1.863   1.636
 4183SOL    HW213449   3.766   1.987   1.722
 4184SOL     OW13450   3.131   5.462   3.432
 4184SOL    HW113451   3.162   5.427   3.344
 4184SOL    HW213452   3.208   5.505   3.479
 4185SOL     OW13453   6.710   3.886   2.595
 4185SOL    HW113454   6.697   3.875   2.694
 4185SOL    HW213455   6.650   3.824   2.546
 4186SOL     OW13456   1.908   6.446   0.213
 4186SOL    HW113457   1.956   6.466   0.299
 4186SOL    HW213458   1.895   6.530   0.161
 4187SOL     OW13459   1.789   3.441   0.249
 4187SOL    HW113460   1.851   3.502   0.299
 4187SOL    HW213461   1.842   3.384   0.186
 4188SOL     OW13462   4.733   0.243   6.661
 4188SOL    HW113463   4.664   0.171   6.674
 4188SOL    HW213464   4.733   0.272   6.565
 4189SOL     OW13465   4.968   5.156   2.842
 4189SOL    HW113466   4.883   5.103   2.838
 4189SOL    HW213467   4.947   5.253   2.853
 4190SOL     OW13468   0.260   6.573   0.957
 4190SOL    HW113469   0.185   6.594   0.894
 4190SOL    HW213470   0.251   6.478   0.988
 4191SOL     OW13471   4.447   4.395   5.922
 4191SOL    HW113472   4.519   4.428   5.982
 4191SOL    HW213473   4.460   4.296   5.907
 4192SOL     OW13474   1.076   2.480   1.815
 4192SOL    HW113475   1.056   2.561   1.760
 4192SOL    HW213476   0.992   2.429   1.832
 4193SOL     OW13477   6.492   0.611   0.685
 4193SOL    HW113478   6.478   0.596   0.783
 4193SOL    HW213479   6.432   0.686   0.655
 4194SOL     OW13480   4.605   0.822   5.030
 4194SOL    HW113481   4.639   0.736   5.068
 4194SOL    HW213482   4.506   0.816   5.017
 4195SOL     OW13483   4.588   5.619   1.630
 4195SOL    HW113484   4.615   5.535   1.582
 4195SOL    HW213485   4.620   5.615   1.724
 4196SOL     OW13486   6.827   2.063   2.926
 4196SOL    HW113487   6.806   2.131   2.997
 4196SOL    HW213488   6.874   2.107   2.850
 4197SOL     OW13489   3.741   6.467   6.204
 4197SOL    HW113490   3.816   6.485   6.269
 4197SOL    HW213491   3.654   6.472   6.252
 4198SOL     OW13492   6.538   0.659   2.151
 4198SOL    HW113493   6.618   0.673   2.092
 4198SOL    HW213494   6.475   0.595   2.108
 4199SOL     OW13495   1.166   4.026   6.007
 4199SOL    HW113496   1.107   4.049   5.930
 4199SOL    HW213497   1.134   4.072   6.090
 4200SOL     OW13498   4.746   0.806   4.316
 4200SOL    HW113499   4.653   0.775   4.339
 4200SOL    HW213500   4.810   0.772   4.384
 4201SOL     OW13501   5.665   6.930   3.147
 4201SOL    HW113502   5.594   6.933   3.217
 4201SOL    HW213503   5.696   7.023   3.126
 4202SOL     OW13504   4.414   5.318   0.342
 4202SOL    HW113505   4.387   5.223   0.359
 4202SOL    HW213506   4.462   5.324   0.255
 4203SOL     OW13507   6.096   5.650   6.959
 4203SOL    HW113508   6.022   5.583   6.961
 4203SOL    HW213509   6.177   5.611   7.003
 4204SOL     OW13510   3.114   3.532   5.832
 4204SOL    HW113511   3.159   3.610   5.789
 4204SOL    HW213512   3.177   3.454   5.834
 4205SOL     OW13513   3.525   5.635   5.263
 4205SOL    HW113514   3.526   5.653   5.165
 4205SOL    HW213515   3.463   5.559   5.283
 4206SOL     OW13516   1.680   2.112   4.988
 4206SOL    HW113517   1.648   2.202   4.957
 4206SOL    HW213518   1.613   2.042   4.963
 4207SOL     OW13519   1.436   2.841   2.067
 4207SOL    HW113520   1.336   2.833   2.075
 4207SOL    HW213521   1.459   2.927   2.022
 4208SOL     OW13522   2.018   3.535   5.194
 4208SOL    HW113523   2.032   3.587   5.278
 4208SOL    HW213524   2.001   3.598   5.118
 4209SOL     OW13525   7.010   6.187   2.572
 4209SOL    HW113526   0.032   6.109   2.612
 4209SOL    HW213527   7.004   6.177   2.473
 4210SOL     OW13528   4.141   3.608   4.788
 4210SOL    HW113529   4.126   3.569   4.697
 4210SOL    HW213530   4.142   3.535   4.856
 4211SOL     OW13531   3.999   2.319   5.349
 4211SOL    HW113532   4.014   2.338   5.446
 4211SOL    HW213533   4.038   2.393   5.294
 4212SOL     OW13534   0.241   1.241   3.074
 4212SOL    HW113535   0.167   1.275   3.015
 4212SOL    HW213536   0.289   1.168   3.027
 4213SOL     OW13537   3.115   0.392   2.958
 4213SOL    HW113538   3.071   0.457   3.019
 4213SOL    HW213539   3.187   0.344   3.007
 4214SOL     OW13540   0.862   4.654   4.436
 4214SOL    HW113541   0.919   4.683   4.359
 4214SOL    HW213542   0.917   4.652   4.519
 4215SOL     OW13543   4.696   5.956   5.387
 4215SOL    HW113544   4.641   5.956   5.304
 4215SOL    HW213545   4.724   6.049   5.409
 4216SOL     OW13546   2.350   6.983   2.581
 4216SOL    HW113547   2.390   6.991   2.672
 4216SOL    HW213548   2.304   0.043   2.557
 4217SOL     OW13549   1.493   0.393   2.069
 4217SOL    HW113550   1.545   0.346   2.140
 4217SOL    HW213551   1.538   0.381   1.981
 4218SOL     OW13552   3.186   1.344   1.787
 4218SOL    HW113553   3.102   1.398   1.788
 4218SOL    HW213554   3.169   1.253   1.824
 4219SOL     OW13555   3.773   6.575   3.959
 4219SOL    HW113556   3.807   6.568   3.866
 4219SOL    HW213557   3.796   6.491   4.010
 4220SOL     OW13558   4.641   2.085   1.600
 4220SOL    HW113559   4.656   2.018   1.673
 4220SOL    HW213560   4.557   2.136   1.619
 4221SOL     OW13561   6.870   5.480   6.065
 4221SOL    HW113562   6.893   5.521   6.154
 4221SOL    HW213563   6.793   5.418   6.076
 4222SOL     OW13564   4.971   2.241   3.488
 4222SOL    HW113565   5.007   2.314   3.429
 4222SOL    HW213566   4.876   2.260   3.511
 4223SOL     OW13567   4.152   3.982   1.857
 4223SOL    HW113568   4.143   3.897   1.910
 4223SOL    HW213569   4.246   4.016   1.865
 4224SOL     OW13570   5.033   3.861   4.395
 4224SOL    HW113571   5.028   3.763   4.375
 4224SOL    HW213572   5.120   3.897   4.362
 4225SOL     OW13573   0.615   2.513   4.883
 4225SOL    HW113574   0.552   2.589   4.870
 4225SOL    HW213575   0.618   2.457   4.800
 4226SOL     OW13576   1.086   5.611   4.699
 4226SOL    HW113577   1.114   5.705   4.719
 4226SOL    HW213578   1.144   5.573   4.627
 4227SOL     OW13579   5.383   5.470   1.511
 4227SOL    HW113580   5.390   5.405   1.587
 4227SOL    HW213581   5.389   5.420   1.424
 4228SOL     OW13582   0.880   6.030   4.363
 4228SOL    HW113583   0.790   5.992   4.387
 4228SOL    HW213584   0.869   6.097   4.290
 4229SOL     OW13585   5.953   4.788   5.964
 4229SOL    HW113586   5.899   4.708   5.993
 4229SOL    HW213587   5.968   4.784   5.865
 4230SOL     OW13588   1.319   0.654   2.409
 4230SOL    HW113589   1.360   0.619   2.324
 4230SOL    HW213590   1.386   0.713   2.455
 4231SOL     OW13591   5.407   1.139   4.961
 4231SOL    HW113592   5.479   1.207   4.973
 4231SOL    HW213593   5.385   1.098   5.050
 4232SOL     OW13594   2.154   5.138   4.109
 4232SOL    HW113595   2.107   5.216   4.150
 4232SOL    HW213596   2.248   5.164   4.087
 4233SOL     OW13597   5.716   6.304   3.857
 4233SOL    HW113598   5.766   6.363   3.793
 4233SOL    HW213599   5.673   6.229   3.806
 4234SOL     OW13600   1.877   5.592   5.932
 4234SOL    HW113601   1.846   5.685   5.913
 4234SOL    HW213602   1.807   5.544   5.985
 4235SOL     OW13603   6.807   4.665   6.131
 4235SOL    HW113604   6.864   4.692   6.209
 4235SOL    HW213605   6.715   4.643   6.164
 4236SOL     OW13606   0.374   5.142   1.919
 4236SOL    HW113607   0.316   5.178   1.992
 4236SOL    HW213608   0.357   5.045   1.907
 4237SOL     OW13609   6.912   4.103   3.553
 4237SOL    HW113610   6.967   4.176   3.514
 4237SOL    HW213611   6.815   4.124   3.541
 4238SOL     OW13612   2.053   1.105   3.092
 4238SOL    HW113613   1.960   1.115   3.058
 4238SOL    HW213614   2.086   1.192   3.126
 4239SOL     OW13615   3.984   1.145   2.913
 4239SOL    HW113616   3.927   1.202   2.971
 4239SOL    HW213617   4.034   1.079   2.970
 4240SOL     OW13618   0.809   5.285   0.982
 4240SOL    HW113619   0.899   5.240   0.978
 4240SOL    HW213620   0.785   5.318   0.891
 4241SOL     OW13621   0.082   1.663   6.994
 4241SOL    HW113622   0.122   1.647   6.903
 4241SOL    HW213623   0.144   1.721   0.021
 4242SOL     OW13624   2.245   2.231   4.559
 4242SOL    HW113625   2.232   2.313   4.614
 4242SOL    HW213626   2.308   2.169   4.606
 4243SOL     OW13627   5.088   0.876   3.171
 4243SOL    HW113628   5.052   0.786   3.197
 4243SOL    HW213629   5.135   0.869   3.083
 4244SOL     OW13630   3.671   3.715   2.556
 4244SOL    HW113631   3.640   3.738   2.464
 4244SOL    HW213632   3.769   3.732   2.564
 4245SOL     OW13633   6.851   2.535   5.463
 4245SOL    HW113634   6.931   2.576   5.506
 4245SOL    HW213635   6.880   2.466   5.397
 4246SOL     OW13636   0.028   3.845   2.818
 4246SOL    HW113637   0.099   3.801   2.763
 4246SOL    HW213638   0.002   3.932   2.776
 4247SOL     OW13639   6.984   6.019   5.194
 4247SOL    HW113640   0.029   5.959   5.232
 4247SOL    HW213641   7.014   6.052   5.104
 4248SOL     OW13642   1.261   2.322   5.706
 4248SOL    HW113643   1.227   2.279   5.622
 4248SOL    HW213644   1.356   2.296   5.721
 4249SOL     OW13645   6.191   3.067   5.706
 4249SOL    HW113646   6.238   3.069   5.617
 4249SOL    HW213647   6.160   2.974   5.725
 4250SOL     OW13648   6.359   4.922   3.811
 4250SOL    HW113649   6.262   4.924   3.787
 4250SOL    HW213650   6.413   4.905   3.729
 4251SOL     OW13651   5.924   4.080   0.470
 4251SOL    HW113652   5.886   4.027   0.546
 4251SOL    HW213653   5.945   4.018   0.394
 4252SOL     OW13654   6.882   5.868   4.957
 4252SOL    HW113655   6.804   5.924   4.986
 4252SOL    HW213656   6.884   5.864   4.857
 4253SOL     OW13657   4.652   1.152   1.686
 4253SOL    HW113658   4.554   1.171   1.695
 4253SOL    HW213659   4.685   1.193   1.601
 4254SOL     OW13660   1.497   3.461   1.397
 4254SOL    HW113661   1.503   3.561   1.394
 4254SOL    HW213662   1.404   3.433   1.370
 4255SOL     OW13663   6.093   2.667   4.259
 4255SOL    HW113664   6.120   2.584   4.306
 4255SOL    HW213665   6.054   2.732   4.325
 4256SOL     OW13666   1.528   6.902   1.163
 4256SOL    HW113667   1.544   6.838   1.238
 4256SOL    HW213668   1.490   6.853   1.085
 4257SOL     OW13669   3.814   1.876   5.120
 4257SOL    HW113670   3.762   1.960   5.107
 4257SOL    HW213671   3.894   1.895   5.177
 4258SOL     OW13672   5.998   6.554   1.675
 4258SOL    HW113673   6.046   6.466   1.666
 4258SOL    HW213674   6.065   6.625   1.697
 4259SOL     OW13675   2.612   1.634   6.947
 4259SOL    HW113676   2.625   1.539   6.972
 4259SOL    HW213677   2.655   1.693   7.016
 4260SOL     OW13678   4.047   5.663   3.623
 4260SOL    HW113679   3.949   5.674   3.607
 4260SOL    HW213680   4.076   5.726   3.696
 4261SOL     OW13681   2.313   6.384   1.973
 4261SOL    HW113682   2.384   6.381   2.043
 4261SOL    HW213683   2.284   6.291   1.951
 4262SOL     OW13684   2.110   5.226   6.575
 4262SOL    HW113685   2.148   5.137   6.599
 4262SOL    HW213686   2.078   5.272   6.657
 4263SOL     OW13687   2.331   5.717   5.241
 4263SOL    HW113688   2.376   5.628   5.240
 4263SOL    HW213689   2.396   5.787   5.209
 4264SOL     OW13690   0.298   1.783   0.156
 4264SOL    HW113691   0.355   1.752   0.231
 4264SOL    HW213692   0.350   1.844   0.097
 4265SOL     OW13693   6.624   2.007   0.132
 4265SOL    HW113694   6.710   1.971   0.095
 4265SOL    HW213695   6.600   2.092   0.084
 4266SOL     OW13696   2.607   5.642   0.473
 4266SOL    HW113697   2.657   5.556   0.457
 4266SOL    HW213698   2.657   5.697   0.540
 4267SOL     OW13699   2.119   3.794   5.032
 4267SOL    HW113700   2.210   3.822   5.004
 4267SOL    HW213701   2.103   3.822   5.127
 4268SOL     OW13702   1.899   0.437   0.328
 4268SOL    HW113703   1.923   0.503   0.399
 4268SOL    HW213704   1.827   0.376   0.362
 4269SOL     OW13705   3.093   3.006   0.170
 4269SOL    HW113706   3.051   2.962   0.249
 4269SOL    HW213707   3.183   2.967   0.152
 4270SOL     OW13708   3.807   2.943   4.881
 4270SOL    HW113709   3.836   2.857   4.922
 4270SOL    HW213710   3.745   2.991   4.944
 4271SOL     OW13711   0.371   6.670   5.477
 4271SOL    HW113712   0.415   6.583   5.458
 4271SOL    HW213713   0.359   6.721   5.391
 4272SOL     OW13714   6.624   4.709   5.383
 4272SOL    HW113715   6.658   4.637   5.444
 4272SOL    HW213716   6.599   4.668   5.295
 4273SOL     OW13717   4.935   6.731   4.988
 4273SOL    HW113718   4.978   6.641   4.991
 4273SOL    HW213719   5.000   6.797   4.949
 4274SOL     OW13720   1.627   7.000   3.492
 4274SOL    HW113721   1.594   6.916   3.449
 4274SOL    HW213722   1.652   6.981   3.587
 4275SOL     OW13723   0.063   1.017   5.429
 4275SOL    HW113724   6.992   1.004   5.404
 4275SOL    HW213725   0.095   1.104   5.391
 4276SOL     OW13726   2.505   5.018   2.977
 4276SOL    HW113727   2.437   4.959   2.933
 4276SOL    HW213728   2.577   4.961   3.017
 4277SOL     OW13729   6.359   5.369   3.793
 4277SOL    HW113730   6.359   5.331   3.885
 4277SOL    HW213731   6.429   5.441   3.787
 4278SOL     OW13732   6.613   6.084   4.952
 4278SOL    HW113733   6.516   6.104   4.945
 4278SOL    HW213734   6.638   6.070   5.048
 4279SOL     OW13735   3.161   6.505   5.613
 4279SOL    HW113736   3.082   6.495   5.553
 4279SOL    HW213737   3.138   6.475   5.705
 4280SOL     OW13738   6.420   1.557   5.302
 4280SOL    HW113739   6.477   1.479   5.278
 4280SOL    HW213740   6.359   1.533   5.378
 4281SOL     OW13741   1.620   4.941   5.135
 4281SOL    HW113742   1.593   4.847   5.159
 4281SOL    HW213743   1.719   4.947   5.130
 4282SOL     OW13744   2.689   2.490   0.621
 4282SOL    HW113745   2.705   2.486   0.720
 4282SOL    HW213746   2.738   2.415   0.577
 4283SOL     OW13747   1.858   6.895   4.042
 4283SOL    HW113748   1.795   6.958   4.086
 4283SOL    HW213749   1.890   6.935   3.956
 4284SOL     OW13750   5.596   0.796   2.444
 4284SOL    HW113751   5.568   0.837   2.358
 4284SOL    HW213752   5.522   0.807   2.512
 4285SOL     OW13753   0.392   6.828   5.730
 4285SOL    HW113754   0.371   6.775   5.648
 4285SOL    HW213755   0.326   6.805   5.802
 4286SOL     OW13756   4.402   5.769   0.110
 4286SOL    HW113757   4.317   5.747   0.061
 4286SOL    HW213758   4.480   5.742   0.054
 4287SOL     OW13759   5.580   6.842   5.145
 4287SOL    HW113760   5.673   6.804   5.149
 4287SOL    HW213761   5.585   6.942   5.142
 4288SOL     OW13762   0.658   6.771   3.902
 4288SOL    HW113763   0.708   6.851   3.868
 4288SOL    HW213764   0.559   6.790   3.899
 4289SOL     OW13765   5.322   2.391   1.447
 4289SOL    HW113766   5.400   2.349   1.402
 4289SOL    HW213767   5.303   2.342   1.533
 4290SOL     OW13768   2.076   6.900   1.917
 4290SOL    HW113769   2.124   6.822   1.958
 4290SOL    HW213770   2.028   6.951   1.989
 4291SOL     OW13771   5.477   3.210   0.714
 4291SOL    HW113772   5.433   3.124   0.687
 4291SOL    HW213773   5.560   3.190   0.767
 4292SOL     OW13774   6.229   4.023   5.813
 4292SOL    HW113775   6.276   3.966   5.881
 4292SOL    HW213776   6.254   4.119   5.828
 4293SOL     OW13777   6.758   3.868   6.533
 4293SOL    HW113778   6.856   3.847   6.531
 4293SOL    HW213779   6.721   3.862   6.440
 4294SOL     OW13780   3.912   2.640   6.189
 4294SOL    HW113781   3.891   2.676   6.098
 4294SOL    HW213782   4.010   2.649   6.207
 4295SOL     OW13783   3.173   0.430   4.895
 4295SOL    HW113784   3.144   0.381   4.813
 4295SOL    HW213785   3.187   0.365   4.970
 4296SOL     OW13786   2.852   1.774   0.903
 4296SOL    HW113787   2.828   1.681   0.932
 4296SOL    HW213788   2.770   1.820   0.870
 4297SOL     OW13789   4.932   6.667   4.615
 4297SOL    HW113790   4.857   6.716   4.659
 4297SOL    HW213791   4.987   6.620   4.684
 4298SOL     OW13792   1.412   6.042   1.404
 4298SOL    HW113793   1.498   6.066   1.358
 4298SOL    HW213794   1.405   5.943   1.411
 4299SOL     OW13795   0.866   3.213   5.908
 4299SOL    HW113796   0.914   3.168   5.983
 4299SOL    HW213797   0.787   3.158   5.881
 4300SOL     OW13798   2.952   1.119   6.695
 4300SOL    HW113799   2.951   1.058   6.616
 4300SOL    HW213800   2.893   1.198   6.678
 4301SOL     OW13801   1.944   1.445   0.257
 4301SOL    HW113802   1.951   1.351   0.292
 4301SOL    HW213803   1.988   1.450   0.168
 4302SOL     OW13804   1.272   6.085   6.679
 4302SOL    HW113805   1.252   6.078   6.581
 4302SOL    HW213806   1.291   5.994   6.716
 4303SOL     OW13807   6.506   4.167   3.027
 4303SOL    HW113808   6.473   4.218   2.948
 4303SOL    HW213809   6.428   4.144   3.086
 4304SOL     OW13810   3.469   3.520   4.037
 4304SOL    HW113811   3.456   3.422   4.044
 4304SOL    HW213812   3.383   3.567   4.054
 4305SOL     OW13813   6.308   1.128   3.118
 4305SOL    HW113814   6.237   1.160   3.181
 4305SOL    HW213815   6.327   1.031   3.135
 4306SOL     OW13816   0.223   4.075   5.954
 4306SOL    HW113817   0.173   3.989   5.950
 4306SOL    HW213818   0.219   4.120   5.865
 4307SOL     OW13819   4.602   4.172   5.629
 4307SOL    HW113820   4.525   4.184   5.566
 4307SOL    HW213821   4.665   4.249   5.621
 4308SOL     OW13822   5.006   5.906   5.274
 4308SOL    HW113823   4.925   5.848   5.268
 4308SOL    HW213824   5.024   5.947   5.185
 4309SOL     OW13825   1.690   0.610   0.572
 4309SOL    HW113826   1.678   0.699   0.616
 4309SOL    HW213827   1.627   0.601   0.495
 4310SOL     OW13828   1.599   2.651   3.651
 4310SOL    HW113829   1.693   2.631   3.679
 4310SOL    HW213830   1.536   2.629   3.725
 4311SOL     OW13831   1.190   6.079   3.899
 4311SOL    HW113832   1.097   6.101   3.868
 4311SOL    HW213833   1.215   5.987   3.868
 4312SOL     OW13834   1.722   5.972   1.681
 4312SOL    HW113835   1.657   6.017   1.619
 4312SOL    HW213836   1.697   5.992   1.776
 4313SOL     OW13837   5.931   0.836   1.169
 4313SOL    HW113838   5.919   0.933   1.190
 4313SOL    HW213839   5.848   0.801   1.126
 4314SOL     OW13840   4.898   2.859   2.846
 4314SOL    HW113841   4.863   2.934   2.790
 4314SOL    HW213842   4.822   2.800   2.875
 4315SOL     OW13843   2.581   0.338   2.022
 4315SOL    HW113844   2.555   0.352   2.117
 4315SOL    HW213845   2.678   0.315   2.016
 4316SOL     OW13846   4.782   6.905   1.401
 4316SOL    HW113847   4.767   6.907   1.302
 4316SOL    HW213848   4.774   6.811   1.434
 4317SOL     OW13849   3.662   1.544   5.442
 4317SOL    HW113850   3.645   1.578   5.349
 4317SOL    HW213851   3.629   1.611   5.508
 4318SOL     OW13852   1.521   4.050   3.831
 4318SOL    HW113853   1.518   4.023   3.735
 4318SOL    HW213854   1.582   4.128   3.842
 4319SOL     OW13855   2.743   3.408   6.742
 4319SOL    HW113856   2.654   3.379   6.706
 4319SOL    HW213857   2.730   3.477   6.813
 4320SOL     OW13858   1.617   6.537   2.550
 4320SOL    HW113859   1.651   6.466   2.489
 4320SOL    HW213860   1.531   6.509   2.592
 4321SOL     OW13861   6.032   0.738   4.751
 4321SOL    HW113862   5.957   0.691   4.797
 4321SOL    HW213863   6.012   0.748   4.654
 4322SOL     OW13864   6.803   1.100   6.759
 4322SOL    HW113865   6.842   1.102   6.851
 4322SOL    HW213866   6.843   1.173   6.704
 4323SOL     OW13867   5.693   2.961   2.181
 4323SOL    HW113868   5.710   2.970   2.279
 4323SOL    HW213869   5.766   2.907   2.139
 4324SOL     OW13870   5.545   3.685   6.735
 4324SOL    HW113871   5.624   3.714   6.681
 4324SOL    HW213872   5.576   3.654   6.825
 4325SOL     OW13873   2.333   0.517   0.082
 4325SOL    HW113874   2.271   0.441   0.065
 4325SOL    HW213875   2.422   0.482   0.110
 4326SOL     OW13876   6.678   3.582   5.113
 4326SOL    HW113877   6.682   3.557   5.210
 4326SOL    HW213878   6.611   3.655   5.101
 4327SOL     OW13879   5.272   5.443   2.497
 4327SOL    HW113880   5.236   5.396   2.416
 4327SOL    HW213881   5.278   5.541   2.479
 4328SOL     OW13882   4.826   4.713   6.154
 4328SOL    HW113883   4.909   4.768   6.143
 4328SOL    HW213884   4.746   4.766   6.125
 4329SOL     OW13885   3.702   1.877   5.717
 4329SOL    HW113886   3.713   1.837   5.626
 4329SOL    HW213887   3.639   1.954   5.713
 4330SOL     OW13888   2.644   0.387   5.885
 4330SOL    HW113889   2.705   0.438   5.945
 4330SOL    HW213890   2.667   0.289   5.889
 4331SOL     OW13891   5.441   3.490   0.396
 4331SOL    HW113892   5.414   3.416   0.335
 4331SOL    HW213893   5.438   3.457   0.491
 4332SOL     OW13894   5.235   3.501   2.191
 4332SOL    HW113895   5.274   3.491   2.282
 4332SOL    HW213896   5.216   3.411   2.152
 4333SOL     OW13897   5.616   1.349   4.943
 4333SOL    HW113898   5.603   1.372   5.039
 4333SOL    HW213899   5.714   1.337   4.924
 4334SOL     OW13900   3.029   2.131   1.893
 4334SOL    HW113901   3.074   2.117   1.805
 4334SOL    HW213902   2.984   2.221   1.893
 4335SOL     OW13903   2.950   3.658   4.122
 4335SOL    HW113904   2.932   3.604   4.204
 4335SOL    HW213905   2.976   3.751   4.148
 4336SOL     OW13906   1.794   6.118   5.598
 4336SOL    HW113907   1.707   6.167   5.599
 4336SOL    HW213908   1.781   6.025   5.633
 4337SOL     OW13909   0.621   5.030   0.097
 4337SOL    HW113910   0.659   5.119   0.119
 4337SOL    HW213911   0.533   5.019   0.143
 4338SOL     OW13912   6.171   5.706   4.705
 4338SOL    HW113913   6.082   5.753   4.702
 4338SOL    HW213914   6.185   5.657   4.619
 4339SOL     OW13915   6.572   2.463   4.726
 4339SOL    HW113916   6.622   2.549   4.734
 4339SOL    HW213917   6.585   2.409   4.810
 4340SOL     OW13918   6.602   3.247   2.312
 4340SOL    HW113919   6.524   3.242   2.374
 4340SOL    HW213920   6.626   3.343   2.297
 4341SOL     OW13921   1.351   4.032   1.852
 4341SOL    HW113922   1.443   3.994   1.846
 4341SOL    HW213923   1.303   3.992   1.929
 4342SOL     OW13924   0.537   2.835   3.374
 4342SOL    HW113925   0.605   2.773   3.335
 4342SOL    HW213926   0.571   2.929   3.366
 4343SOL     OW13927   3.582   1.006   0.229
 4343SOL    HW113928   3.514   1.076   0.206
 4343SOL    HW213929   3.670   1.050   0.248
 4344SOL     OW13930   1.976   4.978   3.234
 4344SOL    HW113931   2.049   5.047   3.243
 4344SOL    HW213932   1.901   5.017   3.181
 4345SOL     OW13933   1.678   2.953   5.518
 4345SOL    HW113934   1.722   2.866   5.541
 4345SOL    HW213935   1.697   2.976   5.422
 4346SOL     OW13936   2.487   2.995   1.722
 4346SOL    HW113937   2.401   3.044   1.707
 4346SOL    HW213938   2.552   3.056   1.768
 4347SOL     OW13939   6.723   0.080   1.530
 4347SOL    HW113940   6.730   0.126   1.618
 4347SOL    HW213941   6.756   7.012   1.538
 4348SOL     OW13942   0.849   3.722   1.691
 4348SOL    HW113943   0.937   3.721   1.645
 4348SOL    HW213944   0.824   3.815   1.715
 4349SOL     OW13945   0.430   1.623   3.488
 4349SOL    HW113946   0.439   1.546   3.551
 4349SOL    HW213947   0.352   1.607   3.427
 4350SOL     OW13948   5.283   2.511   4.664
 4350SOL    HW113949   5.296   2.484   4.569
 4350SOL    HW213950   5.310   2.606   4.676
 4351SOL     OW13951   2.466   6.194   2.159
 4351SOL    HW113952   2.408   6.210   2.238
 4351SOL    HW213953   2.540   6.131   2.183
 4352SOL     OW13954   0.494   2.070   2.062
 4352SOL    HW113955   0.433   2.136   2.107
 4352SOL    HW213956   0.515   1.996   2.125
 4353SOL     OW13957   2.204   5.858   0.729
 4353SOL    HW113958   2.226   5.911   0.811
 4353SOL    HW213959   2.250   5.769   0.733
 4354SOL     OW13960   1.949   0.018   0.109
 4354SOL    HW113961   2.018   0.038   0.040
 4354SOL    HW213962   1.866   0.069   0.088
 4355SOL     OW13963   4.375   1.065   1.304
 4355SOL    HW113964   4.337   1.150   1.338
 4355SOL    HW213965   4.389   1.071   1.205
 4356SOL     OW13966   4.831   3.914   1.682
 4356SOL    HW113967   4.881   3.859   1.615
 4356SOL    HW213968   4.858   4.009   1.675
 4357SOL     OW13969   6.120   1.063   0.147
 4357SOL    HW113970   6.058   0.992   0.114
 4357SOL    HW213971   6.138   1.127   0.073
 4358SOL     OW13972   0.146   5.728   1.473
 4358SOL    HW113973   0.151   5.821   1.507
 4358SOL    HW213974   0.230   5.679   1.498
 4359SOL     OW13975   1.101   2.518   4.645
 4359SOL    HW113976   1.106   2.444   4.578
 4359SOL    HW213977   1.084   2.604   4.598
 4360SOL     OW13978   0.504   3.865   1.848
 4360SOL    HW113979   0.448   3.794   1.804
 4360SOL    HW213980   0.477   3.874   1.944
 4361SOL     OW13981   4.455   2.578   1.826
 4361SOL    HW113982   4.513   2.558   1.905
 4361SOL    HW213983   4.488   2.660   1.781
 4362SOL     OW13984   6.393   3.590   5.636
 4362SOL    HW113985   6.484   3.618   5.668
 4362SOL    HW213986   6.329   3.665   5.650
 4363SOL     OW13987   5.371   2.275   5.193
 4363SOL    HW113988   5.441   2.250   5.258
 4363SOL    HW213989   5.410   2.334   5.122
 4364SOL     OW13990   3.165   4.118   4.923
 4364SOL    HW113991   3.100   4.135   4.996
 4364SOL    HW213992   3.258   4.116   4.960
 4365SOL     OW13993   3.823   2.090   2.553
 4365SOL    HW113994   3.891   2.135   2.611
 4365SOL    HW213995   3.862   2.006   2.515
 4366SOL     OW13996   6.360   6.815   1.339
 4366SOL    HW113997   6.366   6.894   1.400
 4366SOL    HW213998   6.275   6.766   1.356
 4367SOL     OW13999   0.924   5.566   5.792
 4367SOL    HW114000   0.835   5.553   5.748
 4367SOL    HW214001   0.982   5.622   5.732
 4368SOL     OW14002   4.867   4.894   1.604
 4368SOL    HW114003   4.800   4.841   1.655
 4368SOL    HW214004   4.931   4.937   1.668
 4369SOL     OW14005   4.534   4.473   2.215
 4369SOL    HW114006   4.525   4.409   2.139
 4369SOL    HW214007   4.496   4.561   2.189
 4370SOL     OW14008   5.601   4.308   3.477
 4370SOL    HW114009   5.591   4.350   3.386
 4370SOL    HW214010   5.524   4.335   3.534
 4371SOL     OW14011   6.554   0.345   1.620
 4371SOL    HW114012   6.513   0.436   1.620
 4371SOL    HW214013   6.529   0.297   1.536
 4372SOL     OW14014   4.579   1.159   3.333
 4372SOL    HW114015   4.545   1.225   3.400
 4372SOL    HW214016   4.591   1.204   3.245
 4373SOL     OW14017   6.931   2.480   6.668
 4373SOL    HW114018   6.933   2.547   6.742
 4373SOL    HW214019   6.920   2.527   6.580
 4374SOL     OW14020   1.342   2.078   2.343
 4374SOL    HW114021   1.427   2.082   2.395
 4374SOL    HW214022   1.282   2.154   2.370
 4375SOL     OW14023   2.393   6.621   4.133
 4375SOL    HW114024   2.440   6.533   4.134
 4375SOL    HW214025   2.453   6.691   4.171
 4376SOL     OW14026   6.702   0.204   2.579
 4376SOL    HW114027   6.747   0.269   2.518
 4376SOL    HW214028   6.719   0.111   2.547
 4377SOL     OW14029   5.817   3.773   6.971
 4377SOL    HW114030   5.871   3.848   6.931
 4377SOL    HW214031   5.845   3.686   6.929
 4378SOL     OW14032   2.258   0.327   3.791
 4378SOL    HW114033   2.231   0.384   3.714
 4378SOL    HW214034   2.180   0.270   3.819
 4379SOL     OW14035   2.862   1.408   5.084
 4379SOL    HW114036   2.902   1.332   5.033
 4379SOL    HW214037   2.786   1.375   5.140
 4380SOL     OW14038   1.339   1.330   1.383
 4380SOL    HW114039   1.256   1.365   1.426
 4380SOL    HW214040   1.392   1.277   1.450
 4381SOL     OW14041   0.740   5.486   5.419
 4381SOL    HW114042   0.709   5.567   5.470
 4381SOL    HW214043   0.828   5.456   5.455
 4382SOL     OW14044   7.022   3.280   5.405
 4382SOL    HW114045   7.003   3.243   5.314
 4382SOL    HW214046   0.093   3.265   5.427
 4383SOL     OW14047   5.648   2.752   5.913
 4383SOL    HW114048   5.568   2.758   5.973
 4383SOL    HW214049   5.620   2.717   5.824
 4384SOL     OW14050   0.110   0.098   3.308
 4384SOL    HW114051   0.048   0.048   3.248
 4384SOL    HW214052   0.065   0.116   3.396
 4385SOL     OW14053   5.068   1.862   4.770
 4385SOL    HW114054   5.116   1.798   4.829
 4385SOL    HW214055   5.017   1.811   4.700
 4386SOL     OW14056   1.471   4.020   6.025
 4386SOL    HW114057   1.516   3.994   5.939
 4386SOL    HW214058   1.373   4.030   6.009
 4387SOL     OW14059   6.541   2.920   0.764
 4387SOL    HW114060   6.614   2.874   0.813
 4387SOL    HW214061   6.504   2.995   0.820
 4388SOL     OW14062   5.211   1.991   6.050
 4388SOL    HW114063   5.233   2.088   6.061
 4388SOL    HW214064   5.205   1.947   6.140
 4389SOL     OW14065   6.997   3.665   1.886
 4389SOL    HW114066   0.040   3.694   1.953
 4389SOL    HW214067   6.909   3.707   1.907
 4390SOL     OW14068   5.557   0.077   0.705
 4390SOL    HW114069   5.468   0.123   0.709
 4390SOL    HW214070   5.559   0.016   0.626
 4391SOL     OW14071   2.044   5.615   6.384
 4391SOL    HW114072   1.957   5.597   6.430
 4391SOL    HW214073   2.079   5.530   6.345
 4392SOL     OW14074   1.268   1.451   4.335
 4392SOL    HW114075   1.320   1.396   4.270
 4392SOL    HW214076   1.255   1.543   4.297
 4393SOL     OW14077   6.056   0.103   1.249
 4393SOL    HW114078   6.062   0.006   1.272
 4393SOL    HW214079   6.083   0.116   1.153
 4394SOL     OW14080   1.027   0.318   1.461
 4394SOL    HW114081   1.125   0.305   1.478
 4394SOL    HW214082   1.014   0.401   1.406
 4395SOL     OW14083   2.319   0.027   2.229
 4395SOL    HW114084   2.283   6.963   2.254
 4395SOL    HW214085   2.411   0.015   2.192
 4396SOL     OW14086   1.458   0.986   3.367
 4396SOL    HW114087   1.369   0.958   3.404
 4396SOL    HW214088   1.443   1.047   3.289
 4397SOL     OW14089   2.591   2.464   3.821
 4397SOL    HW114090   2.621   2.470   3.726
 4397SOL    HW214091   2.521   2.533   3.839
 4398SOL     OW14092   2.022   3.693   6.287
 4398SOL    HW114093   2.067   3.668   6.373
 4398SOL    HW214094   1.985   3.610   6.244
 4399SOL     OW14095   2.257   6.561   2.303
 4399SOL    HW114096   2.227   6.656   2.296
 4399SOL    HW214097   2.182   6.505   2.338
 4400SOL     OW14098   1.806   6.637   4.216
 4400SOL    HW114099   1.797   6.732   4.186
 4400SOL    HW214100   1.810   6.634   4.316
 4401SOL     OW14101   3.422   6.319   5.492
 4401SOL    HW114102   3.499   6.259   5.474
 4401SOL    HW214103   3.385   6.299   5.583
 4402SOL     OW14104   1.518   1.064   2.896
 4402SOL    HW114105   1.575   1.101   2.823
 4402SOL    HW214106   1.427   1.044   2.860
 4403SOL     OW14107   0.755   4.983   1.468
 4403SOL    HW114108   0.809   4.945   1.542
 4403SOL    HW214109   0.768   5.082   1.464
 4404SOL     OW14110   1.349   5.794   6.106
 4404SOL    HW114111   1.307   5.706   6.129
 4404SOL    HW214112   1.373   5.842   6.190
 4405SOL     OW14113   3.000   4.867   3.644
 4405SOL    HW114114   3.018   4.871   3.546
 4405SOL    HW214115   3.078   4.824   3.691
 4406SOL     OW14116   6.177   3.466   2.176
 4406SOL    HW114117   6.208   3.524   2.252
 4406SOL    HW214118   6.098   3.507   2.132
 4407SOL     OW14119   6.926   6.277   2.110
 4407SOL    HW114120   6.940   6.231   2.022
 4407SOL    HW214121   6.907   6.374   2.094
 4408SOL     OW14122   4.005   6.780   0.238
 4408SOL    HW114123   3.962   6.824   0.158
 4408SOL    HW214124   4.098   6.751   0.214
 4409SOL     OW14125   3.868   0.677   2.692
 4409SOL    HW114126   3.902   0.584   2.699
 4409SOL    HW214127   3.945   0.741   2.693
 4410SOL     OW14128   0.345   5.750   1.037
 4410SOL    HW114129   0.300   5.821   1.092
 4410SOL    HW214130   0.392   5.793   0.959
 4411SOL     OW14131   3.301   4.586   5.841
 4411SOL    HW114132   3.205   4.579   5.814
 4411SOL    HW214133   3.315   4.537   5.926
 4412SOL     OW14134   3.966   6.702   3.427
 4412SOL    HW114135   4.011   6.615   3.447
 4412SOL    HW214136   4.035   6.774   3.419
 4413SOL     OW14137   3.261   0.314   4.315
 4413SOL    HW114138   3.244   0.405   4.353
 4413SOL    HW214139   3.341   0.275   4.359
 4414SOL     OW14140   5.285   5.178   1.889
 4414SOL    HW114141   5.297   5.088   1.930
 4414SOL    HW214142   5.189   5.203   1.891
 4415SOL     OW14143   3.308   4.004   2.100
 4415SOL    HW114144   3.337   4.071   2.169
 4415SOL    HW214145   3.387   3.976   2.045
 4416SOL     OW14146   4.020   1.676   4.481
 4416SOL    HW114147   4.005   1.646   4.386
 4416SOL    HW214148   4.037   1.774   4.483
 4417SOL     OW14149   0.347   3.748   3.926
 4417SOL    HW114150   0.329   3.703   4.013
 4417SOL    HW214151   0.429   3.709   3.884
 4418SOL     OW14152   6.554   0.584   0.978
 4418SOL    HW114153   6.481   0.515   0.981
 4418SOL    HW214154   6.641   0.541   1.002
 4419SOL     OW14155   6.556   5.780   5.725
 4419SOL    HW114156   6.485   5.786   5.795
 4419SOL    HW214157   6.639   5.742   5.765
 4420SOL     OW14158   3.624   2.034   1.374
 4420SOL    HW114159   3.559   2.067   1.306
 4420SOL    HW214160   3.632   2.101   1.448
 4421SOL     OW14161   1.319   3.025   4.570
 4421SOL    HW114162   1.348   3.065   4.483
 4421SOL    HW214163   1.240   3.075   4.606
 4422SOL     OW14164   0.250   4.916   0.069
 4422SOL    HW114165   0.238   4.894   0.166
 4422SOL    HW214166   0.184   4.986   0.043
 4423SOL     OW14167   6.114   4.459   5.808
 4423SOL    HW114168   6.063   4.492   5.887
 4423SOL    HW214169   6.052   4.412   5.746
 4424SOL     OW14170   4.741   5.870   4.287
 4424SOL    HW114171   4.729   5.910   4.196
 4424SOL    HW214172   4.657   5.821   4.312
 4425SOL     OW14173   1.670   5.436   1.479
 4425SOL    HW114174   1.756   5.400   1.516
 4425SOL    HW214175   1.594   5.400   1.533
 4426SOL     OW14176   0.900   0.130   4.345
 4426SOL    HW114177   0.888   0.036   4.377
 4426SOL    HW214178   0.963   0.131   4.267
 4427SOL     OW14179   3.492   6.369   3.022
 4427SOL    HW114180   3.550   6.446   2.997
 4427SOL    HW214181   3.464   6.377   3.118
 4428SOL     OW14182   6.013   0.866   4.221
 4428SOL    HW114183   6.067   0.785   4.242
 4428SOL    HW214184   5.958   0.850   4.139
 4429SOL     OW14185   2.547   6.260   3.405
 4429SOL    HW114186   2.529   6.335   3.469
 4429SOL    HW214187   2.643   6.262   3.376
 4430SOL     OW14188   5.056   4.784   4.295
 4430SOL    HW114189   5.003   4.700   4.292
 4430SOL    HW214190   5.071   4.811   4.390
 4431SOL     OW14191   3.284   0.678   3.755
 4431SOL    HW114192   3.266   0.772   3.783
 4431SOL    HW214193   3.299   0.621   3.836
 4432SOL     OW14194   1.615   3.434   6.590
 4432SOL    HW114195   1.630   3.492   6.510
 4432SOL    HW214196   1.533   3.465   6.639
 4433SOL     OW14197   0.959   1.175   4.753
 4433SOL    HW114198   0.988   1.158   4.847
 4433SOL    HW214199   0.999   1.107   4.692
 4434SOL     OW14200   6.632   1.517   1.424
 4434SOL    HW114201   6.677   1.573   1.354
 4434SOL    HW214202   6.691   1.509   1.504
 4435SOL     OW14203   2.736   3.397   0.275
 4435SOL    HW114204   2.791   3.325   0.233
 4435SOL    HW214205   2.688   3.361   0.355
 4436SOL     OW14206   4.492   1.790   1.262
 4436SOL    HW114207   4.502   1.885   1.292
 4436SOL    HW214208   4.582   1.752   1.242
 4437SOL     OW14209   7.016   3.845   2.403
 4437SOL    HW114210   0.011   3.763   2.349
 4437SOL    HW214211   0.072   3.875   2.452
 4438SOL     OW14212   4.453   6.768   5.729
 4438SOL    HW114213   4.465   6.758   5.631
 4438SOL    HW214214   4.495   6.854   5.759
 4439SOL     OW14215   2.282   6.978   3.144
 4439SOL    HW114216   2.259   0.047   3.122
 4439SOL    HW214217   2.369   6.954   3.101
 4440SOL     OW14218   1.807   5.203   1.035
 4440SOL    HW114219   1.801   5.211   0.935
 4440SOL    HW214220   1.875   5.135   1.059
 4441SOL     OW14221   1.128   1.460   0.295
 4441SOL    HW114222   1.124   1.554   0.328
 4441SOL    HW214223   1.077   1.451   0.210
 4442SOL     OW14224   1.853   4.680   6.399
 4442SOL    HW114225   1.936   4.625   6.396
 4442SOL    HW214226   1.789   4.640   6.465
 4443SOL     OW14227   0.617   5.073   6.851
 4443SOL    HW114228   0.599   5.038   6.943
 4443SOL    HW214229   0.539   5.129   6.821
 4444SOL     OW14230   4.901   4.148   0.734
 4444SOL    HW114231   4.968   4.198   0.789
 4444SOL    HW214232   4.850   4.084   0.791
 4445SOL     OW14233   0.120   5.605   6.743
 4445SOL    HW114234   0.132   5.537   6.815
 4445SOL    HW214235   0.035   5.586   6.694
 4446SOL     OW14236   5.023   1.213   0.722
 4446SOL    HW114237   4.937   1.260   0.740
 4446SOL    HW214238   5.022   1.123   0.764
 4447SOL     OW14239   5.565   5.027   5.048
 4447SOL    HW114240   5.626   4.978   4.987
 4447SOL    HW214241   5.603   5.027   5.141
 4448SOL     OW14242   2.685   6.386   1.919
 4448SOL    HW114243   2.639   6.450   1.981
 4448SOL    HW214244   2.783   6.406   1.919
 4449SOL     OW14245   3.551   0.877   6.586
 4449SOL    HW114246   3.587   0.846   6.675
 4449SOL    HW214247   3.541   0.799   6.525
 4450SOL     OW14248   3.408   0.558   0.122
 4450SOL    HW114249   3.349   0.537   0.200
 4450SOL    HW214250   3.474   0.484   0.109
 4451SOL     OW14251   4.890   4.740   3.701
 4451SOL    HW114252   4.797   4.745   3.663
 4451SOL    HW214253   4.885   4.715   3.797
 4452SOL     OW14254   5.200   6.332   4.275
 4452SOL    HW114255   5.192   6.410   4.337
 4452SOL    HW214256   5.119   6.275   4.284
 4453SOL     OW14257   0.104   3.406   1.472
 4453SOL    HW114258   0.079   3.388   1.376
 4453SOL    HW214259   0.105   3.320   1.523
 4454SOL     OW14260   1.132   2.086   0.128
 4454SOL    HW114261   1.077   2.122   0.052
 4454SOL    HW214262   1.229   2.095   0.106
 4455SOL     OW14263   6.478   5.691   4.584
 4455SOL    HW114264   6.479   5.642   4.671
 4455SOL    HW214265   6.398   5.662   4.530
 4456SOL     OW14266   1.820   6.596   3.624
 4456SOL    HW114267   1.858   6.603   3.716
 4456SOL    HW214268   1.884   6.636   3.558
 4457SOL     OW14269   1.415   2.008   5.032
 4457SOL    HW114270   1.424   1.909   5.017
 4457SOL    HW214271   1.359   2.048   4.958
 4458SOL     OW14272   2.067   4.113   1.526
 4458SOL    HW114273   2.013   4.062   1.459
 4458SOL    HW214274   2.016   4.120   1.612
 4459SOL     OW14275   1.397   2.732   4.210
 4459SOL    HW114276   1.490   2.767   4.217
 4459SOL    HW214277   1.343   2.792   4.151
 4460SOL     OW14278   0.242   3.597   4.117
 4460SOL    HW114279   0.197   3.636   4.197
 4460SOL    HW214280   0.181   3.533   4.071
 4461SOL     OW14281   2.847   1.209   1.582
 4461SOL    HW114282   2.856   1.109   1.583
 4461SOL    HW214283   2.915   1.247   1.519
 4462SOL     OW14284   6.297   3.877   2.084
 4462SOL    HW114285   6.234   3.908   2.156
 4462SOL    HW214286   6.247   3.872   1.997
 4463SOL     OW14287   6.005   1.668   1.515
 4463SOL    HW114288   6.078   1.737   1.516
 4463SOL    HW214289   6.046   1.577   1.520
 4464SOL     OW14290   0.422   5.721   0.314
 4464SOL    HW114291   0.456   5.681   0.229
 4464SOL    HW214292   0.344   5.669   0.347
 4465SOL     OW14293   2.488   5.941   0.465
 4465SOL    HW114294   2.509   5.846   0.442
 4465SOL    HW214295   2.520   5.961   0.558
 4466SOL     OW14296   1.760   2.120   4.031
 4466SOL    HW114297   1.813   2.035   4.040
 4466SOL    HW214298   1.810   2.195   4.073
 4467SOL     OW14299   3.274   5.756   2.990
 4467SOL    HW114300   3.336   5.685   3.023
 4467SOL    HW214301   3.182   5.718   2.979
 4468SOL     OW14302   1.129   3.172   1.881
 4468SOL    HW114303   1.151   3.225   1.799
 4468SOL    HW214304   1.045   3.207   1.922
 4469SOL     OW14305   2.522   0.146   1.748
 4469SOL    HW114306   2.474   0.065   1.781
 4469SOL    HW214307   2.466   0.194   1.682
 4470SOL     OW14308   1.481   0.434   2.591
 4470SOL    HW114309   1.423   0.386   2.525
 4470SOL    HW214310   1.475   0.532   2.576
 4471SOL     OW14311   2.081   2.060   6.254
 4471SOL    HW114312   2.008   2.084   6.318
 4471SOL    HW214313   2.079   2.123   6.176
 4472SOL     OW14314   1.554   3.087   1.003
 4472SOL    HW114315   1.571   2.991   0.982
 4472SOL    HW214316   1.631   3.143   0.971
 4473SOL     OW14317   0.222   3.250   4.117
 4473SOL    HW114318   0.197   3.176   4.180
 4473SOL    HW214319   0.308   3.291   4.147
 4474SOL     OW14320   3.512   0.681   1.828
 4474SOL    HW114321   3.468   0.769   1.847
 4474SOL    HW214322   3.514   0.627   1.913
 4475SOL     OW14323   0.875   3.995   1.755
 4475SOL    HW114324   0.973   4.013   1.742
 4475SOL    HW214325   0.859   3.965   1.849
 4476SOL     OW14326   5.684   1.318   3.958
 4476SOL    HW114327   5.735   1.322   4.044
 4476SOL    HW214328   5.645   1.408   3.938
 4477SOL     OW14329   2.653   0.092   5.570
 4477SOL    HW114330   2.665   0.138   5.658
 4477SOL    HW214331   2.657   0.160   5.496
 4478SOL     OW14332   1.672   0.248   0.458
 4478SOL    HW114333   1.644   0.220   0.550
 4478SOL    HW214334   1.747   0.189   0.427
 4479SOL     OW14335   1.069   2.618   0.329
 4479SOL    HW114336   1.080   2.700   0.385
 4479SOL    HW214337   0.972   2.606   0.306
 4480SOL     OW14338   6.474   5.763   4.133
 4480SOL    HW114339   6.376   5.762   4.113
 4480SOL    HW214340   6.506   5.669   4.147
 4481SOL     OW14341   2.810   5.023   6.259
 4481SOL    HW114342   2.748   4.948   6.236
 4481SOL    HW214343   2.762   5.110   6.250
 4482SOL     OW14344   2.852   5.257   6.601
 4482SOL    HW114345   2.833   5.255   6.699
 4482SOL    HW214346   2.906   5.176   6.577
 4483SOL     OW14347   6.986   2.385   1.802
 4483SOL    HW114348   6.937   2.472   1.804
 4483SOL    HW214349   0.030   2.388   1.730
 4484SOL     OW14350   2.538   2.904   6.641
 4484SOL    HW114351   2.593   2.821   6.638
 4484SOL    HW214352   2.539   2.941   6.735
 4485SOL     OW14353   5.224   2.325   4.459
 4485SOL    HW114354   5.210   2.308   4.556
 4485SOL    HW214355   5.280   2.252   4.420
 4486SOL     OW14356   4.997   4.741   5.308
 4486SOL    HW114357   4.985   4.654   5.356
 4486SOL    HW214358   5.094   4.761   5.299
 4487SOL     OW14359   1.586   2.318   6.980
 4487SOL    HW114360   1.580   2.406   6.934
 4487SOL    HW214361   1.661   2.319   0.020
 4488SOL     OW14362   0.472   4.668   4.221
 4488SOL    HW114363   0.503   4.742   4.280
 4488SOL    HW214364   0.478   4.581   4.271
 4489SOL     OW14365   4.857   5.455   5.413
 4489SOL    HW114366   4.881   5.369   5.368
 4489SOL    HW214367   4.759   5.459   5.428
 4490SOL     OW14368   5.221   1.888   0.933
 4490SOL    HW114369   5.223   1.987   0.925
 4490SOL    HW214370   5.299   1.857   0.988
 4491SOL     OW14371   1.524   3.172   3.457
 4491SOL    HW114372   1.533   3.271   3.460
 4491SOL    HW214373   1.428   3.147   3.469
 4492SOL     OW14374   5.960   0.414   1.808
 4492SOL    HW114375   6.045   0.445   1.764
 4492SOL    HW214376   5.884   0.425   1.745
 4493SOL     OW14377   5.142   0.482   5.236
 4493SOL    HW114378   5.095   0.431   5.163
 4493SOL    HW214379   5.079   0.498   5.311
 4494SOL     OW14380   0.121   0.340   6.886
 4494SOL    HW114381   0.024   0.352   6.910
 4494SOL    HW214382   0.130   0.267   6.819
 4495SOL     OW14383   3.764   6.167   1.941
 4495SOL    HW114384   3.718   6.091   1.987
 4495SOL    HW214385   3.816   6.133   1.863
 4496SOL     OW14386   3.844   5.934   5.966
 4496SOL    HW114387   3.842   5.845   5.920
 4496SOL    HW214388   3.789   5.930   6.049
 4497SOL     OW14389   4.139   1.770   6.352
 4497SOL    HW114390   4.238   1.768   6.364
 4497SOL    HW214391   4.095   1.783   6.441
 4498SOL     OW14392   0.279   5.343   5.704
 4498SOL    HW114393   0.242   5.369   5.793
 4498SOL    HW214394   0.333   5.418   5.667
 4499SOL     OW14395   5.928   1.758   2.724
 4499SOL    HW114396   5.941   1.852   2.692
 4499SOL    HW214397   5.843   1.751   2.775
 4500SOL     OW14398   3.379   5.145   0.294
 4500SOL    HW114399   3.279   5.149   0.292
 4500SOL    HW214400   3.414   5.218   0.353
 4501SOL     OW14401   5.717   1.741   2.203
 4501SOL    HW114402   5.624   1.753   2.170
 4501SOL    HW214403   5.735   1.807   2.276
 4502SOL     OW14404   0.647   3.400   0.130
 4502SOL    HW114405   0.615   3.334   0.197
 4502SOL    HW214406   0.569   3.445   0.087
 4503SOL     OW14407   2.730   0.144   2.406
 4503SOL    HW114408   2.770   0.103   2.324
 4503SOL    HW214409   2.799   0.148   2.479
 4504SOL     OW14410   0.541   1.898   3.262
 4504SOL    HW114411   0.492   1.973   3.218
 4504SOL    HW214412   0.530   1.906   3.361
 4505SOL     OW14413   5.870   3.894   2.654
 4505SOL    HW114414   5.932   3.871   2.729
 4505SOL    HW214415   5.790   3.834   2.657
 4506SOL     OW14416   5.217   2.889   4.375
 4506SOL    HW114417   5.260   2.977   4.395
 4506SOL    HW214418   5.269   2.842   4.304
 4507SOL     OW14419   6.510   3.360   3.506
 4507SOL    HW114420   6.567   3.391   3.430
 4507SOL    HW214421   6.499   3.434   3.572
 4508SOL     OW14422   0.566   5.106   0.649
 4508SOL    HW114423   0.661   5.076   0.645
 4508SOL    HW214424   0.537   5.114   0.744
 4509SOL     OW14425   4.285   2.022   2.467
 4509SOL    HW114426   4.290   2.108   2.417
 4509SOL    HW214427   4.375   1.999   2.504
 4510SOL     OW14428   4.998   1.399   4.394
 4510SOL    HW114429   4.966   1.394   4.299
 4510SOL    HW214430   5.095   1.422   4.395
 4511SOL     OW14431   0.280   4.556   1.172
 4511SOL    HW114432   0.275   4.508   1.260
 4511SOL    HW214433   0.189   4.561   1.132
 4512SOL     OW14434   3.558   1.952   6.047
 4512SOL    HW114435   3.493   1.946   6.123
 4512SOL    HW214436   3.621   2.027   6.063
 4513SOL     OW14437   1.481   6.100   0.191
 4513SOL    HW114438   1.532   6.069   0.271
 4513SOL    HW214439   1.499   6.197   0.176
 4514SOL     OW14440   3.339   3.715   6.438
 4514SOL    HW114441   3.358   3.808   6.468
 4514SOL    HW214442   3.242   3.696   6.448
 4515SOL     OW14443   4.885   6.907   5.555
 4515SOL    HW114444   4.971   6.933   5.512
 4515SOL    HW214445   4.854   6.820   5.516
 4516SOL     OW14446   3.857   1.981   5.491
 4516SOL    HW114447   3.839   2.060   5.550
 4516SOL    HW214448   3.771   1.945   5.455
 4517SOL     OW14449   4.264   0.400   5.890
 4517SOL    HW114450   4.234   0.477   5.833
 4517SOL    HW214451   4.204   0.391   5.969
 4518SOL     OW14452   1.957   0.203   1.031
 4518SOL    HW114453   1.985   0.112   1.060
 4518SOL    HW214454   2.004   0.272   1.087
 4519SOL     OW14455   5.359   6.502   6.956
 4519SOL    HW114456   5.291   6.478   6.887
 4519SOL    HW214457   5.407   6.585   6.929
 4520SOL     OW14458   3.925   6.461   5.043
 4520SOL    HW114459   3.939   6.502   4.953
 4520SOL    HW214460   4.009   6.415   5.072
 4521SOL     OW14461   4.851   2.945   4.878
 4521SOL    HW114462   4.925   2.972   4.817
 4521SOL    HW214463   4.763   2.951   4.829
 4522SOL     OW14464   4.945   3.570   3.564
 4522SOL    HW114465   4.964   3.535   3.655
 4522SOL    HW214466   4.932   3.493   3.501
 4523SOL     OW14467   0.592   3.293   6.275
 4523SOL    HW114468   0.668   3.347   6.240
 4523SOL    HW214469   0.627   3.220   6.333
 4524SOL     OW14470   0.571   3.334   3.014
 4524SOL    HW114471   0.640   3.402   3.037
 4524SOL    HW214472   0.606   3.243   3.033
 4525SOL     OW14473   1.922   2.444   5.853
 4525SOL    HW114474   1.868   2.386   5.792
 4525SOL    HW214475   2.018   2.419   5.846
 4526SOL     OW14476   0.392   6.936   6.106
 4526SOL    HW114477   0.311   6.919   6.050
 4526SOL    HW214478   0.412   0.009   6.106
 4527SOL     OW14479   6.243   0.158   3.154
 4527SOL    HW114480   6.248   0.082   3.219
 4527SOL    HW214481   6.242   0.244   3.204
 4528SOL     OW14482   3.734   1.036   5.490
 4528SOL    HW114483   3.767   1.129   5.474
 4528SOL    HW214484   3.667   1.036   5.563
 4529SOL     OW14485   2.978   1.102   5.270
 4529SOL    HW114486   2.881   1.082   5.281
 4529SOL    HW214487   2.995   1.138   5.179
 4530SOL     OW14488   2.500   6.202   4.854
 4530SOL    HW114489   2.441   6.183   4.932
 4530SOL    HW214490   2.594   6.177   4.877
 4531SOL     OW14491   1.035   5.278   6.387
 4531SOL    HW114492   0.984   5.301   6.304
 4531SOL    HW214493   1.128   5.250   6.363
 4532SOL     OW14494   5.469   0.681   2.791
 4532SOL    HW114495   5.430   0.680   2.699
 4532SOL    HW214496   5.399   0.651   2.857
 4533SOL     OW14497   2.323   0.586   1.957
 4533SOL    HW114498   2.403   0.601   2.015
 4533SOL    HW214499   2.316   0.489   1.934
 4534SOL     OW14500   4.511   1.470   4.064
 4534SOL    HW114501   4.576   1.468   4.140
 4534SOL    HW214502   4.421   1.498   4.098
 4535SOL     OW14503   3.068   1.391   0.918
 4535SOL    HW114504   3.092   1.353   0.829
 4535SOL    HW214505   2.970   1.410   0.921
 4536SOL     OW14506   3.012   1.648   6.253
 4536SOL    HW114507   2.994   1.557   6.215
 4536SOL    HW214508   3.037   1.639   6.350
 4537SOL     OW14509   3.538   4.081   4.341
 4537SOL    HW114510   3.578   4.106   4.253
 4537SOL    HW214511   3.499   3.989   4.335
 4538SOL     OW14512   6.760   2.382   0.797
 4538SOL    HW114513   6.817   2.312   0.840
 4538SOL    HW214514   6.802   2.471   0.809
 4539SOL     OW14515   1.183   5.830   5.884
 4539SOL    HW114516   1.096   5.833   5.934
 4539SOL    HW214517   1.259   5.832   5.949
 4540SOL     OW14518   0.231   1.306   0.840
 4540SOL    HW114519   0.188   1.217   0.851
 4540SOL    HW214520   0.308   1.313   0.903
 4541SOL     OW14521   4.155   2.210   5.825
 4541SOL    HW114522   4.197   2.245   5.909
 4541SOL    HW214523   4.208   2.132   5.791
 4542SOL     OW14524   0.336   2.849   1.088
 4542SOL    HW114525   0.316   2.914   1.162
 4542SOL    HW214526   0.305   2.758   1.115
 4543SOL     OW14527   3.683   2.030   7.019
 4543SOL    HW114528   3.662   2.065   6.928
 4543SOL    HW214529   3.656   1.933   7.025
 4544SOL     OW14530   5.905   5.082   0.628
 4544SOL    HW114531   5.874   5.162   0.680
 4544SOL    HW214532   5.899   5.101   0.530
 4545SOL     OW14533   1.766   3.449   5.229
 4545SOL    HW114534   1.845   3.467   5.170
 4545SOL    HW214535   1.682   3.480   5.183
 4546SOL     OW14536   2.141   1.254   6.275
 4546SOL    HW114537   2.137   1.160   6.307
 4546SOL    HW214538   2.051   1.281   6.238
 4547SOL     OW14539   6.358   0.450   0.182
 4547SOL    HW114540   6.307   0.389   0.243
 4547SOL    HW214541   6.452   0.459   0.216
 4548SOL     OW14542   2.025   3.316   3.103
 4548SOL    HW114543   2.074   3.396   3.137
 4548SOL    HW214544   1.958   3.287   3.172
 4549SOL     OW14545   5.888   4.043   2.979
 4549SOL    HW114546   5.800   4.067   3.020
 4549SOL    HW214547   5.958   4.106   3.011
 4550SOL     OW14548   0.528   4.239   2.961
 4550SOL    HW114549   0.523   4.337   2.941
 4550SOL    HW214550   0.556   4.227   3.057
 4551SOL     OW14551   1.055   3.532   5.057
 4551SOL    HW114552   0.975   3.533   5.117
 4551SOL    HW214553   1.125   3.472   5.096
 4552SOL     OW14554   5.877   1.115   1.250
 4552SOL    HW114555   5.812   1.140   1.321
 4552SOL    HW214556   5.969   1.109   1.290
 4553SOL     OW14557   5.676   5.191   6.192
 4553SOL    HW114558   5.714   5.178   6.100
 4553SOL    HW214559   5.638   5.105   6.225
 4554SOL     OW14560   0.807   6.384   1.663
 4554SOL    HW114561   0.801   6.484   1.662
 4554SOL    HW214562   0.738   6.348   1.725
 4555SOL     OW14563   0.620   1.002   6.961
 4555SOL    HW114564   0.608   0.903   6.972
 4555SOL    HW214565   0.697   1.020   6.900
 4556SOL     OW14566   6.156   3.236   6.074
 4556SOL    HW114567   6.063   3.242   6.040
 4556SOL    HW214568   6.210   3.312   6.038
 4557SOL     OW14569   5.923   4.842   3.227
 4557SOL    HW114570   5.954   4.782   3.301
 4557SOL    HW214571   5.980   4.924   3.225
 4558SOL     OW14572   6.863   2.899   5.371
 4558SOL    HW114573   6.776   2.945   5.352
 4558SOL    HW214574   6.900   2.933   5.458
 4559SOL     OW14575   0.705   3.140   2.431
 4559SOL    HW114576   0.649   3.184   2.361
 4559SOL    HW214577   0.700   3.040   2.419
 4560SOL     OW14578   5.989   4.569   2.535
 4560SOL    HW114579   5.983   4.510   2.454
 4560SOL    HW214580   6.012   4.513   2.615
 4561SOL     OW14581   4.033   2.173   4.470
 4561SOL    HW114582   3.937   2.165   4.498
 4561SOL    HW214583   4.039   2.169   4.371
 4562SOL     OW14584   2.361   0.527   0.790
 4562SOL    HW114585   2.308   0.462   0.844
 4562SOL    HW214586   2.455   0.528   0.822
 4563SOL     OW14587   0.199   3.094   1.807
 4563SOL    HW114588   0.193   3.148   1.723
 4563SOL    HW214589   0.108   3.086   1.848
 4564SOL     OW14590   0.209   4.467   2.050
 4564SOL    HW114591   0.179   4.377   2.080
 4564SOL    HW214592   0.278   4.503   2.114
 4565SOL     OW14593   2.002   6.705   5.055
 4565SOL    HW114594   1.994   6.680   4.959
 4565SOL    HW214595   1.971   6.799   5.068
 4566SOL     OW14596   6.789   4.545   1.783
 4566SOL    HW114597   6.793   4.448   1.759
 4566SOL    HW214598   6.879   4.576   1.814
 4567SOL     OW14599   0.150   0.558   6.204
 4567SOL    HW114600   0.089   0.622   6.159
 4567SOL    HW214601   0.168   0.481   6.144
 4568SOL     OW14602   0.352   5.522   3.564
 4568SOL    HW114603   0.274   5.577   3.536
 4568SOL    HW214604   0.343   5.498   3.661
 4569SOL     OW14605   2.745   1.295   3.035
 4569SOL    HW114606   2.681   1.234   2.989
 4569SOL    HW214607   2.718   1.390   3.020
 4570SOL     OW14608   6.181   5.224   1.470
 4570SOL    HW114609   6.267   5.256   1.509
 4570SOL    HW214610   6.192   5.210   1.371
 4571SOL     OW14611   3.457   3.069   6.290
 4571SOL    HW114612   3.371   3.117   6.304
 4571SOL    HW214613   3.439   2.973   6.270
 4572SOL     OW14614   2.548   3.117   1.057
 4572SOL    HW114615   2.550   3.215   1.074
 4572SOL    HW214616   2.639   3.086   1.028
 4573SOL     OW14617   1.299   6.414   1.266
 4573SOL    HW114618   1.212   6.433   1.219
 4573SOL    HW214619   1.373   6.413   1.200
 4574SOL     OW14620   6.171   3.281   0.519
 4574SOL    HW114621   6.222   3.298   0.434
 4574SOL    HW214622   6.161   3.367   0.569
 4575SOL     OW14623   6.410   0.674   4.111
 4575SOL    HW114624   6.493   0.680   4.166
 4575SOL    HW214625   6.429   0.713   4.020
 4576SOL     OW14626   2.697   5.210   5.202
 4576SOL    HW114627   2.714   5.151   5.281
 4576SOL    HW214628   2.612   5.181   5.157
 4577SOL     OW14629   2.000   1.604   2.931
 4577SOL    HW114630   2.053   1.683   2.964
 4577SOL    HW214631   1.969   1.622   2.838
 4578SOL     OW14632   1.349   0.711   1.978
 4578SOL    HW114633   1.441   0.737   2.008
 4578SOL    HW214634   1.290   0.701   2.057
 4579SOL     OW14635   3.999   0.218   2.253
 4579SOL    HW114636   4.039   0.275   2.325
 4579SOL    HW214637   4.072   0.165   2.209
 4580SOL     OW14638   6.534   3.385   7.001
 4580SOL    HW114639   6.619   3.335   7.012
 4580SOL    HW214640   6.484   3.350   6.921
 4581SOL     OW14641   3.309   6.957   1.749
 4581SOL    HW114642   3.283   7.020   1.822
 4581SOL    HW214643   3.398   6.915   1.771
 4582SOL     OW14644   6.266   0.624   2.668
 4582SOL    HW114645   6.203   0.547   2.681
 4582SOL    HW214646   6.283   0.636   2.570
 4583SOL     OW14647   2.322   0.017   6.841
 4583SOL    HW114648   2.240   6.986   6.833
 4583SOL    HW214649   2.386   7.019   6.768
 4584SOL     OW14650   1.458   0.435   5.965
 4584SOL    HW114651   1.388   0.498   6.000
 4584SOL    HW214652   1.455   0.434   5.866
 4585SOL     OW14653   1.401   4.261   3.302
 4585SOL    HW114654   1.302   4.265   3.318
 4585SOL    HW214655   1.420   4.274   3.205
 4586SOL     OW14656   5.397   4.596   6.714
 4586SOL    HW114657   5.421   4.637   6.801
 4586SOL    HW214658   5.307   4.629   6.685
 4587SOL     OW14659   3.250   3.741   4.700
 4587SOL    HW114660   3.317   3.743   4.627
 4587SOL    HW214661   3.178   3.808   4.682
 4588SOL     OW14662   2.553   4.021   6.045
 4588SOL    HW114663   2.542   4.072   5.960
 4588SOL    HW214664   2.648   3.990   6.054
 4589SOL     OW14665   4.983   6.341   2.438
 4589SOL    HW114666   5.009   6.335   2.342
 4589SOL    HW214667   4.931   6.425   2.454
 4590SOL     OW14668   3.269   5.050   2.068
 4590SOL    HW114669   3.177   5.027   2.101
 4590SOL    HW214670   3.302   5.131   2.118
 4591SOL     OW14671   2.341   0.205   5.539
 4591SOL    HW114672   2.242   0.195   5.537
 4591SOL    HW214673   2.375   0.186   5.632
 4592SOL     OW14674   2.470   1.669   4.485
 4592SOL    HW114675   2.390   1.714   4.525
 4592SOL    HW214676   2.529   1.738   4.443
 4593SOL     OW14677   0.166   5.718   4.034
 4593SOL    HW114678   0.259   5.681   4.025
 4593SOL    HW214679   0.156   5.798   3.976
 4594SOL     OW14680   2.219   0.368   2.770
 4594SOL    HW114681   2.261   0.329   2.852
 4594SOL    HW214682   2.280   0.438   2.732
 4595SOL     OW14683   4.836   1.387   6.243
 4595SOL    HW114684   4.882   1.435   6.168
 4595SOL    HW214685   4.893   1.389   6.325
 4596SOL     OW14686   1.045   0.958   2.138
 4596SOL    HW114687   0.976   0.953   2.210
 4596SOL    HW214688   1.094   0.871   2.134
 4597SOL     OW14689   3.228   5.782   6.938
 4597SOL    HW114690   3.300   5.716   6.958
 4597SOL    HW214691   3.154   5.737   6.888
 4598SOL     OW14692   1.940   5.539   0.006
 4598SOL    HW114693   2.008   5.566   6.963
 4598SOL    HW214694   1.946   5.602   0.084
 4599SOL     OW14695   1.936   4.820   2.829
 4599SOL    HW114696   1.953   4.778   2.919
 4599SOL    HW214697   1.840   4.807   2.804
 4600SOL     OW14698   6.614   6.526   5.579
 4600SOL    HW114699   6.595   6.505   5.483
 4600SOL    HW214700   6.653   6.446   5.623
 4601SOL     OW14701   0.715   0.930   4.434
 4601SOL    HW114702   0.642   0.908   4.368
 4601SOL    HW214703   0.803   0.932   4.386
 4602SOL     OW14704   3.321   1.115   0.032
 4602SOL    HW114705   3.337   1.041   6.992
 4602SOL    HW214706   3.385   1.190   0.014
 4603SOL     OW14707   4.523   5.854   1.061
 4603SOL    HW114708   4.445   5.825   1.116
 4603SOL    HW214709   4.600   5.876   1.122
 4604SOL     OW14710   5.549   6.964   5.925
 4604SOL    HW114711   5.601   6.958   6.010
 4604SOL    HW214712   5.604   6.929   5.850
 4605SOL     OW14713   2.993   6.696   2.152
 4605SOL    HW114714   2.969   6.781   2.105
 4605SOL    HW214715   3.086   6.703   2.188
 4606SOL     OW14716   0.162   6.543   3.251
 4606SOL    HW114717   0.168   6.571   3.346
 4606SOL    HW214718   0.209   6.610   3.193
 4607SOL     OW14719   1.817   3.385   2.476
 4607SOL    HW114720   1.830   3.385   2.576
 4607SOL    HW214721   1.789   3.294   2.446
 4608SOL     OW14722   6.940   3.549   5.062
 4608SOL    HW114723   6.842   3.558   5.077
 4608SOL    HW214724   6.970   3.456   5.085
 4609SOL     OW14725   4.419   6.130   6.538
 4609SOL    HW114726   4.517   6.116   6.553
 4609SOL    HW214727   4.376   6.042   6.514
 4610SOL     OW14728   5.310   2.160   0.636
 4610SOL    HW114729   5.316   2.199   0.544
 4610SOL    HW214730   5.386   2.097   0.651
 4611SOL     OW14731   0.904   0.340   5.859
 4611SOL    HW114732   1.002   0.335   5.881
 4611SOL    HW214733   0.851   0.322   5.941
 4612SOL     OW14734   1.887   6.613   2.239
 4612SOL    HW114735   1.832   6.660   2.170
 4612SOL    HW214736   1.899   6.673   2.318
 4613SOL     OW14737   1.978   4.938   1.844
 4613SOL    HW114738   2.064   4.985   1.863
 4613SOL    HW214739   1.904   5.005   1.834
 4614SOL     OW14740   6.580   3.471   4.678
 4614SOL    HW114741   6.549   3.457   4.772
 4614SOL    HW214742   6.511   3.523   4.628
 4615SOL     OW14743   1.507   1.843   1.207
 4615SOL    HW114744   1.483   1.805   1.296
 4615SOL    HW214745   1.465   1.788   1.135
 4616SOL     OW14746   6.261   2.995   4.476
 4616SOL    HW114747   6.220   3.032   4.393
 4616SOL    HW214748   6.316   3.066   4.521
 4617SOL     OW14749   0.445   2.338   2.638
 4617SOL    HW114750   0.392   2.257   2.665
 4617SOL    HW214751   0.457   2.397   2.718
 4618SOL     OW14752   2.724   4.337   5.883
 4618SOL    HW114753   2.714   4.248   5.840
 4618SOL    HW214754   2.821   4.364   5.882
 4619SOL     OW14755   3.053   6.101   4.880
 4619SOL    HW114756   3.028   6.119   4.975
 4619SOL    HW214757   3.028   6.179   4.822
 4620SOL     OW14758   0.776   5.678   2.481
 4620SOL    HW114759   0.710   5.715   2.416
 4620SOL    HW214760   0.868   5.691   2.447
 4621SOL     OW14761   4.970   0.399   2.593
 4621SOL    HW114762   4.953   0.497   2.581
 4621SOL    HW214763   4.900   0.347   2.545
 4622SOL     OW14764   4.311   5.761   1.310
 4622SOL    HW114765   4.270   5.837   1.360
 4622SOL    HW214766   4.240   5.708   1.264
 4623SOL     OW14767   2.840   5.027   1.196
 4623SOL    HW114768   2.823   4.964   1.272
 4623SOL    HW214769   2.764   5.092   1.189
 4624SOL     OW14770   4.143   0.961   3.029
 4624SOL    HW114771   4.175   1.015   3.107
 4624SOL    HW214772   4.124   0.868   3.058
 4625SOL     OW14773   1.810   5.154   1.894
 4625SOL    HW114774   1.879   5.207   1.944
 4625SOL    HW214775   1.720   5.175   1.930
 4626SOL     OW14776   3.909   3.885   1.775
 4626SOL    HW114777   3.979   3.941   1.820
 4626SOL    HW214778   3.954   3.813   1.722
 4627SOL     OW14779   6.582   6.500   4.680
 4627SOL    HW114780   6.661   6.557   4.656
 4627SOL    HW214781   6.586   6.415   4.628
 4628SOL     OW14782   4.631   5.195   3.384
 4628SOL    HW114783   4.554   5.136   3.360
 4628SOL    HW214784   4.714   5.161   3.339
 4629SOL     OW14785   2.045   6.182   6.855
 4629SOL    HW114786   2.014   6.103   6.801
 4629SOL    HW214787   2.137   6.208   6.826
 4630SOL     OW14788   1.798   4.352   1.766
 4630SOL    HW114789   1.843   4.387   1.849
 4630SOL    HW214790   1.710   4.398   1.754
 4631SOL     OW14791   0.309   1.100   3.810
 4631SOL    HW114792   0.217   1.066   3.832
 4631SOL    HW214793   0.311   1.128   3.714
 4632SOL     OW14794   3.418   4.885   2.592
 4632SOL    HW114795   3.375   4.873   2.502
 4632SOL    HW214796   3.347   4.906   2.660
 4633SOL     OW14797   5.394   1.344   3.987
 4633SOL    HW114798   5.442   1.413   3.933
 4633SOL    HW214799   5.421   1.253   3.956
 4634SOL     OW14800   3.228   3.242   4.716
 4634SOL    HW114801   3.258   3.147   4.726
 4634SOL    HW214802   3.141   3.254   4.764
 4635SOL     OW14803   5.330   5.642   0.459
 4635SOL    HW114804   5.302   5.681   0.371
 4635SOL    HW214805   5.267   5.672   0.530
 4636SOL     OW14806   2.217   5.801   0.215
 4636SOL    HW114807   2.193   5.855   0.296
 4636SOL    HW214808   2.212   5.704   0.237
 4637SOL     OW14809   1.878   0.271   2.454
 4637SOL    HW114810   1.938   0.203   2.413
 4637SOL    HW214811   1.840   0.234   2.539
 4638SOL     OW14812   3.918   5.126   0.547
 4638SOL    HW114813   4.011   5.147   0.578
 4638SOL    HW214814   3.921   5.082   0.458
 4639SOL     OW14815   1.860   1.961   0.510
 4639SOL    HW114816   1.892   2.053   0.484
 4639SOL    HW214817   1.897   1.894   0.445
 4640SOL     OW14818   6.580   2.969   5.395
 4640SOL    HW114819   6.599   3.060   5.356
 4640SOL    HW214820   6.486   2.943   5.374
 4641SOL     OW14821   0.500   5.874   3.981
 4641SOL    HW114822   0.577   5.831   3.934
 4641SOL    HW214823   0.527   5.898   4.074
 4642SOL     OW14824   1.152   2.077   3.438
 4642SOL    HW114825   1.240   2.078   3.389
 4642SOL    HW214826   1.167   2.042   3.531
 4643SOL     OW14827   0.174   2.060   6.873
 4643SOL    HW114828   0.111   2.059   6.951
 4643SOL    HW214829   0.212   2.152   6.863
 4644SOL     OW14830   2.097   0.589   0.765
 4644SOL    HW114831   2.066   0.598   0.860
 4644SOL    HW214832   2.197   0.596   0.762
 4645SOL     OW14833   1.638   0.773   3.421
 4645SOL    HW114834   1.735   0.796   3.427
 4645SOL    HW214835   1.584   0.857   3.416
 4646SOL     OW14836   2.039   5.092   3.695
 4646SOL    HW114837   1.977   5.164   3.726
 4646SOL    HW214838   1.989   5.028   3.637
 4647SOL     OW14839   1.699   6.931   2.881
 4647SOL    HW114840   1.709   6.836   2.911
 4647SOL    HW214841   1.767   6.951   2.810
 4648SOL     OW14842   3.055   1.446   4.461
 4648SOL    HW114843   2.986   1.421   4.528
 4648SOL    HW214844   3.010   1.485   4.380
 4649SOL     OW14845   6.016   0.677   0.268
 4649SOL    HW114846   6.064   0.623   0.198
 4649SOL    HW214847   5.918   0.657   0.262
 4650SOL     OW14848   5.277   6.731   1.475
 4650SOL    HW114849   5.351   6.753   1.539
 4650SOL    HW214850   5.244   6.639   1.494
 4651SOL     OW14851   6.272   2.772   5.835
 4651SOL    HW114852   6.362   2.734   5.856
 4651SOL    HW214853   6.253   2.848   5.897
 4652SOL     OW14854   0.122   6.241   4.595
 4652SOL    HW114855   0.195   6.219   4.660
 4652SOL    HW214856   0.153   6.218   4.502
 4653SOL     OW14857   5.275   5.828   1.278
 4653SOL    HW114858   5.201   5.760   1.276
 4653SOL    HW214859   5.241   5.914   1.241
 4654SOL     OW14860   6.886   6.690   4.856
 4654SOL    HW114861   6.949   6.768   4.855
 4654SOL    HW214862   6.841   6.686   4.945
 4655SOL     OW14863   4.743   2.768   1.046
 4655SOL    HW114864   4.679   2.844   1.057
 4655SOL    HW214865   4.772   2.735   1.136
 4656SOL     OW14866   0.896   1.377   1.552
 4656SOL    HW114867   0.860   1.352   1.462
 4656SOL    HW214868   0.930   1.295   1.598
 4657SOL     OW14869   5.048   6.752   2.488
 4657SOL    HW114870   5.088   6.698   2.562
 4657SOL    HW214871   5.077   6.847   2.497
 4658SOL     OW14872   2.618   2.533   5.118
 4658SOL    HW114873   2.543   2.476   5.151
 4658SOL    HW214874   2.642   2.601   5.187
 4659SOL     OW14875   3.440   4.458   0.988
 4659SOL    HW114876   3.382   4.521   1.038
 4659SOL    HW214877   3.414   4.456   0.892
 4660SOL     OW14878   1.179   6.291   4.183
 4660SOL    HW114879   1.254   6.225   4.177
 4660SOL    HW214880   1.204   6.374   4.134
 4661SOL     OW14881   1.966   3.315   5.937
 4661SOL    HW114882   1.989   3.411   5.921
 4661SOL    HW214883   2.048   3.259   5.922
 4662SOL     OW14884   2.640   6.584   4.706
 4662SOL    HW114885   2.687   6.497   4.692
 4662SOL    HW214886   2.699   6.659   4.676
 4663SOL     OW14887   0.863   0.129   0.024
 4663SOL    HW114888   0.793   0.160   0.087
 4663SOL    HW214889   0.823   0.064   6.984
 4664SOL     OW14890   6.498   6.682   0.104
 4664SOL    HW114891   6.566   6.733   0.052
 4664SOL    HW214892   6.481   6.727   0.192
 4665SOL     OW14893   2.250   0.947   5.068
 4665SOL    HW114894   2.282   1.036   5.100
 4665SOL    HW214895   2.320   0.878   5.086
 4666SOL     OW14896   1.769   2.208   5.814
 4666SOL    HW114897   1.681   2.209   5.766
 4666SOL    HW214898   1.760   2.158   5.900
 4667SOL     OW14899   6.719   3.720   1.540
 4667SOL    HW114900   6.786   3.780   1.497
 4667SOL    HW214901   6.745   3.625   1.526
 4668SOL     OW14902   4.372   2.406   4.631
 4668SOL    HW114903   4.376   2.328   4.569
 4668SOL    HW214904   4.303   2.471   4.599
 4669SOL     OW14905   5.465   6.988   0.426
 4669SOL    HW114906   5.472   0.052   0.382
 4669SOL    HW214907   5.515   6.921   0.373
 4670SOL     OW14908   0.738   3.454   0.600
 4670SOL    HW114909   0.673   3.489   0.533
 4670SOL    HW214910   0.712   3.362   0.628
 4671SOL     OW14911   0.412   3.769   0.226
 4671SOL    HW114912   0.472   3.830   0.278
 4671SOL    HW214913   0.342   3.822   0.179
 4672SOL     OW14914   3.401   4.055   5.743
 4672SOL    HW114915   3.323   4.099   5.788
 4672SOL    HW214916   3.445   3.992   5.807
 4673SOL     OW14917   5.648   0.491   6.627
 4673SOL    HW114918   5.728   0.541   6.659
 4673SOL    HW214919   5.584   0.478   6.702
 4674SOL     OW14920   0.826   1.854   0.298
 4674SOL    HW114921   0.744   1.854   0.355
 4674SOL    HW214922   0.856   1.948   0.281
 4675SOL     OW14923   3.181   5.973   0.097
 4675SOL    HW114924   3.216   5.907   0.031
 4675SOL    HW214925   3.081   5.975   0.093
 4676SOL     OW14926   0.653   6.267   3.786
 4676SOL    HW114927   0.664   6.316   3.873
 4676SOL    HW214928   0.578   6.307   3.735
 4677SOL     OW14929   4.556   0.418   6.146
 4677SOL    HW114930   4.526   0.397   6.053
 4677SOL    HW214931   4.485   0.389   6.210
 4678SOL     OW14932   1.903   4.884   0.450
 4678SOL    HW114933   1.952   4.852   0.370
 4678SOL    HW214934   1.961   4.947   0.502
 4679SOL     OW14935   2.599   0.556   6.242
 4679SOL    HW114936   2.539   0.542   6.163
 4679SOL    HW214937   2.623   0.467   6.281
 4680SOL     OW14938   1.641   5.286   0.628
 4680SOL    HW114939   1.739   5.264   0.626
 4680SOL    HW214940   1.612   5.318   0.538
 4681SOL     OW14941   0.014   4.892   5.772
 4681SOL    HW114942   0.083   4.965   5.774
 4681SOL    HW214943   7.018   4.870   5.677
 4682SOL     OW14944   4.300   6.557   0.494
 4682SOL    HW114945   4.389   6.526   0.525
 4682SOL    HW214946   4.287   6.535   0.398
 4683SOL     OW14947   5.787   3.857   2.281
 4683SOL    HW114948   5.835   3.853   2.194
 4683SOL    HW214949   5.776   3.764   2.317
 4684SOL     OW14950   1.412   1.765   4.716
 4684SOL    HW114951   1.403   1.750   4.814
 4684SOL    HW214952   1.504   1.796   4.694
 4685SOL     OW14953   5.021   5.079   4.323
 4685SOL    HW114954   5.103   5.101   4.269
 4685SOL    HW214955   5.049   5.049   4.415
 4686SOL     OW14956   4.762   5.303   6.312
 4686SOL    HW114957   4.816   5.334   6.390
 4686SOL    HW214958   4.816   5.238   6.257
 4687SOL     OW14959   5.940   4.666   4.922
 4687SOL    HW114960   5.938   4.754   4.875
 4687SOL    HW214961   5.847   4.632   4.933
 4688SOL     OW14962   0.639   3.105   6.843
 4688SOL    HW114963   0.552   3.150   6.867
 4688SOL    HW214964   0.715   3.159   6.879
 4689SOL     OW14965   6.666   6.171   4.701
 4689SOL    HW114966   6.650   6.160   4.799
 4689SOL    HW214967   6.765   6.171   4.683
 4690SOL     OW14968   1.566   1.216   0.219
 4690SOL    HW114969   1.503   1.269   0.275
 4690SOL    HW214970   1.636   1.277   0.181
 4691SOL     OW14971   2.491   4.579   0.997
 4691SOL    HW114972   2.433   4.553   1.075
 4691SOL    HW214973   2.585   4.592   1.029
 4692SOL     OW14974   6.759   5.128   3.423
 4692SOL    HW114975   6.760   5.122   3.522
 4692SOL    HW214976   6.844   5.090   3.386
 4693SOL     OW14977   0.333   1.288   4.246
 4693SOL    HW114978   0.381   1.238   4.174
 4693SOL    HW214979   0.285   1.222   4.305
 4694SOL     OW14980   1.772   1.295   0.669
 4694SOL    HW114981   1.688   1.244   0.651
 4694SOL    HW214982   1.758   1.353   0.750
 4695SOL     OW14983   3.593   2.832   2.099
 4695SOL    HW114984   3.624   2.767   2.029
 4695SOL    HW214985   3.494   2.828   2.106
 4696SOL     OW14986   6.871   3.218   5.914
 4696SOL    HW114987   6.933   3.273   5.857
 4696SOL    HW214988   6.779   3.222   5.876
 4697SOL     OW14989   1.026   4.366   6.924
 4697SOL    HW114990   1.047   4.269   6.941
 4697SOL    HW214991   1.080   4.423   6.985
 4698SOL     OW14992   5.695   3.628   1.194
 4698SOL    HW114993   5.700   3.556   1.124
 4698SOL    HW214994   5.755   3.704   1.168
 4699SOL     OW14995   0.373   0.804   2.601
 4699SOL    HW114996   0.325   0.777   2.684
 4699SOL    HW214997   0.307   0.836   2.533
 4700SOL     OW14998   5.023   1.452   1.007
 4700SOL    HW114999   4.934   1.414   0.980
 4700SOL    HW215000   5.088   1.377   1.019
 4701SOL     OW15001   0.920   1.357   0.124
 4701SOL    HW115002   0.824   1.332   0.133
 4701SOL    HW215003   0.948   1.345   0.029
 4702SOL     OW15004   3.701   3.906   0.268
 4702SOL    HW115005   3.658   3.887   0.356
 4702SOL    HW215006   3.787   3.855   0.261
 4703SOL     OW15007   2.114   0.877   2.599
 4703SOL    HW115008   2.153   0.966   2.621
 4703SOL    HW215009   2.160   0.806   2.653
 4704SOL     OW15010   0.067   6.737   0.774
 4704SOL    HW115011   0.106   6.809   0.832
 4704SOL    HW215012   6.999   6.717   0.804
 4705SOL     OW15013   3.581   3.329   4.404
 4705SOL    HW115014   3.658   3.386   4.374
 4705SOL    HW215015   3.612   3.265   4.474
 4706SOL     OW15016   4.178   6.412   6.845
 4706SOL    HW115017   4.215   6.419   6.938
 4706SOL    HW215018   4.132   6.497   6.822
 4707SOL     OW15019   2.097   5.592   1.253
 4707SOL    HW115020   2.000   5.570   1.264
 4707SOL    HW215021   2.107   5.663   1.182
 4708SOL     OW15022   3.144   2.732   1.360
 4708SOL    HW115023   3.089   2.768   1.436
 4708SOL    HW215024   3.097   2.751   1.274
 4709SOL     OW15025   3.918   5.127   5.329
 4709SOL    HW115026   3.900   5.211   5.278
 4709SOL    HW215027   3.962   5.149   5.416
 4710SOL     OW15028   4.486   1.198   6.760
 4710SOL    HW115029   4.425   1.179   6.683
 4710SOL    HW215030   4.570   1.240   6.726
 4711SOL     OW15031   3.409   7.002   2.490
 4711SOL    HW115032   3.469   0.002   2.566
 4711SOL    HW215033   3.315   0.002   2.512
 4712SOL     OW15034   2.021   4.867   0.790
 4712SOL    HW115035   2.068   4.801   0.849
 4712SOL    HW215036   1.926   4.877   0.820
 4713SOL     OW15037   2.203   5.389   1.376
 4713SOL    HW115038   2.156   5.460   1.324
 4713SOL    HW215039   2.149   5.305   1.376
 4714SOL     OW15040   3.256   2.027   1.719
 4714SOL    HW115041   3.266   1.957   1.789
 4714SOL    HW215042   3.306   2.000   1.636
 4715SOL     OW15043   0.029   2.580   3.138
 4715SOL    HW115044   0.092   2.518   3.186
 4715SOL    HW215045   7.000   2.528   3.072
 4716SOL     OW15046   3.493   5.720   0.320
 4716SOL    HW115047   3.468   5.648   0.254
 4716SOL    HW215048   3.546   5.679   0.395
 4717SOL     OW15049   1.163   6.081   3.548
 4717SOL    HW115050   1.084   6.049   3.601
 4717SOL    HW215051   1.208   6.156   3.597
 4718SOL     OW15052   5.718   1.281   6.422
 4718SOL    HW115053   5.710   1.227   6.339
 4718SOL    HW215054   5.670   1.367   6.411
 4719SOL     OW15055   5.289   3.028   1.871
 4719SOL    HW115056   5.382   2.995   1.853
 4719SOL    HW215057   5.224   2.962   1.833
 4720SOL     OW15058   2.395   0.285   5.813
 4720SOL    HW115059   2.461   0.359   5.820
 4720SOL    HW215060   2.422   0.210   5.874
 4721SOL     OW15061   1.949   1.836   1.092
 4721SOL    HW115062   1.962   1.768   1.165
 4721SOL    HW215063   1.856   1.829   1.057
 4722SOL     OW15064   1.605   0.163   0.144
 4722SOL    HW115065   1.535   0.185   0.077
 4722SOL    HW215066   1.617   0.240   0.207
 4723SOL     OW15067   2.515   6.836   6.623
 4723SOL    HW115068   2.536   6.934   6.629
 4723SOL    HW215069   2.568   6.786   6.692
 4724SOL     OW15070   3.611   6.636   1.436
 4724SOL    HW115071   3.678   6.703   1.468
 4724SOL    HW215072   3.656   6.550   1.416
 4725SOL     OW15073   5.724   6.350   3.492
 4725SOL    HW115074   5.767   6.440   3.495
 4725SOL    HW215075   5.633   6.355   3.534
 4726SOL     OW15076   0.956   4.069   6.823
 4726SOL    HW115077   0.985   3.983   6.864
 4726SOL    HW215078   0.866   4.094   6.858
 4727SOL     OW15079   6.736   5.732   6.871
 4727SOL    HW115080   6.693   5.755   6.784
 4727SOL    HW215081   6.681   5.771   6.946
 4728SOL     OW15082   0.280   0.737   6.505
 4728SOL    HW115083   0.236   0.794   6.435
 4728SOL    HW215084   0.256   0.641   6.490
 4729SOL     OW15085   3.422   0.002   2.216
 4729SOL    HW115086   3.414   0.020   2.314
 4729SOL    HW215087   3.498   6.964   2.200
 4730SOL     OW15088   2.178   6.403   5.818
 4730SOL    HW115089   2.270   6.403   5.857
 4730SOL    HW215090   2.118   6.344   5.872
 4731SOL     OW15091   5.851   1.132   4.802
 4731SOL    HW115092   5.927   1.068   4.792
 4731SOL    HW215093   5.885   1.225   4.813
 4732SOL     OW15094   0.205   3.245   7.005
 4732SOL    HW115095   0.289   3.272   6.960
 4732SOL    HW215096   0.132   3.234   6.937
 4733SOL     OW15097   7.005   4.316   3.390
 4733SOL    HW115098   0.033   4.381   3.444
 4733SOL    HW215099   0.025   4.301   3.302
 4734SOL     OW15100   4.145   3.899   6.599
 4734SOL    HW115101   4.156   3.915   6.501
 4734SOL    HW215102   4.073   3.959   6.635
 4735SOL     OW15103   0.813   4.829   3.996
 4735SOL    HW115104   0.786   4.904   3.936
 4735SOL    HW215105   0.849   4.866   4.082
 4736SOL     OW15106   1.008   0.881   0.165
 4736SOL    HW115107   0.942   0.937   0.215
 4736SOL    HW215108   1.091   0.935   0.148
 4737SOL     OW15109   2.464   5.009   1.966
 4737SOL    HW115110   2.485   4.934   1.903
 4737SOL    HW215111   2.508   4.991   2.054
 4738SOL     OW15112   6.798   6.485   1.827
 4738SOL    HW115113   6.713   6.434   1.813
 4738SOL    HW215114   6.838   6.507   1.739
 4739SOL     OW15115   4.459   0.570   2.434
 4739SOL    HW115116   4.437   0.484   2.480
 4739SOL    HW215117   4.380   0.601   2.382
 4740SOL     OW15118   1.204   2.019   2.699
 4740SOL    HW115119   1.299   1.989   2.705
 4740SOL    HW215120   1.151   1.954   2.645
 4741SOL     OW15121   4.413   3.484   1.667
 4741SOL    HW115122   4.457   3.394   1.658
 4741SOL    HW215123   4.483   3.554   1.679
 4742SOL     OW15124   3.303   6.972   0.567
 4742SOL    HW115125   3.349   6.959   0.654
 4742SOL    HW215126   3.226   0.010   0.579
 4743SOL     OW15127   2.226   4.933   1.100
 4743SOL    HW115128   2.142   4.975   1.136
 4743SOL    HW215129   2.201   4.856   1.042
 4744SOL     OW15130   1.755   6.734   0.911
 4744SOL    HW115131   1.797   6.766   0.996
 4744SOL    HW215132   1.655   6.741   0.918
 4745SOL     OW15133   1.707   4.130   0.356
 4745SOL    HW115134   1.650   4.097   0.432
 4745SOL    HW215135   1.677   4.088   0.271
 4746SOL     OW15136   4.158   5.577   4.350
 4746SOL    HW115137   4.194   5.586   4.443
 4746SOL    HW215138   4.063   5.608   4.348
 4747SOL     OW15139   1.589   2.488   0.824
 4747SOL    HW115140   1.513   2.448   0.876
 4747SOL    HW215141   1.661   2.518   0.887
 4748SOL     OW15142   1.871   6.653   3.063
 4748SOL    HW115143   1.869   6.625   2.967
 4748SOL    HW215144   1.954   6.706   3.081
 4749SOL     OW15145   1.911   7.020   0.382
 4749SOL    HW115146   1.968   0.059   0.432
 4749SOL    HW215147   1.939   7.019   0.286
 4750SOL     OW15148   5.532   3.281   5.549
 4750SOL    HW115149   5.486   3.222   5.615
 4750SOL    HW215150   5.627   3.252   5.539
 4751SOL     OW15151   4.665   0.779   3.013
 4751SOL    HW115152   4.678   0.841   3.090
 4751SOL    HW215153   4.573   0.740   3.016
 4752SOL     OW15154   4.451   2.131   6.929
 4752SOL    HW115155   4.398   2.146   7.013
 4752SOL    HW215156   4.482   2.219   6.894
 4753SOL     OW15157   2.660   6.440   5.030
 4753SOL    HW115158   2.598   6.402   4.962
 4753SOL    HW215159   2.617   6.518   5.075
 4754SOL     OW15160   4.495   4.765   6.409
 4754SOL    HW115161   4.591   4.748   6.431
 4754SOL    HW215162   4.486   4.852   6.361
 4755SOL     OW15163   1.326   0.798   1.304
 4755SOL    HW115164   1.259   0.861   1.264
 4755SOL    HW215165   1.361   0.836   1.389
 4756SOL     OW15166   6.490   3.787   6.624
 4756SOL    HW115167   6.444   3.863   6.671
 4756SOL    HW215168   6.582   3.815   6.598
 4757SOL     OW15169   1.794   3.507   1.572
 4757SOL    HW115170   1.883   3.541   1.600
 4757SOL    HW215171   1.744   3.579   1.524
 4758SOL     OW15172   1.958   0.019   3.195
 4758SOL    HW115173   1.860   0.018   3.216
 4758SOL    HW215174   1.975   6.991   3.113
 4759SOL     OW15175   1.087   4.941   1.351
 4759SOL    HW115176   1.124   4.849   1.338
 4759SOL    HW215177   1.043   4.947   1.440
 4760SOL     OW15178   1.607   6.590   0.717
 4760SOL    HW115179   1.612   6.500   0.674
 4760SOL    HW215180   1.699   6.621   0.739
 4761SOL     OW15181   6.918   6.859   1.059
 4761SOL    HW115182   6.920   6.803   1.141
 4761SOL    HW215183   6.913   6.956   1.084
 4762SOL     OW15184   1.925   5.944   2.516
 4762SOL    HW115185   1.925   5.890   2.601
 4762SOL    HW215186   1.992   5.906   2.452
 4763SOL     OW15187   4.649   5.906   2.056
 4763SOL    HW115188   4.731   5.952   2.021
 4763SOL    HW215189   4.676   5.820   2.098
 4764SOL     OW15190   3.958   3.877   5.965
 4764SOL    HW115191   4.025   3.842   5.898
 4764SOL    HW215192   3.961   3.820   6.047
 4765SOL     OW15193   3.863   1.757   4.811
 4765SOL    HW115194   3.837   1.804   4.896
 4765SOL    HW215195   3.781   1.744   4.755
 4766SOL     OW15196   0.007   6.834   3.824
 4766SOL    HW115197   0.049   6.849   3.913
 4766SOL    HW215198   6.977   6.750   3.826
 4767SOL     OW15199   2.202   4.716   5.393
 4767SOL    HW115200   2.177   4.799   5.343
 4767SOL    HW215201   2.143   4.641   5.365
 4768SOL     OW15202   4.466   2.072   0.331
 4768SOL    HW115203   4.442   1.997   0.394
 4768SOL    HW215204   4.425   2.054   0.241
 4769SOL     OW15205   3.032   5.217   1.406
 4769SOL    HW115206   3.071   5.240   1.495
 4769SOL    HW215207   2.947   5.268   1.392
 4770SOL     OW15208   0.637   1.060   5.460
 4770SOL    HW115209   0.632   1.035   5.364
 4770SOL    HW215210   0.624   0.979   5.516
 4771SOL     OW15211   2.064   6.782   5.462
 4771SOL    HW115212   2.121   6.864   5.453
 4771SOL    HW215213   2.092   6.730   5.543
 4772SOL     OW15214   2.084   6.162   1.371
 4772SOL    HW115215   2.130   6.110   1.299
 4772SOL    HW215216   1.987   6.171   1.350
 4773SOL     OW15217   2.369   5.264   5.319
 4773SOL    HW115218   2.282   5.285   5.363
 4773SOL    HW215219   2.411   5.185   5.362
 4774SOL     OW15220   1.375   3.977   0.358
 4774SOL    HW115221   1.330   4.059   0.323
 4774SOL    HW215222   1.439   4.002   0.430
 4775SOL     OW15223   5.812   6.719   5.115
 4775SOL    HW115224   5.886   6.694   5.176
 4775SOL    HW215225   5.846   6.778   5.042
 4776SOL     OW15226   0.954   0.986   5.846
 4776SOL    HW115227   0.950   0.993   5.946
 4776SOL    HW215228   0.889   0.916   5.815
 4777SOL     OW15229   0.956   6.140   1.256
 4777SOL    HW115230   0.869   6.127   1.303
 4777SOL    HW215231   1.026   6.168   1.322
 4778SOL     OW15232   1.412   2.855   5.854
 4778SOL    HW115233   1.394   2.888   5.761
 4778SOL    HW215234   1.466   2.922   5.904
 4779SOL     OW15235   5.286   1.087   3.684
 4779SOL    HW115236   5.313   1.103   3.779
 4779SOL    HW215237   5.208   1.146   3.661
 4780SOL     OW15238   6.269   2.246   5.146
 4780SOL    HW115239   6.268   2.150   5.117
 4780SOL    HW215240   6.322   2.255   5.231
 4781SOL     OW15241   2.370   6.181   2.952
 4781SOL    HW115242   2.422   6.262   2.923
 4781SOL    HW215243   2.377   6.172   3.051
 4782SOL     OW15244   5.793   5.484   4.258
 4782SOL    HW115245   5.720   5.547   4.233
 4782SOL    HW215246   5.865   5.485   4.188
 4783SOL     OW15247   6.248   2.782   1.281
 4783SOL    HW115248   6.151   2.801   1.265
 4783SOL    HW215249   6.269   2.796   1.378
 4784SOL     OW15250   5.334   2.224   6.106
 4784SOL    HW115251   5.397   2.274   6.046
 4784SOL    HW215252   5.387   2.169   6.171
 4785SOL     OW15253   0.406   5.609   3.968
 4785SOL    HW115254   0.449   5.699   3.968
 4785SOL    HW215255   0.475   5.538   3.956
 4786SOL     OW15256   2.514   6.213   0.590
 4786SOL    HW115257   2.428   6.228   0.541
 4786SOL    HW215258   2.582   6.174   0.528
 4787SOL     OW15259   3.253   1.192   4.641
 4787SOL    HW115260   3.175   1.225   4.694
 4787SOL    HW215261   3.236   1.204   4.544
 4788SOL     OW15262   6.092   6.596   6.388
 4788SOL    HW115263   6.044   6.632   6.468
 4788SOL    HW215264   6.028   6.541   6.334
 4789SOL     OW15265   5.333   0.787   2.567
 4789SOL    HW115266   5.251   0.744   2.529
 4789SOL    HW215267   5.308   0.872   2.614
 4790SOL     OW15268   6.148   2.034   4.865
 4790SOL    HW115269   6.051   2.018   4.851
 4790SOL    HW215270   6.178   2.113   4.812
 4791SOL     OW15271   0.089   1.946   0.254
 4791SOL    HW115272   0.177   1.898   0.251
 4791SOL    HW215273   0.075   1.996   0.169
 4792SOL     OW15274   2.002   3.615   3.806
 4792SOL    HW115275   2.064   3.537   3.792
 4792SOL    HW215276   2.050   3.687   3.855
 4793SOL     OW15277   0.693   3.531   5.602
 4793SOL    HW115278   0.636   3.611   5.622
 4793SOL    HW215279   0.758   3.517   5.676
 4794SOL     OW15280   4.555   0.583   3.626
 4794SOL    HW115281   4.462   0.618   3.612
 4794SOL    HW215282   4.618   0.661   3.631
 4795SOL     OW15283   1.001   1.106   5.265
 4795SOL    HW115284   1.084   1.114   5.320
 4795SOL    HW215285   0.968   1.011   5.268
 4796SOL     OW15286   3.969   1.731   5.465
 4796SOL    HW115287   3.920   1.718   5.378
 4796SOL    HW215288   3.926   1.806   5.516
 4797SOL     OW15289   0.986   5.799   4.499
 4797SOL    HW115290   1.071   5.752   4.525
 4797SOL    HW215291   1.008   5.887   4.457
 4798SOL     OW15292   4.388   4.292   6.232
 4798SOL    HW115293   4.434   4.368   6.277
 4798SOL    HW215294   4.357   4.225   6.300
 4799SOL     OW15295   3.670   3.071   6.849
 4799SOL    HW115296   3.577   3.035   6.844
 4799SOL    HW215297   3.734   2.998   6.875
 4800SOL     OW15298   0.945   4.892   0.412
 4800SOL    HW115299   0.937   4.794   0.396
 4800SOL    HW215300   1.013   4.931   0.349
 4801SOL     OW15301   4.760   2.695   1.770
 4801SOL    HW115302   4.810   2.741   1.843
 4801SOL    HW215303   4.702   2.761   1.722
 4802SOL     OW15304   0.050   0.137   2.505
 4802SOL    HW115305   0.060   0.151   2.407
 4802SOL    HW215306   0.117   0.070   2.537
 4803SOL     OW15307   5.691   3.865   5.957
 4803SOL    HW115308   5.690   3.950   5.903
 4803SOL    HW215309   5.599   3.827   5.961
 4804SOL     OW15310   5.324   1.183   0.412
 4804SOL    HW115311   5.382   1.115   0.368
 4804SOL    HW215312   5.228   1.166   0.387
 4805SOL     OW15313   6.119   2.124   0.842
 4805SOL    HW115314   6.063   2.043   0.857
 4805SOL    HW215315   6.215   2.098   0.839
 4806SOL     OW15316   1.026   1.463   3.634
 4806SOL    HW115317   0.964   1.510   3.697
 4806SOL    HW215318   1.068   1.385   3.679
 4807SOL     OW15319   0.994   2.732   6.195
 4807SOL    HW115320   1.076   2.690   6.157
 4807SOL    HW215321   0.917   2.716   6.133
 4808SOL     OW15322   3.901   5.946   0.544
 4808SOL    HW115323   3.998   5.939   0.566
 4808SOL    HW215324   3.887   5.924   0.447
 4809SOL     OW15325   3.748   4.861   1.728
 4809SOL    HW115326   3.718   4.799   1.800
 4809SOL    HW215327   3.680   4.933   1.716
 4810SOL     OW15328   0.764   4.117   3.573
 4810SOL    HW115329   0.772   4.120   3.672
 4810SOL    HW215330   0.683   4.168   3.544
 4811SOL     OW15331   2.985   3.730   4.819
 4811SOL    HW115332   2.971   3.707   4.722
 4811SOL    HW215333   2.979   3.647   4.874
 4812SOL     OW15334   0.543   0.176   2.261
 4812SOL    HW115335   0.621   0.163   2.321
 4812SOL    HW215336   0.464   0.127   2.297
 4813SOL     OW15337   6.398   1.459   6.541
 4813SOL    HW115338   6.383   1.534   6.477
 4813SOL    HW215339   6.481   1.476   6.595
 4814SOL     OW15340   6.805   3.943   1.747
 4814SOL    HW115341   6.838   3.867   1.690
 4814SOL    HW215342   6.761   4.012   1.689
 4815SOL     OW15343   5.559   4.683   2.934
 4815SOL    HW115344   5.626   4.649   2.867
 4815SOL    HW215345   5.479   4.623   2.934
 4816SOL     OW15346   1.652   0.293   2.269
 4816SOL    HW115347   1.718   0.267   2.199
 4816SOL    HW215348   1.691   0.277   2.360
 4817SOL     OW15349   4.152   1.194   1.142
 4817SOL    HW115350   4.185   1.249   1.218
 4817SOL    HW215351   4.230   1.156   1.092
 4818SOL     OW15352   3.484   0.441   4.826
 4818SOL    HW115353   3.508   0.455   4.922
 4818SOL    HW215354   3.389   0.411   4.819
 4819SOL     OW15355   2.714   0.507   1.086
 4819SOL    HW115356   2.671   0.557   1.161
 4819SOL    HW215357   2.732   0.413   1.115
 4820SOL     OW15358   6.645   4.054   2.201
 4820SOL    HW115359   6.676   4.090   2.289
 4820SOL    HW215360   6.668   3.956   2.196
 4821SOL     OW15361   6.451   5.314   1.521
 4821SOL    HW115362   6.502   5.263   1.591
 4821SOL    HW215363   6.509   5.327   1.441
 4822SOL     OW15364   1.973   4.073   3.227
 4822SOL    HW115365   1.975   3.994   3.166
 4822SOL    HW215366   2.062   4.083   3.272
 4823SOL     OW15367   1.184   0.720   4.834
 4823SOL    HW115368   1.141   0.654   4.772
 4823SOL    HW215369   1.234   0.671   4.905
 4824SOL     OW15370   5.106   2.453   2.660
 4824SOL    HW115371   5.169   2.419   2.730
 4824SOL    HW215372   5.092   2.551   2.673
 4825SOL     OW15373   1.234   3.537   2.766
 4825SOL    HW115374   1.153   3.484   2.740
 4825SOL    HW215375   1.237   3.546   2.866
 4826SOL     OW15376   6.994   5.861   0.642
 4826SOL    HW115377   6.907   5.906   0.624
 4826SOL    HW215378   0.033   5.927   0.679
 4827SOL     OW15379   4.640   0.865   1.058
 4827SOL    HW115380   4.558   0.809   1.051
 4827SOL    HW215381   4.637   0.938   0.990
 4828SOL     OW15382   4.799   3.583   1.374
 4828SOL    HW115383   4.810   3.495   1.420
 4828SOL    HW215384   4.820   3.572   1.276
 4829SOL     OW15385   3.237   1.296   6.123
 4829SOL    HW115386   3.285   1.351   6.056
 4829SOL    HW215387   3.303   1.257   6.188
 4830SOL     OW15388   4.225   6.585   3.934
 4830SOL    HW115389   4.174   6.644   3.872
 4830SOL    HW215390   4.188   6.492   3.930
 4831SOL     OW15391   6.411   4.549   5.576
 4831SOL    HW115392   6.327   4.510   5.539
 4831SOL    HW215393   6.490   4.502   5.535
 4832SOL     OW15394   2.681   3.408   5.901
 4832SOL    HW115395   2.697   3.419   5.999
 4832SOL    HW215396   2.750   3.459   5.850
 4833SOL     OW15397   4.048   1.352   3.247
 4833SOL    HW115398   4.115   1.278   3.241
 4833SOL    HW215399   4.094   1.436   3.278
 4834SOL     OW15400   4.708   1.664   1.961
 4834SOL    HW115401   4.639   1.653   1.890
 4834SOL    HW215402   4.663   1.677   2.050
 4835SOL     OW15403   2.432   6.933   0.061
 4835SOL    HW115404   2.412   7.015   0.009
 4835SOL    HW215405   2.372   6.927   0.141
 4836SOL     OW15406   5.069   2.115   4.236
 4836SOL    HW115407   5.162   2.145   4.217
 4836SOL    HW215408   5.034   2.062   4.159
 4837SOL     OW15409   2.583   2.793   0.835
 4837SOL    HW115410   2.490   2.765   0.813
 4837SOL    HW215411   2.586   2.893   0.844
 4838SOL     OW15412   3.854   4.886   2.154
 4838SOL    HW115413   3.846   4.985   2.149
 4838SOL    HW215414   3.800   4.845   2.081
 4839SOL     OW15415   0.631   5.318   6.097
 4839SOL    HW115416   0.581   5.255   6.157
 4839SOL    HW215417   0.699   5.267   6.045
 4840SOL     OW15418   6.541   6.204   6.992
 4840SOL    HW115419   6.558   6.217   6.894
 4840SOL    HW215420   6.583   6.119   7.023
 4841SOL     OW15421   2.861   5.187   2.079
 4841SOL    HW115422   2.780   5.184   2.021
 4841SOL    HW215423   2.935   5.234   2.031
 4842SOL     OW15424   4.565   6.159   1.198
 4842SOL    HW115425   4.656   6.125   1.171
 4842SOL    HW215426   4.548   6.137   1.294
 4843SOL     OW15427   6.703   3.669   6.801
 4843SOL    HW115428   6.748   3.661   6.712
 4843SOL    HW215429   6.605   3.653   6.790
 4844SOL     OW15430   5.990   2.084   6.154
 4844SOL    HW115431   6.068   2.133   6.191
 4844SOL    HW215432   5.959   2.129   6.070
 4845SOL     OW15433   5.719   5.215   3.705
 4845SOL    HW115434   5.734   5.201   3.607
 4845SOL    HW215435   5.640   5.275   3.718
 4846SOL     OW15436   1.542   2.811   1.288
 4846SOL    HW115437   1.443   2.808   1.292
 4846SOL    HW215438   1.580   2.733   1.340
 4847SOL     OW15439   3.644   2.103   5.102
 4847SOL    HW115440   3.689   2.120   5.014
 4847SOL    HW215441   3.545   2.113   5.091
 4848SOL     OW15442   2.894   1.449   2.745
 4848SOL    HW115443   2.914   1.500   2.829
 4848SOL    HW215444   2.975   1.449   2.687
 4849SOL     OW15445   1.030   0.704   0.395
 4849SOL    HW115446   1.103   0.636   0.389
 4849SOL    HW215447   1.044   0.774   0.325
 4850SOL     OW15448   4.080   0.213   1.852
 4850SOL    HW115449   4.015   0.280   1.814
 4850SOL    HW215450   4.144   0.260   1.913
 4851SOL     OW15451   4.072   6.203   5.242
 4851SOL    HW115452   4.116   6.113   5.251
 4851SOL    HW215453   4.118   6.269   5.301
 4852SOL     OW15454   2.459   0.720   6.776
 4852SOL    HW115455   2.428   0.806   6.815
 4852SOL    HW215456   2.400   0.694   6.699
 4853SOL     OW15457   3.368   1.522   2.473
 4853SOL    HW115458   3.408   1.564   2.554
 4853SOL    HW215459   3.313   1.589   2.424
 4854SOL     OW15460   4.822   6.532   2.052
 4854SOL    HW115461   4.833   6.630   2.069
 4854SOL    HW215462   4.752   6.495   2.114
 4855SOL     OW15463   5.810   1.328   2.369
 4855SOL    HW115464   5.847   1.379   2.446
 4855SOL    HW215465   5.793   1.390   2.293
 4856SOL     OW15466   2.483   4.965   4.280
 4856SOL    HW115467   2.505   5.024   4.203
 4856SOL    HW215468   2.526   4.875   4.266
 4857SOL     OW15469   0.475   1.992   5.718
 4857SOL    HW115470   0.567   1.973   5.753
 4857SOL    HW215471   0.417   1.912   5.731
 4858SOL     OW15472   1.954   2.375   4.671
 4858SOL    HW115473   1.856   2.387   4.683
 4858SOL    HW215474   1.990   2.317   4.744
 4859SOL     OW15475   1.588   5.785   4.987
 4859SOL    HW115476   1.580   5.877   5.024
 4859SOL    HW215477   1.550   5.719   5.053
 4860SOL     OW15478   4.553   5.171   1.853
 4860SOL    HW115479   4.463   5.154   1.814
 4860SOL    HW215480   4.548   5.248   1.917
 4861SOL     OW15481   4.992   4.156   5.328
 4861SOL    HW115482   4.925   4.147   5.401
 4861SOL    HW215483   4.952   4.123   5.242
 4862SOL     OW15484   1.601   5.463   2.505
 4862SOL    HW115485   1.522   5.521   2.486
 4862SOL    HW215486   1.681   5.496   2.455
 4863SOL     OW15487   5.986   4.046   0.013
 4863SOL    HW115488   5.949   4.088   0.096
 4863SOL    HW215489   5.922   4.060   6.963
 4864SOL     OW15490   2.808   1.140   3.256
 4864SOL    HW115491   2.766   1.202   3.189
 4864SOL    HW215492   2.888   1.183   3.296
 4865SOL     OW15493   2.524   5.917   4.761
 4865SOL    HW115494   2.514   6.015   4.773
 4865SOL    HW215495   2.454   5.885   4.697
 4866SOL     OW15496   0.119   3.817   0.874
 4866SOL    HW115497   0.191   3.874   0.836
 4866SOL    HW215498   0.051   3.874   0.919
 4867SOL     OW15499   4.457   6.082   2.869
 4867SOL    HW115500   4.436   6.170   2.824
 4867SOL    HW215501   4.543   6.046   2.832
 4868SOL     OW15502   6.796   4.343   1.511
 4868SOL    HW115503   6.890   4.375   1.522
 4868SOL    HW215504   6.745   4.406   1.453
 4869SOL     OW15505   0.431   1.413   6.249
 4869SOL    HW115506   0.443   1.512   6.251
 4869SOL    HW215507   0.433   1.378   6.342
 4870SOL     OW15508   0.965   6.279   1.917
 4870SOL    HW115509   0.882   6.328   1.892
 4870SOL    HW215510   1.044   6.339   1.903
 4871SOL     OW15511   1.368   0.873   4.552
 4871SOL    HW115512   1.458   0.841   4.523
 4871SOL    HW215513   1.367   0.884   4.652
 4872SOL     OW15514   6.957   6.663   3.527
 4872SOL    HW115515   7.012   6.709   3.457
 4872SOL    HW215516   7.012   6.593   3.572
 4873SOL     OW15517   0.398   6.132   4.723
 4873SOL    HW115518   0.314   6.121   4.777
 4873SOL    HW215519   0.477   6.135   4.785
 4874SOL     OW15520   4.928   3.081   3.286
 4874SOL    HW115521   4.930   3.093   3.187
 4874SOL    HW215522   5.004   3.022   3.313
 4875SOL     OW15523   5.116   6.616   6.788
 4875SOL    HW115524   5.201   6.641   6.743
 4875SOL    HW215525   5.078   6.696   6.835
 4876SOL     OW15526   1.565   1.671   2.906
 4876SOL    HW115527   1.623   1.678   2.988
 4876SOL    HW215528   1.515   1.757   2.894
 4877SOL     OW15529   0.796   1.193   4.098
 4877SOL    HW115530   0.770   1.276   4.147
 4877SOL    HW215531   0.894   1.198   4.075
 4878SOL     OW15532   6.445   1.531   2.297
 4878SOL    HW115533   6.415   1.510   2.390
 4878SOL    HW215534   6.468   1.446   2.249
 4879SOL     OW15535   4.769   1.603   2.790
 4879SOL    HW115536   4.791   1.596   2.887
 4879SOL    HW215537   4.723   1.690   2.772
 4880SOL     OW15538   5.932   2.890   6.296
 4880SOL    HW115539   5.953   2.842   6.211
 4880SOL    HW215540   5.978   2.979   6.296
 4881SOL     OW15541   1.731   3.034   2.167
 4881SOL    HW115542   1.829   3.018   2.179
 4881SOL    HW215543   1.680   2.955   2.201
 4882SOL     OW15544   4.595   2.418   5.303
 4882SOL    HW115545   4.599   2.510   5.263
 4882SOL    HW215546   4.657   2.357   5.254
 4883SOL     OW15547   5.632   3.388   1.070
 4883SOL    HW115548   5.633   3.302   1.019
 4883SOL    HW215549   5.544   3.433   1.056
 4884SOL     OW15550   1.380   6.397   1.527
 4884SOL    HW115551   1.368   6.387   1.428
 4884SOL    HW215552   1.441   6.474   1.546
 4885SOL     OW15553   1.980   5.044   1.155
 4885SOL    HW115554   1.973   5.117   1.223
 4885SOL    HW215555   1.942   4.959   1.193
 4886SOL     OW15556   3.805   0.469   2.455
 4886SOL    HW115557   3.764   0.382   2.428
 4886SOL    HW215558   3.838   0.463   2.549
 4887SOL     OW15559   1.381   6.519   2.228
 4887SOL    HW115560   1.326   6.436   2.234
 4887SOL    HW215561   1.331   6.596   2.266
 4888SOL     OW15562   2.990   6.587   3.261
 4888SOL    HW115563   2.972   6.640   3.178
 4888SOL    HW215564   3.068   6.527   3.247
 4889SOL     OW15565   6.487   2.529   3.804
 4889SOL    HW115566   6.422   2.602   3.826
 4889SOL    HW215567   6.575   2.547   3.848
 4890SOL     OW15568   1.264   0.813   5.173
 4890SOL    HW115569   1.260   0.725   5.127
 4890SOL    HW215570   1.240   0.801   5.270
 4891SOL     OW15571   2.256   5.450   6.499
 4891SOL    HW115572   2.203   5.526   6.537
 4891SOL    HW215573   2.225   5.364   6.541
 4892SOL     OW15574   5.650   6.692   2.425
 4892SOL    HW115575   5.554   6.665   2.427
 4892SOL    HW215576   5.661   6.781   2.467
 4893SOL     OW15577   0.011   3.658   1.620
 4893SOL    HW115578   7.022   3.678   1.716
 4893SOL    HW215579   0.028   3.560   1.608
 4894SOL     OW15580   3.758   6.622   2.156
 4894SOL    HW115581   3.834   6.637   2.220
 4894SOL    HW215582   3.795   6.592   2.068
 4895SOL     OW15583   0.256   5.036   3.883
 4895SOL    HW115584   0.305   4.960   3.840
 4895SOL    HW215585   0.170   5.002   3.922
 4896SOL     OW15586   2.008   4.882   3.480
 4896SOL    HW115587   1.992   4.929   3.393
 4896SOL    HW215588   2.073   4.807   3.466
 4897SOL     OW15589   1.782   5.801   5.638
 4897SOL    HW115590   1.868   5.754   5.620
 4897SOL    HW215591   1.721   5.789   5.559
 4898SOL     OW15592   3.488   1.446   4.301
 4898SOL    HW115593   3.541   1.522   4.265
 4898SOL    HW215594   3.550   1.377   4.338
 4899SOL     OW15595   6.478   5.320   2.286
 4899SOL    HW115596   6.560   5.359   2.327
 4899SOL    HW215597   6.494   5.302   2.189
 4900SOL     OW15598   4.212   6.322   5.566
 4900SOL    HW115599   4.164   6.403   5.533
 4900SOL    HW215600   4.215   6.324   5.666
 4901SOL     OW15601   0.887   1.662   5.805
 4901SOL    HW115602   0.825   1.583   5.808
 4901SOL    HW215603   0.973   1.637   5.848
 4902SOL     OW15604   2.290   0.606   6.550
 4902SOL    HW115605   2.305   0.651   6.462
 4902SOL    HW215606   2.203   0.636   6.588
 4903SOL     OW15607   5.011   5.259   1.052
 4903SOL    HW115608   5.111   5.272   1.053
 4903SOL    HW215609   4.970   5.317   0.982
 4904SOL     OW15610   1.698   0.512   6.995
 4904SOL    HW115611   1.792   0.501   0.003
 4904SOL    HW215612   1.694   0.484   6.899
 4905SOL     OW15613   3.388   7.018   3.181
 4905SOL    HW115614   3.349   6.926   3.170
 4905SOL    HW215615   3.355   0.051   3.107
 4906SOL     OW15616   4.844   3.329   5.277
 4906SOL    HW115617   4.925   3.291   5.231
 4906SOL    HW215618   4.811   3.409   5.225
 4907SOL     OW15619   4.661   1.459   0.029
 4907SOL    HW115620   4.729   1.533   0.031
 4907SOL    HW215621   4.707   1.372   0.013
 4908SOL     OW15622   4.877   0.076   0.078
 4908SOL    HW115623   4.887   0.109   7.010
 4908SOL    HW215624   4.793   0.022   0.087
 4909SOL     OW15625   6.051   4.122   3.305
 4909SOL    HW115626   6.115   4.134   3.229
 4909SOL    HW215627   6.022   4.027   3.310
 4910SOL     OW15628   5.054   0.618   5.577
 4910SOL    HW115629   4.988   0.672   5.629
 4910SOL    HW215630   5.005   0.549   5.524
 4911SOL     OW15631   1.643   2.095   2.188
 4911SOL    HW115632   1.568   2.095   2.254
 4911SOL    HW215633   1.674   2.002   2.172
 4912SOL     OW15634   5.841   1.811   5.312
 4912SOL    HW115635   5.940   1.803   5.326
 4912SOL    HW215636   5.796   1.827   5.401
 4913SOL     OW15637   5.999   2.663   4.879
 4913SOL    HW115638   5.914   2.616   4.851
 4913SOL    HW215639   6.054   2.681   4.798
 4914SOL     OW15640   4.699   0.735   3.919
 4914SOL    HW115641   4.769   0.767   3.983
 4914SOL    HW215642   4.710   0.781   3.831
 4915SOL     OW15643   2.989   5.970   5.258
 4915SOL    HW115644   2.924   5.919   5.314
 4915SOL    HW215645   3.081   5.961   5.297
 4916SOL     OW15646   6.107   1.001   3.671
 4916SOL    HW115647   6.065   0.911   3.684
 4916SOL    HW215648   6.140   1.036   3.758
 4917SOL     OW15649   4.304   6.183   0.807
 4917SOL    HW115650   4.368   6.242   0.855
 4917SOL    HW215651   4.287   6.220   0.715
 4918SOL     OW15652   6.646   5.574   1.987
 4918SOL    HW115653   6.617   5.666   1.962
 4918SOL    HW215654   6.580   5.508   1.952
 4919SOL     OW15655   4.185   3.247   2.064
 4919SOL    HW115656   4.273   3.204   2.085
 4919SOL    HW215657   4.155   3.218   1.973
 4920SOL     OW15658   6.130   1.018   5.071
 4920SOL    HW115659   6.043   1.058   5.044
 4920SOL    HW215660   6.118   0.921   5.091
 4921SOL     OW15661   0.685   6.553   0.948
 4921SOL    HW115662   0.721   6.561   1.041
 4921SOL    HW215663   0.667   6.457   0.927
 4922SOL     OW15664   3.600   1.890   5.395
 4922SOL    HW115665   3.565   1.836   5.318
 4922SOL    HW215666   3.531   1.955   5.424
 4923SOL     OW15667   3.322   1.760   3.073
 4923SOL    HW115668   3.397   1.718   3.123
 4923SOL    HW215669   3.235   1.724   3.108
 4924SOL     OW15670   2.762   1.758   6.269
 4924SOL    HW115671   2.834   1.691   6.288
 4924SOL    HW215672   2.782   1.843   6.317
 4925SOL     OW15673   4.668   6.649   3.072
 4925SOL    HW115674   4.627   6.559   3.081
 4925SOL    HW215675   4.695   6.665   2.977
 4926SOL     OW15676   5.544   1.979   1.631
 4926SOL    HW115677   5.538   1.944   1.725
 4926SOL    HW215678   5.452   1.990   1.594
 4927SOL     OW15679   3.372   1.858   6.576
 4927SOL    HW115680   3.453   1.863   6.633
 4927SOL    HW215681   3.392   1.805   6.493
 4928SOL     OW15682   1.360   2.081   0.940
 4928SOL    HW115683   1.372   2.012   0.868
 4928SOL    HW215684   1.349   2.035   1.028
 4929SOL     OW15685   0.361   0.514   3.933
 4929SOL    HW115686   0.428   0.566   3.880
 4929SOL    HW215687   0.281   0.495   3.875
 4930SOL     OW15688   5.990   6.945   1.791
 4930SOL    HW115689   5.901   6.907   1.766
 4930SOL    HW215690   6.061   6.876   1.776
 4931SOL     OW15691   6.361   6.162   1.910
 4931SOL    HW115692   6.458   6.162   1.886
 4931SOL    HW215693   6.320   6.074   1.886
 4932SOL     OW15694   2.939   3.677   2.862
 4932SOL    HW115695   2.988   3.589   2.868
 4932SOL    HW215696   2.943   3.710   2.768
 4933SOL     OW15697   2.779   6.303   4.694
 4933SOL    HW115698   2.721   6.226   4.719
 4933SOL    HW215699   2.856   6.270   4.639
 4934SOL     OW15700   3.515   5.881   3.346
 4934SOL    HW115701   3.467   5.864   3.432
 4934SOL    HW215702   3.576   5.959   3.356
 4935SOL     OW15703   0.807   1.899   6.670
 4935SOL    HW115704   0.798   1.922   6.767
 4935SOL    HW215705   0.718   1.909   6.626
 4936SOL     OW15706   2.297   4.005   1.175
 4936SOL    HW115707   2.247   4.079   1.220
 4936SOL    HW215708   2.388   3.996   1.216
 4937SOL     OW15709   4.966   3.399   4.600
 4937SOL    HW115710   4.912   3.397   4.684
 4937SOL    HW215711   4.927   3.466   4.536
 4938SOL     OW15712   4.390   4.679   5.994
 4938SOL    HW115713   4.300   4.717   5.977
 4938SOL    HW215714   4.397   4.589   5.951
 4939SOL     OW15715   4.640   2.872   5.631
 4939SOL    HW115716   4.543   2.869   5.655
 4939SOL    HW215717   4.651   2.850   5.534
 4940SOL     OW15718   1.805   6.149   5.210
 4940SOL    HW115719   1.872   6.125   5.281
 4940SOL    HW215720   1.820   6.244   5.182
 4941SOL     OW15721   4.825   1.686   0.058
 4941SOL    HW115722   4.812   1.749   7.007
 4941SOL    HW215723   4.823   1.738   0.144
 4942SOL     OW15724   5.004   3.582   5.250
 4942SOL    HW115725   4.947   3.603   5.170
 4942SOL    HW215726   4.949   3.536   5.320
 4943SOL     OW15727   3.854   2.337   0.890
 4943SOL    HW115728   3.946   2.353   0.926
 4943SOL    HW215729   3.809   2.266   0.943
 4944SOL     OW15730   2.054   4.355   2.638
 4944SOL    HW115731   2.114   4.355   2.558
 4944SOL    HW215732   2.037   4.450   2.667
 4945SOL     OW15733   0.167   6.672   4.254
 4945SOL    HW115734   0.101   6.611   4.211
 4945SOL    HW215735   0.215   6.622   4.327
 4946SOL     OW15736   1.783   3.601   2.070
 4946SOL    HW115737   1.747   3.622   1.979
 4946SOL    HW215738   1.759   3.508   2.095
 4947SOL     OW15739   1.071   0.307   0.484
 4947SOL    HW115740   1.065   0.209   0.503
 4947SOL    HW215741   0.985   0.352   0.511
 4948SOL     OW15742   2.538   1.041   2.142
 4948SOL    HW115743   2.534   1.048   2.042
 4948SOL    HW215744   2.540   1.133   2.181
 4949SOL     OW15745   5.581   0.849   5.121
 4949SOL    HW115746   5.609   0.753   5.122
 4949SOL    HW215747   5.656   0.904   5.085
 4950SOL     OW15748   2.786   5.807   5.344
 4950SOL    HW115749   2.738   5.825   5.429
 4950SOL    HW215750   2.722   5.766   5.278
 4951SOL     OW15751   4.458   1.717   4.522
 4951SOL    HW115752   4.417   1.681   4.606
 4951SOL    HW215753   4.556   1.701   4.523
 4952SOL     OW15754   6.966   6.518   5.463
 4952SOL    HW115755   6.897   6.512   5.535
 4952SOL    HW215756   6.972   6.430   5.415
 4953SOL     OW15757   2.064   5.591   1.920
 4953SOL    HW115758   2.060   5.580   1.820
 4953SOL    HW215759   2.063   5.688   1.943
 4954SOL     OW15760   5.405   5.651   0.012
 4954SOL    HW115761   5.397   5.749   7.018
 4954SOL    HW215762   5.477   5.637   0.079
 4955SOL     OW15763   1.431   6.727   1.349
 4955SOL    HW115764   1.391   6.636   1.343
 4955SOL    HW215765   1.388   6.779   1.422
 4956SOL     OW15766   4.190   6.749   4.746
 4956SOL    HW115767   4.186   6.831   4.804
 4956SOL    HW215768   4.112   6.748   4.685
 4957SOL     OW15769   1.260   0.779   3.995
 4957SOL    HW115770   1.339   0.836   3.973
 4957SOL    HW215771   1.279   0.684   3.970
 4958SOL     OW15772   0.736   5.647   6.542
 4958SOL    HW115773   0.675   5.721   6.512
 4958SOL    HW215774   0.727   5.569   6.481
 4959SOL     OW15775   1.024   0.526   1.241
 4959SOL    HW115776   0.990   0.599   1.300
 4959SOL    HW215777   1.110   0.555   1.200
 4960SOL     OW15778   3.784   6.262   4.514
 4960SOL    HW115779   3.870   6.291   4.472
 4960SOL    HW215780   3.729   6.211   4.447
 4961SOL     OW15781   4.933   0.573   4.835
 4961SOL    HW115782   4.889   0.563   4.746
 4961SOL    HW215783   5.028   0.541   4.830
 4962SOL     OW15784   6.610   2.665   1.245
 4962SOL    HW115785   6.547   2.655   1.322
 4962SOL    HW215786   6.638   2.574   1.213
 4963SOL     OW15787   0.760   4.902   2.038
 4963SOL    HW115788   0.782   4.823   2.094
 4963SOL    HW215789   0.767   4.878   1.941
 4964SOL     OW15790   3.245   6.414   3.517
 4964SOL    HW115791   3.172   6.347   3.525
 4964SOL    HW215792   3.291   6.425   3.605
 4965SOL     OW15793   6.589   0.171   4.282
 4965SOL    HW115794   6.678   0.199   4.318
 4965SOL    HW215795   6.530   0.250   4.272
 4966SOL     OW15796   3.353   5.431   5.360
 4966SOL    HW115797   3.383   5.336   5.350
 4966SOL    HW215798   3.336   5.450   5.457
 4967SOL     OW15799   3.586   2.454   6.016
 4967SOL    HW115800   3.514   2.509   6.058
 4967SOL    HW215801   3.558   2.359   6.013
 4968SOL     OW15802   5.689   3.318   4.890
 4968SOL    HW115803   5.710   3.381   4.815
 4968SOL    HW215804   5.772   3.267   4.914
 4969SOL     OW15805   1.493   0.928   1.518
 4969SOL    HW115806   1.523   0.931   1.613
 4969SOL    HW215807   1.553   0.986   1.462
 4970SOL     OW15808   1.251   2.094   4.859
 4970SOL    HW115809   1.209   2.169   4.911
 4970SOL    HW215810   1.290   2.131   4.774
 4971SOL     OW15811   6.100   6.476   3.489
 4971SOL    HW115812   6.167   6.519   3.428
 4971SOL    HW215813   6.071   6.389   3.450
 4972SOL     OW15814   1.899   3.591   0.502
 4972SOL    HW115815   1.956   3.511   0.524
 4972SOL    HW215816   1.951   3.654   0.445
 4973SOL     OW15817   5.723   5.933   2.280
 4973SOL    HW115818   5.677   5.886   2.204
 4973SOL    HW215819   5.718   6.032   2.265
 4974SOL     OW15820   5.542   6.328   2.368
 4974SOL    HW115821   5.635   6.291   2.379
 4974SOL    HW215822   5.540   6.390   2.290
 4975SOL     OW15823   6.181   6.084   0.670
 4975SOL    HW115824   6.141   6.102   0.760
 4975SOL    HW215825   6.108   6.075   0.602
 4976SOL     OW15826   3.682   0.716   4.997
 4976SOL    HW115827   3.746   0.754   5.064
 4976SOL    HW215828   3.658   0.622   5.024
 4977SOL     OW15829   3.437   3.062   0.784
 4977SOL    HW115830   3.398   3.103   0.702
 4977SOL    HW215831   3.363   3.025   0.841
 4978SOL     OW15832   5.499   2.989   5.648
 4978SOL    HW115833   5.436   2.998   5.726
 4978SOL    HW215834   5.533   2.895   5.644
 4979SOL     OW15835   0.585   0.281   5.353
 4979SOL    HW115836   0.609   0.374   5.382
 4979SOL    HW215837   0.658   0.218   5.380
 4980SOL     OW15838   3.500   5.120   2.402
 4980SOL    HW115839   3.599   5.116   2.389
 4980SOL    HW215840   3.481   5.169   2.487
 4981SOL     OW15841   4.136   6.533   5.422
 4981SOL    HW115842   4.131   6.599   5.497
 4981SOL    HW215843   4.045   6.521   5.382
 4982SOL     OW15844   2.120   2.842   0.235
 4982SOL    HW115845   2.128   2.941   0.252
 4982SOL    HW215846   2.025   2.819   0.214
 4983SOL     OW15847   5.422   2.667   4.409
 4983SOL    HW115848   5.345   2.618   4.367
 4983SOL    HW215849   5.396   2.696   4.502
 4984SOL     OW15850   4.894   3.614   4.143
 4984SOL    HW115851   4.899   3.706   4.103
 4984SOL    HW215852   4.986   3.575   4.146
 4985SOL     OW15853   5.474   5.346   2.156
 4985SOL    HW115854   5.571   5.321   2.164
 4985SOL    HW215855   5.419   5.264   2.155
 4986SOL     OW15856   5.078   4.524   2.968
 4986SOL    HW115857   5.021   4.445   2.949
 4986SOL    HW215858   5.050   4.567   3.054
 4987SOL     OW15859   0.117   3.148   1.538
 4987SOL    HW115860   0.027   3.121   1.571
 4987SOL    HW215861   0.143   3.091   1.461
 4988SOL     OW15862   0.445   1.436   3.847
 4988SOL    HW115863   0.351   1.422   3.815
 4988SOL    HW215864   0.445   1.446   3.946
 4989SOL     OW15865   0.070   1.448   0.691
 4989SOL    HW115866   0.072   1.546   0.711
 4989SOL    HW215867   0.114   1.397   0.765
 4990SOL     OW15868   1.098   2.567   5.399
 4990SOL    HW115869   1.183   2.572   5.451
 4990SOL    HW215870   1.064   2.659   5.381
 4991SOL     OW15871   1.265   3.139   4.288
 4991SOL    HW115872   1.199   3.206   4.251
 4991SOL    HW215873   1.216   3.055   4.312
 4992SOL     OW15874   3.444   0.884   5.081
 4992SOL    HW115875   3.521   0.839   5.035
 4992SOL    HW215876   3.398   0.945   5.016
 4993SOL     OW15877   2.428   6.069   3.880
 4993SOL    HW115878   2.423   5.973   3.908
 4993SOL    HW215879   2.372   6.125   3.942
 4994SOL     OW15880   0.475   0.142   2.757
 4994SOL    HW115881   0.529   0.094   2.688
 4994SOL    HW215882   0.536   0.179   2.827
 4995SOL     OW15883   6.209   2.119   5.862
 4995SOL    HW115884   6.110   2.109   5.871
 4995SOL    HW215885   6.237   2.093   5.770
 4996SOL     OW15886   0.711   1.918   2.934
 4996SOL    HW115887   0.748   1.877   3.017
 4996SOL    HW215888   0.618   1.885   2.918
 4997SOL     OW15889   6.988   3.109   3.657
 4997SOL    HW115890   6.944   3.028   3.696
 4997SOL    HW215891   0.058   3.090   3.637
 4998SOL     OW15892   1.419   5.367   4.666
 4998SOL    HW115893   1.428   5.464   4.645
 4998SOL    HW215894   1.490   5.339   4.731
 4999SOL     OW15895   5.699   5.460   1.193
 4999SOL    HW115896   5.624   5.395   1.204
 4999SOL    HW215897   5.771   5.421   1.136
 5000SOL     OW15898   0.614   0.323   4.639
 5000SOL    HW115899   0.584   0.281   4.553
 5000SOL    HW215900   0.537   0.324   4.703
 5001SOL     OW15901   3.339   4.194   5.211
 5001SOL    HW115902   3.365   4.290   5.226
 5001SOL    HW215903   3.241   4.185   5.224
 5002SOL     OW15904   2.153   1.136   1.796
 5002SOL    HW115905   2.214   1.204   1.838
 5002SOL    HW215906   2.094   1.096   1.866
 5003SOL     OW15907   6.712   6.477   2.851
 5003SOL    HW115908   6.749   6.552   2.905
 5003SOL    HW215909   6.621   6.453   2.885
 5004SOL     OW15910   2.971   6.461   6.856
 5004SOL    HW115911   2.930   6.498   6.772
 5004SOL    HW215912   2.978   6.361   6.848
 5005SOL     OW15913   4.433   2.894   0.266
 5005SOL    HW115914   4.404   2.865   0.174
 5005SOL    HW215915   4.473   2.817   0.314
 5006SOL     OW15916   5.000   6.279   4.753
 5006SOL    HW115917   4.901   6.290   4.747
 5006SOL    HW215918   5.027   6.269   4.849
 5007SOL     OW15919   4.125   1.072   5.337
 5007SOL    HW115920   4.100   1.003   5.405
 5007SOL    HW215921   4.044   1.097   5.284
 5008SOL     OW15922   6.307   0.887   3.506
 5008SOL    HW115923   6.397   0.930   3.493
 5008SOL    HW215924   6.257   0.936   3.577
 5009SOL     OW15925   0.980   6.608   2.922
 5009SOL    HW115926   0.970   6.594   2.823
 5009SOL    HW215927   1.025   6.529   2.963
 5010SOL     OW15928   3.763   3.940   4.164
 5010SOL    HW115929   3.741   4.025   4.116
 5010SOL    HW215930   3.707   3.866   4.126
 5011SOL     OW15931   0.874   2.870   2.516
 5011SOL    HW115932   0.850   2.795   2.454
 5011SOL    HW215933   0.792   2.902   2.564
 5012SOL     OW15934   6.803   2.536   6.099
 5012SOL    HW115935   6.844   2.548   6.009
 5012SOL    HW215936   6.723   2.596   6.108
 5013SOL     OW15937   4.280   1.627   5.839
 5013SOL    HW115938   4.363   1.571   5.844
 5013SOL    HW215939   4.229   1.619   5.924
 5014SOL     OW15940   5.862   6.621   0.210
 5014SOL    HW115941   5.955   6.588   0.227
 5014SOL    HW215942   5.798   6.544   0.219
 5015SOL     OW15943   4.529   2.548   3.463
 5015SOL    HW115944   4.602   2.550   3.531
 5015SOL    HW215945   4.469   2.627   3.475
 5016SOL     OW15946   2.589   0.692   2.905
 5016SOL    HW115947   2.672   0.639   2.922
 5016SOL    HW215948   2.592   0.778   2.956
 5017SOL     OW15949   3.006   2.231   0.960
 5017SOL    HW115950   3.027   2.149   1.014
 5017SOL    HW215951   2.913   2.224   0.924
 5018SOL     OW15952   6.139   5.000   3.477
 5018SOL    HW115953   6.111   5.089   3.441
 5018SOL    HW215954   6.121   4.998   3.576
 5019SOL     OW15955   1.775   4.332   0.141
 5019SOL    HW115956   1.781   4.261   0.071
 5019SOL    HW215957   1.756   4.290   0.230
 5020SOL     OW15958   5.078   4.985   6.777
 5020SOL    HW115959   5.067   4.919   6.851
 5020SOL    HW215960   5.140   5.058   6.807
 5021SOL     OW15961   2.110   4.620   5.747
 5021SOL    HW115962   2.112   4.666   5.658
 5021SOL    HW215963   2.025   4.643   5.795
 5022SOL     OW15964   1.611   6.321   0.645
 5022SOL    HW115965   1.554   6.339   0.565
 5022SOL    HW215966   1.664   6.237   0.630
 5023SOL     OW15967   5.966   3.093   1.520
 5023SOL    HW115968   6.004   3.110   1.429
 5023SOL    HW215969   5.955   3.180   1.568
 5024SOL     OW15970   6.378   3.678   4.390
 5024SOL    HW115971   6.344   3.591   4.425
 5024SOL    HW215972   6.342   3.694   4.298
 5025SOL     OW15973   5.251   1.095   3.152
 5025SOL    HW115974   5.346   1.065   3.140
 5025SOL    HW215975   5.191   1.015   3.158
 5026SOL     OW15976   6.610   5.979   4.218
 5026SOL    HW115977   6.559   6.024   4.291
 5026SOL    HW215978   6.559   5.899   4.186
 5027SOL     OW15979   0.972   6.586   3.288
 5027SOL    HW115980   0.958   6.520   3.361
 5027SOL    HW215981   0.893   6.584   3.225
 5028SOL     OW15982   0.210   0.386   3.181
 5028SOL    HW115983   0.256   0.297   3.178
 5028SOL    HW215984   0.113   0.375   3.163
 5029SOL     OW15985   6.929   1.935   0.982
 5029SOL    HW115986   6.841   1.903   1.016
 5029SOL    HW215987   6.999   1.925   1.053
 5030SOL     OW15988   0.281   0.016   0.142
 5030SOL    HW115989   0.345   0.081   0.101
 5030SOL    HW215990   0.199   0.010   0.086
 5031SOL     OW15991   5.950   0.554   4.170
 5031SOL    HW115992   6.047   0.559   4.145
 5031SOL    HW215993   5.894   0.577   4.091
 5032SOL     OW15994   1.538   5.132   1.104
 5032SOL    HW115995   1.484   5.203   1.059
 5032SOL    HW215996   1.635   5.153   1.093
 5033SOL     OW15997   2.563   4.114   5.791
 5033SOL    HW115998   2.608   4.045   5.734
 5033SOL    HW215999   2.472   4.133   5.754
 5034SOL     OW16000   6.358   3.044   1.535
 5034SOL    HW116001   6.343   3.125   1.478
 5034SOL    HW216002   6.426   3.064   1.605
 5035SOL     OW16003   5.199   5.208   0.358
 5035SOL    HW116004   5.190   5.176   0.452
 5035SOL    HW216005   5.142   5.152   0.297
 5036SOL     OW16006   1.181   6.701   1.459
 5036SOL    HW116007   1.159   6.607   1.485
 5036SOL    HW216008   1.100   6.758   1.470
 5037SOL     OW16009   4.399   2.057   3.964
 5037SOL    HW116010   4.447   1.984   4.013
 5037SOL    HW216011   4.451   2.083   3.883
 5038SOL     OW16012   1.557   6.255   5.615
 5038SOL    HW116013   1.555   6.335   5.674
 5038SOL    HW216014   1.576   6.283   5.521
 5039SOL     OW16015   2.137   2.529   5.455
 5039SOL    HW116016   2.219   2.489   5.496
 5039SOL    HW216017   2.154   2.548   5.358
 5040SOL     OW16018   3.284   3.931   5.466
 5040SOL    HW116019   3.290   3.921   5.367
 5040SOL    HW216020   3.352   3.997   5.497
 5041SOL     OW16021   1.250   3.505   1.139
 5041SOL    HW116022   1.194   3.538   1.063
 5041SOL    HW216023   1.192   3.494   1.220
 5042SOL     OW16024   5.293   2.751   6.271
 5042SOL    HW116025   5.198   2.763   6.301
 5042SOL    HW216026   5.323   2.658   6.291
 5043SOL     OW16027   3.295   0.568   3.389
 5043SOL    HW116028   3.379   0.549   3.439
 5043SOL    HW216029   3.308   0.650   3.333
 5044SOL     OW16030   5.742   5.316   3.236
 5044SOL    HW116031   5.756   5.415   3.233
 5044SOL    HW216032   5.696   5.287   3.153
 5045SOL     OW16033   6.634   2.448   6.532
 5045SOL    HW116034   6.714   2.464   6.474
 5045SOL    HW216035   6.616   2.529   6.588
 5046SOL     OW16036   3.284   3.129   5.174
 5046SOL    HW116037   3.324   3.191   5.106
 5046SOL    HW216038   3.358   3.086   5.226
 5047SOL     OW16039   0.571   1.122   2.320
 5047SOL    HW116040   0.532   1.193   2.379
 5047SOL    HW216041   0.661   1.152   2.287
 5048SOL     OW16042   6.774   2.253   1.582
 5048SOL    HW116043   6.696   2.195   1.604
 5048SOL    HW216044   6.804   2.301   1.665
 5049SOL     OW16045   0.685   2.439   2.209
 5049SOL    HW116046   0.686   2.497   2.127
 5049SOL    HW216047   0.739   2.356   2.191
 5050SOL     OW16048   0.978   3.268   1.666
 5050SOL    HW116049   0.890   3.289   1.708
 5050SOL    HW216050   1.020   3.353   1.633
 5051SOL     OW16051   2.994   4.907   0.844
 5051SOL    HW116052   2.930   4.969   0.798
 5051SOL    HW216053   2.949   4.819   0.862
 5052SOL     OW16054   5.470   4.832   1.455
 5052SOL    HW116055   5.528   4.853   1.534
 5052SOL    HW216056   5.456   4.733   1.450
 5053SOL     OW16057   2.266   3.822   0.571
 5053SOL    HW116058   2.300   3.914   0.587
 5053SOL    HW216059   2.307   3.760   0.639
 5054SOL     OW16060   3.792   5.681   4.891
 5054SOL    HW116061   3.705   5.633   4.880
 5054SOL    HW216062   3.781   5.758   4.954
 5055SOL     OW16063   0.530   1.331   5.290
 5055SOL    HW116064   0.612   1.329   5.231
 5055SOL    HW216065   0.508   1.237   5.317
 5056SOL     OW16066   0.896   3.240   5.300
 5056SOL    HW116067   0.864   3.330   5.330
 5056SOL    HW216068   0.989   3.225   5.334
 5057SOL     OW16069   6.872   5.455   3.330
 5057SOL    HW116070   6.901   5.475   3.424
 5057SOL    HW216071   6.912   5.368   3.301
 5058SOL     OW16072   4.533   4.517   6.279
 5058SOL    HW116073   4.538   4.615   6.297
 5058SOL    HW216074   4.604   4.491   6.214
 5059SOL     OW16075   3.383   1.993   4.039
 5059SOL    HW116076   3.345   2.062   3.978
 5059SOL    HW216077   3.352   1.902   4.011
 5060SOL     OW16078   0.804   3.031   5.444
 5060SOL    HW116079   0.825   3.113   5.391
 5060SOL    HW216080   0.706   3.030   5.466
 5061SOL     OW16081   3.725   2.877   5.300
 5061SOL    HW116082   3.789   2.800   5.303
 5061SOL    HW216083   3.765   2.951   5.247
 5062SOL     OW16084   4.901   0.700   2.930
 5062SOL    HW116085   4.809   0.734   2.953
 5062SOL    HW216086   4.959   0.778   2.904
 5063SOL     OW16087   1.088   6.924   2.713
 5063SOL    HW116088   1.021   6.922   2.786
 5063SOL    HW216089   1.175   6.961   2.747
 5064SOL     OW16090   4.871   5.300   0.409
 5064SOL    HW116091   4.841   5.370   0.344
 5064SOL    HW216092   4.820   5.215   0.393
 5065SOL     OW16093   2.592   7.017   3.318
 5065SOL    HW116094   2.651   0.036   3.385
 5065SOL    HW216095   2.497   7.025   3.346
 5066SOL     OW16096   2.399   4.370   1.419
 5066SOL    HW116097   2.383   4.376   1.517
 5066SOL    HW216098   2.498   4.371   1.401
 5067SOL     OW16099   4.102   2.841   1.339
 5067SOL    HW116100   4.018   2.858   1.286
 5067SOL    HW216101   4.091   2.878   1.431
 5068SOL     OW16102   3.083   6.099   0.498
 5068SOL    HW116103   3.043   6.169   0.438
 5068SOL    HW216104   3.160   6.056   0.452
 5069SOL     OW16105   3.399   4.454   6.080
 5069SOL    HW116106   3.471   4.385   6.077
 5069SOL    HW216107   3.414   4.514   6.158
 5070SOL     OW16108   6.554   3.479   4.099
 5070SOL    HW116109   6.508   3.520   4.021
 5070SOL    HW216110   6.485   3.452   4.167
 5071SOL     OW16111   3.108   1.016   3.589
 5071SOL    HW116112   3.204   1.027   3.561
 5071SOL    HW216113   3.105   0.971   3.678
 5072SOL     OW16114   1.595   0.910   1.122
 5072SOL    HW116115   1.515   0.966   1.104
 5072SOL    HW216116   1.637   0.937   1.209
 5073SOL     OW16117   2.772   6.473   2.741
 5073SOL    HW116118   2.730   6.521   2.664
 5073SOL    HW216119   2.870   6.491   2.743
 5074SOL     OW16120   3.711   2.232   1.606
 5074SOL    HW116121   3.646   2.156   1.611
 5074SOL    HW216122   3.688   2.299   1.676
 5075SOL     OW16123   1.240   3.193   6.888
 5075SOL    HW116124   1.247   3.179   6.987
 5075SOL    HW216125   1.274   3.111   6.840
 5076SOL     OW16126   5.736   0.629   0.287
 5076SOL    HW116127   5.741   0.574   0.371
 5076SOL    HW216128   5.640   0.643   0.262
 5077SOL     OW16129   0.933   5.069   3.548
 5077SOL    HW116130   0.980   4.985   3.517
 5077SOL    HW216131   0.983   5.149   3.514
 5078SOL     OW16132   7.010   1.105   3.606
 5078SOL    HW116133   0.030   1.050   3.536
 5078SOL    HW216134   0.020   1.080   3.696
 5079SOL     OW16135   1.581   2.282   6.277
 5079SOL    HW116136   1.516   2.217   6.237
 5079SOL    HW216137   1.661   2.290   6.218
 5080SOL     OW16138   5.851   5.036   5.936
 5080SOL    HW116139   5.918   5.095   5.982
 5080SOL    HW216140   5.888   4.943   5.929
 5081SOL     OW16141   3.175   5.862   5.406
 5081SOL    HW116142   3.156   5.918   5.487
 5081SOL    HW216143   3.204   5.771   5.435
 5082SOL     OW16144   5.506   6.477   1.469
 5082SOL    HW116145   5.446   6.450   1.393
 5082SOL    HW216146   5.453   6.480   1.553
 5083SOL     OW16147   2.539   0.311   3.179
 5083SOL    HW116148   2.511   0.265   3.264
 5083SOL    HW216149   2.638   0.298   3.167
 5084SOL     OW16150   1.033   4.886   5.416
 5084SOL    HW116151   1.121   4.931   5.402
 5084SOL    HW216152   0.960   4.944   5.381
 5085SOL     OW16153   0.681   3.718   6.326
 5085SOL    HW116154   0.691   3.745   6.230
 5085SOL    HW216155   0.673   3.799   6.383
 5086SOL     OW16156   1.564   4.724   1.907
 5086SOL    HW116157   1.471   4.707   1.875
 5086SOL    HW216158   1.613   4.637   1.914
 5087SOL     OW16159   6.356   5.022   2.976
 5087SOL    HW116160   6.281   5.005   3.041
 5087SOL    HW216161   6.431   4.958   2.994
 5088SOL     OW16162   4.388   6.320   1.926
 5088SOL    HW116163   4.476   6.308   1.971
 5088SOL    HW216164   4.402   6.347   1.831
 5089SOL     OW16165   5.676   4.832   4.518
 5089SOL    HW116166   5.749   4.784   4.470
 5089SOL    HW216167   5.679   4.929   4.495
 5090SOL     OW16168   2.825   0.574   4.646
 5090SOL    HW116169   2.916   0.534   4.662
 5090SOL    HW216170   2.774   0.576   4.731
 5091SOL     OW16171   6.171   6.833   6.945
 5091SOL    HW116172   6.203   6.739   6.928
 5091SOL    HW216173   6.244   6.885   6.990
 5092SOL     OW16174   3.491   3.659   5.039
 5092SOL    HW116175   3.454   3.670   5.131
 5092SOL    HW216176   3.418   3.629   4.977
 5093SOL     OW16177   1.884   1.747   2.316
 5093SOL    HW116178   1.868   1.777   2.222
 5093SOL    HW216179   1.797   1.745   2.366
 5094SOL     OW16180   2.275   5.913   6.600
 5094SOL    HW116181   2.208   5.878   6.535
 5094SOL    HW216182   2.286   6.011   6.588
 5095SOL     OW16183   0.248   0.993   2.892
 5095SOL    HW116184   0.217   0.902   2.866
 5095SOL    HW216185   0.299   1.034   2.816
 5096SOL     OW16186   4.970   2.670   6.044
 5096SOL    HW116187   4.975   2.573   6.019
 5096SOL    HW216188   5.034   2.722   5.989
 5097SOL     OW16189   6.970   6.041   6.917
 5097SOL    HW116190   7.006   6.134   6.920
 5097SOL    HW216191   6.946   6.011   7.009
 5098SOL     OW16192   3.859   2.091   1.814
 5098SOL    HW116193   3.913   2.042   1.882
 5098SOL    HW216194   3.783   2.137   1.859
 5099SOL     OW16195   1.014   5.916   1.582
 5099SOL    HW116196   1.056   5.942   1.669
 5099SOL    HW216197   0.958   5.991   1.548
 5100SOL     OW16198   5.062   4.063   2.413
 5100SOL    HW116199   5.057   3.970   2.378
 5100SOL    HW216200   5.077   4.127   2.338
 5101SOL     OW16201   4.013   6.831   5.340
 5101SOL    HW116202   4.055   6.808   5.427
 5101SOL    HW216203   4.064   6.787   5.266
 5102SOL     OW16204   5.070   4.914   4.539
 5102SOL    HW116205   5.007   4.898   4.615
 5102SOL    HW216206   5.164   4.914   4.574
 5103SOL     OW16207   0.977   0.309   5.571
 5103SOL    HW116208   1.059   0.254   5.556
 5103SOL    HW216209   0.948   0.300   5.666
 5104SOL     OW16210   3.512   4.695   1.208
 5104SOL    HW116211   3.437   4.638   1.175
 5104SOL    HW216212   3.597   4.666   1.164
 5105SOL     OW16213   3.608   2.761   6.852
 5105SOL    HW116214   3.517   2.738   6.886
 5105SOL    HW216215   3.629   2.703   6.773
 5106SOL     OW16216   4.095   2.749   0.969
 5106SOL    HW116217   4.002   2.757   1.005
 5106SOL    HW216218   4.091   2.730   0.871
 5107SOL     OW16219   4.920   3.302   1.190
 5107SOL    HW116220   4.832   3.254   1.191
 5107SOL    HW216221   4.911   3.387   1.138
 5108SOL     OW16222   4.351   3.529   6.562
 5108SOL    HW116223   4.317   3.550   6.654
 5108SOL    HW216224   4.281   3.550   6.495
 5109SOL     OW16225   1.919   2.519   0.999
 5109SOL    HW116226   1.863   2.562   1.070
 5109SOL    HW216227   1.889   2.425   0.985
 5110SOL     OW16228   5.997   0.678   6.401
 5110SOL    HW116229   5.993   0.654   6.303
 5110SOL    HW216230   5.994   0.777   6.411
 5111SOL     OW16231   1.061   5.917   5.239
 5111SOL    HW116232   1.088   5.990   5.302
 5111SOL    HW216233   1.142   5.885   5.190
 5112SOL     OW16234   6.972   0.385   3.096
 5112SOL    HW116235   6.957   0.452   3.023
 5112SOL    HW216236   6.950   0.293   3.062
 5113SOL     OW16237   1.902   5.281   0.561
 5113SOL    HW116238   1.947   5.191   0.559
 5113SOL    HW216239   1.931   5.331   0.642
 5114SOL     OW16240   4.273   6.562   0.844
 5114SOL    HW116241   4.206   6.502   0.801
 5114SOL    HW216242   4.364   6.542   0.807
 5115SOL     OW16243   1.672   3.914   0.984
 5115SOL    HW116244   1.729   3.932   1.065
 5115SOL    HW216245   1.695   3.825   0.946
 5116SOL     OW16246   2.051   6.781   7.008
 5116SOL    HW116247   2.054   6.843   6.930
 5116SOL    HW216248   2.018   6.829   0.063
 5117SOL     OW16249   1.732   3.020   4.266
 5117SOL    HW116250   1.819   3.065   4.287
 5117SOL    HW216251   1.683   3.002   4.351
 5118SOL     OW16252   5.966   6.349   0.149
 5118SOL    HW116253   5.976   6.321   0.244
 5118SOL    HW216254   6.041   6.411   0.124
 5119SOL     OW16255   4.867   1.789   0.489
 5119SOL    HW116256   4.779   1.829   0.514
 5119SOL    HW216257   4.921   1.856   0.438
 5120SOL     OW16258   5.155   6.868   4.870
 5120SOL    HW116259   5.191   6.927   4.942
 5120SOL    HW216260   5.211   6.879   4.787
 5121SOL     OW16261   2.747   3.978   6.799
 5121SOL    HW116262   2.738   4.075   6.775
 5121SOL    HW216263   2.729   3.967   6.897
 5122SOL     OW16264   4.292   5.316   3.957
 5122SOL    HW116265   4.238   5.394   3.925
 5122SOL    HW216266   4.319   5.259   3.880
 5123SOL     OW16267   4.502   2.463   2.233
 5123SOL    HW116268   4.476   2.465   2.137
 5123SOL    HW216269   4.601   2.452   2.240
 5124SOL     OW16270   2.123   6.396   3.903
 5124SOL    HW116271   2.135   6.495   3.909
 5124SOL    HW216272   2.027   6.373   3.914
 5125SOL     OW16273   0.449   2.170   3.900
 5125SOL    HW116274   0.528   2.115   3.872
 5125SOL    HW216275   0.452   2.259   3.854
 5126SOL     OW16276   1.871   6.916   1.549
 5126SOL    HW116277   1.956   6.921   1.601
 5126SOL    HW216278   1.852   7.005   1.507
 5127SOL     OW16279   1.972   5.500   0.744
 5127SOL    HW116280   2.063   5.461   0.729
 5127SOL    HW216281   1.968   5.593   0.707
 5128SOL     OW16282   6.235   5.977   1.530
 5128SOL    HW116283   6.218   5.938   1.620
 5128SOL    HW216284   6.210   5.911   1.459
 5129SOL     OW16285   4.787   6.506   1.241
 5129SOL    HW116286   4.832   6.418   1.250
 5129SOL    HW216287   4.855   6.579   1.240
 5130SOL     OW16288   5.908   4.793   3.734
 5130SOL    HW116289   5.868   4.701   3.724
 5130SOL    HW216290   5.834   4.860   3.736
 5131SOL     OW16291   1.845   2.482   3.748
 5131SOL    HW116292   1.793   2.397   3.740
 5131SOL    HW216293   1.932   2.473   3.700
 5132SOL     OW16294   3.544   5.196   6.225
 5132SOL    HW116295   3.537   5.105   6.267
 5132SOL    HW216296   3.452   5.228   6.201
 5133SOL     OW16297   4.216   6.578   6.464
 5133SOL    HW116298   4.208   6.547   6.369
 5133SOL    HW216299   4.269   6.512   6.516
 5134SOL     OW16300   0.493   3.693   1.170
 5134SOL    HW116301   0.520   3.615   1.225
 5134SOL    HW216302   0.393   3.694   1.160
 5135SOL     OW16303   6.924   1.703   4.620
 5135SOL    HW116304   7.013   1.656   4.619
 5135SOL    HW216305   6.891   1.713   4.526
 5136SOL     OW16306   4.997   1.044   3.917
 5136SOL    HW116307   5.044   0.979   3.856
 5136SOL    HW216308   4.948   0.993   3.987
 5137SOL     OW16309   4.455   4.141   6.025
 5137SOL    HW116310   4.363   4.129   5.988
 5137SOL    HW216311   4.452   4.205   6.102
 5138SOL     OW16312   2.360   3.819   6.069
 5138SOL    HW116313   2.301   3.802   5.990
 5138SOL    HW216314   2.424   3.893   6.047
 5139SOL     OW16315   1.043   6.735   4.358
 5139SOL    HW116316   0.973   6.789   4.405
 5139SOL    HW216317   1.014   6.640   4.351
 5140SOL     OW16318   3.173   2.866   0.529
 5140SOL    HW116319   3.205   2.791   0.470
 5140SOL    HW216320   3.146   2.829   0.618
 5141SOL     OW16321   5.520   3.010   0.339
 5141SOL    HW116322   5.549   2.931   0.285
 5141SOL    HW216323   5.551   3.094   0.293
 5142SOL     OW16324   5.771   3.515   4.722
 5142SOL    HW116325   5.802   3.500   4.628
 5142SOL    HW216326   5.708   3.592   4.725
 5143SOL     OW16327   6.654   5.003   4.416
 5143SOL    HW116328   6.715   5.081   4.431
 5143SOL    HW216329   6.570   5.035   4.371
 5144SOL     OW16330   1.325   0.839   6.329
 5144SOL    HW116331   1.258   0.803   6.264
 5144SOL    HW216332   1.300   0.810   6.421
 5145SOL     OW16333   2.666   5.273   6.184
 5145SOL    HW116334   2.590   5.244   6.243
 5145SOL    HW216335   2.678   5.206   6.110
 5146SOL     OW16336   3.399   4.231   6.686
 5146SOL    HW116337   3.313   4.226   6.737
 5146SOL    HW216338   3.467   4.173   6.730
 5147SOL     OW16339   6.670   4.233   0.300
 5147SOL    HW116340   6.583   4.184   0.302
 5147SOL    HW216341   6.695   4.260   0.393
 5148SOL     OW16342   6.914   5.851   1.315
 5148SOL    HW116343   6.862   5.834   1.399
 5148SOL    HW216344   7.006   5.812   1.324
 5149SOL     OW16345   6.344   1.226   3.636
 5149SOL    HW116346   6.365   1.321   3.656
 5149SOL    HW216347   6.245   1.213   3.634
 5150SOL     OW16348   1.460   5.630   3.774
 5150SOL    HW116349   1.447   5.575   3.857
 5150SOL    HW216350   1.434   5.576   3.694
 5151SOL     OW16351   4.722   1.126   5.977
 5151SOL    HW116352   4.642   1.180   5.951
 5151SOL    HW216353   4.760   1.161   6.063
 5152SOL     OW16354   0.796   4.178   0.268
 5152SOL    HW116355   0.851   4.157   0.349
 5152SOL    HW216356   0.707   4.215   0.296
 5153SOL     OW16357   1.723   1.939   0.741
 5153SOL    HW116358   1.771   1.922   0.655
 5153SOL    HW216359   1.701   2.036   0.749
 5154SOL     OW16360   1.724   3.407   5.736
 5154SOL    HW116361   1.665   3.439   5.810
 5154SOL    HW216362   1.719   3.307   5.730
 5155SOL     OW16363   3.783   6.491   1.915
 5155SOL    HW116364   3.726   6.455   1.841
 5155SOL    HW216365   3.861   6.431   1.929
 5156SOL     OW16366   6.466   2.505   5.203
 5156SOL    HW116367   6.549   2.449   5.212
 5156SOL    HW216368   6.470   2.558   5.119
 5157SOL     OW16369   5.200   2.931   3.746
 5157SOL    HW116370   5.293   2.935   3.709
 5157SOL    HW216371   5.181   2.838   3.778
 5158SOL     OW16372   4.131   0.683   1.112
 5158SOL    HW116373   4.049   0.738   1.130
 5158SOL    HW216374   4.136   0.608   1.178
 5159SOL     OW16375   1.179   3.626   4.093
 5159SOL    HW116376   1.236   3.594   4.168
 5159SOL    HW216377   1.087   3.646   4.126
 5160SOL     OW16378   1.689   3.895   4.581
 5160SOL    HW116379   1.719   3.991   4.589
 5160SOL    HW216380   1.647   3.882   4.491
 5161SOL     OW16381   1.173   3.231   5.547
 5161SOL    HW116382   1.144   3.325   5.568
 5161SOL    HW216383   1.145   3.170   5.621
 5162SOL     OW16384   6.876   6.357   3.750
 5162SOL    HW116385   6.843   6.290   3.816
 5162SOL    HW216386   6.972   6.340   3.729
 5163SOL     OW16387   5.670   4.625   1.363
 5163SOL    HW116388   5.703   4.719   1.358
 5163SOL    HW216389   5.700   4.574   1.283
 5164SOL     OW16390   6.368   3.565   5.373
 5164SOL    HW116391   6.281   3.520   5.356
 5164SOL    HW216392   6.374   3.592   5.469
 5165SOL     OW16393   6.173   4.340   4.697
 5165SOL    HW116394   6.078   4.355   4.722
 5165SOL    HW216395   6.177   4.302   4.604
 5166SOL     OW16396   1.639   4.831   2.152
 5166SOL    HW116397   1.612   4.790   2.065
 5166SOL    HW216398   1.635   4.931   2.144
 5167SOL     OW16399   0.119   6.671   5.968
 5167SOL    HW116400   0.127   6.622   5.882
 5167SOL    HW216401   0.158   6.616   6.042
 5168SOL     OW16402   4.152   2.249   3.024
 5168SOL    HW116403   4.184   2.326   2.969
 5168SOL    HW216404   4.208   2.169   3.005
 5169SOL     OW16405   3.394   3.542   6.207
 5169SOL    HW116406   3.387   3.603   6.287
 5169SOL    HW216407   3.346   3.583   6.130
 5170SOL     OW16408   6.399   4.497   4.701
 5170SOL    HW116409   6.310   4.450   4.706
 5170SOL    HW216410   6.472   4.432   4.722
 5171SOL     OW16411   1.932   4.738   4.565
 5171SOL    HW116412   2.029   4.746   4.586
 5171SOL    HW216413   1.879   4.779   4.639
 5172SOL     OW16414   0.942   4.546   2.666
 5172SOL    HW116415   0.991   4.633   2.678
 5172SOL    HW216416   0.860   4.546   2.723
 5173SOL     OW16417   5.085   3.087   6.252
 5173SOL    HW116418   5.177   3.049   6.248
 5173SOL    HW216419   5.077   3.145   6.334
 5174SOL     OW16420   1.817   4.847   6.198
 5174SOL    HW116421   1.740   4.802   6.153
 5174SOL    HW216422   1.848   4.790   6.274
 5175SOL     OW16423   1.227   4.250   0.646
 5175SOL    HW116424   1.284   4.325   0.680
 5175SOL    HW216425   1.144   4.243   0.700
 5176SOL     OW16426   3.569   3.893   0.744
 5176SOL    HW116427   3.625   3.874   0.825
 5176SOL    HW216428   3.612   3.964   0.689
 5177SOL     OW16429   4.935   6.600   5.895
 5177SOL    HW116430   5.020   6.549   5.888
 5177SOL    HW216431   4.860   6.538   5.916
 5178SOL     OW16432   2.735   2.684   1.722
 5178SOL    HW116433   2.734   2.585   1.735
 5178SOL    HW216434   2.651   2.724   1.760
 5179SOL     OW16435   3.344   6.246   5.744
 5179SOL    HW116436   3.282   6.283   5.812
 5179SOL    HW216437   3.410   6.185   5.788
 5180SOL     OW16438   2.766   2.219   0.514
 5180SOL    HW116439   2.857   2.207   0.552
 5180SOL    HW216440   2.703   2.154   0.557
 5181SOL     OW16441   4.524   0.159   2.857
 5181SOL    HW116442   4.427   0.182   2.854
 5181SOL    HW216443   4.538   0.079   2.915
 5182SOL     OW16444   5.636   4.370   1.999
 5182SOL    HW116445   5.650   4.293   1.937
 5182SOL    HW216446   5.686   4.354   2.085
 5183SOL     OW16447   4.407   6.620   1.890
 5183SOL    HW116448   4.391   6.671   1.974
 5183SOL    HW216449   4.326   6.565   1.869
 5184SOL     OW16450   1.035   0.923   3.001
 5184SOL    HW116451   0.976   0.999   3.031
 5184SOL    HW216452   1.114   0.960   2.953
 5185SOL     OW16453   3.774   6.985   2.469
 5185SOL    HW116454   3.710   6.912   2.448
 5185SOL    HW216455   3.854   6.979   2.409
 5186SOL     OW16456   6.770   4.374   1.078
 5186SOL    HW116457   6.751   4.298   1.140
 5186SOL    HW216458   6.779   4.341   0.985
 5187SOL     OW16459   6.081   1.949   3.436
 5187SOL    HW116460   6.123   1.935   3.525
 5187SOL    HW216461   6.038   1.864   3.406
 5188SOL     OW16462   0.751   4.481   6.067
 5188SOL    HW116463   0.705   4.396   6.043
 5188SOL    HW216464   0.834   4.461   6.119
 5189SOL     OW16465   4.762   4.718   6.450
 5189SOL    HW116466   4.747   4.630   6.495
 5189SOL    HW216467   4.808   4.703   6.363
 5190SOL     OW16468   0.937   2.526   3.975
 5190SOL    HW116469   1.015   2.475   3.938
 5190SOL    HW216470   0.853   2.478   3.952
 5191SOL     OW16471   3.651   1.567   1.888
 5191SOL    HW116472   3.569   1.569   1.830
 5191SOL    HW216473   3.639   1.497   1.959
 5192SOL     OW16474   5.422   5.954   2.625
 5192SOL    HW116475   5.483   5.893   2.676
 5192SOL    HW216476   5.341   5.973   2.680
 5193SOL     OW16477   4.894   4.079   4.396
 5193SOL    HW116478   4.863   4.094   4.302
 5193SOL    HW216479   4.948   3.996   4.401
 5194SOL     OW16480   5.739   0.889   5.807
 5194SOL    HW116481   5.643   0.906   5.829
 5194SOL    HW216482   5.753   0.791   5.793
 5195SOL     OW16483   6.046   6.696   5.250
 5195SOL    HW116484   6.100   6.614   5.230
 5195SOL    HW216485   6.010   6.689   5.343
 5196SOL     OW16486   0.279   4.278   1.741
 5196SOL    HW116487   0.331   4.247   1.820
 5196SOL    HW216488   0.330   4.258   1.657
 5197SOL     OW16489   2.522   5.872   5.049
 5197SOL    HW116490   2.594   5.803   5.060
 5197SOL    HW216491   2.504   5.886   4.952
 5198SOL     OW16492   3.896   6.511   5.339
 5198SOL    HW116493   3.830   6.484   5.409
 5198SOL    HW216494   3.865   6.480   5.249
 5199SOL     OW16495   2.070   5.511   1.627
 5199SOL    HW116496   2.080   5.507   1.528
 5199SOL    HW216497   2.111   5.429   1.668
 5200SOL     OW16498   0.177   1.472   4.667
 5200SOL    HW116499   0.213   1.486   4.575
 5200SOL    HW216500   0.250   1.439   4.726
 5201SOL     OW16501   5.526   4.827   3.941
 5201SOL    HW116502   5.503   4.883   4.020
 5201SOL    HW216503   5.595   4.760   3.967
 5202SOL     OW16504   3.969   2.999   6.293
 5202SOL    HW116505   3.942   2.948   6.374
 5202SOL    HW216506   3.897   3.065   6.269
 5203SOL     OW16507   2.020   0.215   0.505
 5203SOL    HW116508   2.050   0.303   0.467
 5203SOL    HW216509   1.984   0.229   0.597
 5204SOL     OW16510   3.440   1.080   6.775
 5204SOL    HW116511   3.534   1.101   6.801
 5204SOL    HW216512   3.430   1.092   6.676
 5205SOL     OW16513   0.072   5.625   0.708
 5205SOL    HW116514   0.002   5.555   0.722
 5205SOL    HW216515   0.028   5.710   0.679
 5206SOL     OW16516   0.838   4.682   5.155
 5206SOL    HW116517   0.763   4.663   5.219
 5206SOL    HW216518   0.907   4.610   5.164
 5207SOL     OW16519   0.255   0.694   4.644
 5207SOL    HW116520   0.210   0.784   4.644
 5207SOL    HW216521   0.236   0.648   4.557
 5208SOL     OW16522   4.569   2.376   0.795
 5208SOL    HW116523   4.629   2.332   0.729
 5208SOL    HW216524   4.474   2.351   0.776
 5209SOL     OW16525   4.799   5.939   3.051
 5209SOL    HW116526   4.710   5.970   3.083
 5209SOL    HW216527   4.847   5.891   3.125
 5210SOL     OW16528   5.497   4.313   0.541
 5210SOL    HW116529   5.561   4.271   0.607
 5210SOL    HW216530   5.471   4.245   0.473
 5211SOL     OW16531   4.628   2.657   4.047
 5211SOL    HW116532   4.622   2.723   4.122
 5211SOL    HW216533   4.662   2.703   3.965
 5212SOL     OW16534   0.884   3.328   1.113
 5212SOL    HW116535   0.951   3.253   1.113
 5212SOL    HW216536   0.797   3.293   1.148
 5213SOL     OW16537   4.137   3.362   2.897
 5213SOL    HW116538   4.107   3.457   2.898
 5213SOL    HW216539   4.105   3.318   2.813
 5214SOL     OW16540   5.772   3.585   5.963
 5214SOL    HW116541   5.709   3.530   5.908
 5214SOL    HW216542   5.760   3.682   5.940
 5215SOL     OW16543   0.188   3.968   4.765
 5215SOL    HW116544   0.103   3.961   4.818
 5215SOL    HW216545   0.219   3.876   4.741
 5216SOL     OW16546   5.407   4.941   0.440
 5216SOL    HW116547   5.372   4.852   0.411
 5216SOL    HW216548   5.353   4.973   0.518
 5217SOL     OW16549   3.972   6.033   3.606
 5217SOL    HW116550   3.922   5.950   3.582
 5217SOL    HW216551   4.035   6.012   3.681
 5218SOL     OW16552   0.642   0.335   0.811
 5218SOL    HW116553   0.649   0.239   0.840
 5218SOL    HW216554   0.550   0.352   0.776
 5219SOL     OW16555   2.317   2.267   5.484
 5219SOL    HW116556   2.219   2.260   5.501
 5219SOL    HW216557   2.361   2.179   5.502
 5220SOL     OW16558   1.624   4.778   3.846
 5220SOL    HW116559   1.566   4.698   3.834
 5220SOL    HW216560   1.681   4.767   3.927
 5221SOL     OW16561   6.579   0.191   1.028
 5221SOL    HW116562   6.569   0.157   0.934
 5221SOL    HW216563   6.510   0.261   1.046
 5222SOL     OW16564   4.688   4.695   1.260
 5222SOL    HW116565   4.754   4.768   1.276
 5222SOL    HW216566   4.623   4.691   1.335
 5223SOL     OW16567   0.656   3.139   1.186
 5223SOL    HW116568   0.616   3.154   1.095
 5223SOL    HW216569   0.584   3.149   1.255
 5224SOL     OW16570   0.603   2.271   4.692
 5224SOL    HW116571   0.541   2.206   4.735
 5224SOL    HW216572   0.694   2.264   4.734
 5225SOL     OW16573   0.456   1.606   4.992
 5225SOL    HW116574   0.438   1.678   4.925
 5225SOL    HW216575   0.460   1.517   4.946
 5226SOL     OW16576   6.894   6.603   3.903
 5226SOL    HW116577   6.882   6.528   3.838
 5226SOL    HW216578   6.846   6.580   3.988
 5227SOL     OW16579   0.157   2.479   4.830
 5227SOL    HW116580   0.061   2.508   4.835
 5227SOL    HW216581   0.186   2.446   4.920
 5228SOL     OW16582   1.803   2.676   5.962
 5228SOL    HW116583   1.864   2.600   5.943
 5228SOL    HW216584   1.713   2.657   5.924
 5229SOL     OW16585   4.307   0.794   6.120
 5229SOL    HW116586   4.284   0.772   6.025
 5229SOL    HW216587   4.351   0.884   6.124
 5230SOL     OW16588   6.857   6.980   2.067
 5230SOL    HW116589   6.792   6.906   2.051
 5230SOL    HW216590   6.820   0.016   2.137
 5231SOL     OW16591   6.424   1.884   2.421
 5231SOL    HW116592   6.514   1.860   2.385
 5231SOL    HW216593   6.356   1.821   2.385
 5232SOL     OW16594   2.093   3.062   5.688
 5232SOL    HW116595   2.062   2.969   5.669
 5232SOL    HW216596   2.015   3.125   5.681
 5233SOL     OW16597   3.185   0.561   2.735
 5233SOL    HW116598   3.189   0.527   2.829
 5233SOL    HW216599   3.234   0.499   2.675
 5234SOL     OW16600   2.465   2.360   1.312
 5234SOL    HW116601   2.532   2.308   1.365
 5234SOL    HW216602   2.513   2.420   1.248
 5235SOL     OW16603   2.811   1.479   1.237
 5235SOL    HW116604   2.793   1.405   1.172
 5235SOL    HW216605   2.910   1.496   1.240
 5236SOL     OW16606   3.443   5.544   1.773
 5236SOL    HW116607   3.441   5.459   1.826
 5236SOL    HW216608   3.524   5.597   1.799
 5237SOL     OW16609   1.887   2.337   4.105
 5237SOL    HW116610   1.964   2.338   4.040
 5237SOL    HW216611   1.923   2.334   4.198
 5238SOL     OW16612   1.086   6.185   2.893
 5238SOL    HW116613   1.082   6.256   2.963
 5238SOL    HW216614   1.080   6.227   2.803
 5239SOL     OW16615   2.739   3.884   1.006
 5239SOL    HW116616   2.807   3.854   0.939
 5239SOL    HW216617   2.698   3.804   1.050
 5240SOL     OW16618   2.204   3.733   5.854
 5240SOL    HW116619   2.237   3.772   5.768
 5240SOL    HW216620   2.138   3.660   5.834
 5241SOL     OW16621   0.593   5.819   2.312
 5241SOL    HW116622   0.497   5.805   2.334
 5241SOL    HW216623   0.601   5.844   2.215
 5242SOL     OW16624   4.783   0.751   6.808
 5242SOL    HW116625   4.728   0.834   6.801
 5242SOL    HW216626   4.732   0.674   6.770
 5243SOL     OW16627   2.183   6.682   2.019
 5243SOL    HW116628   2.269   6.697   1.970
 5243SOL    HW216629   2.161   6.584   2.018
 5244SOL     OW16630   4.672   3.243   0.584
 5244SOL    HW116631   4.623   3.195   0.511
 5244SOL    HW216632   4.627   3.227   0.671
 5245SOL     OW16633   3.982   3.772   1.387
 5245SOL    HW116634   4.058   3.779   1.452
 5245SOL    HW216635   3.921   3.851   1.399
 5246SOL     OW16636   5.988   2.888   1.174
 5246SOL    HW116637   6.042   2.877   1.090
 5246SOL    HW216638   5.891   2.895   1.151
 5247SOL     OW16639   3.961   1.787   6.608
 5247SOL    HW116640   3.892   1.791   6.535
 5247SOL    HW216641   3.994   1.693   6.617
 5248SOL     OW16642   6.557   1.397   3.463
 5248SOL    HW116643   6.642   1.450   3.455
 5248SOL    HW216644   6.492   1.426   3.393
 5249SOL     OW16645   0.558   4.699   6.833
 5249SOL    HW116646   0.461   4.696   6.808
 5249SOL    HW216647   0.581   4.790   6.867
 5250SOL     OW16648   2.255   6.283   0.970
 5250SOL    HW116649   2.205   6.313   1.051
 5250SOL    HW216650   2.223   6.334   0.890
 5251SOL     OW16651   0.656   4.653   0.916
 5251SOL    HW116652   0.718   4.697   0.852
 5251SOL    HW216653   0.605   4.723   0.967
 5252SOL     OW16654   3.977   0.164   2.825
 5252SOL    HW116655   4.025   0.103   2.762
 5252SOL    HW216656   3.956   0.114   2.909
 5253SOL     OW16657   5.908   4.784   4.387
 5253SOL    HW116658   5.982   4.850   4.373
 5253SOL    HW216659   5.948   4.695   4.411
 5254SOL     OW16660   5.933   0.132   2.727
 5254SOL    HW116661   5.921   0.034   2.710
 5254SOL    HW216662   5.964   0.177   2.643
 5255SOL     OW16663   6.332   1.744   4.914
 5255SOL    HW116664   6.234   1.735   4.896
 5255SOL    HW216665   6.381   1.757   4.827
 5256SOL     OW16666   5.575   0.929   2.812
 5256SOL    HW116667   5.540   0.835   2.817
 5256SOL    HW216668   5.644   0.935   2.740
 5257SOL     OW16669   4.213   0.929   5.880
 5257SOL    HW116670   4.252   1.006   5.830
 5257SOL    HW216671   4.154   0.963   5.953
 5258SOL     OW16672   4.540   2.015   2.559
 5258SOL    HW116673   4.588   2.039   2.643
 5258SOL    HW216674   4.599   1.959   2.502
 5259SOL     OW16675   5.468   5.461   2.953
 5259SOL    HW116676   5.421   5.454   2.865
 5259SOL    HW216677   5.462   5.373   3.001
 5260SOL     OW16678   2.406   0.954   0.817
 5260SOL    HW116679   2.472   0.975   0.745
 5260SOL    HW216680   2.335   1.025   0.819
 5261SOL     OW16681   6.292   4.537   0.159
 5261SOL    HW116682   6.364   4.558   0.093
 5261SOL    HW216683   6.205   4.571   0.125
 5262SOL     OW16684   2.352   1.031   2.809
 5262SOL    HW116685   2.284   1.102   2.791
 5262SOL    HW216686   2.371   1.028   2.908
 5263SOL     OW16687   1.949   0.787   3.125
 5263SOL    HW116688   1.857   0.818   3.102
 5263SOL    HW216689   2.016   0.845   3.079
 5264SOL     OW16690   0.097   1.909   1.463
 5264SOL    HW116691   0.191   1.877   1.452
 5264SOL    HW216692   0.087   1.998   1.418
 5265SOL     OW16693   6.173   3.955   4.814
 5265SOL    HW116694   6.205   3.960   4.719
 5265SOL    HW216695   6.224   3.884   4.862
 5266SOL     OW16696   2.332   0.355   1.080
 5266SOL    HW116697   2.394   0.432   1.094
 5266SOL    HW216698   2.366   0.298   1.005
 5267SOL     OW16699   4.642   2.254   4.303
 5267SOL    HW116700   4.667   2.270   4.208
 5267SOL    HW216701   4.706   2.189   4.344
 5268SOL     OW16702   5.705   0.845   6.273
 5268SOL    HW116703   5.739   0.772   6.214
 5268SOL    HW216704   5.665   0.805   6.356
 5269SOL     OW16705   0.336   6.523   3.497
 5269SOL    HW116706   0.369   6.500   3.406
 5269SOL    HW216707   0.376   6.610   3.526
 5270SOL     OW16708   0.128   2.392   6.435
 5270SOL    HW116709   0.127   2.297   6.465
 5270SOL    HW216710   0.218   2.432   6.451
 5271SOL     OW16711   6.366   5.676   3.835
 5271SOL    HW116712   6.378   5.764   3.882
 5271SOL    HW216713   6.454   5.631   3.825
 5272SOL     OW16714   4.563   0.388   0.202
 5272SOL    HW116715   4.520   0.418   0.288
 5272SOL    HW216716   4.559   0.462   0.135
 5273SOL     OW16717   0.964   2.666   2.670
 5273SOL    HW116718   1.013   2.596   2.618
 5273SOL    HW216719   0.937   2.740   2.608
 5274SOL     OW16720   4.427   5.710   2.370
 5274SOL    HW116721   4.347   5.753   2.328
 5274SOL    HW216722   4.510   5.753   2.334
 5275SOL     OW16723   3.607   1.118   6.442
 5275SOL    HW116724   3.546   1.062   6.497
 5275SOL    HW216725   3.692   1.068   6.426
 5276SOL     OW16726   3.480   6.345   2.412
 5276SOL    HW116727   3.511   6.281   2.342
 5276SOL    HW216728   3.531   6.329   2.497
 5277SOL     OW16729   2.212   1.881   1.753
 5277SOL    HW116730   2.221   1.965   1.805
 5277SOL    HW216731   2.170   1.901   1.664
 5278SOL     OW16732   4.574   5.156   1.592
 5278SOL    HW116733   4.555   5.065   1.556
 5278SOL    HW216734   4.578   5.152   1.692
 5279SOL     OW16735   2.796   5.029   1.711
 5279SOL    HW116736   2.743   5.085   1.776
 5279SOL    HW216737   2.855   4.966   1.761
 5280SOL     OW16738   4.016   5.977   4.450
 5280SOL    HW116739   3.999   6.037   4.528
 5280SOL    HW216740   3.934   5.925   4.429
 5281SOL     OW16741   0.618   1.838   1.671
 5281SOL    HW116742   0.684   1.777   1.715
 5281SOL    HW216743   0.599   1.806   1.579
 5282SOL     OW16744   3.465   1.801   3.532
 5282SOL    HW116745   3.468   1.706   3.565
 5282SOL    HW216746   3.510   1.861   3.598
 5283SOL     OW16747   5.344   5.203   6.628
 5283SOL    HW116748   5.418   5.150   6.589
 5283SOL    HW216749   5.311   5.270   6.561
 5284SOL     OW16750   5.851   2.844   2.878
 5284SOL    HW116751   5.824   2.832   2.782
 5284SOL    HW216752   5.783   2.801   2.937
 5285SOL     OW16753   3.154   5.214   3.060
 5285SOL    HW116754   3.190   5.238   2.970
 5285SOL    HW216755   3.054   5.202   3.053
 5286SOL     OW16756   1.905   4.835   1.419
 5286SOL    HW116757   1.868   4.753   1.462
 5286SOL    HW216758   1.863   4.916   1.460
 5287SOL     OW16759   2.098   2.048   1.232
 5287SOL    HW116760   2.035   2.028   1.157
 5287SOL    HW216761   2.170   1.980   1.234
 5288SOL     OW16762   3.755   6.939   0.699
 5288SOL    HW116763   3.660   6.909   0.694
 5288SOL    HW216764   3.794   6.945   0.606
 5289SOL     OW16765   1.650   5.658   1.650
 5289SOL    HW116766   1.682   5.723   1.580
 5289SOL    HW216767   1.667   5.565   1.619
 5290SOL     OW16768   4.572   6.137   0.511
 5290SOL    HW116769   4.569   6.043   0.545
 5290SOL    HW216770   4.566   6.136   0.411
 5291SOL     OW16771   2.253   4.899   6.234
 5291SOL    HW116772   2.301   4.893   6.322
 5291SOL    HW216773   2.208   4.812   6.214
 5292SOL     OW16774   4.308   2.980   5.932
 5292SOL    HW116775   4.383   2.966   5.996
 5292SOL    HW216776   4.225   2.936   5.967
 5293SOL     OW16777   0.858   0.412   4.752
 5293SOL    HW116778   0.929   0.355   4.711
 5293SOL    HW216779   0.769   0.383   4.719
 5294SOL     OW16780   6.026   2.407   5.773
 5294SOL    HW116781   6.074   2.408   5.861
 5294SOL    HW216782   6.030   2.499   5.732
 5295SOL     OW16783   6.482   1.207   2.018
 5295SOL    HW116784   6.410   1.189   1.951
 5295SOL    HW216785   6.483   1.134   2.087
 5296SOL     OW16786   0.616   4.510   1.369
 5296SOL    HW116787   0.651   4.429   1.321
 5296SOL    HW216788   0.517   4.515   1.360
 5297SOL     OW16789   1.984   2.470   1.342
 5297SOL    HW116790   2.039   2.402   1.293
 5297SOL    HW216791   1.938   2.529   1.276
 5298SOL     OW16792   0.780   5.240   1.527
 5298SOL    HW116793   0.806   5.321   1.580
 5298SOL    HW216794   0.789   5.259   1.430
 5299SOL     OW16795   2.856   0.303   1.964
 5299SOL    HW116796   2.853   0.401   1.945
 5299SOL    HW216797   2.916   0.257   1.898
 5300SOL     OW16798   6.600   5.505   3.244
 5300SOL    HW116799   6.694   5.502   3.278
 5300SOL    HW216800   6.592   5.448   3.162
 5301SOL     OW16801   4.215   1.761   0.021
 5301SOL    HW116802   4.204   1.723   0.113
 5301SOL    HW216803   4.197   1.689   6.979
 5302SOL     OW16804   6.130   4.197   3.018
 5302SOL    HW116805   6.152   4.275   3.076
 5302SOL    HW216806   6.132   4.225   2.922
 5303SOL     OW16807   0.248   4.557   3.367
 5303SOL    HW116808   0.185   4.633   3.351
 5303SOL    HW216809   0.256   4.503   3.284
 5304SOL     OW16810   5.237   1.991   5.593
 5304SOL    HW116811   5.151   1.951   5.560
 5304SOL    HW216812   5.273   1.937   5.668
 5305SOL     OW16813   2.453   1.178   3.309
 5305SOL    HW116814   2.509   1.242   3.362
 5305SOL    HW216815   2.479   1.084   3.331
 5306SOL     OW16816   2.932   0.012   5.594
 5306SOL    HW116817   2.953   0.103   5.630
 5306SOL    HW216818   2.833   0.003   5.584
 5307SOL     OW16819   5.155   6.797   0.143
 5307SOL    HW116820   5.218   6.782   0.066
 5307SOL    HW216821   5.148   6.896   0.161
 5308SOL     OW16822   6.865   1.181   2.640
 5308SOL    HW116823   6.920   1.204   2.720
 5308SOL    HW216824   6.869   1.082   2.625
 5309SOL     OW16825   3.391   4.175   3.696
 5309SOL    HW116826   3.324   4.143   3.764
 5309SOL    HW216827   3.350   4.248   3.642
 5310SOL     OW16828   4.717   2.280   1.031
 5310SOL    HW116829   4.678   2.266   1.122
 5310SOL    HW216830   4.648   2.318   0.970
 5311SOL     OW16831   0.937   5.531   7.025
 5311SOL    HW116832   0.928   5.539   6.926
 5311SOL    HW216833   1.016   5.584   0.031
 5312SOL     OW16834   0.314   3.607   3.027
 5312SOL    HW116835   0.359   3.548   3.093
 5312SOL    HW216836   0.215   3.601   3.038
 5313SOL     OW16837   1.217   5.529   1.026
 5313SOL    HW116838   1.126   5.510   0.990
 5313SOL    HW216839   1.253   5.612   0.984
 5314SOL     OW16840   3.771   4.931   0.837
 5314SOL    HW116841   3.747   4.834   0.846
 5314SOL    HW216842   3.749   4.962   0.745
 5315SOL     OW16843   5.538   2.434   2.312
 5315SOL    HW116844   5.602   2.363   2.284
 5315SOL    HW216845   5.502   2.481   2.230
 5316SOL     OW16846   5.934   5.139   3.873
 5316SOL    HW116847   5.855   5.169   3.821
 5316SOL    HW216848   5.914   5.146   3.971
 5317SOL     OW16849   5.534   6.454   2.700
 5317SOL    HW116850   5.444   6.415   2.682
 5317SOL    HW216851   5.532   6.553   2.683
 5318SOL     OW16852   0.501   2.517   4.519
 5318SOL    HW116853   0.403   2.513   4.538
 5318SOL    HW216854   0.541   2.426   4.530
 5319SOL     OW16855   4.701   0.382   0.653
 5319SOL    HW116856   4.694   0.423   0.744
 5319SOL    HW216857   4.778   0.422   0.604
 5320SOL     OW16858   5.788   3.049   5.749
 5320SOL    HW116859   5.820   3.000   5.668
 5320SOL    HW216860   5.690   3.032   5.761
 5321SOL     OW16861   2.041   5.376   6.231
 5321SOL    HW116862   2.097   5.294   6.215
 5321SOL    HW216863   1.957   5.350   6.279
 5322SOL     OW16864   3.347   5.982   0.346
 5322SOL    HW116865   3.288   5.987   0.266
 5322SOL    HW216866   3.391   5.893   0.349
 5323SOL     OW16867   5.383   2.949   0.576
 5323SOL    HW116868   5.442   2.986   0.505
 5323SOL    HW216869   5.289   2.982   0.562
 5324SOL     OW16870   3.522   3.552   1.920
 5324SOL    HW116871   3.586   3.535   1.845
 5324SOL    HW216872   3.551   3.500   2.001
 5325SOL     OW16873   5.109   5.727   3.512
 5325SOL    HW116874   5.048   5.780   3.453
 5325SOL    HW216875   5.086   5.629   3.505
 5326SOL     OW16876   6.529   6.279   1.579
 5326SOL    HW116877   6.520   6.189   1.536
 5326SOL    HW216878   6.548   6.267   1.677
 5327SOL     OW16879   6.784   0.730   3.416
 5327SOL    HW116880   6.747   0.668   3.485
 5327SOL    HW216881   6.873   0.696   3.385
 5328SOL     OW16882   3.770   4.673   0.927
 5328SOL    HW116883   3.753   4.606   1.000
 5328SOL    HW216884   3.851   4.727   0.949
 5329SOL     OW16885   6.851   4.854   0.039
 5329SOL    HW116886   6.872   4.799   6.983
 5329SOL    HW216887   6.916   4.929   0.045
 5330SOL     OW16888   4.806   4.585   0.874
 5330SOL    HW116889   4.744   4.647   0.826
 5330SOL    HW216890   4.756   4.502   0.900
 5331SOL     OW16891   4.645   3.501   6.783
 5331SOL    HW116892   4.662   3.504   6.684
 5331SOL    HW216893   4.550   3.523   6.802
 5332SOL     OW16894   5.945   2.895   0.118
 5332SOL    HW116895   5.910   2.885   0.212
 5332SOL    HW216896   5.869   2.919   0.057
 5333SOL     OW16897   1.605   1.825   3.867
 5333SOL    HW116898   1.519   1.876   3.860
 5333SOL    HW216899   1.607   1.773   3.952
 5334SOL     OW16900   4.351   5.618   1.899
 5334SOL    HW116901   4.268   5.636   1.953
 5334SOL    HW216902   4.345   5.665   1.812
 5335SOL     OW16903   0.142   4.307   1.258
 5335SOL    HW116904   0.190   4.288   1.344
 5335SOL    HW216905   0.188   4.261   1.183
 5336SOL     OW16906   1.521   3.689   3.904
 5336SOL    HW116907   1.478   3.770   3.941
 5336SOL    HW216908   1.477   3.607   3.941
 5337SOL     OW16909   6.543   4.655   0.926
 5337SOL    HW116910   6.643   4.654   0.931
 5337SOL    HW216911   6.515   4.663   0.830
 5338SOL     OW16912   6.973   3.575   0.979
 5338SOL    HW116913   6.915   3.592   1.059
 5338SOL    HW216914   0.023   3.642   0.978
 5339SOL     OW16915   5.361   3.345   2.986
 5339SOL    HW116916   5.437   3.281   2.980
 5339SOL    HW216917   5.277   3.295   3.010
 5340SOL     OW16918   6.050   2.648   2.258
 5340SOL    HW116919   5.989   2.696   2.195
 5340SOL    HW216920   6.037   2.685   2.350
 5341SOL     OW16921   3.887   5.357   4.115
 5341SOL    HW116922   3.796   5.380   4.079
 5341SOL    HW216923   3.956   5.409   4.064
 5342SOL     OW16924   6.195   6.975   4.385
 5342SOL    HW116925   6.274   0.009   4.392
 5342SOL    HW216926   6.205   6.915   4.306
 5343SOL     OW16927   3.588   3.750   6.899
 5343SOL    HW116928   3.624   3.678   6.958
 5343SOL    HW216929   3.565   3.830   6.954
 5344SOL     OW16930   1.512   1.583   6.413
 5344SOL    HW116931   1.602   1.626   6.413
 5344SOL    HW216932   1.522   1.485   6.396
 5345SOL     OW16933   4.997   2.152   0.367
 5345SOL    HW116934   5.037   2.243   0.381
 5345SOL    HW216935   5.005   2.099   0.451
 5346SOL     OW16936   3.101   6.058   3.893
 5346SOL    HW116937   3.045   6.085   3.815
 5346SOL    HW216938   3.042   6.025   3.967
 5347SOL     OW16939   5.982   1.518   3.853
 5347SOL    HW116940   6.027   1.455   3.916
 5347SOL    HW216941   5.902   1.474   3.814
 5348SOL     OW16942   5.685   2.211   2.782
 5348SOL    HW116943   5.611   2.174   2.726
 5348SOL    HW216944   5.679   2.173   2.875
 5349SOL     OW16945   0.478   3.944   2.344
 5349SOL    HW116946   0.441   3.942   2.436
 5349SOL    HW216947   0.565   3.994   2.344
 5350SOL     OW16948   1.384   6.636   0.188
 5350SOL    HW116949   1.402   6.662   0.283
 5350SOL    HW216950   1.462   6.585   0.152
 5351SOL     OW16951   6.774   6.558   2.427
 5351SOL    HW116952   6.768   6.516   2.337
 5351SOL    HW216953   6.753   6.490   2.498
 5352SOL     OW16954   1.295   3.384   5.120
 5352SOL    HW116955   1.277   3.287   5.136
 5352SOL    HW216956   1.349   3.421   5.196
 5353SOL     OW16957   3.670   5.411   3.634
 5353SOL    HW116958   3.721   5.497   3.622
 5353SOL    HW216959   3.726   5.335   3.601
 5354SOL     OW16960   4.534   5.629   0.422
 5354SOL    HW116961   4.536   5.559   0.493
 5354SOL    HW216962   4.528   5.586   0.332
 5355SOL     OW16963   5.004   4.407   5.122
 5355SOL    HW116964   5.069   4.335   5.145
 5355SOL    HW216965   5.024   4.442   5.030
 5356SOL     OW16966   0.563   5.225   1.224
 5356SOL    HW116967   0.534   5.268   1.138
 5356SOL    HW216968   0.663   5.227   1.230
 5357SOL     OW16969   5.702   3.016   2.453
 5357SOL    HW116970   5.723   3.111   2.477
 5357SOL    HW216971   5.604   3.000   2.460
 5358SOL     OW16972   4.406   2.354   0.169
 5358SOL    HW116973   4.326   2.369   0.227
 5358SOL    HW216974   4.475   2.304   0.221
 5359SOL     OW16975   3.462   2.352   6.973
 5359SOL    HW116976   3.434   2.256   6.966
 5359SOL    HW216977   3.476   2.388   6.881
 5360SOL     OW16978   5.396   4.352   3.048
 5360SOL    HW116979   5.366   4.417   2.978
 5360SOL    HW216980   5.318   4.323   3.103
 5361SOL     OW16981   2.102   5.288   2.323
 5361SOL    HW116982   2.147   5.227   2.389
 5361SOL    HW216983   2.161   5.367   2.305
 5362SOL     OW16984   5.631   0.657   1.678
 5362SOL    HW116985   5.693   0.587   1.641
 5362SOL    HW216986   5.662   0.684   1.769
 5363SOL     OW16987   5.802   5.589   3.190
 5363SOL    HW116988   5.871   5.637   3.245
 5363SOL    HW216989   5.823   5.600   3.093
 5364SOL     OW16990   4.793   1.086   2.285
 5364SOL    HW116991   4.700   1.073   2.319
 5364SOL    HW216992   4.800   1.173   2.237
 5365SOL     OW16993   3.465   2.899   3.734
 5365SOL    HW116994   3.488   2.898   3.637
 5365SOL    HW216995   3.547   2.921   3.788
 5366SOL     OW16996   6.465   6.325   2.777
 5366SOL    HW116997   6.463   6.395   2.848
 5366SOL    HW216998   6.431   6.364   2.691
 5367SOL     OW16999   6.502   6.052   1.432
 5367SOL    HW117000   6.407   6.022   1.427
 5367SOL    HW217001   6.541   6.053   1.340
 5368SOL     OW17002   6.402   6.003   3.888
 5368SOL    HW117003   6.472   6.048   3.833
 5368SOL    HW217004   6.414   6.027   3.984
 5369SOL     OW17005   2.785   5.442   2.613
 5369SOL    HW117006   2.745   5.530   2.586
 5369SOL    HW217007   2.829   5.399   2.534
 5370SOL     OW17008   1.450   3.599   0.812
 5370SOL    HW117009   1.445   3.627   0.716
 5370SOL    HW217010   1.362   3.613   0.856
 5371SOL     OW17011   5.623   5.617   4.660
 5371SOL    HW117012   5.660   5.561   4.734
 5371SOL    HW217013   5.534   5.581   4.631
 5372SOL     OW17014   1.108   0.107   3.161
 5372SOL    HW117015   1.129   0.203   3.148
 5372SOL    HW217016   1.184   0.051   3.127
 5373SOL     OW17017   3.706   1.336   6.689
 5373SOL    HW117018   3.693   1.300   6.782
 5373SOL    HW217019   3.619   1.332   6.640
 5374SOL     OW17020   1.712   4.601   2.295
 5374SOL    HW117021   1.691   4.698   2.289
 5374SOL    HW217022   1.790   4.580   2.237
 5375SOL     OW17023   1.573   4.232   4.414
 5375SOL    HW117024   1.532   4.171   4.481
 5375SOL    HW217025   1.672   4.236   4.429
 5376SOL     OW17026   0.493   0.165   6.248
 5376SOL    HW117027   0.575   0.124   6.287
 5376SOL    HW217028   0.412   0.130   6.297
 5377SOL     OW17029   2.002   0.741   3.428
 5377SOL    HW117030   1.999   0.768   3.332
 5377SOL    HW217031   2.059   0.805   3.479
 5378SOL     OW17032   4.930   0.909   2.136
 5378SOL    HW117033   4.865   0.973   2.177
 5378SOL    HW217034   4.957   0.944   2.046
 5379SOL     OW17035   1.639   1.865   6.139
 5379SOL    HW117036   1.633   1.885   6.237
 5379SOL    HW217037   1.547   1.860   6.100
 5380SOL     OW17038   4.237   6.449   1.415
 5380SOL    HW117039   4.181   6.519   1.460
 5380SOL    HW217040   4.257   6.477   1.321
 5381SOL     OW17041   4.386   6.887   3.678
 5381SOL    HW117042   4.415   6.979   3.705
 5381SOL    HW217043   4.462   6.823   3.690
 5382SOL     OW17044   4.073   1.539   1.404
 5382SOL    HW117045   4.141   1.587   1.349
 5382SOL    HW217046   4.075   1.572   1.498
 5383SOL     OW17047   2.039   2.641   4.544
 5383SOL    HW117048   1.997   2.702   4.611
 5383SOL    HW217049   2.004   2.548   4.556
 5384SOL     OW17050   5.482   5.327   4.204
 5384SOL    HW117051   5.505   5.412   4.252
 5384SOL    HW217052   5.395   5.291   4.238
 5385SOL     OW17053   3.850   2.757   5.938
 5385SOL    HW117054   3.800   2.843   5.927
 5385SOL    HW217055   3.804   2.685   5.886
 5386SOL     OW17056   5.754   4.490   4.168
 5386SOL    HW117057   5.660   4.457   4.160
 5386SOL    HW217058   5.805   4.430   4.229
 5387SOL     OW17059   1.898   1.044   3.439
 5387SOL    HW117060   1.984   1.023   3.393
 5387SOL    HW217061   1.841   1.100   3.379
 5388SOL     OW17062   0.679   6.521   2.058
 5388SOL    HW117063   0.755   6.584   2.043
 5388SOL    HW217064   0.593   6.571   2.056
 5389SOL     OW17065   4.552   1.842   4.080
 5389SOL    HW117066   4.605   1.805   4.004
 5389SOL    HW217067   4.468   1.789   4.092
 5390SOL     OW17068   0.396   2.986   2.679
 5390SOL    HW117069   0.319   2.922   2.675
 5390SOL    HW217070   0.373   3.063   2.739
 5391SOL     OW17071   2.887   3.657   0.314
 5391SOL    HW117072   2.883   3.559   0.333
 5391SOL    HW217073   2.972   3.695   0.349
 5392SOL     OW17074   5.476   1.915   3.776
 5392SOL    HW117075   5.461   1.847   3.848
 5392SOL    HW217076   5.428   1.999   3.800
 5393SOL     OW17077   4.718   1.760   5.107
 5393SOL    HW117078   4.812   1.739   5.135
 5393SOL    HW217079   4.720   1.826   5.032
 5394SOL     OW17080   1.790   2.275   1.011
 5394SOL    HW117081   1.717   2.304   1.073
 5394SOL    HW217082   1.830   2.190   1.044
 5395SOL     OW17083   6.383   1.970   0.561
 5395SOL    HW117084   6.461   1.911   0.580
 5395SOL    HW217085   6.414   2.050   0.509
 5396SOL     OW17086   5.228   4.373   1.137
 5396SOL    HW117087   5.270   4.458   1.105
 5396SOL    HW217088   5.164   4.393   1.211
 5397SOL     OW17089   0.530   1.332   2.517
 5397SOL    HW117090   0.465   1.406   2.499
 5397SOL    HW217091   0.607   1.367   2.571
 5398SOL     OW17092   5.515   1.364   2.492
 5398SOL    HW117093   5.531   1.440   2.556
 5398SOL    HW217094   5.602   1.321   2.471
 5399SOL     OW17095   2.167   1.229   6.971
 5399SOL    HW117096   2.127   1.155   7.024
 5399SOL    HW217097   2.133   1.317   7.005
 5400SOL     OW17098   4.628   3.672   1.709
 5400SOL    HW117099   4.551   3.731   1.682
 5400SOL    HW217100   4.714   3.720   1.692
 5401SOL     OW17101   5.726   2.965   1.152
 5401SOL    HW117102   5.632   2.932   1.144
 5401SOL    HW217103   5.729   3.045   1.212
 5402SOL     OW17104   1.130   6.519   1.983
 5402SOL    HW117105   1.066   6.596   1.979
 5402SOL    HW217106   1.219   6.551   2.014
 5403SOL     OW17107   4.628   3.239   0.108
 5403SOL    HW117108   4.593   3.158   0.061
 5403SOL    HW217109   4.601   3.236   0.205
 5404SOL     OW17110   6.240   1.100   0.382
 5404SOL    HW117111   6.198   1.070   0.297
 5404SOL    HW217112   6.297   1.027   0.420
 5405SOL     OW17113   6.598   5.383   0.067
 5405SOL    HW117114   6.582   5.408   0.163
 5405SOL    HW217115   6.565   5.290   0.051
 5406SOL     OW17116   2.474   0.919   5.663
 5406SOL    HW117117   2.564   0.884   5.638
 5406SOL    HW217118   2.483   0.977   5.745
 5407SOL     OW17119   2.364   0.036   2.842
 5407SOL    HW117120   2.349   0.135   2.848
 5407SOL    HW217121   2.429   0.008   2.912
 5408SOL     OW17122   3.575   1.671   3.962
 5408SOL    HW117123   3.574   1.586   3.909
 5408SOL    HW217124   3.485   1.714   3.957
 5409SOL     OW17125   0.535   2.628   1.721
 5409SOL    HW117126   0.438   2.650   1.714
 5409SOL    HW217127   0.587   2.688   1.660
 5410SOL     OW17128   0.998   2.704   0.939
 5410SOL    HW117129   0.926   2.649   0.980
 5410SOL    HW217130   1.060   2.646   0.886
 5411SOL     OW17131   3.264   5.401   0.072
 5411SOL    HW117132   3.229   5.373   7.009
 5411SOL    HW217133   3.215   5.354   0.144
 5412SOL     OW17134   0.355   1.953   6.040
 5412SOL    HW117135   0.343   2.045   6.004
 5412SOL    HW217136   0.266   1.907   6.048
 5413SOL     OW17137   6.461   6.091   4.489
 5413SOL    HW117138   6.533   6.108   4.556
 5413SOL    HW217139   6.401   6.019   4.522
 5414SOL     OW17140   5.415   4.111   5.685
 5414SOL    HW117141   5.393   4.015   5.668
 5414SOL    HW217142   5.372   4.141   5.770
 5415SOL     OW17143   4.527   0.877   0.277
 5415SOL    HW117144   4.492   0.915   0.362
 5415SOL    HW217145   4.556   0.952   0.217
 5416SOL     OW17146   3.524   5.812   6.112
 5416SOL    HW117147   3.529   5.785   6.208
 5416SOL    HW217148   3.434   5.849   6.092
 5417SOL     OW17149   4.023   6.753   4.334
 5417SOL    HW117150   3.968   6.779   4.255
 5417SOL    HW217151   4.086   6.680   4.309
 5418SOL     OW17152   6.817   3.280   4.360
 5418SOL    HW117153   6.840   3.209   4.428
 5418SOL    HW217154   6.819   3.370   4.404
 5419SOL     OW17155   5.051   7.013   6.091
 5419SOL    HW117156   4.986   6.976   6.024
 5419SOL    HW217157   5.035   6.970   6.180
 5420SOL     OW17158   0.931   1.102   1.948
 5420SOL    HW117159   0.971   1.041   2.017
 5420SOL    HW217160   0.887   1.180   1.993
 5421SOL     OW17161   4.061   4.729   2.007
 5421SOL    HW117162   4.153   4.757   2.035
 5421SOL    HW217163   3.997   4.747   2.082
 5422SOL     OW17164   3.032   5.205   3.699
 5422SOL    HW117165   2.972   5.129   3.723
 5422SOL    HW217166   3.072   5.244   3.782
 5423SOL     OW17167   5.425   6.067   1.594
 5423SOL    HW117168   5.340   6.016   1.607
 5423SOL    HW217169   5.461   6.049   1.503
 5424SOL     OW17170   4.296   4.228   5.622
 5424SOL    HW117171   4.232   4.162   5.661
 5424SOL    HW217172   4.266   4.254   5.530
 5425SOL     OW17173   1.496   4.546   5.498
 5425SOL    HW117174   1.555   4.507   5.569
 5425SOL    HW217175   1.493   4.485   5.419
 5426SOL     OW17176   5.977   5.428   1.147
 5426SOL    HW117177   6.031   5.350   1.177
 5426SOL    HW217178   5.988   5.503   1.212
 5427SOL     OW17179   4.525   1.988   6.299
 5427SOL    HW117180   4.522   1.948   6.208
 5427SOL    HW217181   4.617   2.022   6.319
 5428SOL     OW17182   5.991   5.889   2.524
 5428SOL    HW117183   6.051   5.855   2.452
 5428SOL    HW217184   5.926   5.818   2.552
 5429SOL     OW17185   3.784   0.344   4.538
 5429SOL    HW117186   3.724   0.413   4.497
 5429SOL    HW217187   3.870   0.387   4.566
 5430SOL     OW17188   2.511   3.787   5.648
 5430SOL    HW117189   2.488   3.690   5.643
 5430SOL    HW217190   2.572   3.811   5.572
 5431SOL     OW17191   3.365   4.284   0.043
 5431SOL    HW117192   3.459   4.282   0.077
 5431SOL    HW217193   3.337   4.192   0.017
 5432SOL     OW17194   7.018   5.316   6.966
 5432SOL    HW117195   0.026   5.389   0.000
 5432SOL    HW217196   6.926   5.337   6.935
 5433SOL     OW17197   1.964   0.550   1.481
 5433SOL    HW117198   1.873   0.520   1.453
 5433SOL    HW217199   2.032   0.512   1.418
 5434SOL     OW17200   5.318   0.535   5.046
 5434SOL    HW117201   5.259   0.532   5.127
 5434SOL    HW217202   5.406   0.576   5.071
 5435SOL     OW17203   6.832   4.494   0.722
 5435SOL    HW117204   6.832   4.544   0.808
 5435SOL    HW217205   6.889   4.542   0.656
 5436SOL     OW17206   1.282   4.485   2.926
 5436SOL    HW117207   1.282   4.450   2.833
 5436SOL    HW217208   1.311   4.581   2.926
 5437SOL     OW17209   3.814   5.463   1.558
 5437SOL    HW117210   3.721   5.489   1.530
 5437SOL    HW217211   3.841   5.516   1.638
 5438SOL     OW17212   4.418   5.641   2.656
 5438SOL    HW117213   4.455   5.640   2.563
 5438SOL    HW217214   4.493   5.656   2.721
 5439SOL     OW17215   1.000   4.581   2.093
 5439SOL    HW117216   1.079   4.642   2.088
 5439SOL    HW217217   0.998   4.535   2.182
 5440SOL     OW17218   6.283   6.770   3.706
 5440SOL    HW117219   6.192   6.800   3.737
 5440SOL    HW217220   6.291   6.671   3.719
 5441SOL     OW17221   6.345   3.305   4.206
 5441SOL    HW117222   6.400   3.304   4.290
 5441SOL    HW217223   6.400   3.269   4.131
 5442SOL     OW17224   4.139   6.976   5.836
 5442SOL    HW117225   4.075   6.903   5.859
 5442SOL    HW217226   4.227   6.957   5.879
 5443SOL     OW17227   4.721   1.054   3.836
 5443SOL    HW117228   4.815   1.071   3.807
 5443SOL    HW217229   4.669   1.139   3.836
 5444SOL     OW17230   6.314   1.328   4.615
 5444SOL    HW117231   6.317   1.237   4.656
 5444SOL    HW217232   6.228   1.374   4.640
 5445SOL     OW17233   5.678   5.779   4.462
 5445SOL    HW117234   5.674   5.875   4.489
 5445SOL    HW217235   5.673   5.722   4.543
 5446SOL     OW17236   7.004   4.164   6.354
 5446SOL    HW117237   6.943   4.231   6.397
 5446SOL    HW217238   0.069   4.170   6.395
 5447SOL     OW17239   1.061   2.207   1.095
 5447SOL    HW117240   1.101   2.120   1.064
 5447SOL    HW217241   1.134   2.266   1.130
 5448SOL     OW17242   4.283   5.042   3.041
 5448SOL    HW117243   4.337   5.034   3.125
 5448SOL    HW217244   4.303   4.965   2.981
 5449SOL     OW17245   3.301   1.443   2.006
 5449SOL    HW117246   3.250   1.519   2.046
 5449SOL    HW217247   3.254   1.411   1.924
 5450SOL     OW17248   4.089   5.863   1.881
 5450SOL    HW117249   4.089   5.955   1.841
 5450SOL    HW217250   4.153   5.805   1.831
 5451SOL     OW17251   0.028   6.901   2.851
 5451SOL    HW117252   7.016   6.880   2.761
 5451SOL    HW217253   7.012   6.985   2.887
 5452SOL     OW17254   2.407   4.350   1.702
 5452SOL    HW117255   2.311   4.338   1.727
 5452SOL    HW217256   2.442   4.434   1.744
 5453SOL     OW17257   6.038   3.856   2.851
 5453SOL    HW117258   5.980   3.908   2.914
 5453SOL    HW217259   6.052   3.764   2.887
 5454SOL     OW17260   5.467   4.721   2.158
 5454SOL    HW117261   5.481   4.772   2.073
 5454SOL    HW217262   5.431   4.630   2.137
 5455SOL     OW17263   1.489   2.066   4.107
 5455SOL    HW117264   1.585   2.083   4.082
 5455SOL    HW217265   1.446   2.010   4.037
 5456SOL     OW17266   5.348   1.508   0.996
 5456SOL    HW117267   5.368   1.556   0.911
 5456SOL    HW217268   5.316   1.415   0.974
 5457SOL     OW17269   5.412   1.571   6.754
 5457SOL    HW117270   5.368   1.648   6.801
 5457SOL    HW217271   5.379   1.485   6.793
 5458SOL     OW17272   6.164   3.506   0.047
 5458SOL    HW117273   6.152   3.421   0.100
 5458SOL    HW217274   6.109   3.578   0.088
 5459SOL     OW17275   1.650   3.434   5.476
 5459SOL    HW117276   1.717   3.420   5.402
 5459SOL    HW217277   1.694   3.420   5.564
 5460SOL     OW17278   1.210   1.038   1.168
 5460SOL    HW117279   1.297   1.070   1.131
 5460SOL    HW217280   1.136   1.059   1.104
 5461SOL     OW17281   6.558   1.336   5.150
 5461SOL    HW117282   6.537   1.389   5.068
 5461SOL    HW217283   6.656   1.341   5.168
 5462SOL     OW17284   4.790   4.146   6.436
 5462SOL    HW117285   4.719   4.205   6.474
 5462SOL    HW217286   4.832   4.190   6.357
 5463SOL     OW17287   1.570   2.800   0.040
 5463SOL    HW117288   1.530   2.890   0.054
 5463SOL    HW217289   1.615   2.770   0.124
 5464SOL     OW17290   0.624   6.086   6.016
 5464SOL    HW117291   0.714   6.057   5.982
 5464SOL    HW217292   0.625   6.089   6.116
 5465SOL     OW17293   6.336   6.473   3.761
 5465SOL    HW117294   6.252   6.440   3.803
 5465SOL    HW217295   6.349   6.428   3.672
 5466SOL     OW17296   5.899   2.405   4.725
 5466SOL    HW117297   5.883   2.309   4.745
 5466SOL    HW217298   5.995   2.419   4.700
 5467SOL     OW17299   4.665   2.718   4.337
 5467SOL    HW117300   4.613   2.638   4.367
 5467SOL    HW217301   4.704   2.764   4.417
 5468SOL     OW17302   6.849   1.493   1.155
 5468SOL    HW117303   6.808   1.418   1.103
 5468SOL    HW217304   6.925   1.458   1.210
 5469SOL     OW17305   3.183   0.212   5.070
 5469SOL    HW117306   3.167   0.117   5.040
 5469SOL    HW217307   3.175   0.216   5.169
 5470SOL     OW17308   3.533   5.306   3.358
 5470SOL    HW117309   3.631   5.327   3.352
 5470SOL    HW217310   3.500   5.333   3.449
 5471SOL     OW17311   4.589   0.877   3.336
 5471SOL    HW117312   4.573   0.955   3.275
 5471SOL    HW217313   4.685   0.876   3.365
 5472SOL     OW17314   2.616   2.301   6.730
 5472SOL    HW117315   2.594   2.276   6.636
 5472SOL    HW217316   2.711   2.277   6.751
 5473SOL     OW17317   2.709   4.368   1.695
 5473SOL    HW117318   2.625   4.402   1.737
 5473SOL    HW217319   2.788   4.416   1.733
 5474SOL     OW17320   1.066   5.371   3.234
 5474SOL    HW117321   1.002   5.311   3.186
 5474SOL    HW217322   1.099   5.325   3.316
 5475SOL     OW17323   6.878   1.618   5.420
 5475SOL    HW117324   6.934   1.642   5.499
 5475SOL    HW217325   6.932   1.630   5.336
 5476SOL     OW17326   2.867   6.469   5.920
 5476SOL    HW117327   2.805   6.511   5.853
 5476SOL    HW217328   2.815   6.409   5.981
 5477SOL     OW17329   1.715   4.522   4.388
 5477SOL    HW117330   1.676   4.476   4.468
 5477SOL    HW217331   1.710   4.621   4.400
 5478SOL     OW17332   5.595   4.294   5.432
 5478SOL    HW117333   5.666   4.237   5.390
 5478SOL    HW217334   5.620   4.315   5.527
 5479SOL     OW17335   3.702   1.388   4.690
 5479SOL    HW117336   3.673   1.306   4.738
 5479SOL    HW217337   3.710   1.464   4.755
 5480SOL     OW17338   0.152   3.943   3.919
 5480SOL    HW117339   0.095   3.901   3.990
 5480SOL    HW217340   0.240   3.895   3.914
 5481SOL     OW17341   4.140   0.642   6.536
 5481SOL    HW117342   4.237   0.667   6.536
 5481SOL    HW217343   4.129   0.552   6.578
 5482SOL     OW17344   5.105   3.187   0.904
 5482SOL    HW117345   5.025   3.128   0.899
 5482SOL    HW217346   5.143   3.183   0.996
 5483SOL     OW17347   0.303   3.230   5.494
 5483SOL    HW117348   0.335   3.325   5.501
 5483SOL    HW217349   0.382   3.170   5.479
 5484SOL     OW17350   5.805   5.951   4.044
 5484SOL    HW117351   5.866   5.919   3.972
 5484SOL    HW217352   5.730   6.004   4.003
 5485SOL     OW17353   2.957   6.810   5.828
 5485SOL    HW117354   2.949   6.776   5.734
 5485SOL    HW217355   2.883   6.875   5.847
 5486SOL     OW17356   0.460   0.846   3.441
 5486SOL    HW117357   0.478   0.749   3.424
 5486SOL    HW217358   0.546   0.893   3.462
 5487SOL     OW17359   5.647   4.964   0.247
 5487SOL    HW117360   5.698   4.886   0.282
 5487SOL    HW217361   5.566   4.979   0.304
 5488SOL     OW17362   5.181   1.426   6.395
 5488SOL    HW117363   5.240   1.490   6.444
 5488SOL    HW217364   5.170   1.456   6.301
 5489SOL     OW17365   1.333   4.204   3.033
 5489SOL    HW117366   1.288   4.285   2.994
 5489SOL    HW217367   1.294   4.122   2.991
 5490SOL     OW17368   1.967   1.494   0.958
 5490SOL    HW117369   1.951   1.562   0.887
 5490SOL    HW217370   2.003   1.539   1.040
 5491SOL     OW17371   0.859   4.805   0.802
 5491SOL    HW117372   0.834   4.888   0.753
 5491SOL    HW217373   0.878   4.827   0.898
 5492SOL     OW17374   0.927   1.240   6.598
 5492SOL    HW117375   1.006   1.275   6.547
 5492SOL    HW217376   0.843   1.265   6.550
 5493SOL     OW17377   3.913   3.724   7.013
 5493SOL    HW117378   3.829   3.673   7.003
 5493SOL    HW217379   3.981   3.690   6.947
 5494SOL     OW17380   5.795   2.714   1.592
 5494SOL    HW117381   5.778   2.656   1.671
 5494SOL    HW217382   5.799   2.810   1.620
 5495SOL     OW17383   3.883   3.475   2.753
 5495SOL    HW117384   3.942   3.534   2.808
 5495SOL    HW217385   3.923   3.384   2.746
 5496SOL     OW17386   3.882   6.068   1.482
 5496SOL    HW117387   3.909   6.124   1.403
 5496SOL    HW217388   3.796   6.102   1.518
 5497SOL     OW17389   6.449   0.636   1.769
 5497SOL    HW117390   6.435   0.729   1.735
 5497SOL    HW217391   6.361   0.599   1.801
 5498SOL     OW17392   4.360   1.230   5.457
 5498SOL    HW117393   4.292   1.164   5.425
 5498SOL    HW217394   4.452   1.193   5.443
 5499SOL     OW17395   0.017   1.397   2.871
 5499SOL    HW117396   0.004   1.493   2.847
 5499SOL    HW217397   6.965   1.365   2.925
 5500SOL     OW17398   2.240   5.814   1.366
 5500SOL    HW117399   2.243   5.719   1.335
 5500SOL    HW217400   2.303   5.869   1.310
 5501SOL     OW17401   3.215   0.503   2.137
 5501SOL    HW117402   3.153   0.569   2.179
 5501SOL    HW217403   3.306   0.513   2.178
 5502SOL     OW17404   5.715   3.926   5.571
 5502SOL    HW117405   5.793   3.898   5.627
 5502SOL    HW217406   5.660   3.846   5.547
 5503SOL     OW17407   1.399   5.152   3.318
 5503SOL    HW117408   1.456   5.088   3.369
 5503SOL    HW217409   1.450   5.186   3.239
 5504SOL     OW17410   3.285   1.855   5.226
 5504SOL    HW117411   3.313   1.927   5.163
 5504SOL    HW217412   3.242   1.781   5.175
 5505SOL     OW17413   2.990   5.434   5.954
 5505SOL    HW117414   2.977   5.451   5.857
 5505SOL    HW217415   2.926   5.490   6.007
 5506SOL     OW17416   6.202   0.457   5.859
 5506SOL    HW117417   6.168   0.412   5.776
 5506SOL    HW217418   6.145   0.536   5.880
 5507SOL     OW17419   2.272   6.237   4.075
 5507SOL    HW117420   2.212   6.267   4.149
 5507SOL    HW217421   2.258   6.296   3.995
 5508SOL     OW17422   3.281   0.609   6.504
 5508SOL    HW117423   3.219   0.686   6.519
 5508SOL    HW217424   3.335   0.593   6.586
 5509SOL     OW17425   5.994   6.788   6.603
 5509SOL    HW117426   5.902   6.822   6.621
 5509SOL    HW217427   6.051   6.862   6.566
 5510SOL     OW17428   5.480   0.558   6.035
 5510SOL    HW117429   5.556   0.580   5.974
 5510SOL    HW217430   5.396   0.599   6.001
 5511SOL     OW17431   0.844   0.929   2.334
 5511SOL    HW117432   0.751   0.910   2.301
 5511SOL    HW217433   0.853   0.897   2.428
 5512SOL     OW17434   0.978   0.411   6.863
 5512SOL    HW117435   0.982   0.348   6.941
 5512SOL    HW217436   1.009   0.501   6.892
 5513SOL     OW17437   4.702   4.147   4.557
 5513SOL    HW117438   4.646   4.066   4.538
 5513SOL    HW217439   4.786   4.143   4.503
 5514SOL     OW17440   5.125   4.586   2.203
 5514SOL    HW117441   5.166   4.655   2.262
 5514SOL    HW217442   5.196   4.524   2.169
 5515SOL     OW17443   6.661   2.359   1.812
 5515SOL    HW117444   6.603   2.433   1.846
 5515SOL    HW217445   6.713   2.320   1.888
 5516SOL     OW17446   0.975   3.996   6.515
 5516SOL    HW117447   0.996   3.922   6.451
 5516SOL    HW217448   1.054   4.014   6.573
 5517SOL     OW17449   2.534   1.806   1.885
 5517SOL    HW117450   2.497   1.899   1.872
 5517SOL    HW217451   2.629   1.804   1.856
 5518SOL     OW17452   6.258   5.099   5.227
 5518SOL    HW117453   6.298   5.034   5.291
 5518SOL    HW217454   6.286   5.076   5.134
 5519SOL     OW17455   5.367   3.800   3.722
 5519SOL    HW117456   5.303   3.849   3.781
 5519SOL    HW217457   5.354   3.829   3.627
 5520SOL     OW17458   1.134   4.058   1.684
 5520SOL    HW117459   1.137   4.142   1.630
 5520SOL    HW217460   1.209   4.059   1.751
 5521SOL     OW17461   5.869   5.252   1.474
 5521SOL    HW117462   5.963   5.218   1.466
 5521SOL    HW217463   5.867   5.350   1.455
 5522SOL     OW17464   2.570   3.422   1.671
 5522SOL    HW117465   2.621   3.505   1.651
 5522SOL    HW217466   2.512   3.437   1.751
 5523SOL     OW17467   3.232   0.386   2.561
 5523SOL    HW117468   3.178   0.355   2.483
 5523SOL    HW217469   3.328   0.360   2.548
 5524SOL     OW17470   0.093   4.748   5.981
 5524SOL    HW117471   0.058   4.814   5.915
 5524SOL    HW217472   0.030   4.742   6.058
 5525SOL     OW17473   6.557   5.639   5.479
 5525SOL    HW117474   6.552   5.675   5.573
 5525SOL    HW217475   6.602   5.707   5.421
 5526SOL     OW17476   6.756   3.286   4.096
 5526SOL    HW117477   6.699   3.361   4.062
 5526SOL    HW217478   6.770   3.297   4.194
 5527SOL     OW17479   1.517   3.131   1.463
 5527SOL    HW117480   1.515   3.042   1.415
 5527SOL    HW217481   1.434   3.182   1.441
 5528SOL     OW17482   0.429   3.420   4.208
 5528SOL    HW117483   0.418   3.421   4.307
 5528SOL    HW217484   0.360   3.479   4.166
 5529SOL     OW17485   2.801   1.616   4.732
 5529SOL    HW117486   2.879   1.661   4.688
 5529SOL    HW217487   2.744   1.573   4.661
 5530SOL     OW17488   0.864   2.416   0.295
 5530SOL    HW117489   0.859   2.317   0.310
 5530SOL    HW217490   0.914   2.434   0.211
 5531SOL     OW17491   3.497   2.808   5.817
 5531SOL    HW117492   3.515   2.761   5.730
 5531SOL    HW217493   3.525   2.904   5.809
 5532SOL     OW17494   2.454   1.315   0.974
 5532SOL    HW117495   2.469   1.399   0.921
 5532SOL    HW217496   2.452   1.336   1.071
 5533SOL     OW17497   3.651   1.101   2.013
 5533SOL    HW117498   3.625   1.090   1.917
 5533SOL    HW217499   3.600   1.037   2.069
 5534SOL     OW17500   0.242   3.946   6.710
 5534SOL    HW117501   0.160   3.892   6.731
 5534SOL    HW217502   0.218   4.043   6.709
 5535SOL     OW17503   6.647   2.981   2.365
 5535SOL    HW117504   6.571   2.933   2.321
 5535SOL    HW217505   6.657   3.072   2.324
 5536SOL     OW17506   2.628   1.172   4.035
 5536SOL    HW117507   2.543   1.221   4.014
 5536SOL    HW217508   2.606   1.082   4.072
 5537SOL     OW17509   4.343   0.011   5.042
 5537SOL    HW117510   4.277   0.003   4.967
 5537SOL    HW217511   4.374   6.946   5.069
 5538SOL     OW17512   4.163   1.503   6.928
 5538SOL    HW117513   4.246   1.470   6.973
 5538SOL    HW217514   4.104   1.425   6.907
 5539SOL     OW17515   2.590   6.979   2.123
 5539SOL    HW117516   2.592   6.956   2.221
 5539SOL    HW217517   2.682   7.005   2.093
 5540SOL     OW17518   5.081   2.056   6.766
 5540SOL    HW117519   5.078   1.986   6.695
 5540SOL    HW217520   4.990   2.067   6.806
 5541SOL     OW17521   4.587   3.828   6.516
 5541SOL    HW117522   4.538   3.846   6.602
 5541SOL    HW217523   4.646   3.905   6.495
 5542SOL     OW17524   5.636   4.046   6.226
 5542SOL    HW117525   5.622   4.090   6.314
 5542SOL    HW217526   5.725   4.073   6.189
 5543SOL     OW17527   1.627   0.300   1.346
 5543SOL    HW117528   1.578   0.356   1.279
 5543SOL    HW217529   1.583   0.211   1.355
 5544SOL     OW17530   4.628   4.829   6.022
 5544SOL    HW117531   4.538   4.792   6.000
 5544SOL    HW217532   4.687   4.823   5.941
 5545SOL     OW17533   4.382   0.713   3.062
 5545SOL    HW117534   4.375   0.722   3.161
 5545SOL    HW217535   4.290   0.714   3.022
 5546SOL     OW17536   0.192   6.602   5.644
 5546SOL    HW117537   0.115   6.665   5.631
 5546SOL    HW217538   0.267   6.628   5.584
 5547SOL     OW17539   5.343   1.384   5.922
 5547SOL    HW117540   5.408   1.361   5.994
 5547SOL    HW217541   5.327   1.304   5.864
 5548SOL     OW17542   6.961   4.148   5.152
 5548SOL    HW117543   6.871   4.119   5.182
 5548SOL    HW217544   7.023   4.150   5.230
 5549SOL     OW17545   4.123   3.730   1.999
 5549SOL    HW117546   4.166   3.664   1.937
 5549SOL    HW217547   4.128   3.696   2.093
 5550SOL     OW17548   1.831   4.546   3.292
 5550SOL    HW117549   1.899   4.474   3.298
 5550SOL    HW217550   1.816   4.586   3.382
 5551SOL     OW17551   2.254   5.337   3.558
 5551SOL    HW117552   2.174   5.276   3.557
 5551SOL    HW217553   2.228   5.427   3.525
 5552SOL     OW17554   6.937   6.963   6.133
 5552SOL    HW117555   6.970   6.961   6.227
 5552SOL    HW217556   6.911   6.870   6.105
 5553SOL     OW17557   4.671   0.544   6.683
 5553SOL    HW117558   4.658   0.562   6.586
 5553SOL    HW217559   4.740   0.473   6.696
 5554SOL     OW17560   5.839   3.047   0.719
 5554SOL    HW117561   5.916   2.991   0.750
 5554SOL    HW217562   5.868   3.102   0.641
 5555SOL     OW17563   1.096   3.976   2.481
 5555SOL    HW117564   1.131   4.011   2.567
 5555SOL    HW217565   1.063   4.052   2.425
 5556SOL     OW17566   6.782   1.154   3.995
 5556SOL    HW117567   6.744   1.186   3.908
 5556SOL    HW217568   6.755   1.218   4.068
 5557SOL     OW17569   3.163   5.560   1.730
 5557SOL    HW117570   3.148   5.644   1.678
 5557SOL    HW217571   3.258   5.557   1.762
 5558SOL     OW17572   3.410   4.424   0.462
 5558SOL    HW117573   3.486   4.361   0.443
 5558SOL    HW217574   3.427   4.511   0.415
 5559SOL     OW17575   1.558   0.290   2.878
 5559SOL    HW117576   1.575   0.366   2.940
 5559SOL    HW217577   1.483   0.313   2.816
 5560SOL     OW17578   0.272   5.592   2.850
 5560SOL    HW117579   0.335   5.655   2.803
 5560SOL    HW217580   0.194   5.574   2.791
 5561SOL     OW17581   2.659   1.410   4.176
 5561SOL    HW117582   2.654   1.316   4.143
 5561SOL    HW217583   2.570   1.438   4.211
 5562SOL     OW17584   4.393   4.314   0.171
 5562SOL    HW117585   4.435   4.227   0.194
 5562SOL    HW217586   4.462   4.375   0.132
 5563SOL     OW17587   3.235   4.911   3.026
 5563SOL    HW117588   3.282   4.842   3.080
 5563SOL    HW217589   3.196   4.980   3.087
 5564SOL     OW17590   5.396   0.173   5.854
 5564SOL    HW117591   5.333   0.156   5.778
 5564SOL    HW217592   5.441   0.087   5.879
 5565SOL     OW17593   3.606   3.411   0.459
 5565SOL    HW117594   3.521   3.380   0.501
 5565SOL    HW217595   3.667   3.448   0.530
 5566SOL     OW17596   0.532   3.985   0.365
 5566SOL    HW117597   0.620   3.938   0.354
 5566SOL    HW217598   0.538   4.076   0.324
 5567SOL     OW17599   6.589   3.604   1.782
 5567SOL    HW117600   6.642   3.640   1.705
 5567SOL    HW217601   6.620   3.647   1.867
 5568SOL     OW17602   4.334   6.330   2.893
 5568SOL    HW117603   4.377   6.355   2.807
 5568SOL    HW217604   4.258   6.267   2.876
 5569SOL     OW17605   2.588   1.955   3.586
 5569SOL    HW117606   2.613   2.022   3.516
 5569SOL    HW217607   2.643   1.970   3.668
 5570SOL     OW17608   6.543   3.587   3.720
 5570SOL    HW117609   6.469   3.649   3.744
 5570SOL    HW217610   6.611   3.635   3.665
 5571SOL     OW17611   6.737   5.429   2.211
 5571SOL    HW117612   6.707   5.486   2.135
 5571SOL    HW217613   6.723   5.477   2.297
 5572SOL     OW17614   1.261   3.845   5.053
 5572SOL    HW117615   1.196   3.802   4.991
 5572SOL    HW217616   1.218   3.859   5.142
 5573SOL     OW17617   1.452   5.252   5.601
 5573SOL    HW117618   1.532   5.285   5.652
 5573SOL    HW217619   1.412   5.175   5.649
 5574SOL     OW17620   0.632   2.389   6.451
 5574SOL    HW117621   0.691   2.469   6.463
 5574SOL    HW217622   0.543   2.408   6.493
 5575SOL     OW17623   0.681   0.128   1.758
 5575SOL    HW117624   0.726   0.210   1.722
 5575SOL    HW217625   0.654   0.144   1.853
 5576SOL     OW17626   2.138   4.503   3.404
 5576SOL    HW117627   2.099   4.518   3.313
 5576SOL    HW217628   2.191   4.418   3.404
 5577SOL     OW17629   1.405   3.405   6.803
 5577SOL    HW117630   1.314   3.366   6.807
 5577SOL    HW217631   1.471   3.342   6.844
 5578SOL     OW17632   3.700   3.159   3.093
 5578SOL    HW117633   3.721   3.257   3.100
 5578SOL    HW217634   3.628   3.145   3.025
 5579SOL     OW17635   0.022   2.976   1.337
 5579SOL    HW117636   0.116   2.955   1.362
 5579SOL    HW217637   6.991   2.894   1.345
 5580SOL     OW17638   5.044   1.831   5.842
 5580SOL    HW117639   5.083   1.891   5.912
 5580SOL    HW217640   4.982   1.884   5.783
 5581SOL     OW17641   1.050   2.101   1.399
 5581SOL    HW117642   0.955   2.117   1.371
 5581SOL    HW217643   1.065   2.140   1.490
 5582SOL     OW17644   2.442   4.000   6.621
 5582SOL    HW117645   2.466   3.996   6.524
 5582SOL    HW217646   2.507   3.944   6.673
 5583SOL     OW17647   4.704   0.679   2.365
 5583SOL    HW117648   4.618   0.631   2.377
 5583SOL    HW217649   4.708   0.719   2.273
 5584SOL     OW17650   6.260   4.218   4.440
 5584SOL    HW117651   6.359   4.231   4.438
 5584SOL    HW217652   6.226   4.205   4.346
 5585SOL     OW17653   4.625   4.791   2.860
 5585SOL    HW117654   4.550   4.732   2.830
 5585SOL    HW217655   4.712   4.755   2.827
 5586SOL     OW17656   6.637   3.701   5.747
 5586SOL    HW117657   6.671   3.619   5.794
 5586SOL    HW217658   6.638   3.778   5.811
 5587SOL     OW17659   4.210   1.153   6.550
 5587SOL    HW117660   4.125   1.142   6.602
 5587SOL    HW217661   4.250   1.063   6.531
 5588SOL     OW17662   2.654   6.863   2.738
 5588SOL    HW117663   2.645   6.791   2.668
 5588SOL    HW217664   2.618   6.829   2.825
 5589SOL     OW17665   6.046   4.424   6.317
 5589SOL    HW117666   6.026   4.519   6.339
 5589SOL    HW217667   6.068   4.374   6.401
 5590SOL     OW17668   5.520   6.031   4.048
 5590SOL    HW117669   5.514   5.964   4.121
 5590SOL    HW217670   5.451   6.102   4.062
 5591SOL     OW17671   0.180   1.672   2.016
 5591SOL    HW117672   0.121   1.633   1.945
 5591SOL    HW217673   0.189   1.771   2.000
 5592SOL     OW17674   1.753   5.013   3.057
 5592SOL    HW117675   1.668   4.960   3.047
 5592SOL    HW217676   1.758   5.082   2.986
 5593SOL     OW17677   0.321   2.887   6.703
 5593SOL    HW117678   0.326   2.987   6.707
 5593SOL    HW217679   0.282   2.859   6.615
 5594SOL     OW17680   5.005   1.092   4.792
 5594SOL    HW117681   4.935   1.024   4.814
 5594SOL    HW217682   4.972   1.149   4.717
 5595SOL     OW17683   1.160   2.280   5.050
 5595SOL    HW117684   1.111   2.366   5.064
 5595SOL    HW217685   1.228   2.268   5.122
 5596SOL     OW17686   4.104   6.855   2.929
 5596SOL    HW117687   4.031   6.822   2.868
 5596SOL    HW217688   4.107   6.800   3.012
 5597SOL     OW17689   4.953   2.654   4.302
 5597SOL    HW117690   5.030   2.717   4.300
 5597SOL    HW217691   4.871   2.700   4.267
 5598SOL     OW17692   4.761   2.975   3.657
 5598SOL    HW117693   4.755   3.061   3.606
 5598SOL    HW217694   4.853   2.938   3.650
 5599SOL     OW17695   1.387   0.422   4.711
 5599SOL    HW117696   1.293   0.449   4.689
 5599SOL    HW217697   1.444   0.425   4.629
 5600SOL     OW17698   0.969   2.418   2.975
 5600SOL    HW117699   1.026   2.371   2.907
 5600SOL    HW217700   0.947   2.354   3.049
 5601SOL     OW17701   2.621   0.610   5.740
 5601SOL    HW117702   2.630   0.532   5.801
 5601SOL    HW217703   2.708   0.660   5.737
 5602SOL     OW17704   0.469   1.463   0.634
 5602SOL    HW117705   0.386   1.457   0.689
 5602SOL    HW217706   0.459   1.409   0.551
 5603SOL     OW17707   5.281   2.025   6.945
 5603SOL    HW117708   5.257   2.072   0.005
 5603SOL    HW217709   5.217   2.053   6.873
 5604SOL     OW17710   6.880   1.850   5.797
 5604SOL    HW117711   6.833   1.763   5.808
 5604SOL    HW217712   6.873   1.880   5.702
 5605SOL     OW17713   0.485   1.019   4.633
 5605SOL    HW117714   0.541   1.101   4.650
 5605SOL    HW217715   0.540   0.937   4.652
 5606SOL     OW17716   5.736   6.606   1.466
 5606SOL    HW117717   5.748   6.694   1.419
 5606SOL    HW217718   5.650   6.564   1.436
 5607SOL     OW17719   5.438   1.394   2.148
 5607SOL    HW117720   5.506   1.333   2.188
 5607SOL    HW217721   5.427   1.475   2.205
 5608SOL     OW17722   4.379   0.424   4.466
 5608SOL    HW117723   4.464   0.427   4.520
 5608SOL    HW217724   4.304   0.459   4.522
 5609SOL     OW17725   2.409   5.616   0.732
 5609SOL    HW117726   2.479   5.591   0.665
 5609SOL    HW217727   2.326   5.563   0.716
 5610SOL     OW17728   4.970   0.079   0.459
 5610SOL    HW117729   4.898   0.107   0.522
 5610SOL    HW217730   4.974   0.142   0.382
 5611SOL     OW17731   1.901   4.613   2.623
 5611SOL    HW117732   1.940   4.646   2.537
 5611SOL    HW217733   1.815   4.660   2.642
 5612SOL     OW17734   4.074   2.273   6.327
 5612SOL    HW117735   4.060   2.323   6.242
 5612SOL    HW217736   4.146   2.204   6.314
 5613SOL     OW17737   4.841   4.090   2.570
 5613SOL    HW117738   4.845   4.036   2.486
 5613SOL    HW217739   4.931   4.128   2.590
 5614SOL     OW17740   4.390   2.311   3.449
 5614SOL    HW117741   4.460   2.369   3.491
 5614SOL    HW217742   4.361   2.352   3.362
 5615SOL     OW17743   0.595   0.405   6.254
 5615SOL    HW117744   0.531   0.329   6.243
 5615SOL    HW217745   0.576   0.453   6.340
 5616SOL     OW17746   2.353   0.681   5.386
 5616SOL    HW117747   2.337   0.641   5.476
 5616SOL    HW217748   2.330   0.779   5.389
 5617SOL     OW17749   2.828   0.135   6.148
 5617SOL    HW117750   2.853   0.038   6.152
 5617SOL    HW217751   2.868   0.177   6.066
 5618SOL     OW17752   0.022   3.489   4.345
 5618SOL    HW117753   6.966   3.528   4.387
 5618SOL    HW217754   0.001   3.460   4.251
 5619SOL     OW17755   2.761   3.947   6.534
 5619SOL    HW117756   2.711   3.868   6.501
 5619SOL    HW217757   2.736   3.965   6.630
 5620SOL     OW17758   3.786   3.208   0.299
 5620SOL    HW117759   3.706   3.256   0.336
 5620SOL    HW217760   3.791   3.223   0.200
 5621SOL     OW17761   1.518   1.516   5.870
 5621SOL    HW117762   1.432   1.533   5.919
 5621SOL    HW217763   1.568   1.602   5.859
 5622SOL     OW17764   4.679   6.985   5.714
 5622SOL    HW117765   4.613   0.004   5.654
 5622SOL    HW217766   4.766   6.973   5.666
 5623SOL     OW17767   1.815   6.375   6.283
 5623SOL    HW117768   1.876   6.341   6.212
 5623SOL    HW217769   1.722   6.384   6.247
 5624SOL     OW17770   1.143   5.047   3.239
 5624SOL    HW117771   1.187   4.976   3.185
 5624SOL    HW217772   1.211   5.113   3.270
 5625SOL     OW17773   6.152   2.216   4.219
 5625SOL    HW117774   6.070   2.268   4.194
 5625SOL    HW217775   6.141   2.121   4.188
 5626SOL     OW17776   2.908   6.428   4.900
 5626SOL    HW117777   2.874   6.378   4.820
 5626SOL    HW217778   2.837   6.431   4.970
 5627SOL     OW17779   1.248   5.851   1.091
 5627SOL    HW117780   1.216   5.844   1.186
 5627SOL    HW217781   1.347   5.840   1.088
 5628SOL     OW17782   1.434   2.123   6.119
 5628SOL    HW117783   1.446   2.039   6.066
 5628SOL    HW217784   1.347   2.166   6.095
 5629SOL     OW17785   3.175   3.738   1.790
 5629SOL    HW117786   3.178   3.804   1.714
 5629SOL    HW217787   3.087   3.690   1.787
 5630SOL     OW17788   1.434   5.107   0.656
 5630SOL    HW117789   1.483   5.021   0.670
 5630SOL    HW217790   1.499   5.181   0.641
 5631SOL     OW17791   4.251   2.045   0.126
 5631SOL    HW117792   4.202   2.034   0.212
 5631SOL    HW217793   4.243   1.961   0.072
 5632SOL     OW17794   4.435   3.788   6.280
 5632SOL    HW117795   4.374   3.709   6.292
 5632SOL    HW217796   4.483   3.807   6.365
 5633SOL     OW17797   6.650   2.482   3.576
 5633SOL    HW117798   6.714   2.542   3.528
 5633SOL    HW217799   6.570   2.534   3.604
 5634SOL     OW17800   2.935   5.473   5.691
 5634SOL    HW117801   2.999   5.407   5.651
 5634SOL    HW217802   2.879   5.513   5.620
 5635SOL     OW17803   2.199   3.183   4.938
 5635SOL    HW117804   2.242   3.101   4.976
 5635SOL    HW217805   2.242   3.207   4.851
 5636SOL     OW17806   3.381   5.973   2.105
 5636SOL    HW117807   3.329   6.058   2.111
 5636SOL    HW217808   3.320   5.898   2.080
 5637SOL     OW17809   5.692   6.995   3.870
 5637SOL    HW117810   5.676   0.049   3.811
 5637SOL    HW217811   5.790   6.988   3.891
 5638SOL     OW17812   5.670   3.158   0.905
 5638SOL    HW117813   5.741   3.124   0.843
 5638SOL    HW217814   5.652   3.089   0.976
 5639SOL     OW17815   0.523   1.431   0.021
 5639SOL    HW117816   0.464   1.406   0.098
 5639SOL    HW217817   0.519   1.530   0.006
 5640SOL     OW17818   2.678   0.402   4.200
 5640SOL    HW117819   2.620   0.359   4.131
 5640SOL    HW217820   2.702   0.335   4.270
 5641SOL     OW17821   0.279   4.442   6.187
 5641SOL    HW117822   0.272   4.539   6.164
 5641SOL    HW217823   0.209   4.419   6.255
 5642SOL     OW17824   2.021   0.337   6.896
 5642SOL    HW117825   2.017   0.429   6.937
 5642SOL    HW217826   2.113   0.299   6.911
 5643SOL     OW17827   5.504   1.887   4.613
 5643SOL    HW117828   5.518   1.880   4.711
 5643SOL    HW217829   5.585   1.851   4.565
 5644SOL     OW17830   2.918   6.612   5.207
 5644SOL    HW117831   3.010   6.620   5.243
 5644SOL    HW217832   2.856   6.669   5.260
 5645SOL     OW17833   6.510   3.889   3.616
 5645SOL    HW117834   6.463   3.878   3.703
 5645SOL    HW217835   6.600   3.846   3.620
 5646SOL     OW17836   2.232   4.579   3.074
 5646SOL    HW117837   2.241   4.670   3.115
 5646SOL    HW217838   2.137   4.565   3.045
 5647SOL     OW17839   5.252   6.427   1.825
 5647SOL    HW117840   5.319   6.366   1.865
 5647SOL    HW217841   5.290   6.520   1.819
 5648SOL     OW17842   2.792   5.907   3.291
 5648SOL    HW117843   2.832   5.827   3.245
 5648SOL    HW217844   2.865   5.972   3.313
 5649SOL     OW17845   1.102   5.945   4.114
 5649SOL    HW117846   1.150   6.010   4.054
 5649SOL    HW217847   1.139   5.953   4.207
 5650SOL     OW17848   0.466   4.949   0.441
 5650SOL    HW117849   0.453   5.014   0.366
 5650SOL    HW217850   0.494   4.999   0.523
 5651SOL     OW17851   1.560   0.181   0.696
 5651SOL    HW117852   1.571   0.163   0.794
 5651SOL    HW217853   1.534   0.276   0.682
 5652SOL     OW17854   0.214   5.457   1.996
 5652SOL    HW117855   0.241   5.522   2.068
 5652SOL    HW217856   0.194   5.369   2.038
 5653SOL     OW17857   0.245   6.455   1.271
 5653SOL    HW117858   0.234   6.376   1.209
 5653SOL    HW217859   0.249   6.539   1.217
 5654SOL     OW17860   1.412   6.282   5.077
 5654SOL    HW117861   1.455   6.369   5.052
 5654SOL    HW217862   1.316   6.298   5.101
 5655SOL     OW17863   6.397   3.206   3.909
 5655SOL    HW117864   6.403   3.118   3.957
 5655SOL    HW217865   6.355   3.192   3.820
 5656SOL     OW17866   0.205   3.205   6.336
 5656SOL    HW117867   0.182   3.302   6.340
 5656SOL    HW217868   0.283   3.192   6.275
 5657SOL     OW17869   4.328   4.649   4.421
 5657SOL    HW117870   4.316   4.617   4.515
 5657SOL    HW217871   4.245   4.698   4.392
 5658SOL     OW17872   1.547   2.629   5.951
 5658SOL    HW117873   1.482   2.695   5.914
 5658SOL    HW217874   1.520   2.604   6.044
 5659SOL     OW17875   3.357   3.950   6.559
 5659SOL    HW117876   3.428   3.975   6.625
 5659SOL    HW217877   3.354   4.018   6.486
 5660SOL     OW17878   4.879   6.902   6.435
 5660SOL    HW117879   4.904   6.836   6.364
 5660SOL    HW217880   4.826   6.856   6.506
 5661SOL     OW17881   0.558   5.805   5.962
 5661SOL    HW117882   0.541   5.902   5.980
 5661SOL    HW217883   0.610   5.796   5.877
 5662SOL     OW17884   2.331   6.277   3.240
 5662SOL    HW117885   2.250   6.255   3.295
 5662SOL    HW217886   2.414   6.257   3.293
 5663SOL     OW17887   1.246   2.796   0.999
 5663SOL    HW117888   1.149   2.775   0.989
 5663SOL    HW217889   1.298   2.745   0.929
 5664SOL     OW17890   5.166   4.200   4.341
 5664SOL    HW117891   5.101   4.245   4.401
 5664SOL    HW217892   5.118   4.162   4.261
 5665SOL     OW17893   1.680   6.896   0.463
 5665SOL    HW117894   1.770   6.935   0.443
 5665SOL    HW217895   1.614   6.930   0.396
 5666SOL     OW17896   6.165   1.345   4.005
 5666SOL    HW117897   6.263   1.329   4.002
 5666SOL    HW217898   6.121   1.275   4.062
 5667SOL     OW17899   1.635   4.833   4.825
 5667SOL    HW117900   1.633   4.856   4.728
 5667SOL    HW217901   1.552   4.867   4.869
 5668SOL     OW17902   6.256   2.646   2.804
 5668SOL    HW117903   6.167   2.685   2.779
 5668SOL    HW217904   6.259   2.629   2.902
 5669SOL     OW17905   6.089   4.006   6.674
 5669SOL    HW117906   6.125   3.950   6.749
 5669SOL    HW217907   5.990   3.998   6.670
 5670SOL     OW17908   1.121   2.988   2.485
 5670SOL    HW117909   1.136   2.999   2.387
 5670SOL    HW217910   1.034   2.942   2.501
 5671SOL     OW17911   6.536   6.186   3.722
 5671SOL    HW117912   6.607   6.137   3.670
 5671SOL    HW217913   6.523   6.277   3.683
 5672SOL     OW17914   5.026   3.822   5.077
 5672SOL    HW117915   4.976   3.909   5.072
 5672SOL    HW217916   5.012   3.770   4.993
 5673SOL     OW17917   0.670   6.921   1.603
 5673SOL    HW117918   0.676   6.964   1.513
 5673SOL    HW217919   0.681   6.991   1.674
 5674SOL     OW17920   1.368   4.964   4.871
 5674SOL    HW117921   1.382   5.064   4.872
 5674SOL    HW217922   1.323   4.936   4.955
 5675SOL     OW17923   3.079   1.009   0.398
 5675SOL    HW117924   3.154   1.049   0.451
 5675SOL    HW217925   3.076   1.052   0.307
 5676SOL     OW17926   2.745   2.354   1.762
 5676SOL    HW117927   2.658   2.377   1.806
 5676SOL    HW217928   2.818   2.353   1.830
 5677SOL     OW17929   6.841   0.779   0.874
 5677SOL    HW117930   6.797   0.869   0.879
 5677SOL    HW217931   6.807   0.730   0.794
 5678SOL     OW17932   3.882   1.561   2.069
 5678SOL    HW117933   3.883   1.470   2.028
 5678SOL    HW217934   3.795   1.575   2.117
 5679SOL     OW17935   6.212   2.734   4.710
 5679SOL    HW117936   6.307   2.765   4.716
 5679SOL    HW217937   6.178   2.745   4.617
 5680SOL     OW17938   1.316   5.243   5.979
 5680SOL    HW117939   1.368   5.239   6.065
 5680SOL    HW217940   1.307   5.338   5.950
 5681SOL     OW17941   0.473   3.843   2.963
 5681SOL    HW117942   0.555   3.807   2.920
 5681SOL    HW217943   0.399   3.776   2.956
 5682SOL     OW17944   2.369   4.750   2.469
 5682SOL    HW117945   2.387   4.657   2.437
 5682SOL    HW217946   2.395   4.758   2.565
 5683SOL     OW17947   4.183   2.462   6.910
 5683SOL    HW117948   4.136   2.426   6.828
 5683SOL    HW217949   4.280   2.476   6.889
 5684SOL     OW17950   2.172   3.114   5.947
 5684SOL    HW117951   2.123   3.067   6.020
 5684SOL    HW217952   2.165   3.061   5.862
 5685SOL     OW17953   2.210   2.357   4.015
 5685SOL    HW117954   2.248   2.333   3.925
 5685SOL    HW217955   2.265   2.431   4.055
 5686SOL     OW17956   3.666   0.764   5.797
 5686SOL    HW117957   3.647   0.730   5.704
 5686SOL    HW217958   3.759   0.739   5.823
 5687SOL     OW17959   1.198   6.117   5.399
 5687SOL    HW117960   1.197   6.214   5.372
 5687SOL    HW217961   1.128   6.101   5.468
 5688SOL     OW17962   2.108   3.755   3.336
 5688SOL    HW117963   2.167   3.681   3.368
 5688SOL    HW217964   2.069   3.731   3.247
 5689SOL     OW17965   1.578   0.656   0.944
 5689SOL    HW117966   1.571   0.730   1.011
 5689SOL    HW217967   1.504   0.664   0.877
 5690SOL     OW17968   0.688   5.617   0.136
 5690SOL    HW117969   0.764   5.570   0.090
 5690SOL    HW217970   0.673   5.705   0.093
 5691SOL     OW17971   3.732   1.192   2.328
 5691SOL    HW117972   3.653   1.251   2.342
 5691SOL    HW217973   3.799   1.207   2.401
 5692SOL     OW17974   4.873   5.457   0.882
 5692SOL    HW117975   4.790   5.503   0.913
 5692SOL    HW217976   4.947   5.523   0.872
 5693SOL     OW17977   3.886   0.547   0.429
 5693SOL    HW117978   3.837   0.464   0.402
 5693SOL    HW217979   3.845   0.585   0.512
 5694SOL     OW17980   0.597   0.551   2.829
 5694SOL    HW117981   0.586   0.627   2.766
 5694SOL    HW217982   0.693   0.544   2.856
 5695SOL     OW17983   1.431   0.686   1.733
 5695SOL    HW117984   1.385   0.685   1.822
 5695SOL    HW217985   1.370   0.726   1.665
 5696SOL     OW17986   1.671   0.341   4.222
 5696SOL    HW117987   1.691   0.262   4.164
 5696SOL    HW217988   1.708   0.424   4.180
 5697SOL     OW17989   6.390   2.719   1.527
 5697SOL    HW117990   6.320   2.723   1.599
 5697SOL    HW217991   6.467   2.777   1.552
 5698SOL     OW17992   1.548   3.463   3.227
 5698SOL    HW117993   1.465   3.516   3.210
 5698SOL    HW217994   1.556   3.443   3.324
 5699SOL     OW17995   1.868   2.818   3.672
 5699SOL    HW117996   1.846   2.788   3.765
 5699SOL    HW217997   1.808   2.894   3.647
 5700SOL     OW17998   6.751   0.246   1.764
 5700SOL    HW117999   6.685   0.287   1.701
 5700SOL    HW218000   6.790   0.317   1.822
 5701SOL     OW18001   6.167   1.375   1.010
 5701SOL    HW118002   6.211   1.421   0.932
 5701SOL    HW218003   6.140   1.444   1.077
 5702SOL     OW18004   2.502   6.895   4.539
 5702SOL    HW118005   2.411   6.856   4.543
 5702SOL    HW218006   2.502   6.987   4.578
 5703SOL     OW18007   6.959   3.632   6.283
 5703SOL    HW118008   0.022   3.586   6.279
 5703SOL    HW218009   6.973   3.731   6.273
 5704SOL     OW18010   5.235   3.877   3.492
 5704SOL    HW118011   5.220   3.849   3.398
 5704SOL    HW218012   5.150   3.866   3.544
 5705SOL     OW18013   6.025   6.444   5.940
 5705SOL    HW118014   6.041   6.517   6.007
 5705SOL    HW218015   6.041   6.355   5.983
 5706SOL     OW18016   5.848   2.402   0.296
 5706SOL    HW118017   5.863   2.315   0.248
 5706SOL    HW218018   5.790   2.461   0.239
 5707SOL     OW18019   5.047   6.783   1.816
 5707SOL    HW118020   5.017   6.714   1.751
 5707SOL    HW218021   5.066   6.869   1.769
 5708SOL     OW18022   4.610   5.409   3.527
 5708SOL    HW118023   4.618   5.379   3.622
 5708SOL    HW218024   4.623   5.332   3.465
 5709SOL     OW18025   1.214   0.942   1.839
 5709SOL    HW118026   1.212   1.016   1.907
 5709SOL    HW218027   1.205   0.854   1.886
 5710SOL     OW18028   2.755   2.559   0.861
 5710SOL    HW118029   2.845   2.540   0.900
 5710SOL    HW218030   2.755   2.650   0.820
 5711SOL     OW18031   5.216   0.678   1.562
 5711SOL    HW118032   5.222   0.756   1.624
 5711SOL    HW218033   5.167   0.705   1.479
 5712SOL     OW18034   6.992   6.228   1.019
 5712SOL    HW118035   6.975   6.175   0.936
 5712SOL    HW218036   6.995   6.166   1.098
 5713SOL     OW18037   2.716   5.785   0.693
 5713SOL    HW118038   2.663   5.869   0.686
 5713SOL    HW218039   2.704   5.745   0.783
 5714SOL     OW18040   5.868   5.919   1.266
 5714SOL    HW118041   5.820   5.843   1.223
 5714SOL    HW218042   5.890   5.895   1.361
 5715SOL     OW18043   1.299   0.043   0.801
 5715SOL    HW118044   1.332   0.087   0.884
 5715SOL    HW218045   1.354   0.075   0.723
 5716SOL     OW18046   0.889   4.705   5.977
 5716SOL    HW118047   0.836   4.622   5.997
 5716SOL    HW218048   0.955   4.720   6.051
 5717SOL     OW18049   2.309   4.839   2.906
 5717SOL    HW118050   2.285   4.774   2.833
 5717SOL    HW218051   2.275   4.805   2.994
 5718SOL     OW18052   1.084   2.847   0.517
 5718SOL    HW118053   1.020   2.897   0.575
 5718SOL    HW218054   1.161   2.906   0.493
 5719SOL     OW18055   2.746   3.486   1.312
 5719SOL    HW118056   2.701   3.430   1.242
 5719SOL    HW218057   2.786   3.426   1.381
 5720SOL     OW18058   2.320   5.447   6.019
 5720SOL    HW118059   2.252   5.379   6.049
 5720SOL    HW218060   2.273   5.529   5.987
 5721SOL     OW18061   5.212   4.129   6.689
 5721SOL    HW118062   5.299   4.082   6.679
 5721SOL    HW218063   5.145   4.090   6.625
 5722SOL     OW18064   0.870   0.880   5.303
 5722SOL    HW118065   0.919   0.843   5.381
 5722SOL    HW218066   0.771   0.871   5.318
 5723SOL     OW18067   4.307   3.659   0.238
 5723SOL    HW118068   4.218   3.640   0.280
 5723SOL    HW218069   4.351   3.573   0.212
 5724SOL     OW18070   5.768   2.223   3.267
 5724SOL    HW118071   5.818   2.304   3.298
 5724SOL    HW218072   5.678   2.250   3.233
 5725SOL     OW18073   5.703   5.147   2.995
 5725SOL    HW118074   5.725   5.190   2.907
 5725SOL    HW218075   5.725   5.049   2.990
 5726SOL     OW18076   4.902   3.771   3.292
 5726SOL    HW118077   4.943   3.861   3.282
 5726SOL    HW218078   4.898   3.747   3.389
 5727SOL     OW18079   1.343   2.403   4.724
 5727SOL    HW118080   1.404   2.459   4.668
 5727SOL    HW218081   1.250   2.439   4.719
 5728SOL     OW18082   4.790   5.685   5.267
 5728SOL    HW118083   4.838   5.613   5.318
 5728SOL    HW218084   4.729   5.734   5.329
 5729SOL     OW18085   2.345   1.866   5.997
 5729SOL    HW118086   2.376   1.771   6.008
 5729SOL    HW218087   2.370   1.919   6.078
 5730SOL     OW18088   0.060   4.310   6.062
 5730SOL    HW118089   0.112   4.225   6.077
 5730SOL    HW218090   0.116   4.376   6.013
 5731SOL     OW18091   0.132   6.388   1.502
 5731SOL    HW118092   0.165   6.395   1.408
 5731SOL    HW218093   0.206   6.409   1.566
 5732SOL     OW18094   0.886   6.509   4.340
 5732SOL    HW118095   0.888   6.536   4.243
 5732SOL    HW218096   0.914   6.414   4.348
 5733SOL     OW18097   3.641   0.016   5.184
 5733SOL    HW118098   3.576   7.003   5.249
 5733SOL    HW218099   3.620   7.009   5.092
 5734SOL     OW18100   1.462   6.094   3.626
 5734SOL    HW118101   1.404   6.119   3.548
 5734SOL    HW218102   1.521   6.172   3.649
 5735SOL     OW18103   3.437   1.174   1.816
 5735SOL    HW118104   3.358   1.228   1.788
 5735SOL    HW218105   3.520   1.215   1.780
 5736SOL     OW18106   0.932   5.559   6.755
 5736SOL    HW118107   0.856   5.587   6.696
 5736SOL    HW218108   1.003   5.516   6.699
 5737SOL     OW18109   4.846   4.982   6.646
 5737SOL    HW118110   4.796   4.903   6.681
 5737SOL    HW218111   4.937   4.986   6.689
 5738SOL     OW18112   1.313   3.509   6.565
 5738SOL    HW118113   1.227   3.557   6.585
 5738SOL    HW218114   1.361   3.489   6.650
 5739SOL     OW18115   1.423   1.127   1.001
 5739SOL    HW118116   1.519   1.152   1.015
 5739SOL    HW218117   1.412   1.085   0.911
 5740SOL     OW18118   3.771   5.747   6.289
 5740SOL    HW118119   3.745   5.653   6.312
 5740SOL    HW218120   3.844   5.745   6.221
 5741SOL     OW18121   0.167   5.706   4.855
 5741SOL    HW118122   0.073   5.727   4.882
 5741SOL    HW218123   0.167   5.654   4.770
 5742SOL     OW18124   6.433   6.565   2.913
 5742SOL    HW118125   6.469   6.616   2.991
 5742SOL    HW218126   6.339   6.592   2.895
 5743SOL     OW18127   1.845   6.436   5.141
 5743SOL    HW118128   1.925   6.491   5.161
 5743SOL    HW218129   1.762   6.489   5.160
 5744SOL     OW18130   5.451   0.656   0.234
 5744SOL    HW118131   5.362   0.699   0.249
 5744SOL    HW218132   5.457   0.625   0.139
 5745SOL     OW18133   1.953   2.251   4.897
 5745SOL    HW118134   1.970   2.302   4.981
 5745SOL    HW218135   1.876   2.189   4.911
 5746SOL     OW18136   4.223   2.182   6.753
 5746SOL    HW118137   4.280   2.122   6.810
 5746SOL    HW218138   4.147   2.130   6.715
 5747SOL     OW18139   0.846   5.571   3.309
 5747SOL    HW118140   0.936   5.614   3.323
 5747SOL    HW218141   0.814   5.592   3.217
 5748SOL     OW18142   2.504   6.098   2.502
 5748SOL    HW118143   2.549   6.116   2.590
 5748SOL    HW218144   2.415   6.142   2.500
 5749SOL     OW18145   2.289   2.480   3.271
 5749SOL    HW118146   2.271   2.570   3.312
 5749SOL    HW218147   2.248   2.477   3.180
 5750SOL     OW18148   6.329   5.541   3.027
 5750SOL    HW118149   6.345   5.470   3.096
 5750SOL    HW218150   6.403   5.608   3.032
 5751SOL     OW18151   2.351   3.560   5.441
 5751SOL    HW118152   2.361   3.550   5.540
 5751SOL    HW218153   2.371   3.473   5.397
 5752SOL     OW18154   6.995   6.936   6.390
 5752SOL    HW118155   0.068   6.920   6.402
 5752SOL    HW218156   6.952   6.944   6.480
 5753SOL     OW18157   3.523   2.713   0.284
 5753SOL    HW118158   3.587   2.772   0.334
 5753SOL    HW218159   3.443   2.695   0.342
 5754SOL     OW18160   6.692   4.930   1.436
 5754SOL    HW118161   6.726   5.022   1.456
 5754SOL    HW218162   6.748   4.862   1.484
 5755SOL     OW18163   2.976   4.384   0.146
 5755SOL    HW118164   2.998   4.466   0.197
 5755SOL    HW218165   2.931   4.408   0.060
 5756SOL     OW18166   6.672   5.247   4.014
 5756SOL    HW118167   6.749   5.302   4.047
 5756SOL    HW218168   6.702   5.152   4.000
 5757SOL     OW18169   6.917   5.299   0.543
 5757SOL    HW118170   6.832   5.292   0.490
 5757SOL    HW218171   6.895   5.320   0.638
 5758SOL     OW18172   1.806   2.743   5.584
 5758SOL    HW118173   1.866   2.731   5.505
 5758SOL    HW218174   1.750   2.660   5.596
 5759SOL     OW18175   5.439   1.446   6.222
 5759SOL    HW118176   5.490   1.480   6.301
 5759SOL    HW218177   5.394   1.360   6.245
 5760SOL     OW18178   1.356   5.586   2.515
 5760SOL    HW118179   1.300   5.652   2.565
 5760SOL    HW218180   1.305   5.500   2.505
 5761SOL     OW18181   4.492   0.027   4.607
 5761SOL    HW118182   4.463   0.104   4.665
 5761SOL    HW218183   4.570   0.055   4.551
 5762SOL     OW18184   5.657   6.310   1.646
 5762SOL    HW118185   5.616   6.361   1.570
 5762SOL    HW218186   5.598   6.232   1.669
 5763SOL     OW18187   1.400   0.488   1.465
 5763SOL    HW118188   1.498   0.466   1.465
 5763SOL    HW218189   1.362   0.471   1.374
 5764SOL     OW18190   5.144   3.716   5.545
 5764SOL    HW118191   5.213   3.730   5.615
 5764SOL    HW218192   5.054   3.708   5.588
 5765SOL     OW18193   5.796   4.140   6.795
 5765SOL    HW118194   5.723   4.159   6.860
 5765SOL    HW218195   5.764   4.073   6.728
 5766SOL     OW18196   3.011   2.152   2.697
 5766SOL    HW118197   2.938   2.127   2.633
 5766SOL    HW218198   3.097   2.165   2.646
 5767SOL     OW18199   0.017   6.766   1.338
 5767SOL    HW118200   0.101   6.770   1.283
 5767SOL    HW218201   0.038   6.727   1.428
 5768SOL     OW18202   6.672   1.853   2.285
 5768SOL    HW118203   6.691   1.755   2.300
 5768SOL    HW218204   6.753   1.897   2.248
 5769SOL     OW18205   2.099   5.659   4.369
 5769SOL    HW118206   2.112   5.594   4.443
 5769SOL    HW218207   2.030   5.727   4.395
 5770SOL     OW18208   6.304   0.639   1.402
 5770SOL    HW118209   6.391   0.643   1.353
 5770SOL    HW218210   6.261   0.550   1.386
 5771SOL     OW18211   1.657   1.239   1.001
 5771SOL    HW118212   1.682   1.335   0.985
 5771SOL    HW218213   1.738   1.187   1.026
 5772SOL     OW18214   5.240   3.670   0.346
 5772SOL    HW118215   5.163   3.609   0.326
 5772SOL    HW218216   5.315   3.616   0.385
 5773SOL     OW18217   5.380   5.542   4.605
 5773SOL    HW118218   5.359   5.455   4.649
 5773SOL    HW218219   5.297   5.582   4.567
 5774SOL     OW18220   1.840   5.311   4.109
 5774SOL    HW118221   1.760   5.366   4.084
 5774SOL    HW218222   1.919   5.371   4.121
 5775SOL     OW18223   0.580   6.446   6.078
 5775SOL    HW118224   0.640   6.420   6.002
 5775SOL    HW218225   0.611   6.532   6.118
 5776SOL     OW18226   4.865   0.273   5.701
 5776SOL    HW118227   4.809   0.350   5.731
 5776SOL    HW218228   4.927   0.247   5.774
 5777SOL     OW18229   0.319   0.961   4.185
 5777SOL    HW118230   0.329   1.020   4.104
 5777SOL    HW218231   0.224   0.931   4.192
 5778SOL     OW18232   1.619   6.988   3.750
 5778SOL    HW118233   1.588   6.893   3.755
 5778SOL    HW218234   1.706   6.998   3.799
 5779SOL     OW18235   4.128   0.893   2.258
 5779SOL    HW118236   4.153   0.986   2.286
 5779SOL    HW218237   4.036   0.895   2.218
 5780SOL     OW18238   5.891   3.981   1.826
 5780SOL    HW118239   5.917   4.016   1.736
 5780SOL    HW218240   5.821   4.041   1.865
 5781SOL     OW18241   1.674   5.385   4.831
 5781SOL    HW118242   1.711   5.292   4.835
 5781SOL    HW218243   1.648   5.414   4.923
 5782SOL     OW18244   2.970   1.847   2.472
 5782SOL    HW118245   2.930   1.936   2.492
 5782SOL    HW218246   2.899   1.786   2.436
 5783SOL     OW18247   1.531   0.037   1.369
 5783SOL    HW118248   1.464   7.019   1.429
 5783SOL    HW218249   1.545   7.006   1.288
 5784SOL     OW18250   1.629   6.001   0.423
 5784SOL    HW118251   1.664   5.918   0.379
 5784SOL    HW218252   1.700   6.041   0.480
 5785SOL     OW18253   1.906   1.797   0.277
 5785SOL    HW118254   1.904   1.715   0.221
 5785SOL    HW218255   1.832   1.859   0.248
 5786SOL     OW18256   1.396   3.576   1.731
 5786SOL    HW118257   1.391   3.638   1.653
 5786SOL    HW218258   1.305   3.539   1.750
 5787SOL     OW18259   6.554   3.114   5.069
 5787SOL    HW118260   6.563   3.018   5.095
 5787SOL    HW218261   6.593   3.127   4.978
 5788SOL     OW18262   2.446   1.409   2.188
 5788SOL    HW118263   2.485   1.490   2.143
 5788SOL    HW218264   2.516   1.365   2.244
 5789SOL     OW18265   3.759   3.931   6.492
 5789SOL    HW118266   3.830   3.949   6.560
 5789SOL    HW218267   3.724   3.838   6.504
 5790SOL     OW18268   5.498   5.565   4.368
 5790SOL    HW118269   5.563   5.641   4.369
 5790SOL    HW218270   5.455   5.556   4.458
 5791SOL     OW18271   3.956   1.525   2.756
 5791SOL    HW118272   4.052   1.520   2.726
 5791SOL    HW218273   3.950   1.495   2.851
 5792SOL     OW18274   4.855   3.085   2.697
 5792SOL    HW118275   4.929   3.088   2.629
 5792SOL    HW218276   4.843   3.176   2.737
 5793SOL     OW18277   4.750   2.191   5.646
 5793SOL    HW118278   4.690   2.215   5.723
 5793SOL    HW218279   4.784   2.275   5.603
 5794SOL     OW18280   4.122   0.649   0.029
 5794SOL    HW118281   4.159   0.557   0.016
 5794SOL    HW218282   4.037   0.658   7.003
 5795SOL     OW18283   1.911   5.794   1.690
 5795SOL    HW118284   1.827   5.850   1.690
 5795SOL    HW218285   1.906   5.728   1.615
 5796SOL     OW18286   4.780   2.488   6.718
 5796SOL    HW118287   4.870   2.447   6.703
 5796SOL    HW218288   4.790   2.569   6.776
 5797SOL     OW18289   5.098   2.800   0.863
 5797SOL    HW118290   5.084   2.767   0.956
 5797SOL    HW218291   5.017   2.781   0.808
 5798SOL     OW18292   1.823   4.157   5.762
 5798SOL    HW118293   1.739   4.104   5.773
 5798SOL    HW218294   1.899   4.110   5.808
 5799SOL     OW18295   2.285   6.702   3.551
 5799SOL    HW118296   2.243   6.616   3.582
 5799SOL    HW218297   2.310   6.693   3.455
 5800SOL     OW18298   1.018   0.200   1.140
 5800SOL    HW118299   1.018   0.279   1.201
 5800SOL    HW218300   1.075   0.128   1.179
 5801SOL     OW18301   2.277   1.960   2.939
 5801SOL    HW118302   2.326   1.968   3.026
 5801SOL    HW218303   2.290   2.043   2.886
 5802SOL     OW18304   0.396   1.428   1.669
 5802SOL    HW118305   0.384   1.329   1.670
 5802SOL    HW218306   0.383   1.464   1.761
 5803SOL     OW18307   0.537   5.107   4.036
 5803SOL    HW118308   0.578   5.078   4.123
 5803SOL    HW218309   0.445   5.069   4.029
 5804SOL     OW18310   5.767   1.797   3.674
 5804SOL    HW118311   5.680   1.840   3.651
 5804SOL    HW218312   5.775   1.709   3.627
 5805SOL     OW18313   1.812   2.549   1.825
 5805SOL    HW118314   1.836   2.547   1.728
 5805SOL    HW218315   1.804   2.644   1.855
 5806SOL     OW18316   0.330   4.129   1.994
 5806SOL    HW118317   0.256   4.179   2.038
 5806SOL    HW218318   0.332   4.035   2.027
 5807SOL     OW18319   0.872   0.015   1.009
 5807SOL    HW118320   0.903   0.092   1.065
 5807SOL    HW218321   0.857   6.961   1.068
 5808SOL     OW18322   6.645   6.995   5.562
 5808SOL    HW118323   6.609   6.976   5.653
 5808SOL    HW218324   6.725   0.028   5.569
 5809SOL     OW18325   0.413   2.418   5.590
 5809SOL    HW118326   0.491   2.366   5.554
 5809SOL    HW218327   0.345   2.355   5.627
 5810SOL     OW18328   3.793   6.897   5.509
 5810SOL    HW118329   3.851   6.857   5.438
 5810SOL    HW218330   3.850   6.935   5.582
 5811SOL     OW18331   3.176   3.622   6.073
 5811SOL    HW118332   3.130   3.577   5.996
 5811SOL    HW218333   3.154   3.720   6.072
 5812SOL     OW18334   5.618   2.772   0.231
 5812SOL    HW118335   5.637   2.680   0.195
 5812SOL    HW218336   5.617   2.769   0.331
 5813SOL     OW18337   5.245   6.710   0.826
 5813SOL    HW118338   5.270   6.798   0.785
 5813SOL    HW218339   5.252   6.638   0.757
 5814SOL     OW18340   4.923   1.789   1.400
 5814SOL    HW118341   4.942   1.882   1.369
 5814SOL    HW218342   5.005   1.752   1.444
 5815SOL     OW18343   6.152   1.542   4.245
 5815SOL    HW118344   6.080   1.521   4.312
 5815SOL    HW218345   6.169   1.462   4.188
 5816SOL     OW18346   0.736   3.656   2.324
 5816SOL    HW118347   0.688   3.643   2.410
 5816SOL    HW218348   0.828   3.691   2.341
 5817SOL     OW18349   6.383   3.482   2.945
 5817SOL    HW118350   6.354   3.518   3.033
 5817SOL    HW218351   6.367   3.551   2.874
 5818SOL     OW18352   2.242   6.991   5.426
 5818SOL    HW118353   2.158   0.011   5.397
 5818SOL    HW218354   2.308   0.034   5.459
 5819SOL     OW18355   4.620   5.049   0.410
 5819SOL    HW118356   4.617   5.067   0.312
 5819SOL    HW218357   4.526   5.040   0.445
 5820SOL     OW18358   5.715   5.575   2.087
 5820SOL    HW118359   5.650   5.566   2.011
 5820SOL    HW218360   5.667   5.611   2.167
 5821SOL     OW18361   6.731   0.015   0.588
 5821SOL    HW118362   6.724   0.074   0.669
 5821SOL    HW218363   6.710   6.947   0.614
 5822SOL     OW18364   1.935   3.356   2.743
 5822SOL    HW118365   2.023   3.361   2.790
 5822SOL    HW218366   1.888   3.272   2.769
 5823SOL     OW18367   2.178   5.397   3.923
 5823SOL    HW118368   2.102   5.383   3.859
 5823SOL    HW218369   2.264   5.401   3.873
 5824SOL     OW18370   0.944   0.304   1.971
 5824SOL    HW118371   0.980   0.362   2.044
 5824SOL    HW218372   1.016   0.244   1.936
 5825SOL     OW18373   6.172   0.531   4.009
 5825SOL    HW118374   6.259   0.543   4.056
 5825SOL    HW218375   6.164   0.436   3.977
 5826SOL     OW18376   0.101   0.282   5.032
 5826SOL    HW118377   0.057   0.330   4.956
 5826SOL    HW218378   0.175   0.339   5.069
 5827SOL     OW18379   2.322   4.370   4.643
 5827SOL    HW118380   2.422   4.369   4.644
 5827SOL    HW218381   2.288   4.317   4.721
 5828SOL     OW18382   3.972   6.771   4.599
 5828SOL    HW118383   3.904   6.699   4.611
 5828SOL    HW218384   3.986   6.788   4.501
 5829SOL     OW18385   2.195   1.116   4.063
 5829SOL    HW118386   2.151   1.097   3.975
 5829SOL    HW218387   2.235   1.032   4.100
 5830SOL     OW18388   3.309   5.543   4.701
 5830SOL    HW118389   3.361   5.575   4.780
 5830SOL    HW218390   3.257   5.461   4.726
 5831SOL     OW18391   1.540   2.514   5.362
 5831SOL    HW118392   1.546   2.598   5.308
 5831SOL    HW218393   1.509   2.535   5.454
 5832SOL     OW18394   2.803   4.884   1.464
 5832SOL    HW118395   2.813   4.958   1.531
 5832SOL    HW218396   2.837   4.798   1.503
 5833SOL     OW18397   3.241   4.161   6.310
 5833SOL    HW118398   3.174   4.234   6.319
 5833SOL    HW218399   3.216   4.103   6.232
 5834SOL     OW18400   5.366   3.012   6.311
 5834SOL    HW118401   5.403   3.030   6.402
 5834SOL    HW218402   5.346   2.914   6.302
 5835SOL     OW18403   5.284   1.637   2.245
 5835SOL    HW118404   5.305   1.653   2.341
 5835SOL    HW218405   5.208   1.572   2.237
 5836SOL     OW18406   4.939   6.623   3.492
 5836SOL    HW118407   4.981   6.659   3.575
 5836SOL    HW218408   4.840   6.628   3.499
 5837SOL     OW18409   3.163   4.858   0.206
 5837SOL    HW118410   3.234   4.803   0.161
 5837SOL    HW218411   3.205   4.920   0.272
 5838SOL     OW18412   3.091   1.989   1.063
 5838SOL    HW118413   3.057   1.941   1.144
 5838SOL    HW218414   3.078   1.932   0.982
 5839SOL     OW18415   2.282   1.849   1.230
 5839SOL    HW118416   2.299   1.797   1.314
 5839SOL    HW218417   2.363   1.847   1.172
 5840SOL     OW18418   1.176   3.345   3.210
 5840SOL    HW118419   1.209   3.354   3.304
 5840SOL    HW218420   1.161   3.249   3.189
 5841SOL     OW18421   5.347   2.619   0.428
 5841SOL    HW118422   5.431   2.657   0.466
 5841SOL    HW218423   5.272   2.633   0.494
 5842SOL     OW18424   2.361   1.832   0.809
 5842SOL    HW118425   2.275   1.868   0.846
 5842SOL    HW218426   2.351   1.816   0.711
 5843SOL     OW18427   1.988   3.587   1.263
 5843SOL    HW118428   2.016   3.496   1.296
 5843SOL    HW218429   1.898   3.581   1.221
 5844SOL     OW18430   0.597   0.029   5.187
 5844SOL    HW118431   0.639   0.102   5.241
 5844SOL    HW218432   0.639   6.967   5.210
 5845SOL     OW18433   1.363   6.660   1.978
 5845SOL    HW118434   1.368   6.608   2.064
 5845SOL    HW218435   1.455   6.688   1.952
 5846SOL     OW18436   6.703   3.955   5.862
 5846SOL    HW118437   6.638   4.021   5.901
 5846SOL    HW218438   6.754   3.999   5.788
 5847SOL     OW18439   2.579   3.772   0.536
 5847SOL    HW118440   2.527   3.753   0.453
 5847SOL    HW218441   2.653   3.836   0.515
 5848SOL     OW18442   1.650   5.103   2.178
 5848SOL    HW118443   1.723   5.155   2.221
 5848SOL    HW218444   1.601   5.161   2.114
 5849SOL     OW18445   3.454   5.859   5.407
 5849SOL    HW118446   3.492   5.781   5.358
 5849SOL    HW218447   3.359   5.873   5.378
 5850SOL     OW18448   1.331   1.602   2.018
 5850SOL    HW118449   1.405   1.545   2.055
 5850SOL    HW218450   1.243   1.563   2.045
 5851SOL     OW18451   6.178   3.969   4.542
 5851SOL    HW118452   6.154   3.906   4.468
 5851SOL    HW218453   6.214   4.054   4.503
 5852SOL     OW18454   4.823   4.312   2.380
 5852SOL    HW118455   4.838   4.229   2.434
 5852SOL    HW218456   4.848   4.392   2.434
 5853SOL     OW18457   3.389   4.933   5.530
 5853SOL    HW118458   3.362   4.941   5.626
 5853SOL    HW218459   3.477   4.886   5.523
 5854SOL     OW18460   2.987   4.321   5.622
 5854SOL    HW118461   2.953   4.232   5.655
 5854SOL    HW218462   3.076   4.308   5.579
 5855SOL     OW18463   2.149   3.463   3.308
 5855SOL    HW118464   2.060   3.494   3.339
 5855SOL    HW218465   2.160   3.366   3.330
 5856SOL     OW18466   1.669   6.796   3.225
 5856SOL    HW118467   1.677   6.895   3.216
 5856SOL    HW218468   1.747   6.751   3.182
 5857SOL     OW18469   6.473   4.109   6.535
 5857SOL    HW118470   6.378   4.082   6.552
 5857SOL    HW218471   6.508   4.059   6.455
 5858SOL     OW18472   1.900   0.503   3.277
 5858SOL    HW118473   1.917   0.600   3.293
 5858SOL    HW218474   1.870   0.489   3.182
 5859SOL     OW18475   6.262   0.195   1.607
 5859SOL    HW118476   6.330   0.145   1.554
 5859SOL    HW218477   6.174   0.147   1.603
 5860SOL     OW18478   0.483   4.188   3.503
 5860SOL    HW118479   0.486   4.132   3.585
 5860SOL    HW218480   0.424   4.145   3.434
 5861SOL     OW18481   5.239   1.143   5.774
 5861SOL    HW118482   5.287   1.059   5.751
 5861SOL    HW218483   5.186   1.175   5.696
 5862SOL     OW18484   0.241   5.635   2.200
 5862SOL    HW118485   0.155   5.680   2.178
 5862SOL    HW218486   0.290   5.688   2.270
 5863SOL     OW18487   4.165   0.432   5.479
 5863SOL    HW118488   4.194   0.450   5.385
 5863SOL    HW218489   4.099   0.356   5.479
 5864SOL     OW18490   3.411   3.895   2.427
 5864SOL    HW118491   3.463   3.974   2.393
 5864SOL    HW218492   3.447   3.811   2.386
 5865SOL     OW18493   6.206   0.865   5.845
 5865SOL    HW118494   6.229   0.950   5.893
 5865SOL    HW218495   6.290   0.820   5.816
 5866SOL     OW18496   3.429   3.012   3.490
 5866SOL    HW118497   3.450   3.072   3.412
 5866SOL    HW218498   3.339   3.036   3.527
 5867SOL     OW18499   4.095   1.710   2.127
 5867SOL    HW118500   4.001   1.676   2.119
 5867SOL    HW218501   4.101   1.803   2.090
 5868SOL     OW18502   1.542   1.359   5.660
 5868SOL    HW118503   1.540   1.412   5.744
 5868SOL    HW218504   1.535   1.261   5.682
 5869SOL     OW18505   0.155   6.106   3.858
 5869SOL    HW118506   0.250   6.105   3.827
 5869SOL    HW218507   0.094   6.106   3.780
 5870SOL     OW18508   4.103   4.812   4.374
 5870SOL    HW118509   4.122   4.793   4.278
 5870SOL    HW218510   4.049   4.896   4.381
 5871SOL     OW18511   3.228   3.610   4.149
 5871SOL    HW118512   3.130   3.627   4.140
 5871SOL    HW218513   3.271   3.687   4.197
 5872SOL     OW18514   4.370   5.943   2.020
 5872SOL    HW118515   4.464   5.929   2.051
 5872SOL    HW218516   4.367   5.943   1.920
 5873SOL     OW18517   3.782   5.323   2.170
 5873SOL    HW118518   3.759   5.287   2.080
 5873SOL    HW218519   3.743   5.265   2.241
 5874SOL     OW18520   2.721   4.638   5.789
 5874SOL    HW118521   2.693   4.612   5.696
 5874SOL    HW218522   2.727   4.557   5.846
 5875SOL     OW18523   2.732   1.329   0.713
 5875SOL    HW118524   2.822   1.305   0.677
 5875SOL    HW218525   2.698   1.255   0.771
 5876SOL     OW18526   3.522   3.257   1.875
 5876SOL    HW118527   3.593   3.310   1.829
 5876SOL    HW218528   3.433   3.277   1.834
 5877SOL     OW18529   5.806   4.477   0.125
 5877SOL    HW118530   5.836   4.494   0.032
 5877SOL    HW218531   5.707   4.465   0.127
 5878SOL     OW18532   2.198   4.284   2.417
 5878SOL    HW118533   2.217   4.287   2.318
 5878SOL    HW218534   2.188   4.190   2.446
 5879SOL     OW18535   6.946   3.802   5.737
 5879SOL    HW118536   6.855   3.838   5.756
 5879SOL    HW218537   6.939   3.725   5.673
 5880SOL     OW18538   1.865   6.023   1.039
 5880SOL    HW118539   1.951   5.973   1.045
 5880SOL    HW218540   1.882   6.115   1.004
 5881SOL     OW18541   0.429   5.514   4.413
 5881SOL    HW118542   0.469   5.538   4.502
 5881SOL    HW218543   0.492   5.455   4.362
 5882SOL     OW18544   5.008   1.018   1.370
 5882SOL    HW118545   4.910   1.004   1.355
 5882SOL    HW218546   5.054   1.029   1.283
 5883SOL     OW18547   0.295   3.751   5.826
 5883SOL    HW118548   0.368   3.813   5.853
 5883SOL    HW218549   0.214   3.769   5.881
 5884SOL     OW18550   1.301   1.773   2.961
 5884SOL    HW118551   1.332   1.862   2.994
 5884SOL    HW218552   1.281   1.714   3.039
 5885SOL     OW18553   6.284   6.383   1.429
 5885SOL    HW118554   6.231   6.331   1.495
 5885SOL    HW218555   6.351   6.323   1.386
 5886SOL     OW18556   1.299   1.583   6.041
 5886SOL    HW118557   1.333   1.526   6.116
 5886SOL    HW218558   1.224   1.536   5.994
 5887SOL     OW18559   3.676   6.931   4.337
 5887SOL    HW118560   3.731   6.955   4.257
 5887SOL    HW218561   3.721   6.965   4.419
 5888SOL     OW18562   2.508   0.149   3.702
 5888SOL    HW118563   2.462   0.077   3.754
 5888SOL    HW218564   2.454   0.171   3.620
 5889SOL     OW18565   2.887   0.777   1.072
 5889SOL    HW118566   2.799   0.771   1.025
 5889SOL    HW218567   2.898   0.699   1.133
 5890SOL     OW18568   2.966   5.023   6.023
 5890SOL    HW118569   2.887   4.985   5.975
 5890SOL    HW218570   2.960   5.000   6.120
 5891SOL     OW18571   3.311   4.038   6.957
 5891SOL    HW118572   3.307   4.038   6.857
 5891SOL    HW218573   3.220   4.058   6.994
 5892SOL     OW18574   0.689   0.022   1.372
 5892SOL    HW118575   0.706   6.980   1.300
 5892SOL    HW218576   0.719   0.112   1.341
 5893SOL     OW18577   1.441   1.264   4.002
 5893SOL    HW118578   1.465   1.355   3.969
 5893SOL    HW218579   1.405   1.209   3.927
 5894SOL     OW18580   0.887   3.511   3.330
 5894SOL    HW118581   0.930   3.424   3.352
 5894SOL    HW218582   0.955   3.584   3.335
 5895SOL     OW18583   5.610   3.739   3.843
 5895SOL    HW118584   5.569   3.734   3.934
 5895SOL    HW218585   5.541   3.766   3.777
 5896SOL     OW18586   3.589   2.612   6.604
 5896SOL    HW118587   3.622   2.702   6.574
 5896SOL    HW218588   3.627   2.541   6.545
 5897SOL     OW18589   3.836   6.970   0.974
 5897SOL    HW118590   3.796   6.925   0.894
 5897SOL    HW218591   3.811   0.041   0.974
 5898SOL     OW18592   2.233   0.197   2.544
 5898SOL    HW118593   2.222   0.242   2.633
 5898SOL    HW218594   2.229   0.266   2.472
 5899SOL     OW18595   5.834   6.988   4.493
 5899SOL    HW118596   5.857   6.942   4.408
 5899SOL    HW218597   5.912   6.984   4.556
 5900SOL     OW18598   4.700   5.124   2.553
 5900SOL    HW118599   4.757   5.073   2.488
 5900SOL    HW218600   4.695   5.220   2.526
 5901SOL     OW18601   2.505   6.602   5.869
 5901SOL    HW118602   2.547   6.661   5.939
 5901SOL    HW218603   2.494   6.510   5.906
 5902SOL     OW18604   6.551   2.170   6.612
 5902SOL    HW118605   6.478   2.148   6.547
 5902SOL    HW218606   6.562   2.269   6.617
 5903SOL     OW18607   6.223   3.052   6.589
 5903SOL    HW118608   6.216   2.976   6.524
 5903SOL    HW218609   6.284   3.122   6.551
 5904SOL     OW18610   6.937   3.554   2.557
 5904SOL    HW118611   6.885   3.626   2.511
 5904SOL    HW218612   6.904   3.464   2.527
 5905SOL     OW18613   6.961   5.889   1.936
 5905SOL    HW118614   0.018   5.897   1.991
 5905SOL    HW218615   6.969   5.812   1.873
 5906SOL     OW18616   5.852   1.118   3.551
 5906SOL    HW118617   5.920   1.053   3.585
 5906SOL    HW218618   5.761   1.090   3.580
 5907SOL     OW18619   1.001   5.802   1.986
 5907SOL    HW118620   1.022   5.823   2.082
 5907SOL    HW218621   0.989   5.704   1.976
 5908SOL     OW18622   6.692   3.223   5.264
 5908SOL    HW118623   6.629   3.216   5.187
 5908SOL    HW218624   6.786   3.209   5.232
 5909SOL     OW18625   6.759   5.621   0.681
 5909SOL    HW118626   6.703   5.539   0.694
 5909SOL    HW218627   6.723   5.695   0.738
 5910SOL     OW18628   2.202   2.759   3.339
 5910SOL    HW118629   2.282   2.749   3.399
 5910SOL    HW218630   2.208   2.845   3.289
 5911SOL     OW18631   6.346   5.928   6.110
 5911SOL    HW118632   6.319   5.934   6.014
 5911SOL    HW218633   6.444   5.905   6.116
 5912SOL     OW18634   0.455   1.355   3.546
 5912SOL    HW118635   0.399   1.271   3.543
 5912SOL    HW218636   0.488   1.369   3.639
 5913SOL     OW18637   5.690   2.606   6.679
 5913SOL    HW118638   5.775   2.651   6.650
 5913SOL    HW218639   5.613   2.668   6.664
 5914SOL     OW18640   0.685   6.597   0.086
 5914SOL    HW118641   0.623   6.643   0.150
 5914SOL    HW218642   0.721   6.514   0.128
 5915SOL     OW18643   4.329   1.403   6.531
 5915SOL    HW118644   4.300   1.308   6.538
 5915SOL    HW218645   4.406   1.410   6.468
 5916SOL     OW18646   1.118   6.227   2.598
 5916SOL    HW118647   1.055   6.175   2.540
 5916SOL    HW218648   1.101   6.325   2.585
 5917SOL     OW18649   3.247   4.527   0.003
 5917SOL    HW118650   3.148   4.530   0.021
 5917SOL    HW218651   3.281   4.435   0.024
 5918SOL     OW18652   3.187   6.134   6.047
 5918SOL    HW118653   3.225   6.073   5.978
 5918SOL    HW218654   3.166   6.082   6.130
 5919SOL     OW18655   3.662   2.913   3.323
 5919SOL    HW118656   3.664   2.886   3.227
 5919SOL    HW218657   3.569   2.937   3.349
 5920SOL     OW18658   0.007   0.369   5.876
 5920SOL    HW118659   0.082   0.392   5.938
 5920SOL    HW218660   6.970   0.305   5.921
 5921SOL     OW18661   3.442   5.038   6.496
 5921SOL    HW118662   3.510   5.110   6.482
 5921SOL    HW218663   3.465   4.960   6.438
 5922SOL     OW18664   5.515   3.524   3.166
 5922SOL    HW118665   5.448   3.504   3.238
 5922SOL    HW218666   5.477   3.499   3.077
 5923SOL     OW18667   6.885   0.511   1.497
 5923SOL    HW118668   6.835   0.552   1.573
 5923SOL    HW218669   6.939   0.581   1.450
 5924SOL     OW18670   6.128   0.192   2.896
 5924SOL    HW118671   6.117   0.155   2.988
 5924SOL    HW218672   6.057   0.153   2.836
 5925SOL     OW18673   4.548   6.076   1.475
 5925SOL    HW118674   4.530   5.979   1.462
 5925SOL    HW218675   4.631   6.088   1.530
 5926SOL     OW18676   4.109   5.195   3.220
 5926SOL    HW118677   4.151   5.141   3.147
 5926SOL    HW218678   4.013   5.168   3.229
 5927SOL     OW18679   0.893   4.545   1.820
 5927SOL    HW118680   0.936   4.518   1.906
 5927SOL    HW218681   0.794   4.554   1.834
 5928SOL     OW18682   3.777   0.272   0.764
 5928SOL    HW118683   3.753   0.367   0.786
 5928SOL    HW218684   3.717   0.239   0.691
 5929SOL     OW18685   0.778   0.952   6.376
 5929SOL    HW118686   0.721   1.003   6.441
 5929SOL    HW218687   0.735   0.864   6.357
 5930SOL     OW18688   1.433   3.192   2.317
 5930SOL    HW118689   1.494   3.139   2.377
 5930SOL    HW218690   1.469   3.189   2.224
 5931SOL     OW18691   5.327   6.206   3.306
 5931SOL    HW118692   5.254   6.197   3.239
 5931SOL    HW218693   5.300   6.271   3.377
 5932SOL     OW18694   2.579   1.365   7.005
 5932SOL    HW118695   2.620   1.319   0.058
 5932SOL    HW218696   2.581   1.303   6.926
 5933SOL     OW18697   6.254   5.911   3.673
 5933SOL    HW118698   6.300   5.909   3.761
 5933SOL    HW218699   6.236   6.005   3.646
 5934SOL     OW18700   2.840   3.607   5.791
 5934SOL    HW118701   2.938   3.594   5.807
 5934SOL    HW218702   2.826   3.643   5.699
 5935SOL     OW18703   6.853   6.364   5.251
 5935SOL    HW118704   6.891   6.340   5.162
 5935SOL    HW218705   6.873   6.291   5.317
 5936SOL     OW18706   2.906   3.323   1.888
 5936SOL    HW118707   2.898   3.293   1.983
 5936SOL    HW218708   2.972   3.265   1.840
 5937SOL     OW18709   6.691   3.101   1.770
 5937SOL    HW118710   6.774   3.152   1.790
 5937SOL    HW218711   6.617   3.130   1.831
 5938SOL     OW18712   0.094   4.948   5.070
 5938SOL    HW118713   0.157   5.026   5.077
 5938SOL    HW218714   7.025   4.982   5.073
 5939SOL     OW18715   3.671   0.061   4.577
 5939SOL    HW118716   3.744   0.130   4.573
 5939SOL    HW218717   3.686   0.001   4.656
 5940SOL     OW18718   4.659   6.023   2.680
 5940SOL    HW118719   4.738   6.077   2.654
 5940SOL    HW218720   4.672   5.928   2.652
 5941SOL     OW18721   6.978   1.965   1.707
 5941SOL    HW118722   6.882   1.936   1.702
 5941SOL    HW218723   7.016   1.971   1.615
 5942SOL     OW18724   5.963   3.642   5.642
 5942SOL    HW118725   5.947   3.568   5.707
 5942SOL    HW218726   5.919   3.621   5.555
 5943SOL     OW18727   3.510   3.860   1.100
 5943SOL    HW118728   3.429   3.854   1.041
 5943SOL    HW218729   3.482   3.891   1.191
 5944SOL     OW18730   0.800   3.489   6.219
 5944SOL    HW118731   0.811   3.587   6.233
 5944SOL    HW218732   0.886   3.442   6.242
 5945SOL     OW18733   0.304   5.638   5.350
 5945SOL    HW118734   0.279   5.598   5.263
 5945SOL    HW218735   0.255   5.591   5.424
 5946SOL     OW18736   3.682   4.328   0.553
 5946SOL    HW118737   3.692   4.329   0.653
 5946SOL    HW218738   3.768   4.354   0.510
 5947SOL     OW18739   3.155   2.958   4.957
 5947SOL    HW118740   3.207   3.002   5.030
 5947SOL    HW218741   3.061   2.991   4.958
 5948SOL     OW18742   5.094   3.906   1.971
 5948SOL    HW118743   5.168   3.844   2.000
 5948SOL    HW218744   5.006   3.866   1.997
 5949SOL     OW18745   0.023   4.805   2.443
 5949SOL    HW118746   0.102   4.815   2.504
 5949SOL    HW218747   7.010   4.713   2.454
 5950SOL     OW18748   5.260   1.616   5.764
 5950SOL    HW118749   5.296   1.550   5.830
 5950SOL    HW218750   5.210   1.687   5.812
 5951SOL     OW18751   0.989   4.310   5.847
 5951SOL    HW118752   1.029   4.398   5.823
 5951SOL    HW218753   1.012   4.243   5.776
 5952SOL     OW18754   3.881   5.161   0.994
 5952SOL    HW118755   3.836   5.090   0.940
 5952SOL    HW218756   3.970   5.184   0.954
 5953SOL     OW18757   5.693   2.463   4.971
 5953SOL    HW118758   5.758   2.456   4.896
 5953SOL    HW218759   5.602   2.434   4.940
 5954SOL     OW18760   0.935   6.271   4.707
 5954SOL    HW118761   0.952   6.265   4.609
 5954SOL    HW218762   0.910   6.365   4.731
 5955SOL     OW18763   6.149   4.167   0.834
 5955SOL    HW118764   6.195   4.100   0.775
 5955SOL    HW218765   6.208   4.187   0.913
 5956SOL     OW18766   4.699   2.391   4.068
 5956SOL    HW118767   4.693   2.381   3.969
 5956SOL    HW218768   4.660   2.479   4.095
 5957SOL     OW18769   1.201   1.116   2.317
 5957SOL    HW118770   1.160   1.085   2.232
 5957SOL    HW218771   1.158   1.202   2.345
 5958SOL     OW18772   3.618   6.800   2.897
 5958SOL    HW118773   3.635   6.846   2.984
 5958SOL    HW218774   3.523   6.771   2.893
 5959SOL     OW18775   4.752   2.311   4.609
 5959SOL    HW118776   4.810   2.275   4.683
 5959SOL    HW218777   4.758   2.251   4.530
 5960SOL     OW18778   4.470   0.090   5.604
 5960SOL    HW118779   4.390   0.034   5.584
 5960SOL    HW218780   4.504   0.130   5.519
 5961SOL     OW18781   2.973   1.639   2.925
 5961SOL    HW118782   3.020   1.652   3.013
 5961SOL    HW218783   3.022   1.689   2.854
 5962SOL     OW18784   5.670   6.435   0.367
 5962SOL    HW118785   5.608   6.357   0.356
 5962SOL    HW218786   5.729   6.421   0.446
 5963SOL     OW18787   3.848   4.519   0.056
 5963SOL    HW118788   3.866   4.563   0.145
 5963SOL    HW218789   3.920   4.452   0.038
 5964SOL     OW18790   2.157   6.768   2.574
 5964SOL    HW118791   2.205   6.856   2.575
 5964SOL    HW218792   2.133   6.744   2.480
 5965SOL     OW18793   1.614   6.401   0.192
 5965SOL    HW118794   1.616   6.445   0.102
 5965SOL    HW218795   1.707   6.396   0.228
 5966SOL     OW18796   2.179   0.948   5.680
 5966SOL    HW118797   2.274   0.973   5.698
 5966SOL    HW218798   2.123   1.031   5.680
 5967SOL     OW18799   2.153   1.641   4.351
 5967SOL    HW118800   2.116   1.628   4.259
 5967SOL    HW218801   2.217   1.718   4.350
 5968SOL     OW18802   5.711   2.344   0.781
 5968SOL    HW118803   5.698   2.297   0.693
 5968SOL    HW218804   5.763   2.428   0.766
 5969SOL     OW18805   5.413   0.988   7.009
 5969SOL    HW118806   5.364   1.021   6.929
 5969SOL    HW218807   5.510   0.978   6.987
 5970SOL     OW18808   0.320   2.875   0.679
 5970SOL    HW118809   0.405   2.839   0.717
 5970SOL    HW218810   0.244   2.815   0.704
 5971SOL     OW18811   6.921   0.143   3.493
 5971SOL    HW118812   6.870   0.225   3.520
 5971SOL    HW218813   6.870   0.094   3.422
 5972SOL     OW18814   5.168   5.122   0.601
 5972SOL    HW118815   5.076   5.146   0.632
 5972SOL    HW218816   5.187   5.027   0.624
 5973SOL     OW18817   1.857   2.964   2.973
 5973SOL    HW118818   1.787   2.913   3.022
 5973SOL    HW218819   1.944   2.958   3.022
 5974SOL     OW18820   4.407   1.476   6.102
 5974SOL    HW118821   4.320   1.524   6.090
 5974SOL    HW218822   4.469   1.500   6.028
 5975SOL     OW18823   5.799   4.752   0.367
 5975SOL    HW118824   5.898   4.763   0.364
 5975SOL    HW218825   5.776   4.654   0.368
 5976SOL     OW18826   3.270   3.734   5.687
 5976SOL    HW118827   3.354   3.766   5.731
 5976SOL    HW218828   3.250   3.793   5.608
 5977SOL     OW18829   6.714   4.735   0.428
 5977SOL    HW118830   6.686   4.740   0.524
 5977SOL    HW218831   6.729   4.827   0.393
 5978SOL     OW18832   3.124   5.272   0.263
 5978SOL    HW118833   3.082   5.328   0.334
 5978SOL    HW218834   3.053   5.218   0.217
 5979SOL     OW18835   6.362   0.391   1.019
 5979SOL    HW118836   6.322   0.372   0.929
 5979SOL    HW218837   6.290   0.420   1.082
 5980SOL     OW18838   3.828   2.960   1.760
 5980SOL    HW118839   3.777   2.979   1.676
 5980SOL    HW218840   3.772   2.904   1.821
 5981SOL     OW18841   3.247   2.266   0.320
 5981SOL    HW118842   3.230   2.278   0.223
 5981SOL    HW218843   3.160   2.269   0.370
 5982SOL     OW18844   6.270   2.250   1.580
 5982SOL    HW118845   6.243   2.159   1.549
 5982SOL    HW218846   6.320   2.296   1.507
 5983SOL     OW18847   0.443   1.168   4.045
 5983SOL    HW118848   0.400   1.158   3.955
 5983SOL    HW218849   0.539   1.138   4.040
 5984SOL     OW18850   6.165   6.399   3.043
 5984SOL    HW118851   6.168   6.377   2.946
 5984SOL    HW218852   6.072   6.387   3.078
 5985SOL     OW18853   6.225   2.175   2.798
 5985SOL    HW118854   6.181   2.143   2.882
 5985SOL    HW218855   6.172   2.250   2.759
 5986SOL     OW18856   4.192   3.718   5.587
 5986SOL    HW118857   4.163   3.646   5.525
 5986SOL    HW218858   4.278   3.758   5.555
 5987SOL     OW18859   6.497   0.960   5.143
 5987SOL    HW118860   6.462   0.995   5.230
 5987SOL    HW218861   6.501   0.860   5.147
 5988SOL     OW18862   2.171   1.923   0.335
 5988SOL    HW118863   2.249   1.921   0.272
 5988SOL    HW218864   2.088   1.901   0.285
 5989SOL     OW18865   0.479   5.809   6.745
 5989SOL    HW118866   0.459   5.725   6.694
 5989SOL    HW218867   0.395   5.841   6.790
 5990SOL     OW18868   3.871   4.832   1.255
 5990SOL    HW118869   3.775   4.839   1.230
 5990SOL    HW218870   3.881   4.769   1.332
 5991SOL     OW18871   5.330   6.161   0.873
 5991SOL    HW118872   5.410   6.206   0.833
 5991SOL    HW218873   5.262   6.143   0.802
 5992SOL     OW18874   3.649   6.909   2.157
 5992SOL    HW118875   3.667   6.811   2.170
 5992SOL    HW218876   3.705   6.943   2.081
 5993SOL     OW18877   5.895   2.143   0.146
 5993SOL    HW118878   5.836   2.063   0.146
 5993SOL    HW218879   5.989   2.116   0.131
 5994SOL     OW18880   0.466   2.577   0.444
 5994SOL    HW118881   0.554   2.531   0.461
 5994SOL    HW218882   0.483   2.674   0.430
 5995SOL     OW18883   5.165   3.569   1.547
 5995SOL    HW118884   5.225   3.538   1.473
 5995SOL    HW218885   5.121   3.490   1.590
 5996SOL     OW18886   2.810   5.339   1.215
 5996SOL    HW118887   2.779   5.434   1.220
 5996SOL    HW218888   2.757   5.284   1.280
 5997SOL     OW18889   0.115   7.003   3.614
 5997SOL    HW118890   0.034   0.029   3.586
 5997SOL    HW218891   0.094   6.951   3.696
 5998SOL     OW18892   6.615   0.683   1.339
 5998SOL    HW118893   6.674   0.677   1.259
 5998SOL    HW218894   6.666   0.656   1.421
 5999SOL     OW18895   4.279   3.030   1.178
 5999SOL    HW118896   4.299   2.973   1.099
 5999SOL    HW218897   4.294   2.977   1.262
 6000SOL     OW18898   6.582   4.975   6.959
 6000SOL    HW118899   6.536   5.036   6.893
 6000SOL    HW218900   6.658   4.929   6.914
 6001SOL     OW18901   5.116   6.294   5.402
 6001SOL    HW118902   5.167   6.367   5.357
 6001SOL    HW218903   5.023   6.325   5.421
 6002SOL     OW18904   6.366   6.160   4.838
 6002SOL    HW118905   6.332   6.134   4.747
 6002SOL    HW218906   6.293   6.151   4.905
 6003SOL     OW18907   6.974   2.988   4.231
 6003SOL    HW118908   6.914   3.050   4.179
 6003SOL    HW218909   0.037   3.031   4.244
 6004SOL     OW18910   5.580   2.676   3.622
 6004SOL    HW118911   5.541   2.767   3.639
 6004SOL    HW218912   5.665   2.666   3.674
 6005SOL     OW18913   4.163   4.889   5.998
 6005SOL    HW118914   4.104   4.908   5.919
 6005SOL    HW218915   4.241   4.952   5.998
 6006SOL     OW18916   3.457   5.738   5.660
 6006SOL    HW118917   3.374   5.684   5.651
 6006SOL    HW218918   3.469   5.794   5.578
 6007SOL     OW18919   1.268   5.013   5.370
 6007SOL    HW118920   1.335   4.965   5.427
 6007SOL    HW218921   1.301   5.106   5.351
 6008SOL     OW18922   2.721   5.171   5.769
 6008SOL    HW118923   2.797   5.110   5.788
 6008SOL    HW218924   2.727   5.203   5.674
 6009SOL     OW18925   4.014   5.450   3.463
 6009SOL    HW118926   4.039   5.538   3.503
 6009SOL    HW218927   3.999   5.460   3.365
 6010SOL     OW18928   0.261   4.920   4.864
 6010SOL    HW118929   0.207   4.943   4.945
 6010SOL    HW218930   0.332   4.854   4.889
 6011SOL     OW18931   6.153   1.158   2.298
 6011SOL    HW118932   6.149   1.206   2.210
 6011SOL    HW218933   6.133   1.222   2.372
 6012SOL     OW18934   7.007   0.660   5.996
 6012SOL    HW118935   0.022   0.691   5.910
 6012SOL    HW218936   6.938   0.590   5.977
 6013SOL     OW18937   5.756   0.923   2.617
 6013SOL    HW118938   5.709   0.864   2.553
 6013SOL    HW218939   5.814   0.987   2.567
 6014SOL     OW18940   3.859   3.029   4.193
 6014SOL    HW118941   3.913   3.051   4.275
 6014SOL    HW218942   3.919   3.031   4.113
 6015SOL     OW18943   6.231   1.623   4.596
 6015SOL    HW118944   6.303   1.675   4.642
 6015SOL    HW218945   6.271   1.544   4.550
 6016SOL     OW18946   5.054   1.562   4.764
 6016SOL    HW118947   4.971   1.509   4.778
 6016SOL    HW218948   5.082   1.603   4.851
 6017SOL     OW18949   0.246   2.962   4.947
 6017SOL    HW118950   0.323   3.025   4.940
 6017SOL    HW218951   0.256   2.906   5.029
 6018SOL     OW18952   3.669   1.636   6.245
 6018SOL    HW118953   3.594   1.628   6.180
 6018SOL    HW218954   3.705   1.545   6.267
 6019SOL     OW18955   7.022   3.889   6.809
 6019SOL    HW118956   7.024   3.925   6.903
 6019SOL    HW218957   6.958   3.944   6.755
 6020SOL     OW18958   0.753   4.436   0.483
 6020SOL    HW118959   0.772   4.474   0.573
 6020SOL    HW218960   0.735   4.338   0.491
 6021SOL     OW18961   4.115   0.680   2.983
 6021SOL    HW118962   4.047   0.612   3.008
 6021SOL    HW218963   4.109   0.698   2.884
 6022SOL     OW18964   6.820   1.381   2.111
 6022SOL    HW118965   6.776   1.467   2.087
 6022SOL    HW218966   6.833   1.377   2.210
 6023SOL     OW18967   4.771   0.872   1.326
 6023SOL    HW118968   4.708   0.800   1.356
 6023SOL    HW218969   4.779   0.869   1.227
 6024SOL     OW18970   0.357   5.509   0.142
 6024SOL    HW118971   0.403   5.520   0.053
 6024SOL    HW218972   0.413   5.454   0.202
 6025SOL     OW18973   2.362   1.308   3.949
 6025SOL    HW118974   2.310   1.253   4.014
 6025SOL    HW218975   2.327   1.402   3.948
 6026SOL     OW18976   6.161   4.298   4.171
 6026SOL    HW118977   6.208   4.376   4.131
 6026SOL    HW218978   6.092   4.264   4.107
 6027SOL     OW18979   5.976   3.292   5.649
 6027SOL    HW118980   6.005   3.353   5.722
 6027SOL    HW218981   6.018   3.202   5.663
 6028SOL     OW18982   5.084   4.874   6.252
 6028SOL    HW118983   5.112   4.913   6.340
 6028SOL    HW218984   5.114   4.779   6.247
 6029SOL     OW18985   2.432   0.697   3.536
 6029SOL    HW118986   2.466   0.633   3.467
 6029SOL    HW218987   2.509   0.740   3.582
 6030SOL     OW18988   5.200   3.603   4.596
 6030SOL    HW118989   5.246   3.655   4.524
 6030SOL    HW218990   5.163   3.519   4.557
 6031SOL     OW18991   0.735   6.015   5.411
 6031SOL    HW118992   0.692   5.929   5.382
 6031SOL    HW218993   0.734   6.079   5.335
 6032SOL     OW18994   2.897   6.163   3.731
 6032SOL    HW118995   2.803   6.178   3.763
 6032SOL    HW218996   2.899   6.082   3.672
 6033SOL     OW18997   2.541   1.750   2.676
 6033SOL    HW118998   2.472   1.738   2.748
 6033SOL    HW218999   2.597   1.668   2.668
 6034SOL     OW19000   1.347   0.432   6.791
 6034SOL    HW119001   1.356   0.511   6.851
 6034SOL    HW219002   1.354   0.348   6.845
 6035SOL     OW19003   1.794   1.093   3.033
 6035SOL    HW119004   1.744   1.179   3.035
 6035SOL    HW219005   1.729   1.017   3.045
 6036SOL     OW19006   6.204   2.916   0.405
 6036SOL    HW119007   6.235   2.961   0.489
 6036SOL    HW219008   6.104   2.913   0.403
 6037SOL     OW19009   4.328   2.288   0.734
 6037SOL    HW119010   4.332   2.195   0.770
 6037SOL    HW219011   4.267   2.290   0.654
 6038SOL     OW19012   0.462   1.678   6.242
 6038SOL    HW119013   0.537   1.723   6.194
 6038SOL    HW219014   0.467   1.699   6.340
 6039SOL     OW19015   3.181   4.054   3.825
 6039SOL    HW119016   3.131   4.103   3.754
 6039SOL    HW219017   3.144   3.962   3.834
 6040SOL     OW19018   1.320   1.536   6.620
 6040SOL    HW119019   1.235   1.531   6.566
 6040SOL    HW219020   1.389   1.585   6.568
 6041SOL     OW19021   3.006   2.639   6.384
 6041SOL    HW119022   3.050   2.691   6.311
 6041SOL    HW219023   2.908   2.662   6.385
 6042SOL     OW19024   2.917   5.953   3.556
 6042SOL    HW119025   2.844   5.885   3.560
 6042SOL    HW219026   3.005   5.907   3.544
 6043SOL     OW19027   1.727   0.586   4.111
 6043SOL    HW119028   1.808   0.558   4.060
 6043SOL    HW219029   1.653   0.607   4.047
 6044SOL     OW19030   1.752   2.175   1.492
 6044SOL    HW119031   1.656   2.204   1.494
 6044SOL    HW219032   1.771   2.128   1.405
 6045SOL     OW19033   5.266   2.732   3.346
 6045SOL    HW119034   5.175   2.750   3.307
 6045SOL    HW219035   5.256   2.692   3.437
 6046SOL     OW19036   3.405   3.393   2.155
 6046SOL    HW119037   3.434   3.297   2.154
 6046SOL    HW219038   3.305   3.397   2.159
 6047SOL     OW19039   5.661   1.813   0.830
 6047SOL    HW119040   5.686   1.757   0.751
 6047SOL    HW219041   5.622   1.899   0.798
 6048SOL     OW19042   5.368   5.953   4.611
 6048SOL    HW119043   5.288   6.012   4.618
 6048SOL    HW219044   5.364   5.881   4.680
 6049SOL     OW19045   4.699   4.580   5.333
 6049SOL    HW119046   4.656   4.670   5.328
 6049SOL    HW219047   4.726   4.551   5.241
 6050SOL     OW19048   3.377   5.215   1.408
 6050SOL    HW119049   3.328   5.209   1.321
 6050SOL    HW219050   3.324   5.168   1.479
 6051SOL     OW19051   1.078   1.223   3.077
 6051SOL    HW119052   1.054   1.317   3.100
 6051SOL    HW219053   1.128   1.221   2.990
 6052SOL     OW19054   5.571   6.684   0.454
 6052SOL    HW119055   5.597   6.591   0.426
 6052SOL    HW219056   5.544   6.736   0.373
 6053SOL     OW19057   4.576   2.324   6.147
 6053SOL    HW119058   4.616   2.255   6.207
 6053SOL    HW219059   4.635   2.405   6.145
 6054SOL     OW19060   4.224   4.649   0.883
 6054SOL    HW119061   4.314   4.685   0.860
 6054SOL    HW219062   4.172   4.717   0.934
 6055SOL     OW19063   3.637   4.781   0.432
 6055SOL    HW119064   3.620   4.722   0.353
 6055SOL    HW219065   3.668   4.725   0.509
 6056SOL     OW19066   6.127   4.299   5.242
 6056SOL    HW119067   6.035   4.272   5.216
 6056SOL    HW219068   6.188   4.219   5.237
 6057SOL     OW19069   4.977   0.214   3.230
 6057SOL    HW119070   5.054   0.239   3.172
 6057SOL    HW219071   4.971   0.278   3.307
 6058SOL     OW19072   5.642   2.351   6.720
 6058SOL    HW119073   5.644   2.447   6.690
 6058SOL    HW219074   5.653   2.291   6.641
 6059SOL     OW19075   5.114   4.431   5.833
 6059SOL    HW119076   5.105   4.494   5.755
 6059SOL    HW219077   5.152   4.344   5.800
 6060SOL     OW19078   2.939   3.219   6.775
 6060SOL    HW119079   2.882   3.287   6.729
 6060SOL    HW219080   3.007   3.265   6.832
 6061SOL     OW19081   4.650   5.210   0.642
 6061SOL    HW119082   4.736   5.204   0.693
 6061SOL    HW219083   4.657   5.156   0.558
 6062SOL     OW19084   2.351   2.615   0.840
 6062SOL    HW119085   2.421   2.549   0.812
 6062SOL    HW219086   2.314   2.587   0.929
 6063SOL     OW19087   3.757   4.600   5.760
 6063SOL    HW119088   3.781   4.647   5.675
 6063SOL    HW219089   3.755   4.501   5.743
 6064SOL     OW19090   6.649   6.801   0.731
 6064SOL    HW119091   6.577   6.733   0.716
 6064SOL    HW219092   6.721   6.761   0.787
 6065SOL     OW19093   1.049   5.687   2.439
 6065SOL    HW119094   1.064   5.728   2.529
 6065SOL    HW219095   1.071   5.590   2.442
 6066SOL     OW19096   5.025   6.879   3.578
 6066SOL    HW119097   5.093   6.895   3.650
 6066SOL    HW219098   4.943   6.933   3.597
 6067SOL     OW19099   6.228   0.235   5.665
 6067SOL    HW119100   6.274   0.180   5.736
 6067SOL    HW219101   6.142   0.191   5.640
 6068SOL     OW19102   4.852   1.394   5.564
 6068SOL    HW119103   4.868   1.435   5.653
 6068SOL    HW219104   4.760   1.355   5.561
 6069SOL     OW19105   0.203   3.240   5.912
 6069SOL    HW119106   0.182   3.332   5.945
 6069SOL    HW219107   0.278   3.202   5.967
 6070SOL     OW19108   3.634   1.516   1.373
 6070SOL    HW119109   3.705   1.517   1.302
 6070SOL    HW219110   3.665   1.568   1.452
 6071SOL     OW19111   5.649   6.505   5.080
 6071SOL    HW119112   5.709   6.584   5.089
 6071SOL    HW219113   5.690   6.427   5.127
 6072SOL     OW19114   0.300   2.524   0.877
 6072SOL    HW119115   0.395   2.515   0.846
 6072SOL    HW219116   0.253   2.437   0.867
 6073SOL     OW19117   4.906   2.561   0.537
 6073SOL    HW119118   4.855   2.646   0.527
 6073SOL    HW219119   4.884   2.520   0.625
 6074SOL     OW19120   1.091   5.890   2.256
 6074SOL    HW119121   1.032   5.962   2.291
 6074SOL    HW219122   1.109   5.823   2.328
 6075SOL     OW19123   4.721   6.781   6.623
 6075SOL    HW119124   4.648   6.714   6.608
 6075SOL    HW219125   4.780   6.749   6.698
 6076SOL     OW19126   2.552   5.170   4.092
 6076SOL    HW119127   2.493   5.251   4.101
 6076SOL    HW219128   2.570   5.153   3.995
 6077SOL     OW19129   6.194   6.785   1.712
 6077SOL    HW119130   6.224   6.855   1.647
 6077SOL    HW219131   6.271   6.726   1.737
 6078SOL     OW19132   4.774   4.159   0.164
 6078SOL    HW119133   4.804   4.132   0.256
 6078SOL    HW219134   4.701   4.097   0.133
 6079SOL     OW19135   4.197   4.280   6.467
 6079SOL    HW119136   4.137   4.307   6.543
 6079SOL    HW219137   4.142   4.238   6.395
 6080SOL     OW19138   0.953   4.589   0.660
 6080SOL    HW119139   0.916   4.670   0.705
 6080SOL    HW219140   1.034   4.615   0.606
 6081SOL     OW19141   0.581   3.695   4.748
 6081SOL    HW119142   0.622   3.706   4.657
 6081SOL    HW219143   0.653   3.681   4.816
 6082SOL     OW19144   4.416   0.727   1.146
 6082SOL    HW119145   4.318   0.723   1.165
 6082SOL    HW219146   4.467   0.724   1.232
 6083SOL     OW19147   5.128   6.213   6.508
 6083SOL    HW119148   5.132   6.122   6.466
 6083SOL    HW219149   5.195   6.218   6.582
 6084SOL     OW19150   0.540   6.883   2.259
 6084SOL    HW119151   0.530   6.898   2.358
 6084SOL    HW219152   0.472   6.937   2.210
 6085SOL     OW19153   6.942   6.174   0.351
 6085SOL    HW119154   0.002   6.209   0.314
 6085SOL    HW219155   6.926   6.081   0.317
 6086SOL     OW19156   3.946   3.466   6.897
 6086SOL    HW119157   3.857   3.446   6.857
 6086SOL    HW219158   3.998   3.526   6.835
 6087SOL     OW19159   5.077   6.889   0.607
 6087SOL    HW119160   5.048   6.802   0.568
 6087SOL    HW219161   5.031   6.964   0.558
 6088SOL     OW19162   5.367   6.986   3.981
 6088SOL    HW119163   5.460   6.959   3.954
 6088SOL    HW219164   5.342   6.941   4.066
 6089SOL     OW19165   6.422   2.395   2.882
 6089SOL    HW119166   6.384   2.482   2.911
 6089SOL    HW219167   6.367   2.358   2.807
 6090SOL     OW19168   3.605   6.291   3.959
 6090SOL    HW119169   3.698   6.316   3.988
 6090SOL    HW219170   3.544   6.291   4.038
 6091SOL     OW19171   2.342   1.433   1.519
 6091SOL    HW119172   2.270   1.503   1.527
 6091SOL    HW219173   2.302   1.348   1.486
 6092SOL     OW19174   3.993   6.326   2.018
 6092SOL    HW119175   3.937   6.245   2.003
 6092SOL    HW219176   4.072   6.303   2.074
 6093SOL     OW19177   2.173   1.470   2.307
 6093SOL    HW119178   2.175   1.550   2.367
 6093SOL    HW219179   2.258   1.418   2.318
 6094SOL     OW19180   0.411   6.722   4.664
 6094SOL    HW119181   0.438   6.644   4.606
 6094SOL    HW219182   0.316   6.710   4.692
 6095SOL     OW19183   4.179   5.763   7.001
 6095SOL    HW119184   4.217   5.733   6.913
 6095SOL    HW219185   4.100   5.707   7.024
 6096SOL     OW19186   5.779   6.476   2.110
 6096SOL    HW119187   5.719   6.554   2.128
 6096SOL    HW219188   5.775   6.452   2.013
 6097SOL     OW19189   1.858   5.953   2.826
 6097SOL    HW119190   1.780   5.964   2.765
 6097SOL    HW219191   1.836   5.990   2.917
 6098SOL     OW19192   6.899   1.078   4.539
 6098SOL    HW119193   6.843   1.084   4.622
 6098SOL    HW219194   6.976   1.016   4.556
 6099SOL     OW19195   5.227   5.792   6.197
 6099SOL    HW119196   5.168   5.734   6.254
 6099SOL    HW219197   5.217   5.765   6.101
 6100SOL     OW19198   6.774   5.637   3.951
 6100SOL    HW119199   6.737   5.624   4.043
 6100SOL    HW219200   6.782   5.735   3.932
 6101SOL     OW19201   6.481   2.255   1.093
 6101SOL    HW119202   6.403   2.282   1.149
 6101SOL    HW219203   6.500   2.158   1.107
 6102SOL     OW19204   4.275   6.255   2.395
 6102SOL    HW119205   4.208   6.189   2.430
 6102SOL    HW219206   4.289   6.239   2.297
 6103SOL     OW19207   6.381   1.564   1.294
 6103SOL    HW119208   6.368   1.503   1.216
 6103SOL    HW219209   6.463   1.537   1.344
 6104SOL     OW19210   6.025   1.220   4.403
 6104SOL    HW119211   5.957   1.150   4.381
 6104SOL    HW219212   6.077   1.192   4.483
 6105SOL     OW19213   2.432   6.273   5.644
 6105SOL    HW119214   2.461   6.202   5.580
 6105SOL    HW219215   2.446   6.363   5.603
 6106SOL     OW19216   0.471   3.801   6.826
 6106SOL    HW119217   0.386   3.849   6.809
 6106SOL    HW219218   0.452   3.714   6.871
 6107SOL     OW19219   4.634   4.410   4.592
 6107SOL    HW119220   4.668   4.316   4.603
 6107SOL    HW219221   4.597   4.442   4.679
 6108SOL     OW19222   1.798   1.043   1.668
 6108SOL    HW119223   1.763   1.026   1.760
 6108SOL    HW219224   1.878   0.985   1.651
 6109SOL     OW19225   5.485   6.529   3.214
 6109SOL    HW119226   5.455   6.517   3.119
 6109SOL    HW219227   5.485   6.441   3.261
 6110SOL     OW19228   0.978   2.201   5.550
 6110SOL    HW119229   1.072   2.171   5.533
 6110SOL    HW219230   0.923   2.184   5.469
 6111SOL     OW19231   1.660   3.692   1.437
 6111SOL    HW119232   1.635   3.774   1.490
 6111SOL    HW219233   1.622   3.699   1.345
 6112SOL     OW19234   4.138   0.369   2.463
 6112SOL    HW119235   4.058   0.369   2.523
 6112SOL    HW219236   4.217   0.333   2.512
 6113SOL     OW19237   2.453   5.406   0.137
 6113SOL    HW119238   2.362   5.440   0.162
 6113SOL    HW219239   2.510   5.483   0.109
 6114SOL     OW19240   4.685   1.682   0.957
 6114SOL    HW119241   4.635   1.765   0.934
 6114SOL    HW219242   4.694   1.674   1.056
 6115SOL     OW19243   1.214   1.125   5.471
 6115SOL    HW119244   1.307   1.156   5.454
 6115SOL    HW219245   1.203   1.101   5.567
 6116SOL     OW19246   4.084   2.173   4.754
 6116SOL    HW119247   4.084   2.074   4.747
 6116SOL    HW219248   4.070   2.213   4.663
 6117SOL     OW19249   1.611   2.225   2.810
 6117SOL    HW119250   1.671   2.196   2.734
 6117SOL    HW219251   1.642   2.314   2.844
 6118SOL     OW19252   5.806   1.109   0.216
 6118SOL    HW119253   5.798   1.190   0.158
 6118SOL    HW219254   5.867   1.042   0.172
 6119SOL     OW19255   0.415   2.152   0.635
 6119SOL    HW119256   0.354   2.229   0.618
 6119SOL    HW219257   0.365   2.066   0.621
 6120SOL     OW19258   2.274   6.827   5.902
 6120SOL    HW119259   2.300   6.818   5.805
 6120SOL    HW219260   2.329   6.899   5.944
 6121SOL     OW19261   1.209   3.177   5.285
 6121SOL    HW119262   1.204   3.200   5.382
 6121SOL    HW219263   1.265   3.095   5.273
 6122SOL     OW19264   5.200   6.168   5.627
 6122SOL    HW119265   5.185   6.069   5.624
 6122SOL    HW219266   5.173   6.209   5.539
 6123SOL     OW19267   6.182   1.068   5.416
 6123SOL    HW119268   6.164   0.978   5.457
 6123SOL    HW219269   6.119   1.082   5.339
 6124SOL     OW19270   2.406   0.182   4.852
 6124SOL    HW119271   2.388   0.110   4.919
 6124SOL    HW219272   2.467   0.250   4.891
 6125SOL     OW19273   2.104   3.471   7.004
 6125SOL    HW119274   2.163   3.542   6.965
 6125SOL    HW219275   2.023   3.459   6.948
 6126SOL     OW19276   0.228   2.519   4.554
 6126SOL    HW119277   0.178   2.505   4.639
 6126SOL    HW219278   0.168   2.561   4.486
 6127SOL     OW19279   4.459   1.412   1.924
 6127SOL    HW119280   4.477   1.487   1.861
 6127SOL    HW219281   4.377   1.432   1.977
 6128SOL     OW19282   5.880   5.729   0.907
 6128SOL    HW119283   5.944   5.707   0.980
 6128SOL    HW219284   5.845   5.645   0.866
 6129SOL     OW19285   2.249   4.837   3.191
 6129SOL    HW119286   2.283   4.807   3.281
 6129SOL    HW219287   2.172   4.899   3.204
 6130SOL     OW19288   4.997   2.962   1.314
 6130SOL    HW119289   5.031   2.894   1.249
 6130SOL    HW219290   5.075   3.004   1.361
 6131SOL     OW19291   0.418   2.013   2.455
 6131SOL    HW119292   0.326   1.995   2.421
 6131SOL    HW219293   0.484   2.004   2.379
 6132SOL     OW19294   3.239   1.563   0.086
 6132SOL    HW119295   3.197   1.641   0.131
 6132SOL    HW219296   3.272   1.590   7.021
 6133SOL     OW19297   1.589   2.441   4.063
 6133SOL    HW119298   1.680   2.413   4.095
 6133SOL    HW219299   1.539   2.360   4.031
 6134SOL     OW19300   5.316   6.000   6.388
 6134SOL    HW119301   5.381   6.056   6.335
 6134SOL    HW219302   5.307   5.910   6.344
 6135SOL     OW19303   5.434   0.248   0.331
 6135SOL    HW119304   5.468   0.312   0.400
 6135SOL    HW219305   5.336   0.264   0.316
 6136SOL     OW19306   0.904   2.786   1.959
 6136SOL    HW119307   0.894   2.778   2.059
 6136SOL    HW219308   0.869   2.703   1.916
 6137SOL     OW19309   7.008   5.065   3.314
 6137SOL    HW119310   0.020   5.080   3.405
 6137SOL    HW219311   0.054   5.082   3.246
 6138SOL     OW19312   3.557   0.471   2.044
 6138SOL    HW119313   3.538   0.374   2.057
 6138SOL    HW219314   3.655   0.487   2.047
 6139SOL     OW19315   1.087   6.937   5.576
 6139SOL    HW119316   1.151   6.880   5.627
 6139SOL    HW219317   0.995   6.899   5.584
 6140SOL     OW19318   2.368   0.256   2.986
 6140SOL    HW119319   2.275   0.238   3.019
 6140SOL    HW219320   2.426   0.282   3.063
 6141SOL     OW19321   0.095   0.758   5.513
 6141SOL    HW119322   0.077   0.849   5.477
 6141SOL    HW219323   0.106   0.762   5.612
 6142SOL     OW19324   0.622   1.247   0.733
 6142SOL    HW119325   0.654   1.217   0.643
 6142SOL    HW219326   0.573   1.334   0.725
 6143SOL     OW19327   6.332   3.717   6.315
 6143SOL    HW119328   6.317   3.805   6.270
 6143SOL    HW219329   6.325   3.643   6.248
 6144SOL     OW19330   4.540   4.433   2.996
 6144SOL    HW119331   4.478   4.502   2.960
 6144SOL    HW219332   4.548   4.443   3.095
 6145SOL     OW19333   5.103   3.429   4.189
 6145SOL    HW119334   5.043   3.360   4.230
 6145SOL    HW219335   5.129   3.400   4.097
 6146SOL     OW19336   3.982   0.512   4.364
 6146SOL    HW119337   3.915   0.584   4.384
 6146SOL    HW219338   4.014   0.521   4.270
 6147SOL     OW19339   2.237   2.960   4.319
 6147SOL    HW119340   2.323   3.010   4.330
 6147SOL    HW219341   2.250   2.865   4.349
 6148SOL     OW19342   4.340   5.047   0.405
 6148SOL    HW119343   4.291   4.972   0.450
 6148SOL    HW219344   4.295   5.068   0.318
 6149SOL     OW19345   2.802   0.409   2.339
 6149SOL    HW119346   2.780   0.313   2.350
 6149SOL    HW219347   2.742   0.464   2.397
 6150SOL     OW19348   6.055   3.765   6.436
 6150SOL    HW119349   6.136   3.822   6.450
 6150SOL    HW219350   6.041   3.751   6.338
 6151SOL     OW19351   4.952   4.507   4.351
 6151SOL    HW119352   4.961   4.460   4.439
 6151SOL    HW219353   4.859   4.543   4.342
 6152SOL     OW19354   0.948   5.111   4.223
 6152SOL    HW119355   0.950   5.207   4.196
 6152SOL    HW219356   1.002   5.057   4.159
 6153SOL     OW19357   4.924   5.255   0.673
 6153SOL    HW119358   4.943   5.325   0.742
 6153SOL    HW219359   4.880   5.298   0.594
 6154SOL     OW19360   5.450   2.841   2.159
 6154SOL    HW119361   5.476   2.779   2.086
 6154SOL    HW219362   5.531   2.891   2.191
 6155SOL     OW19363   2.419   1.543   3.391
 6155SOL    HW119364   2.480   1.464   3.393
 6155SOL    HW219365   2.432   1.598   3.474
 6156SOL     OW19366   5.392   4.276   1.385
 6156SOL    HW119367   5.474   4.218   1.386
 6156SOL    HW219368   5.311   4.218   1.394
 6157SOL     OW19369   0.701   2.363   3.179
 6157SOL    HW119370   0.787   2.326   3.214
 6157SOL    HW219371   0.624   2.322   3.228
 6158SOL     OW19372   2.635   2.662   5.754
 6158SOL    HW119373   2.581   2.740   5.725
 6158SOL    HW219374   2.686   2.686   5.837
 6159SOL     OW19375   5.797   2.352   7.012
 6159SOL    HW119376   5.838   2.277   0.039
 6159SOL    HW219377   5.842   2.358   6.923
 6160SOL     OW19378   0.466   0.033   6.818
 6160SOL    HW119379   0.491   6.962   6.821
 6160SOL    HW219380   0.391   0.045   6.752
 6161SOL     OW19381   4.930   2.707   6.827
 6161SOL    HW119382   4.956   2.712   6.731
 6161SOL    HW219383   5.011   2.702   6.885
 6162SOL     OW19384   6.412   6.466   2.226
 6162SOL    HW119385   6.433   6.375   2.191
 6162SOL    HW219386   6.314   6.482   2.220
 6163SOL     OW19387   5.934   6.418   2.783
 6163SOL    HW119388   5.874   6.427   2.703
 6163SOL    HW219389   6.014   6.362   2.758
 6164SOL     OW19390   3.901   4.032   4.383
 6164SOL    HW119391   3.865   3.980   4.305
 6164SOL    HW219392   3.989   3.993   4.411
 6165SOL     OW19393   4.160   2.530   0.228
 6165SOL    HW119394   4.076   2.493   0.267
 6165SOL    HW219395   4.137   2.587   0.148
 6166SOL     OW19396   0.646   2.331   6.871
 6166SOL    HW119397   0.635   2.429   6.883
 6166SOL    HW219398   0.709   2.313   6.796
 6167SOL     OW19399   1.542   4.518   3.640
 6167SOL    HW119400   1.573   4.462   3.564
 6167SOL    HW219401   1.547   4.465   3.725
 6168SOL     OW19402   0.197   2.976   3.945
 6168SOL    HW119403   0.143   3.055   3.914
 6168SOL    HW219404   0.136   2.898   3.962
 6169SOL     OW19405   1.002   6.884   6.546
 6169SOL    HW119406   1.053   6.850   6.467
 6169SOL    HW219407   1.038   6.842   6.630
 6170SOL     OW19408   3.925   4.341   0.433
 6170SOL    HW119409   3.947   4.267   0.369
 6170SOL    HW219410   3.926   4.429   0.385
 6171SOL     OW19411   1.218   4.788   2.450
 6171SOL    HW119412   1.206   4.691   2.429
 6171SOL    HW219413   1.237   4.839   2.366
 6172SOL     OW19414   1.265   0.352   2.822
 6172SOL    HW119415   1.192   0.327   2.759
 6172SOL    HW219416   1.230   0.353   2.916
 6173SOL     OW19417   1.106   4.824   3.493
 6173SOL    HW119418   1.112   4.724   3.484
 6173SOL    HW219419   1.191   4.865   3.461
 6174SOL     OW19420   5.735   4.775   2.541
 6174SOL    HW119421   5.670   4.723   2.486
 6174SOL    HW219422   5.825   4.772   2.498
 6175SOL     OW19423   5.332   6.374   2.525
 6175SOL    HW119424   5.413   6.362   2.469
 6175SOL    HW219425   5.279   6.452   2.491
 6176SOL     OW19426   5.761   3.142   6.768
 6176SOL    HW119427   5.787   3.061   6.715
 6176SOL    HW219428   5.839   3.171   6.824
 6177SOL     OW19429   5.401   1.669   1.995
 6177SOL    HW119430   5.377   1.655   2.091
 6177SOL    HW219431   5.422   1.580   1.954
 6178SOL     OW19432   4.994   4.795   0.880
 6178SOL    HW119433   5.036   4.818   0.968
 6178SOL    HW219434   4.953   4.704   0.885
 6179SOL     OW19435   0.453   3.074   4.820
 6179SOL    HW119436   0.433   3.093   4.724
 6179SOL    HW219437   0.539   3.117   4.846
 6180SOL     OW19438   3.663   6.350   1.050
 6180SOL    HW119439   3.672   6.254   1.021
 6180SOL    HW219440   3.729   6.406   0.999
 6181SOL     OW19441   5.103   6.359   6.889
 6181SOL    HW119442   5.101   6.446   6.839
 6181SOL    HW219443   5.097   6.378   6.987
 6182SOL     OW19444   5.670   5.435   4.859
 6182SOL    HW119445   5.741   5.364   4.857
 6182SOL    HW219446   5.601   5.410   4.927
 6183SOL     OW19447   2.412   0.574   2.737
 6183SOL    HW119448   2.498   0.582   2.787
 6183SOL    HW219449   2.431   0.550   2.642
 6184SOL     OW19450   1.559   0.156   6.648
 6184SOL    HW119451   1.532   0.060   6.654
 6184SOL    HW219452   1.610   0.181   6.730
 6185SOL     OW19453   0.421   3.574   0.048
 6185SOL    HW119454   0.329   3.587   0.011
 6185SOL    HW219455   0.443   3.652   0.107
 6186SOL     OW19456   5.641   0.225   3.773
 6186SOL    HW119457   5.705   0.230   3.697
 6186SOL    HW219458   5.568   0.293   3.760
 6187SOL     OW19459   5.091   4.902   3.621
 6187SOL    HW119460   5.099   4.909   3.521
 6187SOL    HW219461   5.010   4.848   3.645
 6188SOL     OW19462   2.755   6.031   1.429
 6188SOL    HW119463   2.673   6.088   1.438
 6188SOL    HW219464   2.763   5.971   1.508
 6189SOL     OW19465   5.071   4.867   2.648
 6189SOL    HW119466   5.047   4.885   2.552
 6189SOL    HW219467   5.161   4.906   2.668
 6190SOL     OW19468   4.831   3.159   6.185
 6190SOL    HW119469   4.796   3.098   6.114
 6190SOL    HW219470   4.924   3.132   6.210
 6191SOL     OW19471   5.401   2.398   0.804
 6191SOL    HW119472   5.437   2.382   0.712
 6191SOL    HW219473   5.466   2.363   0.871
 6192SOL     OW19474   3.127   3.745   0.426
 6192SOL    HW119475   3.083   3.770   0.512
 6192SOL    HW219476   3.182   3.822   0.393
 6193SOL     OW19477   5.325   0.218   2.256
 6193SOL    HW119478   5.389   0.276   2.206
 6193SOL    HW219479   5.290   0.146   2.196
 6194SOL     OW19480   2.402   0.720   1.326
 6194SOL    HW119481   2.316   0.742   1.371
 6194SOL    HW219482   2.476   0.774   1.366
 6195SOL     OW19483   3.981   5.686   6.090
 6195SOL    HW119484   3.915   5.676   6.016
 6195SOL    HW219485   4.025   5.598   6.108
 6196SOL     OW19486   0.809   2.687   6.004
 6196SOL    HW119487   0.783   2.744   5.926
 6196SOL    HW219488   0.801   2.590   5.978
 6197SOL     OW19489   2.674   4.120   0.885
 6197SOL    HW119490   2.712   4.188   0.947
 6197SOL    HW219491   2.706   4.029   0.912
 6198SOL     OW19492   3.450   5.577   3.145
 6198SOL    HW119493   3.508   5.624   3.211
 6198SOL    HW219494   3.505   5.511   3.093
 6199SOL     OW19495   1.164   0.330   0.951
 6199SOL    HW119496   1.110   0.414   0.943
 6199SOL    HW219497   1.112   0.262   1.004
 6200SOL     OW19498   2.610   1.293   6.385
 6200SOL    HW119499   2.604   1.207   6.435
 6200SOL    HW219500   2.546   1.359   6.423
 6201SOL     OW19501   2.196   4.180   6.141
 6201SOL    HW119502   2.178   4.083   6.157
 6201SOL    HW219503   2.205   4.196   6.042
 6202SOL     OW19504   4.032   1.859   1.225
 6202SOL    HW119505   4.107   1.793   1.226
 6202SOL    HW219506   3.974   1.844   1.305
 6203SOL     OW19507   5.110   0.808   3.816
 6203SOL    HW119508   5.042   0.746   3.775
 6203SOL    HW219509   5.125   0.782   3.911
 6204SOL     OW19510   0.978   5.326   5.509
 6204SOL    HW119511   0.976   5.260   5.585
 6204SOL    HW219512   1.073   5.344   5.484
 6205SOL     OW19513   5.529   5.223   6.894
 6205SOL    HW119514   5.605   5.215   6.829
 6205SOL    HW219515   5.452   5.169   6.861
 6206SOL     OW19516   0.101   0.838   1.971
 6206SOL    HW119517   0.168   0.776   2.011
 6206SOL    HW219518   0.068   0.800   1.885
 6207SOL     OW19519   0.869   4.211   5.154
 6207SOL    HW119520   0.951   4.178   5.106
 6207SOL    HW219521   0.787   4.176   5.108
 6208SOL     OW19522   6.484   0.438   5.905
 6208SOL    HW119523   6.384   0.436   5.896
 6208SOL    HW219524   6.523   0.366   5.847
 6209SOL     OW19525   4.758   6.030   0.146
 6209SOL    HW119526   4.756   5.930   0.136
 6209SOL    HW219527   4.808   6.054   0.228
 6210SOL     OW19528   5.344   3.722   2.731
 6210SOL    HW119529   5.268   3.752   2.673
 6210SOL    HW219530   5.412   3.796   2.737
 6211SOL     OW19531   2.706   0.309   6.339
 6211SOL    HW119532   2.762   0.261   6.272
 6211SOL    HW219533   2.753   0.309   6.428
 6212SOL     OW19534   6.727   6.070   3.536
 6212SOL    HW119535   6.752   6.087   3.440
 6212SOL    HW219536   6.667   5.990   3.541
 6213SOL     OW19537   5.696   0.915   6.906
 6213SOL    HW119538   5.748   0.999   6.888
 6213SOL    HW219539   5.756   0.836   6.896
 6214SOL     OW19540   6.152   4.959   2.700
 6214SOL    HW119541   6.058   4.950   2.732
 6214SOL    HW219542   6.172   4.887   2.634
 6215SOL     OW19543   2.957   2.189   0.042
 6215SOL    HW119544   2.949   2.159   0.137
 6215SOL    HW219545   3.029   2.258   0.035
 6216SOL     OW19546   6.352   1.796   1.439
 6216SOL    HW119547   6.359   1.734   1.361
 6216SOL    HW219548   6.365   1.744   1.523
 6217SOL     OW19549   4.725   2.931   1.400
 6217SOL    HW119550   4.824   2.946   1.401
 6217SOL    HW219551   4.692   2.923   1.494
 6218SOL     OW19552   2.511   4.799   4.777
 6218SOL    HW119553   2.548   4.859   4.847
 6218SOL    HW219554   2.413   4.788   4.790
 6219SOL     OW19555   1.540   2.332   4.905
 6219SOL    HW119556   1.450   2.333   4.860
 6219SOL    HW219557   1.539   2.396   4.982
 6220SOL     OW19558   1.699   4.702   5.983
 6220SOL    HW119559   1.635   4.778   5.989
 6220SOL    HW219560   1.751   4.709   5.898
 6221SOL     OW19561   4.741   5.240   4.836
 6221SOL    HW119562   4.697   5.152   4.852
 6221SOL    HW219563   4.756   5.254   4.739
 6222SOL     OW19564   0.149   0.122   1.329
 6222SOL    HW119565   0.075   0.054   1.327
 6222SOL    HW219566   0.233   0.080   1.296
 6223SOL     OW19567   5.729   3.962   4.385
 6223SOL    HW119568   5.693   3.922   4.469
 6223SOL    HW219569   5.693   4.055   4.373
 6224SOL     OW19570   1.682   1.391   6.027
 6224SOL    HW119571   1.769   1.401   5.979
 6224SOL    HW219572   1.611   1.443   5.979
 6225SOL     OW19573   3.481   3.518   1.102
 6225SOL    HW119574   3.507   3.572   1.023
 6225SOL    HW219575   3.541   3.541   1.179
 6226SOL     OW19576   5.797   1.333   3.686
 6226SOL    HW119577   5.797   1.245   3.639
 6226SOL    HW219578   5.743   1.325   3.770
 6227SOL     OW19579   3.179   4.313   6.053
 6227SOL    HW119580   3.128   4.316   6.139
 6227SOL    HW219581   3.254   4.379   6.056
 6228SOL     OW19582   6.519   1.670   2.735
 6228SOL    HW119583   6.555   1.755   2.697
 6228SOL    HW219584   6.592   1.621   2.782
 6229SOL     OW19585   2.635   1.494   2.750
 6229SOL    HW119586   2.732   1.484   2.730
 6229SOL    HW219587   2.585   1.416   2.711
 6230SOL     OW19588   2.674   1.464   4.506
 6230SOL    HW119589   2.603   1.535   4.502
 6230SOL    HW219590   2.691   1.429   4.414
 6231SOL     OW19591   6.858   4.634   0.932
 6231SOL    HW119592   6.943   4.686   0.938
 6231SOL    HW219593   6.856   4.565   1.004
 6232SOL     OW19594   0.229   1.472   0.179
 6232SOL    HW119595   0.226   1.395   0.115
 6232SOL    HW219596   0.185   1.552   0.137
 6233SOL     OW19597   5.412   1.945   6.570
 6233SOL    HW119598   5.464   1.963   6.654
 6233SOL    HW219599   5.377   2.031   6.534
 6234SOL     OW19600   1.432   1.490   4.554
 6234SOL    HW119601   1.367   1.473   4.480
 6234SOL    HW219602   1.406   1.573   4.603
 6235SOL     OW19603   1.942   6.715   3.391
 6235SOL    HW119604   1.919   6.811   3.405
 6235SOL    HW219605   2.007   6.707   3.316
 6236SOL     OW19606   0.251   4.753   1.409
 6236SOL    HW119607   0.273   4.758   1.312
 6236SOL    HW219608   0.232   4.844   1.444
 6237SOL     OW19609   4.469   5.876   0.507
 6237SOL    HW119610   4.446   5.875   0.604
 6237SOL    HW219611   4.488   5.783   0.477
 6238SOL     OW19612   4.691   5.720   2.273
 6238SOL    HW119613   4.669   5.625   2.254
 6238SOL    HW219614   4.724   5.728   2.367
 6239SOL     OW19615   3.111   6.173   2.520
 6239SOL    HW119616   3.137   6.258   2.473
 6239SOL    HW219617   3.073   6.109   2.454
 6240SOL     OW19618   2.557   2.502   1.093
 6240SOL    HW119619   2.643   2.504   1.040
 6240SOL    HW219620   2.507   2.587   1.078
 6241SOL     OW19621   3.052   0.995   2.161
 6241SOL    HW119622   3.092   0.909   2.192
 6241SOL    HW219623   2.960   1.005   2.199
 6242SOL     OW19624   5.109   1.248   3.551
 6242SOL    HW119625   5.114   1.261   3.452
 6242SOL    HW219626   5.031   1.189   3.572
 6243SOL     OW19627   5.929   6.472   3.708
 6243SOL    HW119628   5.862   6.545   3.691
 6243SOL    HW219629   5.995   6.470   3.633
 6244SOL     OW19630   2.525   2.329   2.537
 6244SOL    HW119631   2.596   2.371   2.594
 6244SOL    HW219632   2.557   2.241   2.503
 6245SOL     OW19633   2.747   4.160   1.151
 6245SOL    HW119634   2.738   4.200   1.242
 6245SOL    HW219635   2.709   4.068   1.151
 6246SOL     OW19636   2.719   2.716   6.627
 6246SOL    HW119637   2.751   2.626   6.599
 6246SOL    HW219638   2.722   2.724   6.726
 6247SOL     OW19639   0.193   6.859   4.043
 6247SOL    HW119640   0.160   6.950   4.066
 6247SOL    HW219641   0.196   6.802   4.125
 6248SOL     OW19642   0.891   4.131   1.198
 6248SOL    HW119643   0.855   4.048   1.157
 6248SOL    HW219644   0.969   4.164   1.145
 6249SOL     OW19645   0.231   4.816   0.315
 6249SOL    HW119646   0.226   4.716   0.315
 6249SOL    HW219647   0.295   4.846   0.386
 6250SOL     OW19648   6.862   6.281   0.687
 6250SOL    HW119649   6.925   6.358   0.692
 6250SOL    HW219650   6.793   6.289   0.758
 6251SOL     OW19651   4.276   0.455   1.726
 6251SOL    HW119652   4.322   0.515   1.791
 6251SOL    HW219653   4.177   0.471   1.730
 6252SOL     OW19654   2.335   5.431   4.952
 6252SOL    HW119655   2.394   5.416   5.031
 6252SOL    HW219656   2.390   5.462   4.874
 6253SOL     OW19657   2.368   4.052   1.647
 6253SOL    HW119658   2.280   4.065   1.602
 6253SOL    HW219659   2.397   4.137   1.692
 6254SOL     OW19660   5.968   0.146   6.902
 6254SOL    HW119661   5.958   0.155   6.803
 6254SOL    HW219662   6.064   0.129   6.924
 6255SOL     OW19663   1.411   1.422   1.670
 6255SOL    HW119664   1.422   1.518   1.697
 6255SOL    HW219665   1.319   1.407   1.636
 6256SOL     OW19666   4.152   5.093   2.354
 6256SOL    HW119667   4.138   5.139   2.442
 6256SOL    HW219668   4.227   5.026   2.363
 6257SOL     OW19669   5.530   2.293   1.304
 6257SOL    HW119670   5.492   2.284   1.212
 6257SOL    HW219671   5.600   2.223   1.318
 6258SOL     OW19672   4.245   1.458   3.084
 6258SOL    HW119673   4.253   1.375   3.030
 6258SOL    HW219674   4.151   1.492   3.079
 6259SOL     OW19675   3.155   1.661   1.461
 6259SOL    HW119676   3.239   1.706   1.434
 6259SOL    HW219677   3.173   1.565   1.481
 6260SOL     OW19678   4.180   4.010   0.551
 6260SOL    HW119679   4.226   4.099   0.550
 6260SOL    HW219680   4.242   3.940   0.516
 6261SOL     OW19681   4.036   6.949   6.629
 6261SOL    HW119682   4.015   6.918   6.722
 6261SOL    HW219683   3.953   6.945   6.573
 6262SOL     OW19684   1.770   4.535   0.753
 6262SOL    HW119685   1.844   4.520   0.688
 6262SOL    HW219686   1.774   4.466   0.825
 6263SOL     OW19687   0.310   6.103   6.524
 6263SOL    HW119688   0.312   6.161   6.606
 6263SOL    HW219689   0.386   6.128   6.464
 6264SOL     OW19690   2.619   1.673   1.174
 6264SOL    HW119691   2.714   1.644   1.166
 6264SOL    HW219692   2.597   1.693   1.270
 6265SOL     OW19693   3.678   4.466   1.131
 6265SOL    HW119694   3.746   4.394   1.142
 6265SOL    HW219695   3.590   4.426   1.106
 6266SOL     OW19696   3.859   1.033   3.767
 6266SOL    HW119697   3.841   1.113   3.710
 6266SOL    HW219698   3.890   0.957   3.709
 6267SOL     OW19699   2.958   0.397   0.418
 6267SOL    HW119700   2.921   0.307   0.395
 6267SOL    HW219701   2.905   0.468   0.372
 6268SOL     OW19702   2.871   5.125   3.030
 6268SOL    HW119703   2.822   5.119   3.117
 6268SOL    HW219704   2.805   5.126   2.954
 6269SOL     OW19705   5.867   5.808   2.058
 6269SOL    HW119706   5.844   5.711   2.059
 6269SOL    HW219707   5.921   5.831   2.139
 6270SOL     OW19708   1.868   0.565   5.931
 6270SOL    HW119709   1.938   0.635   5.917
 6270SOL    HW219710   1.778   0.607   5.928
 6271SOL     OW19711   0.196   2.615   5.856
 6271SOL    HW119712   0.206   2.522   5.891
 6271SOL    HW219713   0.187   2.679   5.932
 6272SOL     OW19714   0.836   3.731   4.492
 6272SOL    HW119715   0.879   3.673   4.422
 6272SOL    HW219716   0.901   3.799   4.524
 6273SOL     OW19717   1.779   0.863   1.884
 6273SOL    HW119718   1.756   0.779   1.835
 6273SOL    HW219719   1.717   0.876   1.960
 6274SOL     OW19720   3.071   5.987   6.720
 6274SOL    HW119721   3.038   5.988   6.814
 6274SOL    HW219722   3.158   5.939   6.715
 6275SOL     OW19723   2.975   6.913   5.350
 6275SOL    HW119724   3.051   6.897   5.287
 6275SOL    HW219725   3.010   6.922   5.443
 6276SOL     OW19726   1.040   5.162   3.781
 6276SOL    HW119727   0.972   5.179   3.852
 6276SOL    HW219728   0.997   5.117   3.703
 6277SOL     OW19729   4.882   2.454   2.866
 6277SOL    HW119730   4.965   2.456   2.810
 6277SOL    HW219731   4.841   2.545   2.870
 6278SOL     OW19732   4.624   0.313   4.144
 6278SOL    HW119733   4.643   0.221   4.110
 6278SOL    HW219734   4.525   0.325   4.155
 6279SOL     OW19735   4.155   1.544   0.803
 6279SOL    HW119736   4.060   1.575   0.803
 6279SOL    HW219737   4.157   1.445   0.786
 6280SOL     OW19738   0.535   3.377   5.388
 6280SOL    HW119739   0.631   3.384   5.414
 6280SOL    HW219740   0.496   3.469   5.377
 6281SOL     OW19741   2.437   0.365   5.336
 6281SOL    HW119742   2.388   0.301   5.396
 6281SOL    HW219743   2.507   0.412   5.388
 6282SOL     OW19744   1.379   6.709   5.146
 6282SOL    HW119745   1.388   6.809   5.150
 6282SOL    HW219746   1.282   6.685   5.142
 6283SOL     OW19747   6.897   2.424   5.012
 6283SOL    HW119748   6.968   2.359   5.037
 6283SOL    HW219749   6.892   2.432   4.913
 6284SOL     OW19750   1.660   5.320   5.772
 6284SOL    HW119751   1.668   5.235   5.825
 6284SOL    HW219752   1.642   5.396   5.834
 6285SOL     OW19753   1.400   3.403   4.015
 6285SOL    HW119754   1.425   3.411   3.919
 6285SOL    HW219755   1.461   3.337   4.060
 6286SOL     OW19756   5.672   1.180   3.351
 6286SOL    HW119757   5.652   1.108   3.284
 6286SOL    HW219758   5.754   1.155   3.402
 6287SOL     OW19759   4.714   4.343   1.817
 6287SOL    HW119760   4.755   4.364   1.906
 6287SOL    HW219761   4.628   4.294   1.831
 6288SOL     OW19762   5.218   4.109   1.075
 6288SOL    HW119763   5.229   4.196   1.124
 6288SOL    HW219764   5.169   4.044   1.133
 6289SOL     OW19765   2.160   2.695   3.644
 6289SOL    HW119766   2.071   2.724   3.681
 6289SOL    HW219767   2.150   2.604   3.604
 6290SOL     OW19768   5.067   4.107   4.083
 6290SOL    HW119769   4.982   4.137   4.042
 6290SOL    HW219770   5.144   4.145   4.031
 6291SOL     OW19771   3.700   3.233   3.790
 6291SOL    HW119772   3.711   3.270   3.698
 6291SOL    HW219773   3.741   3.296   3.856
 6292SOL     OW19774   1.019   2.316   3.544
 6292SOL    HW119775   1.053   2.230   3.505
 6292SOL    HW219776   1.067   2.393   3.500
 6293SOL     OW19777   5.319   0.042   6.963
 6293SOL    HW119778   5.243   0.040   0.003
 6293SOL    HW219779   5.402   0.074   7.009
 6294SOL     OW19780   3.056   5.408   2.546
 6294SOL    HW119781   2.987   5.466   2.588
 6294SOL    HW219782   3.019   5.368   2.461
 6295SOL     OW19783   5.456   5.883   5.455
 6295SOL    HW119784   5.447   5.840   5.365
 6295SOL    HW219785   5.540   5.851   5.499
 6296SOL     OW19786   6.381   0.657   3.384
 6296SOL    HW119787   6.440   0.700   3.316
 6296SOL    HW219788   6.331   0.728   3.435
 6297SOL     OW19789   5.218   6.474   5.917
 6297SOL    HW119790   5.223   6.379   5.887
 6297SOL    HW219791   5.266   6.483   6.005
 6298SOL     OW19792   1.130   3.483   5.630
 6298SOL    HW119793   1.115   3.561   5.570
 6298SOL    HW219794   1.228   3.469   5.643
 6299SOL     OW19795   6.135   2.411   6.506
 6299SOL    HW119796   6.171   2.489   6.454
 6299SOL    HW219797   6.186   2.401   6.591
 6300SOL     OW19798   5.224   0.698   4.344
 6300SOL    HW119799   5.184   0.709   4.435
 6300SOL    HW219800   5.313   0.653   4.352
 6301SOL     OW19801   2.551   6.392   1.178
 6301SOL    HW119802   2.591   6.430   1.261
 6301SOL    HW219803   2.605   6.315   1.146
 6302SOL     OW19804   1.649   0.994   3.880
 6302SOL    HW119805   1.726   0.988   3.943
 6302SOL    HW219806   1.682   1.022   3.790
 6303SOL     OW19807   2.215   0.133   5.126
 6303SOL    HW119808   2.308   0.108   5.154
 6303SOL    HW219809   2.165   0.050   5.100
 6304SOL     OW19810   3.432   0.272   0.921
 6304SOL    HW119811   3.401   0.259   0.827
 6304SOL    HW219812   3.497   0.200   0.945
 6305SOL     OW19813   6.521   6.765   1.142
 6305SOL    HW119814   6.463   6.786   1.221
 6305SOL    HW219815   6.592   6.835   1.133
 6306SOL     OW19816   6.729   3.001   4.046
 6306SOL    HW119817   6.774   2.963   3.964
 6306SOL    HW219818   6.744   3.099   4.050
 6307SOL     OW19819   2.784   5.249   5.515
 6307SOL    HW119820   2.860   5.190   5.543
 6307SOL    HW219821   2.821   5.330   5.469
 6308SOL     OW19822   2.124   1.834   5.378
 6308SOL    HW119823   2.088   1.915   5.332
 6308SOL    HW219824   2.092   1.833   5.473
 6309SOL     OW19825   4.779   2.336   3.808
 6309SOL    HW119826   4.861   2.293   3.844
 6309SOL    HW219827   4.708   2.266   3.795
 6310SOL     OW19828   1.253   4.769   4.655
 6310SOL    HW119829   1.289   4.686   4.697
 6310SOL    HW219830   1.273   4.848   4.713
 6311SOL     OW19831   6.938   0.427   4.790
 6311SOL    HW119832   7.025   0.399   4.751
 6311SOL    HW219833   6.862   0.387   4.738
 6312SOL     OW19834   4.677   5.064   6.442
 6312SOL    HW119835   4.752   5.036   6.502
 6312SOL    HW219836   4.698   5.154   6.403
 6313SOL     OW19837   1.726   5.503   3.748
 6313SOL    HW119838   1.717   5.573   3.818
 6313SOL    HW219839   1.760   5.544   3.663
 6314SOL     OW19840   2.659   5.722   2.579
 6314SOL    HW119841   2.717   5.792   2.537
 6314SOL    HW219842   2.626   5.755   2.667
 6315SOL     OW19843   4.311   3.170   0.154
 6315SOL    HW119844   4.382   3.101   0.170
 6315SOL    HW219845   4.336   3.255   0.199
 6316SOL     OW19846   4.889   2.138   5.901
 6316SOL    HW119847   4.823   2.165   5.831
 6316SOL    HW219848   4.876   2.042   5.925
 6317SOL     OW19849   4.932   6.897   2.912
 6317SOL    HW119850   4.907   6.981   2.959
 6317SOL    HW219851   5.025   6.904   2.877
 6318SOL     OW19852   2.574   2.509   6.063
 6318SOL    HW119853   2.673   2.521   6.052
 6318SOL    HW219854   2.531   2.598   6.079
 6319SOL     OW19855   0.561   3.237   3.570
 6319SOL    HW119856   0.579   3.168   3.500
 6319SOL    HW219857   0.597   3.206   3.658
 6320SOL     OW19858   6.352   3.855   3.378
 6320SOL    HW119859   6.441   3.863   3.422
 6320SOL    HW219860   6.350   3.773   3.320
 6321SOL     OW19861   3.015   5.584   0.774
 6321SOL    HW119862   3.001   5.638   0.857
 6321SOL    HW219863   3.026   5.646   0.696
 6322SOL     OW19864   1.448   1.305   6.660
 6322SOL    HW119865   1.402   1.393   6.647
 6322SOL    HW219866   1.381   1.231   6.660
 6323SOL     OW19867   3.382   2.286   1.752
 6323SOL    HW119868   3.480   2.302   1.762
 6323SOL    HW219869   3.365   2.187   1.749
 6324SOL     OW19870   4.347   0.799   5.332
 6324SOL    HW119871   4.373   0.888   5.294
 6324SOL    HW219872   4.280   0.813   5.404
 6325SOL     OW19873   0.515   3.044   2.098
 6325SOL    HW119874   0.607   3.007   2.082
 6325SOL    HW219875   0.516   3.102   2.179
 6326SOL     OW19876   5.309   5.803   0.939
 6326SOL    HW119877   5.398   5.840   0.912
 6326SOL    HW219878   5.268   5.862   1.009
 6327SOL     OW19879   5.899   6.176   5.125
 6327SOL    HW119880   5.898   6.264   5.077
 6327SOL    HW219881   5.810   6.160   5.168
 6328SOL     OW19882   1.509   4.410   0.200
 6328SOL    HW119883   1.606   4.422   0.179
 6328SOL    HW219884   1.454   4.446   0.124
 6329SOL     OW19885   1.720   1.046   3.639
 6329SOL    HW119886   1.632   1.059   3.593
 6329SOL    HW219887   1.785   1.005   3.576
 6330SOL     OW19888   4.690   0.833   0.553
 6330SOL    HW119889   4.598   0.871   0.547
 6330SOL    HW219890   4.757   0.902   0.525
 6331SOL     OW19891   6.384   2.069   0.863
 6331SOL    HW119892   6.450   2.132   0.903
 6331SOL    HW219893   6.430   2.006   0.801
 6332SOL     OW19894   6.163   5.351   1.737
 6332SOL    HW119895   6.105   5.430   1.757
 6332SOL    HW219896   6.137   5.312   1.649
 6333SOL     OW19897   3.377   5.384   3.637
 6333SOL    HW119898   3.460   5.436   3.659
 6333SOL    HW219899   3.325   5.368   3.721
 6334SOL     OW19900   2.790   0.071   2.821
 6334SOL    HW119901   2.766   7.014   2.769
 6334SOL    HW219902   2.716   0.138   2.813
 6335SOL     OW19903   6.176   1.704   6.748
 6335SOL    HW119904   6.133   1.619   6.717
 6335SOL    HW219905   6.265   1.714   6.705
 6336SOL     OW19906   6.831   2.439   4.502
 6336SOL    HW119907   6.765   2.421   4.429
 6336SOL    HW219908   6.888   2.518   4.477
 6337SOL     OW19909   5.306   3.204   5.724
 6337SOL    HW119910   5.337   3.262   5.799
 6337SOL    HW219911   5.256   3.259   5.657
 6338SOL     OW19912   2.482   1.945   2.214
 6338SOL    HW119913   2.408   2.012   2.215
 6338SOL    HW219914   2.450   1.862   2.167
 6339SOL     OW19915   0.526   2.717   3.610
 6339SOL    HW119916   0.468   2.773   3.670
 6339SOL    HW219917   0.531   2.760   3.520
 6340SOL     OW19918   2.903   5.438   3.938
 6340SOL    HW119919   2.822   5.405   3.890
 6340SOL    HW219920   2.927   5.375   4.011
 6341SOL     OW19921   6.846   5.093   3.714
 6341SOL    HW119922   6.930   5.139   3.745
 6341SOL    HW219923   6.774   5.104   3.782
 6342SOL     OW19924   2.362   2.653   2.589
 6342SOL    HW119925   2.299   2.728   2.605
 6342SOL    HW219926   2.395   2.657   2.494
 6343SOL     OW19927   4.272   2.621   6.497
 6343SOL    HW119928   4.346   2.687   6.486
 6343SOL    HW219929   4.310   2.530   6.511
 6344SOL     OW19930   0.087   3.749   5.349
 6344SOL    HW119931   0.126   3.724   5.260
 6344SOL    HW219932   0.042   3.838   5.342
 6345SOL     OW19933   3.814   1.610   2.543
 6345SOL    HW119934   3.719   1.626   2.570
 6345SOL    HW219935   3.868   1.585   2.624
 6346SOL     OW19936   0.236   3.566   3.377
 6346SOL    HW119937   0.273   3.537   3.465
 6346SOL    HW219938   0.287   3.522   3.303
 6347SOL     OW19939   3.095   0.110   1.236
 6347SOL    HW119940   3.014   0.079   1.285
 6347SOL    HW219941   3.175   0.062   1.272
 6348SOL     OW19942   0.518   3.417   4.827
 6348SOL    HW119943   0.534   3.389   4.922
 6348SOL    HW219944   0.562   3.505   4.810
 6349SOL     OW19945   3.250   0.556   1.714
 6349SOL    HW119946   3.305   0.480   1.748
 6349SOL    HW219947   3.289   0.642   1.748
 6350SOL     OW19948   1.607   5.739   2.741
 6350SOL    HW119949   1.602   5.705   2.835
 6350SOL    HW219950   1.675   5.686   2.690
 6351SOL     OW19951   6.899   2.652   2.728
 6351SOL    HW119952   6.867   2.575   2.673
 6351SOL    HW219953   6.998   2.644   2.743
 6352SOL     OW19954   1.222   5.269   3.470
 6352SOL    HW119955   1.257   5.351   3.515
 6352SOL    HW219956   1.293   5.229   3.413
 6353SOL     OW19957   0.362   0.345   6.535
 6353SOL    HW119958   0.446   0.387   6.500
 6353SOL    HW219959   0.359   0.248   6.507
 6354SOL     OW19960   0.993   6.983   2.443
 6354SOL    HW119961   1.013   6.944   2.533
 6354SOL    HW219962   0.930   6.923   2.393
 6355SOL     OW19963   1.898   3.696   4.120
 6355SOL    HW119964   1.799   3.712   4.118
 6355SOL    HW219965   1.916   3.599   4.107
 6356SOL     OW19966   5.132   4.829   1.127
 6356SOL    HW119967   5.216   4.872   1.158
 6356SOL    HW219968   5.081   4.794   1.206
 6357SOL     OW19969   4.309   3.336   0.522
 6357SOL    HW119970   4.215   3.347   0.491
 6357SOL    HW219971   4.315   3.349   0.620
 6358SOL     OW19972   0.028   2.493   4.195
 6358SOL    HW119973   0.009   2.477   4.098
 6358SOL    HW219974   0.113   2.544   4.204
 6359SOL     OW19975   6.890   0.652   5.512
 6359SOL    HW119976   6.899   0.576   5.576
 6359SOL    HW219977   6.979   0.695   5.497
 6360SOL     OW19978   2.634   4.733   4.307
 6360SOL    HW119979   2.573   4.656   4.321
 6360SOL    HW219980   2.703   4.735   4.380
 6361SOL     OW19981   4.441   5.474   6.443
 6361SOL    HW119982   4.516   5.456   6.379
 6361SOL    HW219983   4.390   5.389   6.459
 6362SOL     OW19984   6.096   4.325   6.581
 6362SOL    HW119985   6.117   4.230   6.605
 6362SOL    HW219986   6.008   4.351   6.621
 6363SOL     OW19987   1.913   6.146   4.436
 6363SOL    HW119988   1.849   6.077   4.469
 6363SOL    HW219989   1.931   6.212   4.509
 6364SOL     OW19990   2.971   2.037   5.480
 6364SOL    HW119991   2.909   2.115   5.470
 6364SOL    HW219992   3.039   2.057   5.551
 6365SOL     OW19993   4.909   6.996   3.346
 6365SOL    HW119994   4.967   0.026   3.285
 6365SOL    HW219995   4.967   6.932   3.397
 6366SOL     OW19996   0.873   5.107   5.358
 6366SOL    HW119997   0.938   5.176   5.389
 6366SOL    HW219998   0.787   5.117   5.410
 6367SOL     OW19999   5.021   0.362   3.467
 6367SOL    HW120000   5.047   0.334   3.559
 6367SOL    HW220001   4.938   0.418   3.472
 6368SOL     OW20002   3.179   0.052   4.226
 6368SOL    HW120003   3.191   0.144   4.264
 6368SOL    HW220004   3.268   0.009   4.213
 6369SOL     OW20005   2.792   5.571   4.647
 6369SOL    HW120006   2.839   5.644   4.698
 6369SOL    HW220007   2.834   5.483   4.669
 6370SOL     OW20008   0.191   1.941   1.888
 6370SOL    HW120009   0.138   1.945   1.803
 6370SOL    HW220010   0.287   1.957   1.868
 6371SOL     OW20011   4.683   2.682   2.898
 6371SOL    HW120012   4.615   2.643   2.835
 6371SOL    HW220013   4.656   2.661   2.992
 6372SOL     OW20014   2.973   6.196   2.118
 6372SOL    HW120015   2.954   6.129   2.046
 6372SOL    HW220016   2.946   6.287   2.086
 6373SOL     OW20017   5.393   4.475   5.432
 6373SOL    HW120018   5.462   4.403   5.429
 6373SOL    HW220019   5.437   4.562   5.458
 6374SOL     OW20020   2.891   3.372   3.683
 6374SOL    HW120021   2.928   3.293   3.731
 6374SOL    HW220022   2.894   3.452   3.744
 6375SOL     OW20023   1.095   0.625   3.007
 6375SOL    HW120024   1.056   0.718   3.005
 6375SOL    HW220025   1.187   0.627   2.967
 6376SOL     OW20026   0.448   1.519   4.104
 6376SOL    HW120027   0.395   1.602   4.122
 6376SOL    HW220028   0.401   1.441   4.145
 6377SOL     OW20029   0.251   0.791   5.140
 6377SOL    HW120030   0.154   0.771   5.151
 6377SOL    HW220031   0.269   0.822   5.047
 6378SOL     OW20032   4.817   4.211   3.878
 6378SOL    HW120033   4.881   4.280   3.910
 6378SOL    HW220034   4.805   4.219   3.779
 6379SOL     OW20035   2.468   4.833   3.774
 6379SOL    HW120036   2.372   4.839   3.800
 6379SOL    HW220037   2.485   4.893   3.696
 6380SOL     OW20038   0.504   0.921   5.767
 6380SOL    HW120039   0.436   0.875   5.824
 6380SOL    HW220040   0.486   1.020   5.767
 6381SOL     OW20041   3.210   3.704   2.591
 6381SOL    HW120042   3.167   3.776   2.537
 6381SOL    HW220043   3.260   3.745   2.667
 6382SOL     OW20044   1.243   2.552   6.111
 6382SOL    HW120045   1.327   2.512   6.148
 6382SOL    HW220046   1.249   2.559   6.012
 6383SOL     OW20047   2.102   2.087   4.054
 6383SOL    HW120048   2.144   2.166   4.009
 6383SOL    HW220049   2.106   2.099   4.153
 6384SOL     OW20050   5.913   5.041   2.419
 6384SOL    HW120051   5.850   4.975   2.377
 6384SOL    HW220052   5.916   5.124   2.363
 6385SOL     OW20053   6.171   5.258   3.981
 6385SOL    HW120054   6.255   5.205   3.983
 6385SOL    HW220055   6.106   5.217   3.917
 6386SOL     OW20056   2.532   5.169   1.225
 6386SOL    HW120057   2.536   5.100   1.153
 6386SOL    HW220058   2.533   5.260   1.184
 6387SOL     OW20059   0.284   2.354   5.960
 6387SOL    HW120060   0.254   2.307   6.043
 6387SOL    HW220061   0.365   2.408   5.980
 6388SOL     OW20062   3.580   4.738   1.474
 6388SOL    HW120063   3.512   4.701   1.537
 6388SOL    HW220064   3.552   4.719   1.380
 6389SOL     OW20065   0.944   5.646   2.816
 6389SOL    HW120066   1.031   5.616   2.855
 6389SOL    HW220067   0.879   5.570   2.815
 6390SOL     OW20068   0.244   2.463   3.297
 6390SOL    HW120069   0.244   2.389   3.365
 6390SOL    HW220070   0.300   2.435   3.218
 6391SOL     OW20071   3.736   1.532   0.382
 6391SOL    HW120072   3.833   1.528   0.408
 6391SOL    HW220073   3.693   1.611   0.426
 6392SOL     OW20074   1.969   6.667   3.851
 6392SOL    HW120075   1.942   6.720   3.931
 6392SOL    HW220076   2.068   6.656   3.850
 6393SOL     OW20077   5.590   6.510   1.050
 6393SOL    HW120078   5.521   6.441   1.070
 6393SOL    HW220079   5.622   6.500   0.956
 6394SOL     OW20080   2.527   5.028   0.810
 6394SOL    HW120081   2.550   4.985   0.898
 6394SOL    HW220082   2.606   5.077   0.775
 6395SOL     OW20083   5.843   1.464   1.086
 6395SOL    HW120084   5.932   1.492   1.121
 6395SOL    HW220085   5.783   1.543   1.079
 6396SOL     OW20086   4.947   2.360   6.035
 6396SOL    HW120087   4.889   2.350   6.116
 6396SOL    HW220088   4.933   2.282   5.974
 6397SOL     OW20089   0.173   2.333   6.815
 6397SOL    HW120090   0.236   2.391   6.867
 6397SOL    HW220091   0.111   2.391   6.763
 6398SOL     OW20092   3.146   0.780   1.452
 6398SOL    HW120093   3.224   0.803   1.511
 6398SOL    HW220094   3.131   0.681   1.454
 6399SOL     OW20095   1.939   5.833   0.159
 6399SOL    HW120096   2.038   5.828   0.170
 6399SOL    HW220097   1.916   5.920   0.115
 6400SOL     OW20098   2.417   5.422   3.812
 6400SOL    HW120099   2.441   5.378   3.725
 6400SOL    HW220100   2.480   5.498   3.829
 6401SOL     OW20101   0.149   4.752   3.644
 6401SOL    HW120102   0.236   4.771   3.688
 6401SOL    HW220103   0.159   4.762   3.545
 6402SOL     OW20104   2.906   0.899   3.145
 6402SOL    HW120105   2.890   0.994   3.171
 6402SOL    HW220106   2.964   0.895   3.063
 6403SOL     OW20107   1.040   4.383   0.283
 6403SOL    HW120108   1.043   4.431   0.371
 6403SOL    HW220109   0.947   4.354   0.264
 6404SOL     OW20110   4.287   1.841   3.574
 6404SOL    HW120111   4.275   1.795   3.662
 6404SOL    HW220112   4.211   1.817   3.513
 6405SOL     OW20113   1.956   1.990   2.794
 6405SOL    HW120114   2.024   1.952   2.731
 6405SOL    HW220115   1.950   1.933   2.876
 6406SOL     OW20116   2.070   1.015   3.826
 6406SOL    HW120117   2.072   1.086   3.755
 6406SOL    HW220118   2.135   0.943   3.802
 6407SOL     OW20119   3.093   6.945   4.531
 6407SOL    HW120120   3.112   6.883   4.607
 6407SOL    HW220121   3.052   6.894   4.456
 6408SOL     OW20122   5.774   1.878   6.788
 6408SOL    HW120123   5.690   1.931   6.800
 6408SOL    HW220124   5.798   1.832   6.874
 6409SOL     OW20125   6.321   3.680   2.723
 6409SOL    HW120126   6.388   3.746   2.757
 6409SOL    HW220127   6.367   3.611   2.667
 6410SOL     OW20128   1.607   1.659   0.491
 6410SOL    HW120129   1.592   1.641   0.393
 6410SOL    HW220130   1.689   1.612   0.521
 6411SOL     OW20131   1.166   1.391   3.375
 6411SOL    HW120132   1.145   1.302   3.335
 6411SOL    HW220133   1.107   1.407   3.454
 6412SOL     OW20134   7.006   2.693   5.257
 6412SOL    HW120135   6.930   2.727   5.313
 6412SOL    HW220136   0.033   2.626   5.309
 6413SOL     OW20137   5.804   5.101   1.786
 6413SOL    HW120138   5.845   5.041   1.718
 6413SOL    HW220139   5.805   5.195   1.753
 6414SOL     OW20140   5.798   0.473   0.875
 6414SOL    HW120141   5.705   0.436   0.878
 6414SOL    HW220142   5.796   0.571   0.894
 6415SOL     OW20143   2.243   2.320   2.403
 6415SOL    HW120144   2.213   2.227   2.379
 6415SOL    HW220145   2.303   2.316   2.483
 6416SOL     OW20146   0.775   6.894   6.913
 6416SOL    HW120147   0.678   6.869   6.918
 6416SOL    HW220148   0.830   6.824   6.957
 6417SOL     OW20149   0.647   6.952   3.284
 6417SOL    HW120150   0.588   6.962   3.203
 6417SOL    HW220151   0.605   6.999   3.361
 6418SOL     OW20152   6.237   5.445   2.387
 6418SOL    HW120153   6.201   5.530   2.349
 6418SOL    HW220154   6.322   5.421   2.340
 6419SOL     OW20155   3.409   5.301   1.926
 6419SOL    HW120156   3.370   5.332   2.013
 6419SOL    HW220157   3.469   5.223   1.942
 6420SOL     OW20158   3.224   3.361   6.522
 6420SOL    HW120159   3.230   3.371   6.621
 6420SOL    HW220160   3.200   3.449   6.481
 6421SOL     OW20161   5.712   0.461   1.358
 6421SOL    HW120162   5.649   0.510   1.298
 6421SOL    HW220163   5.744   0.377   1.312
 6422SOL     OW20164   6.535   0.931   2.740
 6422SOL    HW120165   6.600   0.958   2.812
 6422SOL    HW220166   6.456   0.887   2.781
 6423SOL     OW20167   4.699   3.700   0.901
 6423SOL    HW120168   4.705   3.620   0.841
 6423SOL    HW220169   4.621   3.689   0.963
 6424SOL     OW20170   6.372   4.000   6.219
 6424SOL    HW120171   6.378   4.096   6.191
 6424SOL    HW220172   6.312   3.993   6.299
 6425SOL     OW20173   6.950   4.841   2.764
 6425SOL    HW120174   6.914   4.781   2.693
 6425SOL    HW220175   6.945   4.794   2.852
 6426SOL     OW20176   1.401   3.117   3.716
 6426SOL    HW120177   1.425   3.035   3.664
 6426SOL    HW220178   1.307   3.108   3.751
 6427SOL     OW20179   1.280   3.751   6.348
 6427SOL    HW120180   1.333   3.836   6.336
 6427SOL    HW220181   1.309   3.707   6.433
 6428SOL     OW20182   6.636   3.508   2.189
 6428SOL    HW120183   6.605   3.438   2.124
 6428SOL    HW220184   6.651   3.594   2.140
 6429SOL     OW20185   1.945   1.039   4.885
 6429SOL    HW120186   1.906   0.956   4.925
 6429SOL    HW220187   1.873   1.091   4.839
 6430SOL     OW20188   4.781   1.186   1.944
 6430SOL    HW120189   4.872   1.151   1.924
 6430SOL    HW220190   4.713   1.133   1.894
 6431SOL     OW20191   4.958   6.702   3.113
 6431SOL    HW120192   4.886   6.643   3.149
 6431SOL    HW220193   4.919   6.769   3.051
 6432SOL     OW20194   4.080   3.608   0.709
 6432SOL    HW120195   4.132   3.543   0.764
 6432SOL    HW220196   4.102   3.701   0.738
 6433SOL     OW20197   3.384   4.371   1.358
 6433SOL    HW120198   3.378   4.298   1.426
 6433SOL    HW220199   3.292   4.395   1.327
 6434SOL     OW20200   1.063   3.853   1.113
 6434SOL    HW120201   1.155   3.851   1.152
 6434SOL    HW220202   1.017   3.766   1.132
 6435SOL     OW20203   3.872   5.102   0.266
 6435SOL    HW120204   3.796   5.067   0.210
 6435SOL    HW220205   3.918   5.176   0.218
 6436SOL     OW20206   1.882   3.452   3.418
 6436SOL    HW120207   1.822   3.379   3.385
 6436SOL    HW220208   1.888   3.447   3.518
 6437SOL     OW20209   1.131   0.153   6.756
 6437SOL    HW120210   1.041   0.112   6.744
 6437SOL    HW220211   1.122   0.249   6.781
 6438SOL     OW20212   0.809   4.128   4.665
 6438SOL    HW120213   0.868   4.053   4.694
 6438SOL    HW220214   0.717   4.114   4.702
 6439SOL     OW20215   1.068   0.034   0.508
 6439SOL    HW120216   1.057   0.008   0.604
 6439SOL    HW220217   1.107   6.983   0.457
 6440SOL     OW20218   1.491   2.046   1.921
 6440SOL    HW120219   1.580   2.040   1.876
 6440SOL    HW220220   1.499   2.099   2.005
 6441SOL     OW20221   1.687   1.309   2.779
 6441SOL    HW120222   1.681   1.319   2.878
 6441SOL    HW220223   1.691   1.400   2.737
 6442SOL     OW20224   2.312   1.920   4.459
 6442SOL    HW120225   2.218   1.950   4.439
 6442SOL    HW220226   2.343   1.964   4.543
 6443SOL     OW20227   2.956   2.906   0.405
 6443SOL    HW120228   2.882   2.904   0.473
 6443SOL    HW220229   3.044   2.894   0.451
 6444SOL     OW20230   0.460   1.816   2.868
 6444SOL    HW120231   0.457   1.748   2.941
 6444SOL    HW220232   0.370   1.823   2.825
 6445SOL     OW20233   4.270   2.711   5.373
 6445SOL    HW120234   4.201   2.664   5.318
 6445SOL    HW220235   4.270   2.674   5.466
 6446SOL     OW20236   6.972   1.397   6.367
 6446SOL    HW120237   6.972   1.426   6.271
 6446SOL    HW220238   0.018   1.445   6.417
 6447SOL     OW20239   2.115   6.391   2.610
 6447SOL    HW120240   2.074   6.375   2.521
 6447SOL    HW220241   2.080   6.324   2.676
 6448SOL     OW20242   6.222   3.057   2.401
 6448SOL    HW120243   6.268   3.050   2.489
 6448SOL    HW220244   6.156   2.982   2.391
 6449SOL     OW20245   3.669   3.814   1.797
 6449SOL    HW120246   3.620   3.866   1.868
 6449SOL    HW220247   3.766   3.835   1.801
 6450SOL     OW20248   6.104   2.867   1.535
 6450SOL    HW120249   6.022   2.925   1.538
 6450SOL    HW220250   6.185   2.923   1.554
 6451SOL     OW20251   3.240   6.291   5.300
 6451SOL    HW120252   3.323   6.308   5.353
 6451SOL    HW220253   3.265   6.251   5.211
 6452SOL     OW20254   3.344   6.858   4.867
 6452SOL    HW120255   3.348   6.926   4.794
 6452SOL    HW220256   3.430   6.857   4.917
 6453SOL     OW20257   1.474   6.424   0.438
 6453SOL    HW120258   1.444   6.390   0.349
 6453SOL    HW220259   1.483   6.523   0.435
 6454SOL     OW20260   2.834   1.867   4.213
 6454SOL    HW120261   2.745   1.878   4.168
 6454SOL    HW220262   2.832   1.912   4.302
 6455SOL     OW20263   0.276   2.811   4.702
 6455SOL    HW120264   0.258   2.858   4.789
 6455SOL    HW220265   0.330   2.728   4.720
 6456SOL     OW20266   1.147   0.232   3.584
 6456SOL    HW120267   1.112   0.162   3.522
 6456SOL    HW220268   1.079   0.304   3.595
 6457SOL     OW20269   6.140   2.001   1.745
 6457SOL    HW120270   6.050   1.971   1.778
 6457SOL    HW220271   6.206   1.997   1.820
 6458SOL     OW20272   1.625   5.654   3.011
 6458SOL    HW120273   1.564   5.626   3.085
 6458SOL    HW220274   1.692   5.719   3.046
 6459SOL     OW20275   6.287   5.066   0.326
 6459SOL    HW120276   6.313   5.000   0.397
 6459SOL    HW220277   6.254   5.150   0.369
 6460SOL     OW20278   4.548   4.392   6.865
 6460SOL    HW120279   4.498   4.305   6.861
 6460SOL    HW220280   4.541   4.431   6.957
 6461SOL     OW20281   2.572   5.699   5.891
 6461SOL    HW120282   2.587   5.711   5.989
 6461SOL    HW220283   2.660   5.686   5.845
 6462SOL     OW20284   2.240   3.074   5.294
 6462SOL    HW120285   2.314   3.053   5.230
 6462SOL    HW220286   2.228   3.174   5.299
 6463SOL     OW20287   2.292   4.971   6.702
 6463SOL    HW120288   2.218   4.928   6.755
 6463SOL    HW220289   2.300   4.925   6.614
 6464SOL     OW20290   0.260   5.255   3.467
 6464SOL    HW120291   0.326   5.180   3.475
 6464SOL    HW220292   0.286   5.329   3.529
 6465SOL     OW20293   5.731   1.952   4.072
 6465SOL    HW120294   5.774   1.888   4.009
 6465SOL    HW220295   5.763   1.934   4.165
 6466SOL     OW20296   6.924   2.528   4.766
 6466SOL    HW120297   6.919   2.627   4.757
 6466SOL    HW220298   6.882   2.485   4.686
 6467SOL     OW20299   2.505   1.190   6.789
 6467SOL    HW120300   2.543   1.176   6.698
 6467SOL    HW220301   2.472   1.103   6.826
 6468SOL     OW20302   4.425   6.368   1.669
 6468SOL    HW120303   4.513   6.387   1.624
 6468SOL    HW220304   4.351   6.400   1.610
 6469SOL     OW20305   6.255   1.257   5.159
 6469SOL    HW120306   6.312   1.317   5.104
 6469SOL    HW220307   6.228   1.177   5.105
 6470SOL     OW20308   6.632   6.727   5.782
 6470SOL    HW120309   6.692   6.806   5.798
 6470SOL    HW220310   6.660   6.680   5.699
 6471SOL     OW20311   6.793   5.303   6.418
 6471SOL    HW120312   6.858   5.353   6.476
 6471SOL    HW220313   6.843   5.252   6.348
 6472SOL     OW20314   0.630   6.024   1.716
 6472SOL    HW120315   0.608   5.927   1.714
 6472SOL    HW220316   0.714   6.038   1.769
 6473SOL     OW20317   2.244   1.050   6.046
 6473SOL    HW120318   2.225   1.078   6.140
 6473SOL    HW220319   2.286   0.959   6.046
 6474SOL     OW20320   1.195   3.398   6.056
 6474SOL    HW120321   1.283   3.428   6.093
 6474SOL    HW220322   1.121   3.431   6.113
 6475SOL     OW20323   5.355   6.281   3.800
 6475SOL    HW120324   5.327   6.268   3.895
 6475SOL    HW220325   5.378   6.193   3.759
 6476SOL     OW20326   4.411   4.733   3.130
 6476SOL    HW120327   4.425   4.668   3.055
 6476SOL    HW220328   4.478   4.807   3.124
 6477SOL     OW20329   6.189   5.447   6.358
 6477SOL    HW120330   6.098   5.436   6.398
 6477SOL    HW220331   6.252   5.478   6.429
 6478SOL     OW20332   4.025   5.665   2.078
 6478SOL    HW120333   3.928   5.641   2.088
 6478SOL    HW220334   4.033   5.759   2.047
 6479SOL     OW20335   4.270   4.998   2.087
 6479SOL    HW120336   4.210   5.047   2.149
 6479SOL    HW220337   4.263   5.037   1.995
 6480SOL     OW20338   3.656   2.772   6.194
 6480SOL    HW120339   3.750   2.739   6.185
 6480SOL    HW220340   3.646   2.822   6.279
 6481SOL     OW20341   3.653   1.314   1.730
 6481SOL    HW120342   3.704   1.330   1.814
 6481SOL    HW220343   3.635   1.402   1.685
 6482SOL     OW20344   6.736   0.285   6.748
 6482SOL    HW120345   6.684   0.210   6.708
 6482SOL    HW220346   6.798   0.323   6.679
 6483SOL     OW20347   2.182   6.705   2.852
 6483SOL    HW120348   2.168   6.682   2.756
 6483SOL    HW220349   2.274   6.680   2.880
 6484SOL     OW20350   4.430   0.305   2.550
 6484SOL    HW120351   4.467   0.222   2.509
 6484SOL    HW220352   4.416   0.291   2.648
 6485SOL     OW20353   1.884   3.226   3.713
 6485SOL    HW120354   1.880   3.198   3.809
 6485SOL    HW220355   1.810   3.183   3.662
 6486SOL     OW20356   0.655   4.256   4.248
 6486SOL    HW120357   0.695   4.287   4.162
 6486SOL    HW220358   0.728   4.235   4.313
 6487SOL     OW20359   6.511   6.746   4.159
 6487SOL    HW120360   6.538   6.842   4.164
 6487SOL    HW220361   6.592   6.689   4.146
 6488SOL     OW20362   2.969   5.957   5.833
 6488SOL    HW120363   2.918   6.030   5.789
 6488SOL    HW220364   2.946   5.955   5.931
 6489SOL     OW20365   2.159   2.188   6.806
 6489SOL    HW120366   2.252   2.152   6.798
 6489SOL    HW220367   2.156   2.257   6.878
 6490SOL     OW20368   3.980   2.842   0.495
 6490SOL    HW120369   3.906   2.909   0.501
 6490SOL    HW220370   4.007   2.830   0.400
 6491SOL     OW20371   4.438   1.028   6.155
 6491SOL    HW120372   4.385   1.086   6.093
 6491SOL    HW220373   4.524   1.073   6.178
 6492SOL     OW20374   6.312   6.609   6.957
 6492SOL    HW120375   6.373   6.613   6.878
 6492SOL    HW220376   6.365   6.626   0.015
 6493SOL     OW20377   1.958   6.612   6.270
 6493SOL    HW120378   2.046   6.614   6.317
 6493SOL    HW220379   1.903   6.537   6.305
 6494SOL     OW20380   0.782   0.012   3.836
 6494SOL    HW120381   0.764   0.061   3.751
 6494SOL    HW220382   0.880   7.020   3.845
 6495SOL     OW20383   4.879   5.418   2.877
 6495SOL    HW120384   4.893   5.516   2.872
 6495SOL    HW220385   4.789   5.399   2.917
 6496SOL     OW20386   6.970   6.210   1.577
 6496SOL    HW120387   6.877   6.243   1.559
 6496SOL    HW220388   0.010   6.284   1.559
 6497SOL     OW20389   2.249   3.739   1.135
 6497SOL    HW120390   2.259   3.834   1.161
 6497SOL    HW220391   2.258   3.680   1.215
 6498SOL     OW20392   1.960   4.456   4.239
 6498SOL    HW120393   1.970   4.461   4.140
 6498SOL    HW220394   1.877   4.504   4.267
 6499SOL     OW20395   4.839   0.867   4.846
 6499SOL    HW120396   4.786   0.867   4.930
 6499SOL    HW220397   4.878   0.777   4.831
 6500SOL     OW20398   6.406   4.133   3.519
 6500SOL    HW120399   6.376   4.048   3.562
 6500SOL    HW220400   6.435   4.198   3.589
 6501SOL     OW20401   6.382   3.959   1.168
 6501SOL    HW120402   6.456   3.897   1.195
 6501SOL    HW220403   6.305   3.905   1.133
 6502SOL     OW20404   0.703   4.567   3.809
 6502SOL    HW120405   0.694   4.658   3.849
 6502SOL    HW220406   0.681   4.571   3.712
 6503SOL     OW20407   5.602   6.120   3.372
 6503SOL    HW120408   5.504   6.137   3.363
 6503SOL    HW220409   5.648   6.202   3.407
 6504SOL     OW20410   4.425   0.548   6.800
 6504SOL    HW120411   4.507   0.554   6.742
 6504SOL    HW220412   4.451   0.520   6.892
 6505SOL     OW20413   5.908   4.398   0.688
 6505SOL    HW120414   5.996   4.440   0.708
 6505SOL    HW220415   5.917   4.298   0.693
 6506SOL     OW20416   0.831   2.950   1.109
 6506SOL    HW120417   0.925   2.977   1.089
 6506SOL    HW220418   0.779   3.030   1.142
 6507SOL     OW20419   1.579   6.183   1.590
 6507SOL    HW120420   1.500   6.126   1.571
 6507SOL    HW220421   1.550   6.265   1.641
 6508SOL     OW20422   2.104   2.405   3.649
 6508SOL    HW120423   2.089   2.321   3.596
 6508SOL    HW220424   2.172   2.388   3.720
 6509SOL     OW20425   1.692   2.447   4.716
 6509SOL    HW120426   1.656   2.388   4.788
 6509SOL    HW220427   1.623   2.514   4.690
 6510SOL     OW20428   6.793   5.244   6.747
 6510SOL    HW120429   6.831   5.251   6.655
 6510SOL    HW220430   6.794   5.334   6.790
 6511SOL     OW20431   6.549   0.244   5.750
 6511SOL    HW120432   6.491   0.170   5.784
 6511SOL    HW220433   6.535   0.254   5.652
 6512SOL     OW20434   4.530   6.857   2.720
 6512SOL    HW120435   4.588   6.912   2.780
 6512SOL    HW220436   4.445   6.835   2.767
 6513SOL     OW20437   3.430   6.986   4.231
 6513SOL    HW120438   3.447   0.036   4.167
 6513SOL    HW220439   3.508   6.975   4.291
 6514SOL     OW20440   4.651   0.362   4.460
 6514SOL    HW120441   4.635   0.400   4.369
 6514SOL    HW220442   4.668   0.264   4.452
 6515SOL     OW20443   6.601   5.532   4.195
 6515SOL    HW120444   6.604   5.446   4.144
 6515SOL    HW220445   6.580   5.513   4.291
 6516SOL     OW20446   0.515   1.737   6.499
 6516SOL    HW120447   0.560   1.686   6.572
 6516SOL    HW220448   0.549   1.831   6.497
 6517SOL     OW20449   0.597   1.830   0.458
 6517SOL    HW120450   0.498   1.825   0.451
 6517SOL    HW220451   0.635   1.738   0.466
 6518SOL     OW20452   0.602   6.201   1.178
 6518SOL    HW120453   0.656   6.273   1.221
 6518SOL    HW220454   0.651   6.166   1.098
 6519SOL     OW20455   2.044   1.405   4.120
 6519SOL    HW120456   2.130   1.361   4.096
 6519SOL    HW220457   2.030   1.399   4.219
 6520SOL     OW20458   6.065   5.711   2.221
 6520SOL    HW120459   5.991   5.654   2.258
 6520SOL    HW220460   6.131   5.731   2.292
 6521SOL     OW20461   1.102   1.559   4.696
 6521SOL    HW120462   1.085   1.470   4.654
 6521SOL    HW220463   1.201   1.576   4.696
 6522SOL     OW20464   2.468   5.884   0.180
 6522SOL    HW120465   2.497   5.947   0.251
 6522SOL    HW220466   2.375   5.852   0.200
 6523SOL     OW20467   2.300   1.437   6.755
 6523SOL    HW120468   2.307   1.462   6.852
 6523SOL    HW220469   2.356   1.357   6.737
 6524SOL     OW20470   3.702   3.828   3.719
 6524SOL    HW120471   3.627   3.792   3.665
 6524SOL    HW220472   3.689   3.926   3.734
 6525SOL     OW20473   0.787   2.617   3.178
 6525SOL    HW120474   0.742   2.530   3.161
 6525SOL    HW220475   0.812   2.660   3.092
 6526SOL     OW20476   1.167   6.120   4.707
 6526SOL    HW120477   1.252   6.160   4.741
 6526SOL    HW220478   1.095   6.189   4.709
 6527SOL     OW20479   1.291   0.204   5.032
 6527SOL    HW120480   1.226   0.156   4.974
 6527SOL    HW220481   1.349   0.264   4.975
 6528SOL     OW20482   0.664   0.958   4.023
 6528SOL    HW120483   0.713   1.035   4.064
 6528SOL    HW220484   0.622   0.904   4.095
 6529SOL     OW20485   5.923   1.501   2.602
 6529SOL    HW120486   5.934   1.598   2.623
 6529SOL    HW220487   6.012   1.461   2.579
 6530SOL     OW20488   6.826   2.644   0.155
 6530SOL    HW120489   6.896   2.711   0.182
 6530SOL    HW220490   6.870   2.567   0.108
 6531SOL     OW20491   5.705   2.427   4.136
 6531SOL    HW120492   5.612   2.465   4.137
 6531SOL    HW220493   5.740   2.426   4.042
 6532SOL     OW20494   6.373   1.896   6.609
 6532SOL    HW120495   6.318   1.972   6.574
 6532SOL    HW220496   6.410   1.844   6.532
 6533SOL     OW20497   5.033   6.389   0.903
 6533SOL    HW120498   5.031   6.484   0.936
 6533SOL    HW220499   5.022   6.327   0.980
 6534SOL     OW20500   2.322   3.556   1.403
 6534SOL    HW120501   2.329   3.457   1.392
 6534SOL    HW220502   2.310   3.579   1.499
 6535SOL     OW20503   0.226   3.481   4.853
 6535SOL    HW120504   0.205   3.577   4.839
 6535SOL    HW220505   0.326   3.470   4.861
 6536SOL     OW20506   5.671   1.943   0.119
 6536SOL    HW120507   5.617   1.870   0.076
 6536SOL    HW220508   5.614   1.992   0.185
 6537SOL     OW20509   6.872   6.894   6.634
 6537SOL    HW120510   6.783   6.922   6.600
 6537SOL    HW220511   6.861   6.818   6.697
 6538SOL     OW20512   3.195   3.975   0.240
 6538SOL    HW120513   3.187   4.069   0.273
 6538SOL    HW220514   3.107   3.944   0.204
 6539SOL     OW20515   2.389   1.693   6.539
 6539SOL    HW120516   2.376   1.710   6.636
 6539SOL    HW220517   2.330   1.755   6.486
 6540SOL     OW20518   3.665   1.259   4.065
 6540SOL    HW120519   3.746   1.269   4.122
 6540SOL    HW220520   3.585   1.242   4.123
 6541SOL     OW20521   3.401   2.418   5.587
 6541SOL    HW120522   3.470   2.484   5.618
 6541SOL    HW220523   3.359   2.450   5.502
 6542SOL     OW20524   5.833   4.547   3.387
 6542SOL    HW120525   5.845   4.494   3.303
 6542SOL    HW220526   5.917   4.596   3.408
 6543SOL     OW20527   6.116   5.901   6.855
 6543SOL    HW120528   6.027   5.945   6.852
 6543SOL    HW220529   6.109   5.813   6.902
 6544SOL     OW20530   6.998   6.449   4.178
 6544SOL    HW120531   6.907   6.453   4.136
 6544SOL    HW220532   6.992   6.398   4.264
 6545SOL     OW20533   5.578   1.598   6.036
 6545SOL    HW120534   5.628   1.559   5.958
 6545SOL    HW220535   5.519   1.528   6.076
 6546SOL     OW20536   3.765   5.016   6.119
 6546SOL    HW120537   3.755   4.921   6.089
 6546SOL    HW220538   3.791   5.018   6.216
 6547SOL     OW20539   5.039   2.677   6.576
 6547SOL    HW120540   5.042   2.751   6.508
 6547SOL    HW220541   5.008   2.593   6.532
 6548SOL     OW20542   6.624   4.414   5.807
 6548SOL    HW120543   6.701   4.438   5.867
 6548SOL    HW220544   6.592   4.496   5.760
 6549SOL     OW20545   3.754   2.105   0.997
 6549SOL    HW120546   3.763   2.005   0.999
 6549SOL    HW220547   3.727   2.137   1.088
 6550SOL     OW20548   0.870   5.968   3.213
 6550SOL    HW120549   0.782   5.991   3.255
 6550SOL    HW220550   0.935   5.943   3.285
 6551SOL     OW20551   1.968   4.651   1.808
 6551SOL    HW120552   2.057   4.608   1.823
 6551SOL    HW220553   1.973   4.747   1.834
 6552SOL     OW20554   2.493   5.157   5.915
 6552SOL    HW120555   2.437   5.239   5.907
 6552SOL    HW220556   2.581   5.172   5.871
 6553SOL     OW20557   0.293   3.416   1.692
 6553SOL    HW120558   0.241   3.408   1.777
 6553SOL    HW220559   0.230   3.430   1.616
 6554SOL     OW20560   6.709   2.000   5.935
 6554SOL    HW120561   6.635   2.011   5.869
 6554SOL    HW220562   6.780   1.941   5.896
 6555SOL     OW20563   1.870   1.268   1.922
 6555SOL    HW120564   1.877   1.174   1.956
 6555SOL    HW220565   1.784   1.278   1.871
 6556SOL     OW20566   4.561   4.802   5.045
 6556SOL    HW120567   4.656   4.829   5.031
 6556SOL    HW220568   4.500   4.870   5.005
 6557SOL     OW20569   5.855   5.758   0.480
 6557SOL    HW120570   5.759   5.739   0.498
 6557SOL    HW220571   5.878   5.849   0.515
 6558SOL     OW20572   6.439   6.258   0.636
 6558SOL    HW120573   6.359   6.199   0.644
 6558SOL    HW220574   6.460   6.273   0.539
 6559SOL     OW20575   5.270   3.497   1.295
 6559SOL    HW120576   5.199   3.547   1.245
 6559SOL    HW220577   5.248   3.400   1.295
 6560SOL     OW20578   3.721   3.167   1.210
 6560SOL    HW120579   3.779   3.232   1.161
 6560SOL    HW220580   3.689   3.096   1.147
 6561SOL     OW20581   3.949   3.783   2.585
 6561SOL    HW120582   3.984   3.837   2.509
 6561SOL    HW220583   4.005   3.700   2.596
 6562SOL     OW20584   6.705   5.115   5.886
 6562SOL    HW120585   6.674   5.055   5.813
 6562SOL    HW220586   6.804   5.109   5.894
 6563SOL     OW20587   0.559   6.117   0.132
 6563SOL    HW120588   0.464   6.085   0.141
 6563SOL    HW220589   0.560   6.214   0.107
 6564SOL     OW20590   1.117   3.545   1.796
 6564SOL    HW120591   1.100   3.641   1.775
 6564SOL    HW220592   1.068   3.520   1.880
 6565SOL     OW20593   6.145   2.488   4.627
 6565SOL    HW120594   6.191   2.570   4.662
 6565SOL    HW220595   6.149   2.488   4.527
 6566SOL     OW20596   3.315   6.994   1.258
 6566SOL    HW120597   3.406   6.987   1.216
 6566SOL    HW220598   3.323   0.009   1.348
 6567SOL     OW20599   4.910   3.071   0.612
 6567SOL    HW120600   4.901   3.058   0.711
 6567SOL    HW220601   4.822   3.099   0.574
 6568SOL     OW20602   4.336   4.654   1.724
 6568SOL    HW120603   4.396   4.637   1.802
 6568SOL    HW220604   4.264   4.585   1.721
 6569SOL     OW20605   2.298   5.171   0.873
 6569SOL    HW120606   2.371   5.109   0.845
 6569SOL    HW220607   2.245   5.129   0.946
 6570SOL     OW20608   5.228   0.982   2.135
 6570SOL    HW120609   5.210   1.054   2.202
 6570SOL    HW220610   5.194   1.011   2.046
 6571SOL     OW20611   2.065   5.742   3.656
 6571SOL    HW120612   2.157   5.770   3.685
 6571SOL    HW220613   2.070   5.651   3.615
 6572SOL     OW20614   6.821   3.665   5.449
 6572SOL    HW120615   6.896   3.661   5.383
 6572SOL    HW220616   6.767   3.581   5.442
 6573SOL     OW20617   3.453   0.892   2.741
 6573SOL    HW120618   3.492   0.832   2.671
 6573SOL    HW220619   3.454   0.986   2.709
 6574SOL     OW20620   2.413   5.271   2.350
 6574SOL    HW120621   2.417   5.176   2.318
 6574SOL    HW220622   2.499   5.317   2.327
 6575SOL     OW20623   1.008   1.162   1.678
 6575SOL    HW120624   1.090   1.116   1.645
 6575SOL    HW220625   0.999   1.147   1.777
 6576SOL     OW20626   1.675   5.591   6.906
 6576SOL    HW120627   1.759   5.593   6.961
 6576SOL    HW220628   1.598   5.623   6.961
 6577SOL     OW20629   1.338   1.672   4.110
 6577SOL    HW120630   1.256   1.642   4.062
 6577SOL    HW220631   1.419   1.642   4.060
 6578SOL     OW20632   6.049   5.262   3.399
 6578SOL    HW120633   5.956   5.292   3.375
 6578SOL    HW220634   6.079   5.309   3.482
 6579SOL     OW20635   6.761   4.288   3.112
 6579SOL    HW120636   6.778   4.386   3.117
 6579SOL    HW220637   6.667   4.272   3.079
 6580SOL     OW20638   5.510   0.454   0.870
 6580SOL    HW120639   5.454   0.425   0.948
 6580SOL    HW220640   5.477   0.542   0.836
 6581SOL     OW20641   4.360   1.987   6.553
 6581SOL    HW120642   4.417   2.000   6.473
 6581SOL    HW220643   4.347   1.890   6.570
 6582SOL     OW20644   0.512   6.910   3.016
 6582SOL    HW120645   0.521   6.866   2.927
 6582SOL    HW220646   0.456   6.992   3.007
 6583SOL     OW20647   5.329   1.191   6.212
 6583SOL    HW120648   5.388   1.114   6.187
 6583SOL    HW220649   5.269   1.212   6.135
 6584SOL     OW20650   5.616   1.544   6.392
 6584SOL    HW120651   5.548   1.613   6.419
 6584SOL    HW220652   5.702   1.589   6.369
 6585SOL     OW20653   0.534   1.717   6.916
 6585SOL    HW120654   0.594   1.735   6.995
 6585SOL    HW220655   0.513   1.803   6.870
 6586SOL     OW20656   6.588   1.999   6.187
 6586SOL    HW120657   6.590   1.999   6.087
 6586SOL    HW220658   6.604   2.092   6.221
 6587SOL     OW20659   1.866   5.863   4.163
 6587SOL    HW120660   1.933   5.810   4.111
 6587SOL    HW220661   1.891   5.960   4.162
 6588SOL     OW20662   1.615   3.130   0.336
 6588SOL    HW120663   1.637   3.221   0.371
 6588SOL    HW220664   1.695   3.071   0.342
 6589SOL     OW20665   4.747   0.854   5.878
 6589SOL    HW120666   4.729   0.943   5.920
 6589SOL    HW220667   4.713   0.781   5.937
 6590SOL     OW20668   0.283   1.506   4.412
 6590SOL    HW120669   0.253   1.582   4.354
 6590SOL    HW220670   0.293   1.424   4.356
 6591SOL     OW20671   5.380   6.699   2.562
 6591SOL    HW120672   5.293   6.675   2.606
 6591SOL    HW220673   5.428   6.767   2.618
 6592SOL     OW20674   4.449   0.256   4.761
 6592SOL    HW120675   4.362   0.291   4.796
 6592SOL    HW220676   4.521   0.269   4.830
 6593SOL     OW20677   3.132   2.181   4.246
 6593SOL    HW120678   3.194   2.106   4.270
 6593SOL    HW220679   3.096   2.223   4.330
 6594SOL     OW20680   5.093   0.656   6.668
 6594SOL    HW120681   5.112   0.624   6.761
 6594SOL    HW220682   5.005   0.704   6.668
 6595SOL     OW20683   1.633   3.393   0.469
 6595SOL    HW120684   1.696   3.414   0.394
 6595SOL    HW220685   1.586   3.477   0.498
 6596SOL     OW20686   4.538   0.191   5.358
 6596SOL    HW120687   4.466   0.208   5.290
 6596SOL    HW220688   4.562   0.094   5.357
 6597SOL     OW20689   6.697   6.567   4.376
 6597SOL    HW120690   6.723   6.609   4.463
 6597SOL    HW220691   6.649   6.481   4.394
 6598SOL     OW20692   1.464   5.622   5.169
 6598SOL    HW120693   1.485   5.626   5.267
 6598SOL    HW220694   1.383   5.565   5.155
 6599SOL     OW20695   4.080   5.199   6.254
 6599SOL    HW120696   4.010   5.137   6.289
 6599SOL    HW220697   4.054   5.294   6.274
 6600SOL     OW20698   4.796   5.225   4.535
 6600SOL    HW120699   4.797   5.135   4.491
 6600SOL    HW220700   4.830   5.294   4.471
 6601SOL     OW20701   0.310   1.199   0.529
 6601SOL    HW120702   0.258   1.268   0.478
 6601SOL    HW220703   0.250   1.123   0.552
 6602SOL     OW20704   0.612   2.014   1.326
 6602SOL    HW120705   0.632   1.917   1.316
 6602SOL    HW220706   0.660   2.066   1.255
 6603SOL     OW20707   1.909   3.696   2.895
 6603SOL    HW120708   1.836   3.632   2.873
 6603SOL    HW220709   1.993   3.646   2.914
 6604SOL     OW20710   2.938   5.647   2.069
 6604SOL    HW120711   2.940   5.635   2.168
 6604SOL    HW220712   2.964   5.561   2.025
 6605SOL     OW20713   5.223   5.716   0.209
 6605SOL    HW120714   5.274   5.665   0.140
 6605SOL    HW220715   5.209   5.810   0.177
 6606SOL     OW20716   4.910   0.654   2.568
 6606SOL    HW120717   4.939   0.748   2.584
 6606SOL    HW220718   4.836   0.654   2.500
 6607SOL     OW20719   2.130   1.690   2.469
 6607SOL    HW120720   2.065   1.718   2.398
 6607SOL    HW220721   2.200   1.760   2.480
 6608SOL     OW20722   5.366   3.175   3.520
 6608SOL    HW120723   5.388   3.095   3.464
 6608SOL    HW220724   5.437   3.245   3.508
 6609SOL     OW20725   5.839   1.333   0.025
 6609SOL    HW120726   5.825   1.335   6.951
 6609SOL    HW220727   5.926   1.378   0.047
 6610SOL     OW20728   1.961   0.257   0.763
 6610SOL    HW120729   1.969   0.216   0.853
 6610SOL    HW220730   1.915   0.346   0.770
 6611SOL     OW20731   6.451   2.246   3.123
 6611SOL    HW120732   6.449   2.308   3.045
 6611SOL    HW220733   6.411   2.158   3.097
 6612SOL     OW20734   1.649   5.959   6.955
 6612SOL    HW120735   1.645   5.911   6.867
 6612SOL    HW220736   1.562   5.949   7.003
 6613SOL     OW20737   5.463   5.246   3.133
 6613SOL    HW120738   5.530   5.181   3.098
 6613SOL    HW220739   5.373   5.202   3.137
 6614SOL     OW20740   5.094   5.324   6.228
 6614SOL    HW120741   5.116   5.330   6.131
 6614SOL    HW220742   5.044   5.239   6.246
 6615SOL     OW20743   0.423   3.235   5.188
 6615SOL    HW120744   0.476   3.278   5.262
 6615SOL    HW220745   0.469   3.250   5.101
 6616SOL     OW20746   5.083   1.200   5.547
 6616SOL    HW120747   5.066   1.102   5.555
 6616SOL    HW220748   4.996   1.249   5.541
 6617SOL     OW20749   2.707   6.574   4.385
 6617SOL    HW120750   2.625   6.533   4.425
 6617SOL    HW220751   2.681   6.649   4.324
 6618SOL     OW20752   0.911   4.234   2.004
 6618SOL    HW120753   0.905   4.134   2.001
 6618SOL    HW220754   0.822   4.274   1.985
 6619SOL     OW20755   4.402   6.835   3.250
 6619SOL    HW120756   4.368   6.929   3.254
 6619SOL    HW220757   4.499   6.834   3.275
 6620SOL     OW20758   1.228   2.975   6.099
 6620SOL    HW120759   1.192   2.908   6.033
 6620SOL    HW220760   1.311   3.016   6.062
 6621SOL     OW20761   2.822   3.900   0.445
 6621SOL    HW120762   2.801   3.829   0.378
 6621SOL    HW220763   2.825   3.989   0.400
 6622SOL     OW20764   6.471   6.062   0.242
 6622SOL    HW120765   6.402   6.036   0.175
 6622SOL    HW220766   6.501   5.981   0.293
 6623SOL     OW20767   3.234   3.045   3.200
 6623SOL    HW120768   3.200   2.990   3.277
 6623SOL    HW220769   3.281   3.126   3.236
 6624SOL     OW20770   3.695   5.879   5.091
 6624SOL    HW120771   3.753   5.960   5.093
 6624SOL    HW220772   3.600   5.905   5.082
 6625SOL     OW20773   6.328   1.052   6.521
 6625SOL    HW120774   6.278   1.105   6.454
 6625SOL    HW220775   6.409   1.103   6.550
 6626SOL     OW20776   3.183   5.453   3.172
 6626SOL    HW120777   3.278   5.486   3.174
 6626SOL    HW220778   3.178   5.369   3.118
 6627SOL     OW20779   1.886   0.763   6.259
 6627SOL    HW120780   1.885   0.665   6.276
 6627SOL    HW220781   1.794   0.793   6.234
 6628SOL     OW20782   4.383   4.606   2.596
 6628SOL    HW120783   4.454   4.554   2.548
 6628SOL    HW220784   4.307   4.625   2.533
 6629SOL     OW20785   3.164   5.757   1.523
 6629SOL    HW120786   3.162   5.668   1.478
 6629SOL    HW220787   3.225   5.818   1.473
 6630SOL     OW20788   3.632   1.279   0.313
 6630SOL    HW120789   3.684   1.287   0.228
 6630SOL    HW220790   3.606   1.370   0.345
 6631SOL     OW20791   5.471   0.575   2.108
 6631SOL    HW120792   5.424   0.632   2.176
 6631SOL    HW220793   5.438   0.599   2.017
 6632SOL     OW20794   6.978   1.312   0.493
 6632SOL    HW120795   0.011   1.346   0.567
 6632SOL    HW220796   6.915   1.385   0.465
 6633SOL     OW20797   1.360   5.933   0.000
 6633SOL    HW120798   1.263   5.954   7.014
 6633SOL    HW220799   1.396   5.982   0.080
 6634SOL     OW20800   6.567   2.958   5.847
 6634SOL    HW120801   6.558   2.914   5.758
 6634SOL    HW220802   6.657   2.937   5.886
 6635SOL     OW20803   4.254   5.225   3.470
 6635SOL    HW120804   4.185   5.207   3.399
 6635SOL    HW220805   4.273   5.323   3.474
 6636SOL     OW20806   1.320   2.890   4.808
 6636SOL    HW120807   1.296   2.943   4.726
 6636SOL    HW220808   1.397   2.934   4.854
 6637SOL     OW20809   1.481   0.442   0.405
 6637SOL    HW120810   1.552   0.375   0.430
 6637SOL    HW220811   1.481   0.455   0.306
 6638SOL     OW20812   1.515   5.566   5.424
 6638SOL    HW120813   1.443   5.545   5.490
 6638SOL    HW220814   1.603   5.532   5.458
 6639SOL     OW20815   5.712   4.474   6.482
 6639SOL    HW120816   5.779   4.522   6.424
 6639SOL    HW220817   5.752   4.456   6.572
 6640SOL     OW20818   0.196   2.252   3.513
 6640SOL    HW120819   0.147   2.275   3.597
 6640SOL    HW220820   0.219   2.155   3.513
 6641SOL     OW20821   3.039   4.065   6.535
 6641SOL    HW120822   2.953   4.015   6.525
 6641SOL    HW220823   3.100   4.042   6.459
 6642SOL     OW20824   1.515   4.729   6.980
 6642SOL    HW120825   1.470   4.764   0.037
 6642SOL    HW220826   1.593   4.787   6.958
 6643SOL     OW20827   6.103   4.186   6.241
 6643SOL    HW120828   6.020   4.138   6.215
 6643SOL    HW220829   6.080   4.280   6.268
 6644SOL     OW20830   2.910   4.861   1.888
 6644SOL    HW120831   2.848   4.785   1.871
 6644SOL    HW220832   2.918   4.877   1.987
 6645SOL     OW20833   0.102   5.001   6.343
 6645SOL    HW120834   0.003   5.016   6.334
 6645SOL    HW220835   0.134   5.037   6.430
 6646SOL     OW20836   3.671   5.413   4.698
 6646SOL    HW120837   3.751   5.363   4.664
 6646SOL    HW220838   3.635   5.472   4.626
 6647SOL     OW20839   3.696   0.219   2.375
 6647SOL    HW120840   3.725   0.130   2.408
 6647SOL    HW220841   3.681   0.214   2.276
 6648SOL     OW20842   4.162   5.562   2.567
 6648SOL    HW120843   4.166   5.527   2.474
 6648SOL    HW220844   4.253   5.592   2.595
 6649SOL     OW20845   4.950   1.908   6.246
 6649SOL    HW120846   4.889   1.876   6.319
 6649SOL    HW220847   4.913   1.881   6.157
 6650SOL     OW20848   4.228   1.140   3.258
 6650SOL    HW120849   4.207   1.067   3.324
 6650SOL    HW220850   4.320   1.176   3.277
 6651SOL     OW20851   1.391   2.223   0.119
 6651SOL    HW120852   1.335   2.296   0.159
 6651SOL    HW220853   1.479   2.261   0.090
 6652SOL     OW20854   6.857   5.281   1.481
 6652SOL    HW120855   6.787   5.318   1.543
 6652SOL    HW220856   6.920   5.224   1.532
 6653SOL     OW20857   3.035   3.921   2.958
 6653SOL    HW120858   3.091   3.968   2.890
 6653SOL    HW220859   2.989   3.843   2.915
 6654SOL     OW20860   1.943   2.798   1.257
 6654SOL    HW120861   1.916   2.894   1.265
 6654SOL    HW220862   2.014   2.789   1.187
 6655SOL     OW20863   2.959   6.461   1.940
 6655SOL    HW120864   2.953   6.527   2.016
 6655SOL    HW220865   3.031   6.489   1.877
 6656SOL     OW20866   6.892   1.043   1.271
 6656SOL    HW120867   6.966   0.997   1.222
 6656SOL    HW220868   6.924   1.132   1.304
 6657SOL     OW20869   3.849   6.889   6.169
 6657SOL    HW120870   3.771   6.859   6.114
 6657SOL    HW220871   3.903   6.810   6.197
 6658SOL     OW20872   5.816   1.041   5.036
 6658SOL    HW120873   5.837   1.093   4.953
 6658SOL    HW220874   5.801   1.105   5.112
 6659SOL     OW20875   2.939   3.232   0.164
 6659SOL    HW120876   3.010   3.301   0.177
 6659SOL    HW220877   2.980   3.141   0.170
 6660SOL     OW20878   6.672   6.791   2.119
 6660SOL    HW120879   6.591   6.741   2.088
 6660SOL    HW220880   6.649   6.847   2.198
 6661SOL     OW20881   6.348   5.314   3.179
 6661SOL    HW120882   6.394   5.233   3.216
 6661SOL    HW220883   6.250   5.310   3.201
 6662SOL     OW20884   2.433   0.737   0.379
 6662SOL    HW120885   2.496   0.744   0.457
 6662SOL    HW220886   2.486   0.725   0.295
 6663SOL     OW20887   0.205   5.473   2.494
 6663SOL    HW120888   0.172   5.407   2.562
 6663SOL    HW220889   0.303   5.487   2.506
 6664SOL     OW20890   1.213   0.254   2.191
 6664SOL    HW120891   1.285   0.298   2.137
 6664SOL    HW220892   1.230   0.270   2.289
 6665SOL     OW20893   1.503   6.340   2.985
 6665SOL    HW120894   1.420   6.380   2.944
 6665SOL    HW220895   1.498   6.241   2.981
 6666SOL     OW20896   6.116   1.654   5.190
 6666SOL    HW120897   6.097   1.556   5.195
 6666SOL    HW220898   6.212   1.671   5.215
 6667SOL     OW20899   6.099   5.383   4.439
 6667SOL    HW120900   6.130   5.322   4.512
 6667SOL    HW220901   6.007   5.416   4.459
 6668SOL     OW20902   0.829   4.809   2.378
 6668SOL    HW120903   0.823   4.807   2.478
 6668SOL    HW220904   0.858   4.900   2.348
 6669SOL     OW20905   2.725   5.293   3.776
 6669SOL    HW120906   2.670   5.323   3.699
 6669SOL    HW220907   2.736   5.194   3.773
 6670SOL     OW20908   3.820   4.900   6.981
 6670SOL    HW120909   3.818   4.807   6.945
 6670SOL    HW220910   3.735   4.948   6.957
 6671SOL     OW20911   6.544   4.337   6.386
 6671SOL    HW120912   6.514   4.278   6.460
 6671SOL    HW220913   6.478   4.333   6.311
 6672SOL     OW20914   1.202   0.726   5.735
 6672SOL    HW120915   1.246   0.665   5.669
 6672SOL    HW220916   1.238   0.818   5.726
 6673SOL     OW20917   4.960   4.944   2.107
 6673SOL    HW120918   5.048   4.946   2.060
 6673SOL    HW220919   4.891   4.991   2.051
 6674SOL     OW20920   0.962   6.000   5.535
 6674SOL    HW120921   0.875   5.997   5.485
 6674SOL    HW220922   0.985   5.909   5.568
 6675SOL     OW20923   5.631   4.060   0.193
 6675SOL    HW120924   5.701   4.130   0.199
 6675SOL    HW220925   5.549   4.090   0.241
 6676SOL     OW20926   0.866   3.467   5.424
 6676SOL    HW120927   0.808   3.472   5.505
 6676SOL    HW220928   0.924   3.549   5.419
 6677SOL     OW20929   0.326   3.651   0.713
 6677SOL    HW120930   0.226   3.650   0.710
 6677SOL    HW220931   0.360   3.737   0.672
 6678SOL     OW20932   1.242   2.617   6.408
 6678SOL    HW120933   1.178   2.677   6.458
 6678SOL    HW220934   1.241   2.643   6.311
 6679SOL     OW20935   1.340   2.669   5.534
 6679SOL    HW120936   1.391   2.732   5.593
 6679SOL    HW220937   1.296   2.721   5.461
 6680SOL     OW20938   4.118   6.447   6.244
 6680SOL    HW120939   4.130   6.369   6.182
 6680SOL    HW220940   4.051   6.423   6.314
 6681SOL     OW20941   5.434   5.359   0.315
 6681SOL    HW120942   5.440   5.400   0.224
 6681SOL    HW220943   5.355   5.298   0.318
 6682SOL     OW20944   0.467   5.605   2.580
 6682SOL    HW120945   0.548   5.581   2.527
 6682SOL    HW220946   0.493   5.619   2.676
 6683SOL     OW20947   4.978   1.663   5.206
 6683SOL    HW120948   4.959   1.747   5.256
 6683SOL    HW220949   5.003   1.590   5.270
 6684SOL     OW20950   1.882   6.918   2.296
 6684SOL    HW120951   1.856   6.896   2.390
 6684SOL    HW220952   1.816   6.981   2.257
 6685SOL     OW20953   5.520   2.596   6.401
 6685SOL    HW120954   5.482   2.572   6.490
 6685SOL    HW220955   5.581   2.675   6.411
 6686SOL     OW20956   6.246   3.838   4.163
 6686SOL    HW120957   6.249   3.913   4.097
 6686SOL    HW220958   6.165   3.847   4.220
 6687SOL     OW20959   1.255   1.592   0.841
 6687SOL    HW120960   1.237   1.510   0.894
 6687SOL    HW220961   1.253   1.570   0.743
 6688SOL     OW20962   0.366   4.725   3.018
 6688SOL    HW120963   0.411   4.782   3.087
 6688SOL    HW220964   0.303   4.781   2.965
 6689SOL     OW20965   5.403   3.981   0.589
 6689SOL    HW120966   5.425   3.884   0.590
 6689SOL    HW220967   5.463   4.030   0.653
 6690SOL     OW20968   2.193   2.599   1.743
 6690SOL    HW120969   2.287   2.575   1.717
 6690SOL    HW220970   2.130   2.529   1.711
 6691SOL     OW20971   2.361   6.177   1.214
 6691SOL    HW120972   2.397   6.255   1.163
 6691SOL    HW220973   2.389   6.092   1.171
 6692SOL     OW20974   3.059   4.191   5.179
 6692SOL    HW120975   2.998   4.129   5.228
 6692SOL    HW220976   3.015   4.280   5.170
 6693SOL     OW20977   4.459   3.726   5.386
 6693SOL    HW120978   4.367   3.718   5.346
 6693SOL    HW220979   4.527   3.713   5.314
 6694SOL     OW20980   4.762   6.542   0.966
 6694SOL    HW120981   4.757   6.547   1.066
 6694SOL    HW220982   4.854   6.569   0.936
 6695SOL     OW20983   0.849   1.396   6.824
 6695SOL    HW120984   0.934   1.446   6.842
 6695SOL    HW220985   0.865   1.328   6.753
 6696SOL     OW20986   2.112   2.873   1.698
 6696SOL    HW120987   2.129   2.775   1.709
 6696SOL    HW220988   2.042   2.887   1.627
 6697SOL     OW20989   4.399   1.531   2.855
 6697SOL    HW120990   4.370   1.534   2.951
 6697SOL    HW220991   4.433   1.620   2.827
 6698SOL     OW20992   4.036   3.016   6.920
 6698SOL    HW120993   3.958   2.964   6.954
 6698SOL    HW220994   4.045   3.101   6.972
 6699SOL     OW20995   3.632   4.649   6.983
 6699SOL    HW120996   3.594   4.608   6.900
 6699SOL    HW220997   3.701   4.587   7.022
 6700SOL     OW20998   0.397   5.587   1.479
 6700SOL    HW120999   0.392   5.488   1.465
 6700SOL    HW221000   0.461   5.627   1.414
 6701SOL     OW21001   0.308   1.762   0.467
 6701SOL    HW121002   0.292   1.672   0.426
 6701SOL    HW221003   0.263   1.765   0.557
 6702SOL     OW21004   2.454   1.556   0.798
 6702SOL    HW121005   2.464   1.655   0.794
 6702SOL    HW221006   2.454   1.519   0.705
 6703SOL     OW21007   0.050   1.278   5.828
 6703SOL    HW121008   6.994   1.298   5.882
 6703SOL    HW221009   0.123   1.247   5.889
 6704SOL     OW21010   4.744   2.214   2.424
 6704SOL    HW121011   4.646   2.192   2.427
 6704SOL    HW221012   4.760   2.289   2.360
 6705SOL     OW21013   6.492   2.148   1.692
 6705SOL    HW121014   6.407   2.198   1.675
 6705SOL    HW221015   6.559   2.209   1.733
 6706SOL     OW21016   0.954   3.821   6.937
 6706SOL    HW121017   0.880   3.847   6.999
 6706SOL    HW221018   0.973   3.724   6.947
 6707SOL     OW21019   6.274   5.402   4.182
 6707SOL    HW121020   6.222   5.379   4.264
 6707SOL    HW221021   6.234   5.356   4.103
 6708SOL     OW21022   1.810   5.719   2.096
 6708SOL    HW121023   1.894   5.758   2.058
 6708SOL    HW221024   1.743   5.792   2.111
 6709SOL     OW21025   3.573   6.874   1.760
 6709SOL    HW121026   3.640   6.841   1.693
 6709SOL    HW221027   3.607   6.958   1.802
 6710SOL     OW21028   2.795   2.466   6.522
 6710SOL    HW121029   2.852   2.383   6.526
 6710SOL    HW221030   2.749   2.470   6.433
 6711SOL     OW21031   5.076   3.806   6.361
 6711SOL    HW121032   5.162   3.758   6.343
 6711SOL    HW221033   5.023   3.812   6.277
 6712SOL     OW21034   3.642   5.544   0.531
 6712SOL    HW121035   3.667   5.448   0.542
 6712SOL    HW221036   3.699   5.601   0.590
 6713SOL     OW21037   1.864   2.630   1.553
 6713SOL    HW121038   1.771   2.612   1.521
 6713SOL    HW221039   1.927   2.564   1.510
 6714SOL     OW21040   5.247   0.354   4.324
 6714SOL    HW121041   5.328   0.297   4.313
 6714SOL    HW221042   5.272   0.442   4.365
 6715SOL     OW21043   0.483   2.121   0.926
 6715SOL    HW121044   0.472   2.211   0.968
 6715SOL    HW221045   0.478   2.130   0.827
 6716SOL     OW21046   1.678   6.020   1.223
 6716SOL    HW121047   1.738   6.023   1.143
 6716SOL    HW221048   1.726   6.057   1.302
 6717SOL     OW21049   3.679   2.723   0.533
 6717SOL    HW121050   3.691   2.652   0.463
 6717SOL    HW221051   3.727   2.806   0.505
 6718SOL     OW21052   3.850   6.832   0.005
 6718SOL    HW121053   3.821   6.874   6.944
 6718SOL    HW221054   3.806   6.743   0.015
 6719SOL     OW21055   0.121   6.088   5.514
 6719SOL    HW121056   0.088   6.102   5.607
 6719SOL    HW221057   0.221   6.095   5.512
 6720SOL     OW21058   2.230   5.321   1.756
 6720SOL    HW121059   2.330   5.327   1.755
 6720SOL    HW221060   2.201   5.253   1.823
 6721SOL     OW21061   5.235   6.808   4.149
 6721SOL    HW121062   5.185   6.727   4.119
 6721SOL    HW221063   5.199   6.839   4.237
 6722SOL     OW21064   4.386   3.550   6.855
 6722SOL    HW121065   4.401   3.618   6.927
 6722SOL    HW221066   4.392   3.458   6.894
 6723SOL     OW21067   2.586   6.707   3.583
 6723SOL    HW121068   2.501   6.746   3.547
 6723SOL    HW221069   2.638   6.667   3.508
 6724SOL     OW21070   3.038   4.653   5.387
 6724SOL    HW121071   2.981   4.596   5.329
 6724SOL    HW221072   3.038   4.617   5.481
 6725SOL     OW21073   0.909   5.065   2.568
 6725SOL    HW121074   0.916   5.057   2.468
 6725SOL    HW221075   0.859   5.149   2.591
 6726SOL     OW21076   2.282   2.717   4.393
 6726SOL    HW121077   2.370   2.685   4.430
 6726SOL    HW221078   2.207   2.674   4.443
 6727SOL     OW21079   4.422   3.229   5.822
 6727SOL    HW121080   4.389   3.139   5.849
 6727SOL    HW221081   4.415   3.293   5.899
 6728SOL     OW21082   3.960   1.635   4.234
 6728SOL    HW121083   3.883   1.588   4.191
 6728SOL    HW221084   4.020   1.672   4.163
 6729SOL     OW21085   6.584   0.851   2.498
 6729SOL    HW121086   6.519   0.887   2.430
 6729SOL    HW221087   6.549   0.869   2.590
 6730SOL     OW21088   2.808   0.945   0.243
 6730SOL    HW121089   2.853   0.878   0.183
 6730SOL    HW221090   2.872   0.976   0.313
 6731SOL     OW21091   2.543   4.649   1.420
 6731SOL    HW121092   2.546   4.549   1.411
 6731SOL    HW221093   2.610   4.678   1.488
 6732SOL     OW21094   2.536   6.454   0.780
 6732SOL    HW121095   2.521   6.378   0.716
 6732SOL    HW221096   2.512   6.425   0.873
 6733SOL     OW21097   4.582   5.950   5.096
 6733SOL    HW121098   4.564   6.047   5.112
 6733SOL    HW221099   4.628   5.939   5.008
 6734SOL     OW21100   1.750   3.124   5.718
 6734SOL    HW121101   1.696   3.075   5.649
 6734SOL    HW221102   1.787   3.059   5.784
 6735SOL     OW21103   0.040   5.146   5.467
 6735SOL    HW121104   0.017   5.049   5.457
 6735SOL    HW221105   0.129   5.164   5.425
 6736SOL     OW21106   2.417   2.749   1.839
 6736SOL    HW121107   2.330   2.703   1.819
 6736SOL    HW221108   2.428   2.827   1.777
 6737SOL     OW21109   2.820   1.626   2.440
 6737SOL    HW121110   2.806   1.547   2.500
 6737SOL    HW221111   2.845   1.595   2.349
 6738SOL     OW21112   2.450   1.299   2.703
 6738SOL    HW121113   2.400   1.381   2.674
 6738SOL    HW221114   2.397   1.250   2.772
 6739SOL     OW21115   3.547   6.459   4.990
 6739SOL    HW121116   3.578   6.404   5.067
 6739SOL    HW221117   3.585   6.422   4.905
 6740SOL     OW21118   1.706   1.730   3.627
 6740SOL    HW121119   1.660   1.752   3.713
 6740SOL    HW221120   1.643   1.680   3.567
 6741SOL     OW21121   6.744   0.547   5.939
 6741SOL    HW121122   6.715   0.636   5.975
 6741SOL    HW221123   6.664   0.488   5.929
 6742SOL     OW21124   6.363   5.946   5.324
 6742SOL    HW121125   6.389   5.861   5.277
 6742SOL    HW221126   6.439   6.011   5.319
 6743SOL     OW21127   3.846   3.280   1.633
 6743SOL    HW121128   3.881   3.344   1.564
 6743SOL    HW221129   3.799   3.205   1.587
 6744SOL     OW21130   4.815   4.805   5.818
 6744SOL    HW121131   4.825   4.747   5.738
 6744SOL    HW221132   4.903   4.808   5.867
 6745SOL     OW21133   1.763   4.999   3.611
 6745SOL    HW121134   1.821   4.939   3.555
 6745SOL    HW221135   1.717   4.944   3.681
 6746SOL     OW21136   0.356   1.974   1.138
 6746SOL    HW121137   0.376   1.986   1.040
 6746SOL    HW221138   0.431   2.013   1.192
 6747SOL     OW21139   5.009   5.939   4.970
 6747SOL    HW121140   5.002   5.961   4.873
 6747SOL    HW221141   5.066   5.858   4.982
 6748SOL     OW21142   1.215   0.743   2.645
 6748SOL    HW121143   1.246   0.726   2.551
 6748SOL    HW221144   1.272   0.691   2.709
 6749SOL     OW21145   4.609   0.241   6.996
 6749SOL    HW121146   4.606   0.277   0.064
 6749SOL    HW221147   4.662   0.303   6.938
 6750SOL     OW21148   2.424   2.619   4.927
 6750SOL    HW121149   2.498   2.586   4.986
 6750SOL    HW221150   2.432   2.719   4.917
 6751SOL     OW21151   2.653   2.432   4.546
 6751SOL    HW121152   2.681   2.380   4.465
 6751SOL    HW221153   2.709   2.405   4.624
 6752SOL     OW21154   5.912   3.237   0.537
 6752SOL    HW121155   5.875   3.202   0.451
 6752SOL    HW221156   6.005   3.270   0.523
 6753SOL     OW21157   4.397   2.391   6.649
 6753SOL    HW121158   4.415   2.440   6.734
 6753SOL    HW221159   4.335   2.315   6.667
 6754SOL     OW21160   5.978   1.292   6.538
 6754SOL    HW121161   6.042   1.243   6.478
 6754SOL    HW221162   5.902   1.327   6.483
 6755SOL     OW21163   4.940   1.812   4.066
 6755SOL    HW121164   4.870   1.848   4.127
 6755SOL    HW221165   4.899   1.790   3.978
 6756SOL     OW21166   4.976   5.165   4.018
 6756SOL    HW121167   4.964   5.086   4.078
 6756SOL    HW221168   5.071   5.172   3.990
 6757SOL     OW21169   5.857   5.975   1.823
 6757SOL    HW121170   5.831   5.892   1.871
 6757SOL    HW221171   5.798   6.050   1.851
 6758SOL     OW21172   5.371   2.470   2.104
 6758SOL    HW121173   5.393   2.396   2.040
 6758SOL    HW221174   5.367   2.557   2.055
 6759SOL     OW21175   0.512   5.193   3.208
 6759SOL    HW121176   0.434   5.254   3.223
 6759SOL    HW221177   0.597   5.246   3.208
 6760SOL     OW21178   6.702   3.946   3.913
 6760SOL    HW121179   6.652   3.910   3.992
 6760SOL    HW221180   6.644   4.010   3.864
 6761SOL     OW21181   4.768   2.431   5.520
 6761SOL    HW121182   4.699   2.404   5.453
 6761SOL    HW221183   4.728   2.495   5.585
 6762SOL     OW21184   6.064   4.719   3.436
 6762SOL    HW121185   6.093   4.813   3.455
 6762SOL    HW221186   6.103   4.657   3.504
 6763SOL     OW21187   6.375   6.801   5.742
 6763SOL    HW121188   6.307   6.729   5.757
 6763SOL    HW221189   6.465   6.768   5.768
 6764SOL     OW21190   2.724   4.272   6.756
 6764SOL    HW121191   2.678   4.270   6.844
 6764SOL    HW221192   2.660   4.304   6.685
 6765SOL     OW21193   5.758   4.306   2.218
 6765SOL    HW121194   5.733   4.222   2.265
 6765SOL    HW221195   5.836   4.349   2.264
 6766SOL     OW21196   2.140   0.485   5.983
 6766SOL    HW121197   2.156   0.455   5.889
 6766SOL    HW221198   2.050   0.528   5.990
 6767SOL     OW21199   6.972   2.984   6.650
 6767SOL    HW121200   6.955   3.013   6.556
 6767SOL    HW221201   6.885   2.965   6.695
 6768SOL     OW21202   6.529   0.408   3.761
 6768SOL    HW121203   6.590   0.388   3.838
 6768SOL    HW221204   6.505   0.322   3.715
 6769SOL     OW21205   2.162   2.796   5.616
 6769SOL    HW121206   2.235   2.858   5.647
 6769SOL    HW221207   2.163   2.791   5.516
 6770SOL     OW21208   0.401   1.415   3.223
 6770SOL    HW121209   0.346   1.344   3.177
 6770SOL    HW221210   0.381   1.414   3.321
 6771SOL     OW21211   3.933   2.145   3.443
 6771SOL    HW121212   4.030   2.149   3.465
 6771SOL    HW221213   3.921   2.152   3.344
 6772SOL     OW21214   0.012   1.584   1.819
 6772SOL    HW121215   0.019   1.631   1.732
 6772SOL    HW221216   7.004   1.491   1.805
 6773SOL     OW21217   1.115   6.627   1.184
 6773SOL    HW121218   1.116   6.706   1.123
 6773SOL    HW221219   1.152   6.653   1.273
 6774SOL     OW21220   2.007   2.287   5.460
 6774SOL    HW121221   2.051   2.376   5.472
 6774SOL    HW221222   1.984   2.249   5.550
 6775SOL     OW21223   0.873   2.214   4.786
 6775SOL    HW121224   0.888   2.187   4.881
 6775SOL    HW221225   0.923   2.152   4.726
 6776SOL     OW21226   3.176   4.084   2.742
 6776SOL    HW121227   3.168   4.017   2.668
 6776SOL    HW221228   3.180   4.176   2.703
 6777SOL     OW21229   6.190   5.647   6.684
 6777SOL    HW121230   6.142   5.707   6.620
 6777SOL    HW221231   6.181   5.682   6.777
 6778SOL     OW21232   6.117   4.682   2.913
 6778SOL    HW121233   6.064   4.716   2.836
 6778SOL    HW221234   6.177   4.755   2.946
 6779SOL     OW21235   5.308   3.576   5.732
 6779SOL    HW121236   5.338   3.515   5.805
 6779SOL    HW221237   5.292   3.523   5.648
 6780SOL     OW21238   2.863   2.204   3.190
 6780SOL    HW121239   2.936   2.240   3.248
 6780SOL    HW221240   2.903   2.146   3.119
 6781SOL     OW21241   0.136   1.608   3.378
 6781SOL    HW121242   0.082   1.534   3.338
 6781SOL    HW221243   0.134   1.687   3.317
 6782SOL     OW21244   6.715   1.285   2.458
 6782SOL    HW121245   6.775   1.250   2.529
 6782SOL    HW221246   6.703   1.215   2.387
 6783SOL     OW21247   1.711   4.964   5.405
 6783SOL    HW121248   1.748   5.041   5.457
 6783SOL    HW221249   1.711   4.987   5.308
 6784SOL     OW21250   2.294   3.616   1.681
 6784SOL    HW121251   2.196   3.597   1.680
 6784SOL    HW221252   2.340   3.548   1.738
 6785SOL     OW21253   5.329   6.078   4.915
 6785SOL    HW121254   5.384   6.035   4.986
 6785SOL    HW221255   5.327   6.019   4.834
 6786SOL     OW21256   5.762   1.950   6.250
 6786SOL    HW121257   5.772   1.929   6.347
 6786SOL    HW221258   5.844   1.994   6.216
 6787SOL     OW21259   3.869   2.088   6.373
 6787SOL    HW121260   3.772   2.108   6.382
 6787SOL    HW221261   3.919   2.172   6.350
 6788SOL     OW21262   6.759   4.368   2.787
 6788SOL    HW121263   6.729   4.338   2.696
 6788SOL    HW221264   6.857   4.350   2.797
 6789SOL     OW21265   5.831   3.886   3.534
 6789SOL    HW121266   5.739   3.850   3.519
 6789SOL    HW221267   5.829   3.954   3.607
 6790SOL     OW21268   0.617   5.023   6.260
 6790SOL    HW121269   0.608   4.981   6.351
 6790SOL    HW221270   0.707   5.001   6.223
 6791SOL     OW21271   3.376   0.747   3.216
 6791SOL    HW121272   3.405   0.745   3.121
 6791SOL    HW221273   3.299   0.810   3.226
 6792SOL     OW21274   3.912   0.150   4.961
 6792SOL    HW121275   3.839   0.201   4.916
 6792SOL    HW221276   3.875   0.102   5.041
 6793SOL     OW21277   1.751   3.700   6.819
 6793SOL    HW121278   1.799   3.760   6.883
 6793SOL    HW221279   1.652   3.718   6.824
 6794SOL     OW21280   4.910   1.900   5.358
 6794SOL    HW121281   4.977   1.966   5.392
 6794SOL    HW221282   4.818   1.929   5.384
 6795SOL     OW21283   0.996   0.632   0.984
 6795SOL    HW121284   0.926   0.596   0.922
 6795SOL    HW221285   0.978   0.599   1.077
 6796SOL     OW21286   5.895   1.095   2.463
 6796SOL    HW121287   5.853   1.173   2.418
 6796SOL    HW221288   5.974   1.064   2.410
 6797SOL     OW21289   0.963   2.409   1.447
 6797SOL    HW121290   0.868   2.380   1.459
 6797SOL    HW221291   1.022   2.359   1.511
 6798SOL     OW21292   5.709   6.930   1.585
 6798SOL    HW121293   5.710   6.857   1.653
 6798SOL    HW221294   5.695   6.890   1.494
 6799SOL     OW21295   6.606   1.032   3.185
 6799SOL    HW121296   6.590   0.934   3.199
 6799SOL    HW221297   6.574   1.083   3.265
 6800SOL     OW21298   6.770   1.922   1.308
 6800SOL    HW121299   6.828   2.000   1.332
 6800SOL    HW221300   6.685   1.926   1.359
 6801SOL     OW21301   1.082   6.114   6.173
 6801SOL    HW121302   0.984   6.133   6.177
 6801SOL    HW221303   1.115   6.126   6.080
 6802SOL     OW21304   3.533   5.014   1.986
 6802SOL    HW121305   3.445   5.028   2.032
 6802SOL    HW221306   3.560   4.918   1.994
 6803SOL     OW21307   5.371   5.023   5.699
 6803SOL    HW121308   5.309   5.081   5.753
 6803SOL    HW221309   5.436   4.978   5.761
 6804SOL     OW21310   3.571   4.954   3.097
 6804SOL    HW121311   3.650   4.933   3.153
 6804SOL    HW221312   3.521   5.031   3.137
 6805SOL     OW21313   0.086   4.331   5.002
 6805SOL    HW121314   0.025   4.351   4.925
 6805SOL    HW221315   0.041   4.269   5.065
 6806SOL     OW21316   6.742   1.894   1.990
 6806SOL    HW121317   6.830   1.931   1.959
 6806SOL    HW221318   6.698   1.960   2.051
 6807SOL     OW21319   3.163   4.037   1.878
 6807SOL    HW121320   3.092   3.969   1.897
 6807SOL    HW221321   3.225   4.044   1.956
 6808SOL     OW21322   3.240   1.251   4.375
 6808SOL    HW121323   3.162   1.305   4.406
 6808SOL    HW221324   3.310   1.311   4.337
 6809SOL     OW21325   5.665   3.672   0.399
 6809SOL    HW121326   5.693   3.661   0.495
 6809SOL    HW221327   5.580   3.621   0.383
 6810SOL     OW21328   2.625   0.621   4.445
 6810SOL    HW121329   2.709   0.619   4.500
 6810SOL    HW221330   2.639   0.570   4.360
 6811SOL     OW21331   6.517   1.329   0.391
 6811SOL    HW121332   6.463   1.327   0.307
 6811SOL    HW221333   6.543   1.236   0.416
 6812SOL     OW21334   3.679   4.376   5.248
 6812SOL    HW121335   3.699   4.282   5.277
 6812SOL    HW221336   3.685   4.383   5.149
 6813SOL     OW21337   6.290   3.359   1.793
 6813SOL    HW121338   6.343   3.389   1.713
 6813SOL    HW221339   6.302   3.425   1.867
 6814SOL     OW21340   5.119   1.001   6.663
 6814SOL    HW121341   5.140   1.054   6.580
 6814SOL    HW221342   5.201   0.993   6.719
 6815SOL     OW21343   1.493   4.878   5.987
 6815SOL    HW121344   1.438   4.860   5.905
 6815SOL    HW221345   1.560   4.950   5.967
 6816SOL     OW21346   0.205   0.795   3.111
 6816SOL    HW121347   0.109   0.776   3.132
 6816SOL    HW221348   0.213   0.823   3.016
 6817SOL     OW21349   4.121   2.212   1.642
 6817SOL    HW121350   4.022   2.216   1.655
 6817SOL    HW221351   4.164   2.286   1.695
 6818SOL     OW21352   1.684   0.060   5.535
 6818SOL    HW121353   1.735   0.019   5.610
 6818SOL    HW221354   1.727   0.147   5.509
 6819SOL     OW21355   4.934   4.522   1.608
 6819SOL    HW121356   4.948   4.499   1.705
 6819SOL    HW221357   4.836   4.525   1.588
 6820SOL     OW21358   2.992   5.424   1.910
 6820SOL    HW121359   2.915   5.439   1.847
 6820SOL    HW221360   3.069   5.480   1.883
 6821SOL     OW21361   3.893   2.677   5.333
 6821SOL    HW121362   3.966   2.641   5.275
 6821SOL    HW221363   3.812   2.620   5.324
 6822SOL     OW21364   6.401   2.774   6.261
 6822SOL    HW121365   6.464   2.758   6.185
 6822SOL    HW221366   6.444   2.835   6.328
 6823SOL     OW21367   5.698   2.207   5.124
 6823SOL    HW121368   5.640   2.180   5.201
 6823SOL    HW221369   5.702   2.307   5.119
 6824SOL     OW21370   1.149   0.272   5.904
 6824SOL    HW121371   1.205   0.196   5.869
 6824SOL    HW221372   1.173   0.289   5.999
 6825SOL     OW21373   5.621   4.701   0.847
 6825SOL    HW121374   5.605   4.788   0.893
 6825SOL    HW221375   5.670   4.716   0.761
 6826SOL     OW21376   6.530   4.885   4.115
 6826SOL    HW121377   6.590   4.815   4.152
 6826SOL    HW221378   6.486   4.851   4.032
 6827SOL     OW21379   4.267   5.844   4.507
 6827SOL    HW121380   4.178   5.879   4.480
 6827SOL    HW221381   4.255   5.762   4.564
 6828SOL     OW21382   2.688   2.381   2.768
 6828SOL    HW121383   2.747   2.311   2.728
 6828SOL    HW221384   2.692   2.374   2.868
 6829SOL     OW21385   3.793   6.858   3.602
 6829SOL    HW121386   3.730   6.781   3.593
 6829SOL    HW221387   3.885   6.830   3.578
 6830SOL     OW21388   4.923   6.240   3.307
 6830SOL    HW121389   4.880   6.251   3.217
 6830SOL    HW221390   4.997   6.306   3.317
 6831SOL     OW21391   1.883   1.748   6.081
 6831SOL    HW121392   1.924   1.698   6.157
 6831SOL    HW221393   1.795   1.786   6.109
 6832SOL     OW21394   3.151   2.694   0.126
 6832SOL    HW121395   3.088   2.634   0.077
 6832SOL    HW221396   3.223   2.725   0.064
 6833SOL     OW21397   3.518   5.016   5.929
 6833SOL    HW121398   3.570   5.023   6.013
 6833SOL    HW221399   3.507   4.920   5.904
 6834SOL     OW21400   5.721   6.521   0.799
 6834SOL    HW121401   5.815   6.488   0.807
 6834SOL    HW221402   5.711   6.576   0.716
 6835SOL     OW21403   2.843   1.722   5.261
 6835SOL    HW121404   2.879   1.723   5.168
 6835SOL    HW221405   2.919   1.725   5.326
 6836SOL     OW21406   2.394   4.613   6.275
 6836SOL    HW121407   2.438   4.575   6.194
 6836SOL    HW221408   2.464   4.645   6.339
 6837SOL     OW21409   0.515   0.528   1.791
 6837SOL    HW121410   0.479   0.438   1.769
 6837SOL    HW221411   0.575   0.559   1.717
 6838SOL     OW21412   3.019   3.846   5.110
 6838SOL    HW121413   2.948   3.831   5.179
 6838SOL    HW221414   2.978   3.875   5.024
 6839SOL     OW21415   6.262   3.187   4.779
 6839SOL    HW121416   6.205   3.266   4.754
 6839SOL    HW221417   6.206   3.104   4.780
 6840SOL     OW21418   2.381   6.747   4.971
 6840SOL    HW121419   2.386   6.706   4.880
 6840SOL    HW221420   2.286   6.759   4.997
 6841SOL     OW21421   4.524   6.310   0.916
 6841SOL    HW121422   4.574   6.397   0.921
 6841SOL    HW221423   4.524   6.267   1.006
 6842SOL     OW21424   0.459   3.650   5.404
 6842SOL    HW121425   0.379   3.690   5.449
 6842SOL    HW221426   0.540   3.668   5.459
 6843SOL     OW21427   3.987   2.126   2.133
 6843SOL    HW121428   3.907   2.182   2.109
 6843SOL    HW221429   3.957   2.048   2.188
 6844SOL     OW21430   4.399   4.926   4.176
 6844SOL    HW121431   4.488   4.891   4.147
 6844SOL    HW221432   4.327   4.874   4.130
 6845SOL     OW21433   4.466   4.939   1.493
 6845SOL    HW121434   4.372   4.920   1.522
 6845SOL    HW221435   4.471   4.940   1.394
 6846SOL     OW21436   2.945   3.267   3.135
 6846SOL    HW121437   3.038   3.290   3.163
 6846SOL    HW221438   2.920   3.177   3.172
 6847SOL     OW21439   5.824   3.429   1.834
 6847SOL    HW121440   5.858   3.424   1.740
 6847SOL    HW221441   5.733   3.472   1.834
 6848SOL     OW21442   0.765   6.601   3.095
 6848SOL    HW121443   0.718   6.516   3.069
 6848SOL    HW221444   0.844   6.615   3.036
 6849SOL     OW21445   3.456   6.765   3.814
 6849SOL    HW121446   3.425   6.672   3.798
 6849SOL    HW221447   3.457   6.815   3.728
 6850SOL     OW21448   5.347   2.648   2.447
 6850SOL    HW121449   5.256   2.623   2.413
 6850SOL    HW221450   5.411   2.573   2.431
 6851SOL     OW21451   1.027   5.746   5.615
 6851SOL    HW121452   1.100   5.763   5.682
 6851SOL    HW221453   1.068   5.716   5.529
 6852SOL     OW21454   6.850   4.863   2.200
 6852SOL    HW121455   6.891   4.858   2.110
 6852SOL    HW221456   6.918   4.842   2.270
 6853SOL     OW21457   0.913   3.466   5.834
 6853SOL    HW121458   0.899   3.371   5.862
 6853SOL    HW221459   0.999   3.473   5.783
 6854SOL     OW21460   6.451   1.799   6.360
 6854SOL    HW121461   6.383   1.733   6.329
 6854SOL    HW221462   6.466   1.868   6.289
 6855SOL     OW21463   2.938   6.260   1.153
 6855SOL    HW121464   2.840   6.270   1.135
 6855SOL    HW221465   2.952   6.194   1.227
 6856SOL     OW21466   6.593   3.408   4.929
 6856SOL    HW121467   6.642   3.480   4.979
 6856SOL    HW221468   6.537   3.355   4.993
 6857SOL     OW21469   4.177   1.568   5.596
 6857SOL    HW121470   4.205   1.579   5.692
 6857SOL    HW221471   4.083   1.600   5.585
 6858SOL     OW21472   3.880   3.395   4.719
 6858SOL    HW121473   3.798   3.444   4.691
 6858SOL    HW221474   3.879   3.382   4.818
 6859SOL     OW21475   4.032   0.115   0.712
 6859SOL    HW121476   3.988   0.025   0.710
 6859SOL    HW221477   3.974   0.179   0.762
 6860SOL     OW21478   5.011   3.192   6.485
 6860SOL    HW121479   5.095   3.174   6.537
 6860SOL    HW221480   4.932   3.174   6.543
 6861SOL     OW21481   6.467   5.143   0.128
 6861SOL    HW121482   6.534   5.079   0.088
 6861SOL    HW221483   6.420   5.098   0.204
 6862SOL     OW21484   3.198   5.568   3.992
 6862SOL    HW121485   3.127   5.593   4.057
 6862SOL    HW221486   3.287   5.597   4.027
 6863SOL     OW21487   5.782   2.677   3.801
 6863SOL    HW121488   5.787   2.718   3.892
 6863SOL    HW221489   5.873   2.677   3.759
 6864SOL     OW21490   3.860   6.129   5.077
 6864SOL    HW121491   3.891   6.089   4.990
 6864SOL    HW221492   3.940   6.161   5.128
 6865SOL     OW21493   6.446   4.912   3.538
 6865SOL    HW121494   6.370   4.848   3.551
 6865SOL    HW221495   6.481   4.904   3.445
 6866SOL     OW21496   0.072   2.847   2.376
 6866SOL    HW121497   0.040   2.827   2.284
 6866SOL    HW221498   0.140   2.779   2.403
 6867SOL     OW21499   1.702   4.183   2.772
 6867SOL    HW121500   1.746   4.100   2.806
 6867SOL    HW221501   1.679   4.242   2.850
 6868SOL     OW21502   1.844   5.468   5.300
 6868SOL    HW121503   1.855   5.564   5.275
 6868SOL    HW221504   1.833   5.461   5.400
 6869SOL     OW21505   5.851   3.529   5.403
 6869SOL    HW121506   5.790   3.570   5.335
 6869SOL    HW221507   5.817   3.439   5.428
 6870SOL     OW21508   5.712   3.674   2.762
 6870SOL    HW121509   5.762   3.599   2.806
 6870SOL    HW221510   5.622   3.641   2.733
 6871SOL     OW21511   5.066   5.640   1.308
 6871SOL    HW121512   5.008   5.638   1.390
 6871SOL    HW221513   5.010   5.624   1.227
 6872SOL     OW21514   2.256   3.475   6.197
 6872SOL    HW121515   2.347   3.486   6.235
 6872SOL    HW221516   2.258   3.493   6.099
 6873SOL     OW21517   5.632   3.465   5.769
 6873SOL    HW121518   5.615   3.393   5.702
 6873SOL    HW221519   5.601   3.553   5.732
 6874SOL     OW21520   0.535   2.659   5.334
 6874SOL    HW121521   0.613   2.655   5.398
 6874SOL    HW221522   0.451   2.672   5.386
 6875SOL     OW21523   2.325   1.891   4.029
 6875SOL    HW121524   2.301   1.856   3.938
 6875SOL    HW221525   2.256   1.958   4.057
 6876SOL     OW21526   4.115   6.148   6.842
 6876SOL    HW121527   4.204   6.104   6.851
 6876SOL    HW221528   4.127   6.247   6.833
 6877SOL     OW21529   2.271   4.261   7.023
 6877SOL    HW121530   2.323   4.338   0.037
 6877SOL    HW221531   2.232   4.288   6.936
 6878SOL     OW21532   1.825   1.690   5.432
 6878SOL    HW121533   1.731   1.705   5.401
 6878SOL    HW221534   1.842   1.747   5.512
 6879SOL     OW21535   1.626   2.379   6.583
 6879SOL    HW121536   1.613   2.325   6.500
 6879SOL    HW221537   1.575   2.465   6.575
 6880SOL     OW21538   2.082   4.141   5.141
 6880SOL    HW121539   2.169   4.117   5.098
 6880SOL    HW221540   2.052   4.230   5.106
 6881SOL     OW21541   6.917   4.255   1.898
 6881SOL    HW121542   6.948   4.233   1.805
 6881SOL    HW221543   6.985   4.223   1.964
 6882SOL     OW21544   1.957   0.244   5.703
 6882SOL    HW121545   2.040   0.265   5.756
 6882SOL    HW221546   1.878   0.283   5.749
 6883SOL     OW21547   3.957   6.788   1.139
 6883SOL    HW121548   3.940   6.857   1.070
 6883SOL    HW221549   4.014   6.827   1.212
 6884SOL     OW21550   2.054   4.876   4.054
 6884SOL    HW121551   2.066   4.974   4.071
 6884SOL    HW221552   2.093   4.824   4.130
 6885SOL     OW21553   3.095   5.626   4.545
 6885SOL    HW121554   3.085   5.722   4.518
 6885SOL    HW221555   3.181   5.615   4.595
 6886SOL     OW21556   6.000   1.212   2.709
 6886SOL    HW121557   5.940   1.137   2.681
 6886SOL    HW221558   6.069   1.178   2.773
 6887SOL     OW21559   5.951   0.840   4.504
 6887SOL    HW121560   6.003   0.865   4.423
 6887SOL    HW221561   5.900   0.755   4.487
 6888SOL     OW21562   5.562   6.856   4.861
 6888SOL    HW121563   5.555   6.858   4.961
 6888SOL    HW221564   5.496   6.919   4.821
 6889SOL     OW21565   1.692   4.396   5.795
 6889SOL    HW121566   1.753   4.344   5.735
 6889SOL    HW221567   1.693   4.492   5.768
 6890SOL     OW21568   2.118   0.134   1.469
 6890SOL    HW121569   2.128   0.091   1.379
 6890SOL    HW221570   2.028   0.176   1.477
 6891SOL     OW21571   1.510   4.516   3.933
 6891SOL    HW121572   1.559   4.432   3.911
 6891SOL    HW221573   1.476   4.511   4.027
 6892SOL     OW21574   3.160   0.922   3.854
 6892SOL    HW121575   3.071   0.934   3.896
 6892SOL    HW221576   3.230   0.910   3.925
 6893SOL     OW21577   4.444   5.423   2.962
 6893SOL    HW121578   4.463   5.520   2.950
 6893SOL    HW221579   4.390   5.390   2.885
 6894SOL     OW21580   6.756   4.749   6.524
 6894SOL    HW121581   6.753   4.803   6.440
 6894SOL    HW221582   6.674   4.691   6.529
 6895SOL     OW21583   3.271   5.202   6.789
 6895SOL    HW121584   3.207   5.275   6.809
 6895SOL    HW221585   3.305   5.212   6.695
 6896SOL     OW21586   3.745   0.537   3.295
 6896SOL    HW121587   3.699   0.623   3.318
 6896SOL    HW221588   3.710   0.464   3.354
 6897SOL     OW21589   3.138   3.387   0.361
 6897SOL    HW121590   3.116   3.404   0.265
 6897SOL    HW221591   3.229   3.424   0.381
 6898SOL     OW21592   4.208   2.253   2.086
 6898SOL    HW121593   4.118   2.213   2.095
 6898SOL    HW221594   4.249   2.226   1.999
 6899SOL     OW21595   4.865   5.822   6.458
 6899SOL    HW121596   4.949   5.811   6.511
 6899SOL    HW221597   4.786   5.816   6.519
 6900SOL     OW21598   4.922   0.662   6.297
 6900SOL    HW121599   5.004   0.606   6.308
 6900SOL    HW221600   4.909   0.683   6.200
 6901SOL     OW21601   1.365   0.436   6.303
 6901SOL    HW121602   1.450   0.466   6.260
 6901SOL    HW221603   1.351   0.487   6.387
 6902SOL     OW21604   6.550   5.872   0.738
 6902SOL    HW121605   6.458   5.867   0.700
 6902SOL    HW221606   6.613   5.908   0.669
 6903SOL     OW21607   4.325   4.161   0.821
 6903SOL    HW121608   4.331   4.201   0.730
 6903SOL    HW221609   4.248   4.201   0.870
 6904SOL     OW21610   6.872   1.321   3.099
 6904SOL    HW121611   6.775   1.303   3.084
 6904SOL    HW221612   6.882   1.414   3.136
 6905SOL     OW21613   5.901   6.106   1.083
 6905SOL    HW121614   5.827   6.173   1.079
 6905SOL    HW221615   5.905   6.065   1.174
 6906SOL     OW21616   4.177   0.933   3.450
 6906SOL    HW121617   4.212   0.897   3.536
 6906SOL    HW221618   4.090   0.888   3.428
 6907SOL     OW21619   3.881   1.263   1.947
 6907SOL    HW121620   3.802   1.201   1.946
 6907SOL    HW221621   3.959   1.217   1.906
 6908SOL     OW21622   1.484   6.719   5.864
 6908SOL    HW121623   1.546   6.795   5.883
 6908SOL    HW221624   1.424   6.704   5.942
 6909SOL     OW21625   4.394   3.879   6.740
 6909SOL    HW121626   4.309   3.904   6.695
 6909SOL    HW221627   4.378   3.870   6.838
 6910SOL     OW21628   6.294   1.312   1.735
 6910SOL    HW121629   6.263   1.249   1.806
 6910SOL    HW221630   6.275   1.406   1.763
 6911SOL     OW21631   4.158   1.247   4.782
 6911SOL    HW121632   4.118   1.328   4.739
 6911SOL    HW221633   4.193   1.271   4.873
 6912SOL     OW21634   5.145   4.984   0.014
 6912SOL    HW121635   5.076   5.054   7.023
 6912SOL    HW221636   5.155   4.970   0.112
 6913SOL     OW21637   5.310   4.958   4.919
 6913SOL    HW121638   5.231   4.984   4.975
 6913SOL    HW221639   5.394   4.966   4.974
 6914SOL     OW21640   6.368   4.905   0.536
 6914SOL    HW121641   6.283   4.889   0.587
 6914SOL    HW221642   6.424   4.823   0.540
 6915SOL     OW21643   0.434   5.302   2.835
 6915SOL    HW121644   0.458   5.398   2.849
 6915SOL    HW221645   0.399   5.263   2.920
 6916SOL     OW21646   6.194   2.346   6.765
 6916SOL    HW121647   6.095   2.349   6.757
 6916SOL    HW221648   6.220   2.370   6.859
 6917SOL     OW21649   4.552   5.836   6.298
 6917SOL    HW121650   4.492   5.915   6.309
 6917SOL    HW221651   4.636   5.864   6.252
 6918SOL     OW21652   0.311   3.367   3.590
 6918SOL    HW121653   0.239   3.298   3.601
 6918SOL    HW221654   0.398   3.321   3.568
 6919SOL     OW21655   1.906   6.172   3.090
 6919SOL    HW121656   1.868   6.214   3.008
 6919SOL    HW221657   1.999   6.140   3.071
 6920SOL     OW21658   4.825   6.418   4.314
 6920SOL    HW121659   4.857   6.511   4.299
 6920SOL    HW221660   4.898   6.353   4.289
 6921SOL     OW21661   0.853   1.164   3.604
 6921SOL    HW121662   0.894   1.226   3.536
 6921SOL    HW221663   0.795   1.217   3.666
 6922SOL     OW21664   2.590   6.565   0.544
 6922SOL    HW121665   2.582   6.517   0.631
 6922SOL    HW221666   2.634   6.653   0.558
 6923SOL     OW21667   4.728   0.474   3.931
 6923SOL    HW121668   4.692   0.447   4.020
 6923SOL    HW221669   4.707   0.571   3.915
 6924SOL     OW21670   0.275   5.313   1.665
 6924SOL    HW121671   0.318   5.277   1.582
 6924SOL    HW221672   0.329   5.286   1.745
 6925SOL     OW21673   4.537   5.745   3.129
 6925SOL    HW121674   4.581   5.676   3.187
 6925SOL    HW221675   4.552   5.836   3.167
 6926SOL     OW21676   3.366   3.098   4.471
 6926SOL    HW121677   3.458   3.064   4.452
 6926SOL    HW221678   3.322   3.037   4.538
 6927SOL     OW21679   4.675   4.069   5.877
 6927SOL    HW121680   4.637   4.093   5.788
 6927SOL    HW221681   4.614   4.102   5.949
 6928SOL     OW21682   5.565   0.730   6.497
 6928SOL    HW121683   5.597   0.637   6.516
 6928SOL    HW221684   5.547   0.778   6.583
 6929SOL     OW21685   4.217   5.474   0.222
 6929SOL    HW121686   4.215   5.559   0.274
 6929SOL    HW221687   4.270   5.405   0.273
 6930SOL     OW21688   0.744   0.311   4.013
 6930SOL    HW121689   0.715   0.369   3.937
 6930SOL    HW221690   0.773   0.222   3.977
 6931SOL     OW21691   1.927   1.367   1.567
 6931SOL    HW121692   1.856   1.303   1.596
 6931SOL    HW221693   2.011   1.316   1.547
 6932SOL     OW21694   3.082   1.874   0.805
 6932SOL    HW121695   3.149   1.801   0.795
 6932SOL    HW221696   2.996   1.837   0.839
 6933SOL     OW21697   4.086   5.434   5.652
 6933SOL    HW121698   4.130   5.499   5.714
 6933SOL    HW221699   4.002   5.400   5.693
 6934SOL     OW21700   4.851   3.014   6.987
 6934SOL    HW121701   4.830   3.107   6.958
 6934SOL    HW221702   4.778   2.952   6.958
 6935SOL     OW21703   4.356   5.515   3.380
 6935SOL    HW121704   4.446   5.472   3.387
 6935SOL    HW221705   4.299   5.464   3.316
 6936SOL     OW21706   0.983   3.943   1.434
 6936SOL    HW121707   0.928   4.016   1.395
 6936SOL    HW221708   1.056   3.982   1.490
 6937SOL     OW21709   4.321   6.993   5.326
 6937SOL    HW121710   4.256   7.000   5.402
 6937SOL    HW221711   4.286   0.018   5.247
 6938SOL     OW21712   5.233   2.992   5.031
 6938SOL    HW121713   5.269   2.916   5.084
 6938SOL    HW221714   5.154   3.031   5.077
 6939SOL     OW21715   0.082   4.132   2.622
 6939SOL    HW121716   0.030   4.189   2.686
 6939SOL    HW221717   0.175   4.119   2.657
 6940SOL     OW21718   5.315   0.345   5.399
 6940SOL    HW121719   5.287   0.340   5.495
 6940SOL    HW221720   5.272   0.424   5.357
 6941SOL     OW21721   4.042   3.882   3.866
 6941SOL    HW121722   4.098   3.839   3.937
 6941SOL    HW221723   3.960   3.922   3.908
 6942SOL     OW21724   6.819   2.246   6.908
 6942SOL    HW121725   6.723   2.241   6.934
 6942SOL    HW221726   6.829   2.222   6.811
 6943SOL     OW21727   5.263   5.530   6.691
 6943SOL    HW121728   5.231   5.453   6.635
 6943SOL    HW221729   5.356   5.554   6.664
 6944SOL     OW21730   1.200   5.591   6.242
 6944SOL    HW121731   1.194   5.649   6.323
 6944SOL    HW221732   1.253   5.509   6.264
 6945SOL     OW21733   6.505   2.645   5.842
 6945SOL    HW121734   6.475   2.556   5.808
 6945SOL    HW221735   6.557   2.693   5.771
 6946SOL     OW21736   5.436   3.947   2.555
 6946SOL    HW121737   5.471   3.939   2.649
 6946SOL    HW221738   5.439   4.042   2.527
 6947SOL     OW21739   3.790   6.714   3.232
 6947SOL    HW121740   3.791   6.634   3.172
 6947SOL    HW221741   3.856   6.702   3.306
 6948SOL     OW21742   4.816   0.759   5.636
 6948SOL    HW121743   4.772   0.671   5.615
 6948SOL    HW221744   4.778   0.795   5.721
 6949SOL     OW21745   5.010   0.129   2.727
 6949SOL    HW121746   5.047   0.188   2.655
 6949SOL    HW221747   4.910   0.136   2.727
 6950SOL     OW21748   2.366   0.836   3.251
 6950SOL    HW121749   2.304   0.766   3.286
 6950SOL    HW221750   2.460   0.806   3.263
 6951SOL     OW21751   6.531   5.537   6.016
 6951SOL    HW121752   6.528   5.459   5.953
 6951SOL    HW221753   6.439   5.556   6.049
 6952SOL     OW21754   0.600   5.089   5.443
 6952SOL    HW121755   0.579   5.162   5.377
 6952SOL    HW221756   0.599   5.001   5.395
 6953SOL     OW21757   4.614   1.085   5.390
 6953SOL    HW121758   4.690   1.058   5.450
 6953SOL    HW221759   4.633   1.053   5.297
 6954SOL     OW21760   6.747   3.730   3.582
 6954SOL    HW121761   6.804   3.795   3.633
 6954SOL    HW221762   6.804   3.657   3.546
 6955SOL     OW21763   6.340   5.737   1.711
 6955SOL    HW121764   6.335   5.645   1.673
 6955SOL    HW221765   6.248   5.775   1.717
 6956SOL     OW21766   4.199   5.166   1.243
 6956SOL    HW121767   4.287   5.169   1.289
 6956SOL    HW221768   4.201   5.098   1.170
 6957SOL     OW21769   0.194   4.714   1.698
 6957SOL    HW121770   0.125   4.657   1.743
 6957SOL    HW221771   0.242   4.768   1.767
 6958SOL     OW21772   3.124   2.844   6.240
 6958SOL    HW121773   3.140   2.848   6.141
 6958SOL    HW221774   3.211   2.828   6.287
 6959SOL     OW21775   3.290   1.569   4.489
 6959SOL    HW121776   3.355   1.528   4.426
 6959SOL    HW221777   3.199   1.531   4.472
 6960SOL     OW21778   0.831   4.728   6.454
 6960SOL    HW121779   0.732   4.730   6.436
 6960SOL    HW221780   0.846   4.730   6.553
 6961SOL     OW21781   1.175   0.887   3.410
 6961SOL    HW121782   1.170   0.794   3.372
 6961SOL    HW221783   1.114   0.947   3.358
 6962SOL     OW21784   5.026   4.396   1.363
 6962SOL    HW121785   5.070   4.307   1.371
 6962SOL    HW221786   5.001   4.429   1.454
 6963SOL     OW21787   6.837   4.761   1.594
 6963SOL    HW121788   6.901   4.735   1.523
 6963SOL    HW221789   6.803   4.679   1.640
 6964SOL     OW21790   4.327   5.368   5.043
 6964SOL    HW121791   4.253   5.431   5.064
 6964SOL    HW221792   4.358   5.384   4.949
 6965SOL     OW21793   6.903   3.004   5.654
 6965SOL    HW121794   6.825   3.066   5.663
 6965SOL    HW221795   6.988   3.057   5.655
 6966SOL     OW21796   4.727   2.372   3.260
 6966SOL    HW121797   4.722   2.309   3.338
 6966SOL    HW221798   4.653   2.439   3.266
 6967SOL     OW21799   1.311   1.186   5.985
 6967SOL    HW121800   1.250   1.195   6.064
 6967SOL    HW221801   1.283   1.250   5.914
 6968SOL     OW21802   5.163   5.790   2.179
 6968SOL    HW121803   5.228   5.802   2.104
 6968SOL    HW221804   5.108   5.873   2.189
 6969SOL     OW21805   3.432   1.838   0.535
 6969SOL    HW121806   3.358   1.785   0.495
 6969SOL    HW221807   3.512   1.779   0.547
 6970SOL     OW21808   5.426   4.132   0.359
 6970SOL    HW121809   5.398   4.070   0.434
 6970SOL    HW221810   5.349   4.145   0.297
 6971SOL     OW21811   5.361   1.381   1.385
 6971SOL    HW121812   5.341   1.286   1.407
 6971SOL    HW221813   5.440   1.386   1.324
 6972SOL     OW21814   5.328   4.949   3.777
 6972SOL    HW121815   5.241   4.929   3.731
 6972SOL    HW221816   5.361   4.867   3.823
 6973SOL     OW21817   2.109   4.363   3.626
 6973SOL    HW121818   2.115   4.442   3.565
 6973SOL    HW221819   2.193   4.355   3.679
 6974SOL     OW21820   3.409   3.750   4.384
 6974SOL    HW121821   3.421   3.791   4.293
 6974SOL    HW221822   3.493   3.762   4.437
 6975SOL     OW21823   4.288   0.607   5.654
 6975SOL    HW121824   4.370   0.651   5.618
 6975SOL    HW221825   4.260   0.534   5.592
 6976SOL     OW21826   2.074   4.909   6.833
 6976SOL    HW121827   2.016   4.841   6.788
 6976SOL    HW221828   2.041   4.924   6.927
 6977SOL     OW21829   3.361   1.740   2.817
 6977SOL    HW121830   3.367   1.752   2.916
 6977SOL    HW221831   3.269   1.766   2.785
 6978SOL     OW21832   0.371   0.170   1.996
 6978SOL    HW121833   0.463   0.153   2.031
 6978SOL    HW221834   0.351   0.268   2.000
 6979SOL     OW21835   0.726   4.887   2.749
 6979SOL    HW121836   0.797   4.857   2.813
 6979SOL    HW221837   0.749   4.979   2.715
 6980SOL     OW21838   2.236   1.263   4.306
 6980SOL    HW121839   2.199   1.230   4.393
 6980SOL    HW221840   2.196   1.210   4.231
 6981SOL     OW21841   1.858   5.455   0.365
 6981SOL    HW121842   1.769   5.498   0.383
 6981SOL    HW221843   1.879   5.391   0.438
 6982SOL     OW21844   0.445   6.901   5.000
 6982SOL    HW121845   0.505   6.947   5.065
 6982SOL    HW221846   0.486   6.902   4.909
 6983SOL     OW21847   6.765   0.394   4.094
 6983SOL    HW121848   6.670   0.427   4.090
 6983SOL    HW221849   6.799   0.384   4.000
 6984SOL     OW21850   2.130   1.535   6.045
 6984SOL    HW121851   2.204   1.468   6.049
 6984SOL    HW221852   2.045   1.492   6.074
 6985SOL     OW21853   4.994   5.598   2.504
 6985SOL    HW121854   5.013   5.594   2.406
 6985SOL    HW221855   5.074   5.563   2.554
 6986SOL     OW21856   2.216   6.416   6.299
 6986SOL    HW121857   2.216   6.508   6.338
 6986SOL    HW221858   2.304   6.372   6.315
 6987SOL     OW21859   0.505   3.369   6.641
 6987SOL    HW121860   0.455   3.430   6.580
 6987SOL    HW221861   0.590   3.341   6.598
 6988SOL     OW21862   5.470   1.577   3.649
 6988SOL    HW121863   5.535   1.520   3.599
 6988SOL    HW221864   5.426   1.641   3.586
 6989SOL     OW21865   1.406   2.019   3.372
 6989SOL    HW121866   1.450   1.932   3.352
 6989SOL    HW221867   1.456   2.065   3.446
 6990SOL     OW21868   3.422   3.125   0.381
 6990SOL    HW121869   3.325   3.120   0.407
 6990SOL    HW221870   3.472   3.177   0.449
 6991SOL     OW21871   3.019   4.733   5.961
 6991SOL    HW121872   2.952   4.807   5.958
 6991SOL    HW221873   3.033   4.705   6.055
 6992SOL     OW21874   5.545   6.753   3.886
 6992SOL    HW121875   5.534   6.717   3.978
 6992SOL    HW221876   5.596   6.839   3.888
 6993SOL     OW21877   0.272   0.056   2.936
 6993SOL    HW121878   0.174   0.062   2.918
 6993SOL    HW221879   0.321   0.117   2.873
 6994SOL     OW21880   2.072   3.279   6.307
 6994SOL    HW121881   2.145   3.214   6.287
 6994SOL    HW221882   2.092   3.366   6.263
 6995SOL     OW21883   5.573   5.617   3.340
 6995SOL    HW121884   5.588   5.694   3.402
 6995SOL    HW221885   5.651   5.609   3.278
 6996SOL     OW21886   2.583   0.542   5.481
 6996SOL    HW121887   2.589   0.573   5.576
 6996SOL    HW221888   2.506   0.586   5.436
 6997SOL     OW21889   4.761   6.850   4.735
 6997SOL    HW121890   4.680   6.841   4.793
 6997SOL    HW221891   4.789   6.946   4.730
 6998SOL     OW21892   1.155   3.165   2.682
 6998SOL    HW121893   1.160   3.093   2.614
 6998SOL    HW221894   1.121   3.249   2.640
 6999SOL     OW21895   3.113   1.678   5.929
 6999SOL    HW121896   3.172   1.660   5.851
 6999SOL    HW221897   3.154   1.748   5.987
 7000SOL     OW21898   1.052   6.459   2.329
 7000SOL    HW121899   1.102   6.377   2.301
 7000SOL    HW221900   1.038   6.518   2.249
 7001SOL     OW21901   2.527   3.110   5.781
 7001SOL    HW121902   2.510   3.202   5.815
 7001SOL    HW221903   2.463   3.088   5.708
 7002SOL     OW21904   0.893   5.140   3.170
 7002SOL    HW121905   0.871   5.123   3.074
 7002SOL    HW221906   0.983   5.100   3.192
 7003SOL     OW21907   3.044   6.308   0.850
 7003SOL    HW121908   3.111   6.349   0.912
 7003SOL    HW221909   3.007   6.378   0.789
 7004SOL     OW21910   1.395   3.877   1.014
 7004SOL    HW121911   1.322   3.828   0.967
 7004SOL    HW221912   1.482   3.861   0.967
 7005SOL     OW21913   5.240   5.989   6.731
 7005SOL    HW121914   5.258   6.088   6.726
 7005SOL    HW221915   5.250   5.949   6.640
 7006SOL     OW21916   4.571   4.525   4.823
 7006SOL    HW121917   4.619   4.608   4.850
 7006SOL    HW221918   4.474   4.533   4.846
 7007SOL     OW21919   4.281   6.065   3.495
 7007SOL    HW121920   4.259   5.968   3.484
 7007SOL    HW221921   4.253   6.116   3.414
 7008SOL     OW21922   1.594   4.976   4.056
 7008SOL    HW121923   1.583   4.940   3.963
 7008SOL    HW221924   1.535   5.056   4.068
 7009SOL     OW21925   0.267   4.866   2.538
 7009SOL    HW121926   0.366   4.864   2.552
 7009SOL    HW221927   0.238   4.959   2.516
 7010SOL     OW21928   3.826   5.025   6.390
 7010SOL    HW121929   3.911   4.990   6.430
 7010SOL    HW221930   3.753   4.958   6.403
 7011SOL     OW21931   3.199   0.256   5.759
 7011SOL    HW121932   3.202   0.301   5.848
 7011SOL    HW221933   3.190   0.326   5.687
 7012SOL     OW21934   1.689   0.626   1.758
 7012SOL    HW121935   1.592   0.651   1.766
 7012SOL    HW221936   1.710   0.604   1.663
 7013SOL     OW21937   1.145   0.168   1.859
 7013SOL    HW121938   1.159   0.070   1.869
 7013SOL    HW221939   1.190   0.200   1.775
 7014SOL     OW21940   2.962   4.221   1.009
 7014SOL    HW121941   2.880   4.201   1.062
 7014SOL    HW221942   3.040   4.173   1.048
 7015SOL     OW21943   5.075   2.327   2.421
 7015SOL    HW121944   5.017   2.246   2.426
 7015SOL    HW221945   5.082   2.370   2.511
 7016SOL     OW21946   4.313   4.650   1.378
 7016SOL    HW121947   4.301   4.747   1.398
 7016SOL    HW221948   4.240   4.619   1.318
 7017SOL     OW21949   2.803   1.834   3.405
 7017SOL    HW121950   2.885   1.868   3.452
 7017SOL    HW221951   2.724   1.846   3.465
 7018SOL     OW21952   0.751   4.681   4.876
 7018SOL    HW121953   0.776   4.677   4.972
 7018SOL    HW221954   0.775   4.595   4.831
 7019SOL     OW21955   2.580   5.645   0.092
 7019SOL    HW121956   2.647   5.622   0.162
 7019SOL    HW221957   2.531   5.728   0.119
 7020SOL     OW21958   6.359   6.687   6.455
 7020SOL    HW121959   6.284   6.634   6.496
 7020SOL    HW221960   6.325   6.737   6.376
 7021SOL     OW21961   2.569   0.983   5.932
 7021SOL    HW121962   2.560   1.001   6.030
 7021SOL    HW221963   2.666   0.968   5.910
 7022SOL     OW21964   5.342   3.881   6.938
 7022SOL    HW121965   5.386   3.901   6.851
 7022SOL    HW221966   5.403   3.825   6.994
 7023SOL     OW21967   6.343   3.531   1.978
 7023SOL    HW121968   6.276   3.506   2.048
 7023SOL    HW221969   6.314   3.616   1.933
 7024SOL     OW21970   1.321   5.917   0.503
 7024SOL    HW121971   1.259   5.985   0.542
 7024SOL    HW221972   1.409   5.959   0.484
 7025SOL     OW21973   2.916   2.596   6.850
 7025SOL    HW121974   2.865   2.553   6.775
 7025SOL    HW221975   2.986   2.657   6.812
 7026SOL     OW21976   3.842   1.544   1.196
 7026SOL    HW121977   3.919   1.510   1.249
 7026SOL    HW221978   3.831   1.642   1.212
 7027SOL     OW21979   3.841   6.366   4.101
 7027SOL    HW121980   3.873   6.271   4.098
 7027SOL    HW221981   3.895   6.417   4.168
 7028SOL     OW21982   4.342   6.193   3.729
 7028SOL    HW121983   4.370   6.279   3.687
 7028SOL    HW221984   4.294   6.137   3.662
 7029SOL     OW21985   3.366   6.976   6.876
 7029SOL    HW121986   3.397   6.881   6.877
 7029SOL    HW221987   3.298   6.989   6.948
 7030SOL     OW21988   0.300   3.714   4.726
 7030SOL    HW121989   0.296   3.722   4.626
 7030SOL    HW221990   0.395   3.703   4.754
 7031SOL     OW21991   1.644   5.745   4.280
 7031SOL    HW121992   1.728   5.789   4.250
 7031SOL    HW221993   1.661   5.648   4.297
 7032SOL     OW21994   6.311   0.741   2.367
 7032SOL    HW121995   6.301   0.840   2.371
 7032SOL    HW221996   6.264   0.706   2.286
 7033SOL     OW21997   7.002   1.322   3.421
 7033SOL    HW121998   7.008   1.269   3.506
 7033SOL    HW221999   7.004   1.259   3.343
 7034SOL     OW22000   6.478   0.274   2.772
 7034SOL    HW122001   6.481   0.368   2.808
 7034SOL    HW222002   6.548   0.264   2.701
 7035SOL     OW22003   6.806   5.747   2.451
 7035SOL    HW122004   6.828   5.797   2.367
 7035SOL    HW222005   6.792   5.813   2.525
 7036SOL     OW22006   6.951   5.272   2.248
 7036SOL    HW122007   6.943   5.203   2.321
 7036SOL    HW222008   6.866   5.323   2.241
 7037SOL     OW22009   1.237   6.422   6.170
 7037SOL    HW122010   1.266   6.397   6.077
 7037SOL    HW222011   1.138   6.438   6.170
 7038SOL     OW22012   0.863   4.561   4.093
 7038SOL    HW122013   0.842   4.617   4.013
 7038SOL    HW222014   0.913   4.616   4.160
 7039SOL     OW22015   3.527   1.201   5.953
 7039SOL    HW122016   3.625   1.183   5.938
 7039SOL    HW222017   3.475   1.121   5.923
 7040SOL     OW22018   4.991   2.434   6.456
 7040SOL    HW122019   5.048   2.403   6.379
 7040SOL    HW222020   5.026   2.394   6.541
 7041SOL     OW22021   1.596   1.967   3.013
 7041SOL    HW122022   1.523   2.021   3.054
 7041SOL    HW222023   1.676   2.025   2.997
 7042SOL     OW22024   3.730   6.032   6.245
 7042SOL    HW122025   3.744   5.934   6.262
 7042SOL    HW222026   3.663   6.067   6.311
 7043SOL     OW22027   2.374   1.927   3.194
 7043SOL    HW122028   2.333   1.836   3.191
 7043SOL    HW222029   2.472   1.920   3.177
 7044SOL     OW22030   4.443   5.085   2.615
 7044SOL    HW122031   4.540   5.100   2.597
 7044SOL    HW222032   4.406   5.023   2.546
 7045SOL     OW22033   5.568   5.827   0.899
 7045SOL    HW122034   5.640   5.892   0.875
 7045SOL    HW222035   5.594   5.736   0.868
 7046SOL     OW22036   4.081   0.791   4.480
 7046SOL    HW122037   3.986   0.821   4.479
 7046SOL    HW222038   4.103   0.749   4.392
 7047SOL     OW22039   1.052   0.989   4.558
 7047SOL    HW122040   1.148   0.959   4.557
 7047SOL    HW222041   1.003   0.945   4.483
 7048SOL     OW22042   6.482   5.835   0.390
 7048SOL    HW122043   6.439   5.771   0.325
 7048SOL    HW222044   6.439   5.824   0.480
 7049SOL     OW22045   2.532   1.409   0.544
 7049SOL    HW122046   2.453   1.357   0.512
 7049SOL    HW222047   2.589   1.350   0.603
 7050SOL     OW22048   3.077   3.982   4.729
 7050SOL    HW122049   3.099   4.047   4.801
 7050SOL    HW222050   3.036   3.900   4.769
 7051SOL     OW22051   0.155   0.160   1.605
 7051SOL    HW122052   0.073   0.127   1.651
 7051SOL    HW222053   0.139   0.164   1.506
 7052SOL     OW22054   0.144   2.272   3.816
 7052SOL    HW122055   0.192   2.360   3.807
 7052SOL    HW222056   0.182   2.222   3.894
 7053SOL     OW22057   0.606   4.043   6.876
 7053SOL    HW122058   0.605   4.111   6.803
 7053SOL    HW222059   0.556   3.962   6.847
 7054SOL     OW22060   6.206   6.384   1.804
 7054SOL    HW122061   6.240   6.345   1.889
 7054SOL    HW222062   6.211   6.315   1.731
 7055SOL     OW22063   4.441   0.656   4.038
 7055SOL    HW122064   4.506   0.689   3.970
 7055SOL    HW222065   4.488   0.639   4.125
 7056SOL     OW22066   5.342   5.047   3.446
 7056SOL    HW122067   5.416   5.113   3.437
 7056SOL    HW222068   5.322   5.032   3.543
 7057SOL     OW22069   6.956   5.561   3.573
 7057SOL    HW122070   6.965   5.542   3.671
 7057SOL    HW222071   6.886   5.632   3.560
 7058SOL     OW22072   0.954   5.326   5.955
 7058SOL    HW122073   0.947   5.403   5.892
 7058SOL    HW222074   1.000   5.356   6.039
 7059SOL     OW22075   1.288   0.254   2.473
 7059SOL    HW122076   1.200   0.270   2.518
 7059SOL    HW222077   1.344   0.194   2.530
 7060SOL     OW22078   3.352   6.556   1.590
 7060SOL    HW122079   3.423   6.582   1.525
 7060SOL    HW222080   3.270   6.527   1.541
 7061SOL     OW22081   0.685   0.879   2.994
 7061SOL    HW122082   0.659   0.852   2.901
 7061SOL    HW222083   0.727   0.970   2.991
 7062SOL     OW22084   5.370   1.752   5.137
 7062SOL    HW122085   5.380   1.657   5.164
 7062SOL    HW222086   5.395   1.812   5.214
 7063SOL     OW22087   2.104   6.589   1.390
 7063SOL    HW122088   2.083   6.522   1.461
 7063SOL    HW222089   2.020   6.616   1.344
 7064SOL     OW22090   3.818   2.276   1.360
 7064SOL    HW122091   3.784   2.252   1.451
 7064SOL    HW222092   3.804   2.374   1.344
 7065SOL     OW22093   4.430   3.814   1.597
 7065SOL    HW122094   4.430   3.781   1.503
 7065SOL    HW222095   4.482   3.899   1.603
 7066SOL     OW22096   4.266   6.691   0.223
 7066SOL    HW122097   4.277   6.617   0.157
 7066SOL    HW222098   4.329   6.766   0.199
 7067SOL     OW22099   0.588   3.805   5.659
 7067SOL    HW122100   0.512   3.847   5.709
 7067SOL    HW222101   0.614   3.864   5.582
 7068SOL     OW22102   1.420   1.545   3.427
 7068SOL    HW122103   1.332   1.500   3.411
 7068SOL    HW222104   1.485   1.479   3.463
 7069SOL     OW22105   0.560   4.564   5.643
 7069SOL    HW122106   0.647   4.592   5.681
 7069SOL    HW222107   0.485   4.603   5.697
 7070SOL     OW22108   6.571   4.635   5.132
 7070SOL    HW122109   6.654   4.663   5.084
 7070SOL    HW222110   6.493   4.638   5.070
 7071SOL     OW22111   1.621   5.826   5.413
 7071SOL    HW122112   1.575   5.737   5.409
 7071SOL    HW222113   1.557   5.898   5.389
 7072SOL     OW22114   0.076   6.494   6.318
 7072SOL    HW122115   0.163   6.538   6.295
 7072SOL    HW222116   0.054   6.426   6.248
 7073SOL     OW22117   0.604   0.795   5.318
 7073SOL    HW122118   0.579   0.767   5.225
 7073SOL    HW222119   0.545   0.749   5.384
 7074SOL     OW22120   3.289   1.840   1.893
 7074SOL    HW122121   3.354   1.808   1.962
 7074SOL    HW222122   3.230   1.765   1.865
 7075SOL     OW22123   1.732   5.928   4.478
 7075SOL    HW122124   1.805   5.861   4.461
 7075SOL    HW222125   1.648   5.898   4.433
 7076SOL     OW22126   3.782   1.829   6.430
 7076SOL    HW122127   3.803   1.918   6.390
 7076SOL    HW222128   3.754   1.766   6.357
 7077SOL     OW22129   2.265   5.493   5.495
 7077SOL    HW122130   2.328   5.562   5.460
 7077SOL    HW222131   2.294   5.465   5.586
 7078SOL     OW22132   5.956   0.159   3.369
 7078SOL    HW122133   5.930   0.199   3.457
 7078SOL    HW222134   5.990   0.231   3.308
 7079SOL     OW22135   6.374   6.388   5.998
 7079SOL    HW122136   6.279   6.359   6.011
 7079SOL    HW222137   6.381   6.487   6.011
 7080SOL     OW22138   4.045   2.214   3.783
 7080SOL    HW122139   4.103   2.177   3.710
 7080SOL    HW222140   4.079   2.304   3.809
 7081SOL     OW22141   2.982   1.255   5.745
 7081SOL    HW122142   3.066   1.222   5.789
 7081SOL    HW222143   2.950   1.337   5.792
 7082SOL     OW22144   5.704   1.595   6.722
 7082SOL    HW122145   5.606   1.577   6.727
 7082SOL    HW222146   5.720   1.694   6.723
 7083SOL     OW22147   3.537   0.285   5.636
 7083SOL    HW122148   3.628   0.314   5.606
 7083SOL    HW222149   3.477   0.277   5.557
 7084SOL     OW22150   6.781   6.321   5.695
 7084SOL    HW122151   6.822   6.412   5.705
 7084SOL    HW222152   6.831   6.269   5.626
 7085SOL     OW22153   2.027   2.461   2.804
 7085SOL    HW122154   2.067   2.380   2.762
 7085SOL    HW222155   2.029   2.538   2.740
 7086SOL     OW22156   5.537   0.898   6.689
 7086SOL    HW122157   5.590   0.865   6.767
 7086SOL    HW222158   5.556   0.995   6.673
 7087SOL     OW22159   0.562   3.646   4.411
 7087SOL    HW122160   0.654   3.683   4.420
 7087SOL    HW222161   0.541   3.634   4.314
 7088SOL     OW22162   5.252   2.782   4.111
 7088SOL    HW122163   5.188   2.710   4.084
 7088SOL    HW222164   5.332   2.781   4.050
 7089SOL     OW22165   3.732   2.162   6.115
 7089SOL    HW122166   3.798   2.207   6.054
 7089SOL    HW222167   3.781   2.110   6.184
 7090SOL     OW22168   2.033   2.098   5.270
 7090SOL    HW122169   2.112   2.106   5.208
 7090SOL    HW222170   2.037   2.170   5.339
 7091SOL     OW22171   0.165   0.985   0.625
 7091SOL    HW122172   0.173   0.891   0.594
 7091SOL    HW222173   0.068   1.011   0.630
 7092SOL     OW22174   3.682   4.091   1.028
 7092SOL    HW122175   3.665   3.993   1.040
 7092SOL    HW222176   3.612   4.143   1.077
 7093SOL     OW22177   3.473   3.935   4.635
 7093SOL    HW122178   3.413   4.012   4.615
 7093SOL    HW222179   3.515   3.948   4.725
 7094SOL     OW22180   0.977   6.705   5.737
 7094SOL    HW122181   1.033   6.733   5.815
 7094SOL    HW222182   0.881   6.729   5.755
 7095SOL     OW22183   1.254   3.009   6.380
 7095SOL    HW122184   1.224   3.014   6.285
 7095SOL    HW222185   1.273   3.102   6.413
 7096SOL     OW22186   4.255   2.251   4.110
 7096SOL    HW122187   4.299   2.181   4.054
 7096SOL    HW222188   4.303   2.338   4.098
 7097SOL     OW22189   0.640   1.128   1.793
 7097SOL    HW122190   0.666   1.064   1.864
 7097SOL    HW222191   0.714   1.193   1.778
 7098SOL     OW22192   1.665   5.824   6.359
 7098SOL    HW122193   1.747   5.881   6.364
 7098SOL    HW222194   1.685   5.734   6.398
 7099SOL     OW22195   1.069   1.207   5.011
 7099SOL    HW122196   1.038   1.178   5.102
 7099SOL    HW222197   1.062   1.306   5.003
 7100SOL     OW22198   5.072   3.956   1.259
 7100SOL    HW122199   5.045   3.905   1.341
 7100SOL    HW222200   4.990   3.988   1.211
 7101SOL     OW22201   3.154   0.730   4.898
 7101SOL    HW122202   3.141   0.633   4.877
 7101SOL    HW222203   3.136   0.746   4.995
 7102SOL     OW22204   3.890   1.289   0.786
 7102SOL    HW122205   3.936   1.250   0.706
 7102SOL    HW222206   3.885   1.221   0.858
 7103SOL     OW22207   3.271   6.429   0.353
 7103SOL    HW122208   3.304   6.524   0.351
 7103SOL    HW222209   3.342   6.370   0.392
 7104SOL     OW22210   1.680   2.647   3.323
 7104SOL    HW122211   1.653   2.592   3.402
 7104SOL    HW222212   1.759   2.703   3.347
 7105SOL     OW22213   3.273   3.505   4.402
 7105SOL    HW122214   3.286   3.597   4.439
 7105SOL    HW222215   3.226   3.512   4.313
 7106SOL     OW22216   3.600   3.202   4.648
 7106SOL    HW122217   3.633   3.246   4.732
 7106SOL    HW222218   3.621   3.104   4.650
 7107SOL     OW22219   3.278   0.982   0.886
 7107SOL    HW122220   3.280   1.073   0.929
 7107SOL    HW222221   3.372   0.951   0.871
 7108SOL     OW22222   4.966   6.153   1.091
 7108SOL    HW122223   4.912   6.090   1.146
 7108SOL    HW222224   4.977   6.115   0.999
 7109SOL     OW22225   3.458   0.541   6.008
 7109SOL    HW122226   3.519   0.513   5.934
 7109SOL    HW222227   3.486   0.498   6.094
 7110SOL     OW22228   4.706   5.273   4.074
 7110SOL    HW122229   4.800   5.252   4.050
 7110SOL    HW222230   4.647   5.196   4.051
 7111SOL     OW22231   2.043   3.203   4.053
 7111SOL    HW122232   2.060   3.286   4.107
 7111SOL    HW222233   2.117   3.189   3.988
 7112SOL     OW22234   0.777   6.383   4.022
 7112SOL    HW122235   0.872   6.377   3.993
 7112SOL    HW222236   0.753   6.301   4.074
 7113SOL     OW22237   3.711   4.128   4.549
 7113SOL    HW122238   3.801   4.140   4.508
 7113SOL    HW222239   3.644   4.110   4.477
 7114SOL     OW22240   4.261   1.148   2.022
 7114SOL    HW122241   4.228   1.206   2.096
 7114SOL    HW222242   4.247   1.052   2.046
 7115SOL     OW22243   4.383   1.446   1.626
 7115SOL    HW122244   4.366   1.541   1.655
 7115SOL    HW222245   4.480   1.435   1.604
 7116SOL     OW22246   5.222   3.607   3.287
 7116SOL    HW122247   5.138   3.552   3.286
 7116SOL    HW222248   5.228   3.661   3.203
 7117SOL     OW22249   6.169   6.085   2.220
 7117SOL    HW122250   6.099   6.143   2.261
 7117SOL    HW222251   6.259   6.121   2.241
 7118SOL     OW22252   5.290   3.807   0.906
 7118SOL    HW122253   5.301   3.892   0.957
 7118SOL    HW222254   5.318   3.730   0.963
 7119SOL     OW22255   6.127   1.344   2.493
 7119SOL    HW122256   6.078   1.290   2.561
 7119SOL    HW222257   6.205   1.389   2.537
 7120SOL     OW22258   5.015   1.504   3.691
 7120SOL    HW122259   5.057   1.418   3.663
 7120SOL    HW222260   4.941   1.486   3.755
 7121SOL     OW22261   2.265   6.923   3.962
 7121SOL    HW122262   2.263   6.825   3.985
 7121SOL    HW222263   2.250   6.976   4.045
 7122SOL     OW22264   6.703   0.846   0.066
 7122SOL    HW122265   6.734   0.917   0.129
 7122SOL    HW222266   6.657   0.888   7.013
 7123SOL     OW22267   3.176   5.510   1.389
 7123SOL    HW122268   3.133   5.419   1.394
 7123SOL    HW222269   3.275   5.500   1.380
 7124SOL     OW22270   0.000   5.351   6.525
 7124SOL    HW122271   0.061   5.400   6.462
 7124SOL    HW222272   0.051   5.278   6.570
 7125SOL     OW22273   6.402   6.489   2.488
 7125SOL    HW122274   6.458   6.487   2.405
 7125SOL    HW222275   6.323   6.547   2.473
 7126SOL     OW22276   1.991   4.137   0.418
 7126SOL    HW122277   2.035   4.116   0.331
 7126SOL    HW222278   1.899   4.096   0.419
 7127SOL     OW22279   3.144   5.868   4.387
 7127SOL    HW122280   3.137   5.841   4.290
 7127SOL    HW222281   3.057   5.907   4.417
 7128SOL     OW22282   3.377   4.407   0.741
 7128SOL    HW122283   3.367   4.310   0.761
 7128SOL    HW222284   3.415   4.418   0.649
 7129SOL     OW22285   3.241   0.717   1.114
 7129SOL    HW122286   3.158   0.689   1.163
 7129SOL    HW222287   3.246   0.817   1.112
 7130SOL     OW22288   2.825   5.011   3.776
 7130SOL    HW122289   2.882   4.969   3.706
 7130SOL    HW222290   2.811   4.945   3.850
 7131SOL     OW22291   2.670   1.259   2.275
 7131SOL    HW122292   2.716   1.334   2.227
 7131SOL    HW222293   2.693   1.262   2.372
 7132SOL     OW22294   3.962   3.894   2.861
 7132SOL    HW122295   3.925   3.987   2.860
 7132SOL    HW222296   3.961   3.857   2.768
 7133SOL     OW22297   4.600   5.477   3.228
 7133SOL    HW122298   4.539   5.434   3.161
 7133SOL    HW222299   4.673   5.413   3.252
 7134SOL     OW22300   5.981   5.875   3.783
 7134SOL    HW122301   5.894   5.856   3.737
 7134SOL    HW222302   6.043   5.919   3.719
 7135SOL     OW22303   1.496   1.113   4.425
 7135SOL    HW122304   1.501   1.143   4.520
 7135SOL    HW222305   1.530   1.019   4.417
 7136SOL     OW22306   1.609   0.873   0.644
 7136SOL    HW122307   1.651   0.901   0.731
 7136SOL    HW222308   1.625   0.943   0.575
 7137SOL     OW22309   4.460   0.849   4.332
 7137SOL    HW122310   4.373   0.869   4.286
 7137SOL    HW222311   4.533   0.906   4.292
 7138SOL     OW22312   2.955   3.660   1.219
 7138SOL    HW122313   2.908   3.649   1.131
 7138SOL    HW222314   2.931   3.585   1.279
 7139SOL     OW22315   4.525   3.251   1.682
 7139SOL    HW122316   4.429   3.222   1.690
 7139SOL    HW222317   4.580   3.200   1.747
 7140SOL     OW22318   6.363   4.647   4.927
 7140SOL    HW122319   6.285   4.618   4.983
 7140SOL    HW222320   6.366   4.593   4.843
 7141SOL     OW22321   2.770   0.260   1.141
 7141SOL    HW122322   2.706   0.235   1.214
 7141SOL    HW222323   2.840   0.190   1.133
 7142SOL     OW22324   4.104   5.883   3.808
 7142SOL    HW122325   4.178   5.853   3.868
 7142SOL    HW222326   4.019   5.887   3.860
 7143SOL     OW22327   1.630   4.051   6.443
 7143SOL    HW122328   1.702   3.988   6.415
 7143SOL    HW222329   1.543   4.023   6.402
 7144SOL     OW22330   1.098   2.100   3.050
 7144SOL    HW122331   1.062   2.010   3.027
 7144SOL    HW222332   1.041   2.142   3.121
 7145SOL     OW22333   4.518   6.938   6.671
 7145SOL    HW122334   4.603   6.885   6.674
 7145SOL    HW222335   4.492   6.953   6.575
 7146SOL     OW22336   2.864   6.740   0.624
 7146SOL    HW122337   2.933   6.790   0.572
 7146SOL    HW222338   2.788   6.800   0.646
 7147SOL     OW22339   6.710   0.651   2.972
 7147SOL    HW122340   6.799   0.622   2.936
 7147SOL    HW222341   6.711   0.751   2.984
 7148SOL     OW22342   1.341   6.349   1.817
 7148SOL    HW122343   1.410   6.412   1.853
 7148SOL    HW222344   1.321   6.373   1.722
 7149SOL     OW22345   6.587   1.320   3.086
 7149SOL    HW122346   6.562   1.224   3.075
 7149SOL    HW222347   6.519   1.365   3.145
 7150SOL     OW22348   5.384   2.745   0.130
 7150SOL    HW122349   5.340   2.671   0.180
 7150SOL    HW222350   5.479   2.754   0.160
 7151SOL     OW22351   1.751   5.759   1.422
 7151SOL    HW122352   1.660   5.797   1.401
 7151SOL    HW222353   1.776   5.692   1.352
 7152SOL     OW22354   0.883   3.143   4.574
 7152SOL    HW122355   0.797   3.112   4.533
 7152SOL    HW222356   0.883   3.122   4.672
 7153SOL     OW22357   4.617   0.876   4.658
 7153SOL    HW122358   4.696   0.868   4.718
 7153SOL    HW222359   4.557   0.797   4.669
 7154SOL     OW22360   3.877   6.092   4.136
 7154SOL    HW122361   3.970   6.100   4.173
 7154SOL    HW222362   3.864   6.001   4.098
 7155SOL     OW22363   1.276   6.777   2.281
 7155SOL    HW122364   1.312   6.861   2.241
 7155SOL    HW222365   1.180   6.766   2.255
 7156SOL     OW22366   6.591   5.471   5.156
 7156SOL    HW122367   6.500   5.500   5.126
 7156SOL    HW222368   6.660   5.528   5.112
 7157SOL     OW22369   5.714   5.378   0.319
 7157SOL    HW122370   5.730   5.464   0.271
 7157SOL    HW222371   5.616   5.364   0.331
 7158SOL     OW22372   0.132   6.810   3.400
 7158SOL    HW122373   0.192   6.843   3.327
 7158SOL    HW222374   0.137   6.873   3.478
 7159SOL     OW22375   0.535   5.324   0.481
 7159SOL    HW122376   0.440   5.348   0.503
 7159SOL    HW222377   0.558   5.237   0.524
 7160SOL     OW22378   6.624   0.338   2.048
 7160SOL    HW122379   6.552   0.405   2.065
 7160SOL    HW222380   6.603   0.286   1.965
 7161SOL     OW22381   3.647   2.870   4.130
 7161SOL    HW122382   3.728   2.927   4.119
 7161SOL    HW222383   3.667   2.777   4.100
 7162SOL     OW22384   3.907   4.897   4.068
 7162SOL    HW122385   3.811   4.905   4.095
 7162SOL    HW222386   3.959   4.974   4.105
 7163SOL     OW22387   3.473   0.505   3.599
 7163SOL    HW122388   3.448   0.592   3.641
 7163SOL    HW222389   3.412   0.433   3.632
 7164SOL     OW22390   2.050   1.190   3.602
 7164SOL    HW122391   2.141   1.179   3.561
 7164SOL    HW222392   1.983   1.140   3.546
 7165SOL     OW22393   5.601   1.017   0.873
 7165SOL    HW122394   5.664   1.083   0.914
 7165SOL    HW222395   5.602   1.028   0.773
 7166SOL     OW22396   4.953   4.837   0.484
 7166SOL    HW122397   4.988   4.762   0.540
 7166SOL    HW222398   4.895   4.896   0.541
 7167SOL     OW22399   4.758   3.599   5.422
 7167SOL    HW122400   4.721   3.601   5.329
 7167SOL    HW222401   4.686   3.573   5.486
 7168SOL     OW22402   1.447   0.712   4.285
 7168SOL    HW122403   1.533   0.754   4.312
 7168SOL    HW222404   1.376   0.782   4.278
 7169SOL     OW22405   1.485   3.334   6.225
 7169SOL    HW122406   1.530   3.247   6.206
 7169SOL    HW222407   1.435   3.327   6.311
 7170SOL     OW22408   5.414   4.561   3.458
 7170SOL    HW122409   5.349   4.565   3.382
 7170SOL    HW222410   5.424   4.653   3.498
 7171SOL     OW22411   4.143   2.931   5.445
 7171SOL    HW122412   4.189   2.854   5.400
 7171SOL    HW222413   4.133   2.911   5.542
 7172SOL     OW22414   1.876   6.864   0.711
 7172SOL    HW122415   1.836   6.805   0.782
 7172SOL    HW222416   1.804   6.915   0.665
 7173SOL     OW22417   6.945   6.141   4.706
 7173SOL    HW122418   7.021   6.204   4.697
 7173SOL    HW222419   6.969   6.053   4.664
 7174SOL     OW22420   2.106   5.562   0.333
 7174SOL    HW122421   2.012   5.550   0.364
 7174SOL    HW222422   2.168   5.512   0.395
 7175SOL     OW22423   5.243   4.029   0.114
 7175SOL    HW122424   5.284   3.960   0.054
 7175SOL    HW222425   5.186   3.984   0.182
 7176SOL     OW22426   6.666   4.107   1.604
 7176SOL    HW122427   6.571   4.109   1.573
 7176SOL    HW222428   6.701   4.201   1.607
 7177SOL     OW22429   0.878   5.951   3.582
 7177SOL    HW122430   0.916   5.859   3.585
 7177SOL    HW222431   0.787   5.949   3.541
 7178SOL     OW22432   0.727   3.002   4.816
 7178SOL    HW122433   0.687   2.911   4.829
 7178SOL    HW222434   0.762   3.035   4.904
 7179SOL     OW22435   2.929   3.687   5.527
 7179SOL    HW122436   2.888   3.712   5.440
 7179SOL    HW222437   3.029   3.688   5.519
 7180SOL     OW22438   0.433   6.039   1.325
 7180SOL    HW122439   0.504   6.093   1.282
 7180SOL    HW222440   0.354   6.033   1.264
 7181SOL     OW22441   4.362   0.803   1.455
 7181SOL    HW122442   4.371   0.823   1.553
 7181SOL    HW222443   4.373   0.887   1.403
 7182SOL     OW22444   2.679   4.571   5.503
 7182SOL    HW122445   2.720   4.490   5.460
 7182SOL    HW222446   2.581   4.558   5.513
 7183SOL     OW22447   2.080   5.122   2.908
 7183SOL    HW122448   2.084   5.062   2.987
 7183SOL    HW222449   2.109   5.072   2.826
 7184SOL     OW22450   1.505   6.662   4.095
 7184SOL    HW122451   1.598   6.659   4.131
 7184SOL    HW222452   1.442   6.687   4.168
 7185SOL     OW22453   4.555   2.997   0.020
 7185SOL    HW122454   4.546   2.908   0.065
 7185SOL    HW222455   4.525   2.989   6.950
 7186SOL     OW22456   6.719   6.071   5.188
 7186SOL    HW122457   6.673   6.139   5.244
 7186SOL    HW222458   6.817   6.072   5.209
 7187SOL     OW22459   1.678   3.948   1.572
 7187SOL    HW122460   1.675   3.953   1.672
 7187SOL    HW222461   1.634   4.029   1.533
 7188SOL     OW22462   4.779   0.436   2.177
 7188SOL    HW122463   4.819   0.437   2.086
 7188SOL    HW222464   4.784   0.527   2.217
 7189SOL     OW22465   0.098   1.305   5.416
 7189SOL    HW122466   0.012   1.337   5.457
 7189SOL    HW222467   0.119   1.361   5.336
 7190SOL     OW22468   5.730   4.135   3.209
 7190SOL    HW122469   5.705   4.164   3.301
 7190SOL    HW222470   5.776   4.211   3.162
 7191SOL     OW22471   1.298   3.404   2.472
 7191SOL    HW122472   1.352   3.326   2.441
 7191SOL    HW222473   1.330   3.433   2.562
 7192SOL     OW22474   2.410   4.838   6.475
 7192SOL    HW122475   2.453   4.754   6.508
 7192SOL    HW222476   2.464   4.917   6.505
 7193SOL     OW22477   3.703   1.329   4.421
 7193SOL    HW122478   3.752   1.242   4.431
 7193SOL    HW222479   3.696   1.373   4.510
 7194SOL     OW22480   2.502   2.087   1.806
 7194SOL    HW122481   2.449   2.171   1.816
 7194SOL    HW222482   2.585   2.094   1.861
 7195SOL     OW22483   0.191   5.640   0.464
 7195SOL    HW122484   0.156   5.644   0.557
 7195SOL    HW222485   0.126   5.591   0.406
 7196SOL     OW22486   2.896   3.755   3.158
 7196SOL    HW122487   2.967   3.813   3.119
 7196SOL    HW222488   2.849   3.706   3.085
 7197SOL     OW22489   6.836   1.571   4.851
 7197SOL    HW122490   6.741   1.543   4.868
 7197SOL    HW222491   6.838   1.641   4.779
 7198SOL     OW22492   1.610   6.820   6.244
 7198SOL    HW122493   1.546   6.894   6.224
 7198SOL    HW222494   1.703   6.851   6.224
 7199SOL     OW22495   0.307   0.038   2.302
 7199SOL    HW122496   0.287   7.008   2.383
 7199SOL    HW222497   0.224   0.087   2.274
 7200SOL     OW22498   2.383   1.163   1.399
 7200SOL    HW122499   2.481   1.173   1.382
 7200SOL    HW222500   2.335   1.153   1.312
 7201SOL     OW22501   1.393   4.817   4.140
 7201SOL    HW122502   1.474   4.867   4.112
 7201SOL    HW222503   1.365   4.755   4.067
 7202SOL     OW22504   4.115   0.368   6.109
 7202SOL    HW122505   4.087   0.459   6.140
 7202SOL    HW222506   4.047   0.300   6.138
 7203SOL     OW22507   5.511   0.635   6.969
 7203SOL    HW122508   5.591   0.691   6.991
 7203SOL    HW222509   5.535   0.538   6.978
 7204SOL     OW22510   6.079   0.934   2.963
 7204SOL    HW122511   6.091   1.025   2.922
 7204SOL    HW222512   6.034   0.943   3.052
 7205SOL     OW22513   1.929   5.347   3.347
 7205SOL    HW122514   1.915   5.279   3.418
 7205SOL    HW222515   1.843   5.363   3.298
 7206SOL     OW22516   6.633   1.246   0.736
 7206SOL    HW122517   6.658   1.203   0.822
 7206SOL    HW222518   6.683   1.332   0.726
 7207SOL     OW22519   3.133   6.440   1.264
 7207SOL    HW122520   3.058   6.379   1.237
 7207SOL    HW222521   3.178   6.404   1.346
 7208SOL     OW22522   3.387   0.190   5.407
 7208SOL    HW122523   3.310   0.248   5.434
 7208SOL    HW222524   3.352   0.108   5.361
 7209SOL     OW22525   4.071   3.460   4.086
 7209SOL    HW122526   4.100   3.471   3.991
 7209SOL    HW222527   3.994   3.396   4.090
 7210SOL     OW22528   4.399   1.039   3.872
 7210SOL    HW122529   4.438   1.002   3.788
 7210SOL    HW222530   4.370   1.133   3.857
 7211SOL     OW22531   1.274   5.619   4.069
 7211SOL    HW122532   1.187   5.628   4.022
 7211SOL    HW222533   1.307   5.710   4.096
 7212SOL     OW22534   5.976   5.993   4.467
 7212SOL    HW122535   5.896   6.038   4.428
 7212SOL    HW222536   6.017   5.933   4.399
 7213SOL     OW22537   5.941   0.675   5.604
 7213SOL    HW122538   5.860   0.666   5.547
 7213SOL    HW222539   6.003   0.743   5.564
 7214SOL     OW22540   2.010   5.253   5.221
 7214SOL    HW122541   2.043   5.229   5.312
 7214SOL    HW222542   1.941   5.326   5.228
 7215SOL     OW22543   0.511   4.004   4.153
 7215SOL    HW122544   0.430   4.027   4.099
 7215SOL    HW222545   0.548   4.087   4.195
 7216SOL     OW22546   2.625   0.465   0.150
 7216SOL    HW122547   2.689   0.521   0.202
 7216SOL    HW222548   2.629   0.491   0.053
 7217SOL     OW22549   0.874   3.354   2.390
 7217SOL    HW122550   0.795   3.397   2.348
 7217SOL    HW222551   0.851   3.260   2.418
 7218SOL     OW22552   4.589   2.299   5.857
 7218SOL    HW122553   4.525   2.370   5.828
 7218SOL    HW222554   4.587   2.292   5.957
 7219SOL     OW22555   4.639   6.415   3.308
 7219SOL    HW122556   4.620   6.498   3.360
 7219SOL    HW222557   4.659   6.339   3.371
 7220SOL     OW22558   6.765   1.139   2.228
 7220SOL    HW122559   6.770   1.211   2.159
 7220SOL    HW222560   6.823   1.062   2.199
 7221SOL     OW22561   5.303   3.859   5.735
 7221SOL    HW122562   5.245   3.920   5.788
 7221SOL    HW222563   5.297   3.766   5.772
 7222SOL     OW22564   6.678   5.792   1.193
 7222SOL    HW122565   6.655   5.711   1.140
 7222SOL    HW222566   6.777   5.795   1.209
 7223SOL     OW22567   3.319   1.732   6.300
 7223SOL    HW122568   3.321   1.832   6.310
 7223SOL    HW222569   3.363   1.706   6.215
 7224SOL     OW22570   5.479   0.361   4.581
 7224SOL    HW122571   5.556   0.405   4.628
 7224SOL    HW222572   5.413   0.330   4.649
 7225SOL     OW22573   2.211   5.929   0.464
 7225SOL    HW122574   2.192   5.895   0.557
 7225SOL    HW222575   2.310   5.929   0.449
 7226SOL     OW22576   0.402   0.156   0.368
 7226SOL    HW122577   0.432   0.249   0.346
 7226SOL    HW222578   0.373   0.110   0.284
 7227SOL     OW22579   0.479   2.667   6.469
 7227SOL    HW122580   0.422   2.749   6.462
 7227SOL    HW222581   0.516   2.643   6.379
 7228SOL     OW22582   0.065   0.166   2.236
 7228SOL    HW122583   0.083   0.171   2.138
 7228SOL    HW222584   6.992   0.163   2.252
 7229SOL     OW22585   1.249   0.130   4.260
 7229SOL    HW122586   1.212   0.214   4.221
 7229SOL    HW222587   1.213   0.051   4.209
 7230SOL     OW22588   4.917   4.730   3.359
 7230SOL    HW122589   4.827   4.755   3.396
 7230SOL    HW222590   4.980   4.806   3.371
 7231SOL     OW22591   5.958   1.263   5.817
 7231SOL    HW122592   5.996   1.329   5.752
 7231SOL    HW222593   5.966   1.171   5.779
 7232SOL     OW22594   3.906   4.805   2.495
 7232SOL    HW122595   3.833   4.857   2.539
 7232SOL    HW222596   3.885   4.794   2.398
 7233SOL     OW22597   0.230   2.852   5.683
 7233SOL    HW122598   0.206   2.948   5.693
 7233SOL    HW222599   0.188   2.799   5.756
 7234SOL     OW22600   6.387   1.667   1.678
 7234SOL    HW122601   6.338   1.621   1.752
 7234SOL    HW222602   6.441   1.743   1.715
 7235SOL     OW22603   5.467   3.483   5.360
 7235SOL    HW122604   5.527   3.462   5.284
 7235SOL    HW222605   5.483   3.418   5.435
 7236SOL     OW22606   3.728   0.990   3.117
 7236SOL    HW122607   3.760   0.905   3.077
 7236SOL    HW222608   3.778   1.008   3.202
 7237SOL     OW22609   5.781   6.234   5.869
 7237SOL    HW122610   5.853   6.219   5.801
 7237SOL    HW222611   5.814   6.206   5.959
 7238SOL     OW22612   2.633   2.158   2.316
 7238SOL    HW122613   2.571   2.087   2.283
 7238SOL    HW222614   2.623   2.240   2.259
 7239SOL     OW22615   2.881   1.601   2.170
 7239SOL    HW122616   2.865   1.699   2.161
 7239SOL    HW222617   2.980   1.582   2.169
 7240SOL     OW22618   2.684   4.767   0.319
 7240SOL    HW122619   2.591   4.750   0.349
 7240SOL    HW222620   2.746   4.759   0.397
 7241SOL     OW22621   3.364   6.942   5.293
 7241SOL    HW122622   3.303   6.945   5.213
 7241SOL    HW222623   3.319   6.894   5.368
 7242SOL     OW22624   6.195   4.021   6.427
 7242SOL    HW122625   6.154   4.094   6.372
 7242SOL    HW222626   6.142   4.009   6.511
 7243SOL     OW22627   0.571   5.789   0.566
 7243SOL    HW122628   0.642   5.834   0.512
 7243SOL    HW222629   0.500   5.755   0.505
 7244SOL     OW22630   5.732   1.712   1.197
 7244SOL    HW122631   5.678   1.777   1.252
 7244SOL    HW222632   5.820   1.754   1.173
 7245SOL     OW22633   0.198   1.693   4.234
 7245SOL    HW122634   0.247   1.772   4.197
 7245SOL    HW222635   0.100   1.701   4.215
 7246SOL     OW22636   6.800   6.685   5.155
 7246SOL    HW122637   6.742   6.641   5.224
 7246SOL    HW222638   6.889   6.706   5.196
 7247SOL     OW22639   2.561   5.937   2.278
 7247SOL    HW122640   2.488   5.885   2.233
 7247SOL    HW222641   2.524   5.986   2.356
 7248SOL     OW22642   4.001   1.070   4.602
 7248SOL    HW122643   4.000   1.136   4.678
 7248SOL    HW222644   3.910   1.067   4.560
 7249SOL     OW22645   6.135   5.369   6.763
 7249SOL    HW122646   6.186   5.451   6.736
 7249SOL    HW222647   6.194   5.311   6.820
 7250SOL     OW22648   2.984   4.726   6.481
 7250SOL    HW122649   3.067   4.740   6.535
 7250SOL    HW222650   2.941   4.641   6.508
 7251SOL     OW22651   6.263   0.120   5.060
 7251SOL    HW122652   6.351   0.150   5.098
 7251SOL    HW222653   6.225   0.048   5.118
 7252SOL     OW22654   3.615   3.038   5.055
 7252SOL    HW122655   3.540   2.973   5.048
 7252SOL    HW222656   3.589   3.124   5.010
 7253SOL     OW22657   4.126   6.083   1.138
 7253SOL    HW122658   4.193   6.098   1.211
 7253SOL    HW222659   4.078   6.168   1.118
 7254SOL     OW22660   4.206   6.567   4.213
 7254SOL    HW122661   4.231   6.482   4.259
 7254SOL    HW222662   4.224   6.558   4.115
 7255SOL     OW22663   2.921   3.674   2.541
 7255SOL    HW122664   2.936   3.586   2.495
 7255SOL    HW222665   2.845   3.722   2.497
 7256SOL     OW22666   4.360   4.580   3.954
 7256SOL    HW122667   4.287   4.604   3.890
 7256SOL    HW222668   4.432   4.530   3.906
 7257SOL     OW22669   6.243   3.044   3.179
 7257SOL    HW122670   6.266   3.045   3.081
 7257SOL    HW222671   6.260   3.135   3.218
 7258SOL     OW22672   3.373   6.996   4.636
 7258SOL    HW122673   3.288   7.012   4.585
 7258SOL    HW222674   3.446   0.025   4.596
 7259SOL     OW22675   2.184   4.626   6.952
 7259SOL    HW122676   2.227   4.715   6.966
 7259SOL    HW222677   2.125   4.605   0.005
 7260SOL     OW22678   3.334   2.086   2.801
 7260SOL    HW122679   3.295   2.125   2.718
 7260SOL    HW222680   3.412   2.028   2.778
 7261SOL     OW22681   2.004   3.707   1.685
 7261SOL    HW122682   2.037   3.799   1.668
 7261SOL    HW222683   2.033   3.677   1.776
 7262SOL     OW22684   5.919   1.360   4.904
 7262SOL    HW122685   5.978   1.393   4.831
 7262SOL    HW222686   5.910   1.431   4.975
 7263SOL     OW22687   2.139   6.157   2.127
 7263SOL    HW122688   2.200   6.130   2.053
 7263SOL    HW222689   2.055   6.196   2.088
 7264SOL     OW22690   0.410   0.152   5.580
 7264SOL    HW122691   0.331   0.211   5.599
 7264SOL    HW222692   0.466   0.193   5.508
 7265SOL     OW22693   4.465   4.492   5.633
 7265SOL    HW122694   4.561   4.515   5.650
 7265SOL    HW222695   4.429   4.437   5.708
 7266SOL     OW22696   4.887   0.690   1.759
 7266SOL    HW122697   4.845   0.775   1.727
 7266SOL    HW222698   4.886   0.622   1.685
 7267SOL     OW22699   6.957   4.109   3.933
 7267SOL    HW122700   6.880   4.046   3.945
 7267SOL    HW222701   0.013   4.057   3.907
 7268SOL     OW22702   3.681   0.163   1.565
 7268SOL    HW122703   3.770   0.204   1.548
 7268SOL    HW222704   3.636   0.141   1.479
 7269SOL     OW22705   1.701   5.918   2.264
 7269SOL    HW122706   1.612   5.953   2.296
 7269SOL    HW222707   1.743   5.865   2.337
 7270SOL     OW22708   2.923   0.981   2.765
 7270SOL    HW122709   2.938   1.012   2.671
 7270SOL    HW222710   2.982   0.902   2.784
 7271SOL     OW22711   0.000   3.407   3.327
 7271SOL    HW122712   0.093   3.443   3.328
 7271SOL    HW222713   0.004   3.307   3.330
 7272SOL     OW22714   5.978   2.114   2.313
 7272SOL    HW122715   5.957   2.211   2.305
 7272SOL    HW222716   5.920   2.073   2.383
 7273SOL     OW22717   5.533   4.432   0.118
 7273SOL    HW122718   5.485   4.364   0.063
 7273SOL    HW222719   5.518   4.413   0.215
 7274SOL     OW22720   6.375   4.878   5.324
 7274SOL    HW122721   6.463   4.830   5.328
 7274SOL    HW222722   6.302   4.816   5.356
 7275SOL     OW22723   6.866   6.891   0.411
 7275SOL    HW122724   6.823   6.953   0.476
 7275SOL    HW222725   6.966   6.896   0.421
 7276SOL     OW22726   2.424   2.658   3.885
 7276SOL    HW122727   2.339   2.702   3.856
 7276SOL    HW222728   2.427   2.653   3.985
 7277SOL     OW22729   4.880   2.197   4.829
 7277SOL    HW122730   4.943   2.268   4.860
 7277SOL    HW222731   4.845   2.147   4.908
 7278SOL     OW22732   3.109   1.439   2.557
 7278SOL    HW122733   3.204   1.447   2.586
 7278SOL    HW222734   3.102   1.372   2.483
 7279SOL     OW22735   5.790   5.020   1.156
 7279SOL    HW122736   5.867   5.009   1.093
 7279SOL    HW222737   5.820   4.996   1.248
 7280SOL     OW22738   6.193   2.551   5.325
 7280SOL    HW122739   6.184   2.534   5.227
 7280SOL    HW222740   6.107   2.528   5.370
 7281SOL     OW22741   3.801   6.007   2.271
 7281SOL    HW122742   3.869   5.946   2.311
 7281SOL    HW222743   3.753   5.960   2.197
 7282SOL     OW22744   6.853   4.612   2.635
 7282SOL    HW122745   6.804   4.552   2.698
 7282SOL    HW222746   6.819   4.598   2.542
 7283SOL     OW22747   4.048   4.822   2.985
 7283SOL    HW122748   3.959   4.832   2.941
 7283SOL    HW222749   4.120   4.825   2.915
 7284SOL     OW22750   6.742   1.807   3.143
 7284SOL    HW122751   6.644   1.798   3.122
 7284SOL    HW222752   6.784   1.874   3.082
 7285SOL     OW22753   4.957   2.851   1.966
 7285SOL    HW122754   4.877   2.904   1.994
 7285SOL    HW222755   5.022   2.846   2.043
 7286SOL     OW22756   0.678   1.504   1.739
 7286SOL    HW122757   0.589   1.465   1.717
 7286SOL    HW222758   0.723   1.532   1.655
 7287SOL     OW22759   1.462   2.588   3.862
 7287SOL    HW122760   1.513   2.542   3.934
 7287SOL    HW222761   1.364   2.570   3.874
 7288SOL     OW22762   2.691   2.367   3.050
 7288SOL    HW122763   2.634   2.433   3.099
 7288SOL    HW222764   2.756   2.325   3.114
 7289SOL     OW22765   5.837   2.136   1.014
 7289SOL    HW122766   5.916   2.194   0.996
 7289SOL    HW222767   5.771   2.146   0.940
 7290SOL     OW22768   3.289   1.495   5.681
 7290SOL    HW122769   3.375   1.536   5.653
 7290SOL    HW222770   3.265   1.420   5.619
 7291SOL     OW22771   4.468   1.014   0.563
 7291SOL    HW122772   4.370   1.017   0.585
 7291SOL    HW222773   4.498   1.105   0.536
 7292SOL     OW22774   2.479   0.501   2.480
 7292SOL    HW122775   2.507   0.545   2.395
 7292SOL    HW222776   2.498   0.403   2.476
 7293SOL     OW22777   1.277   0.562   5.058
 7293SOL    HW122778   1.196   0.503   5.056
 7293SOL    HW222779   1.359   0.506   5.065
 7294SOL     OW22780   2.313   6.273   2.361
 7294SOL    HW122781   2.242   6.240   2.298
 7294SOL    HW222782   2.270   6.320   2.438
 7295SOL     OW22783   5.918   5.529   2.386
 7295SOL    HW122784   5.840   5.568   2.434
 7295SOL    HW222785   5.897   5.435   2.359
 7296SOL     OW22786   4.945   4.507   1.904
 7296SOL    HW122787   4.948   4.453   1.988
 7296SOL    HW222788   4.981   4.598   1.922
 7297SOL     OW22789   3.999   6.329   1.547
 7297SOL    HW122790   4.080   6.340   1.489
 7297SOL    HW222791   3.922   6.377   1.505
 7298SOL     OW22792   4.507   5.349   0.085
 7298SOL    HW122793   4.465   5.420   0.029
 7298SOL    HW222794   4.522   5.267   0.030
 7299SOL     OW22795   1.470   2.662   6.604
 7299SOL    HW122796   1.395   2.641   6.542
 7299SOL    HW222797   1.495   2.759   6.595
 7300SOL     OW22798   0.694   5.336   2.284
 7300SOL    HW122799   0.676   5.254   2.231
 7300SOL    HW222800   0.702   5.415   2.223
 7301SOL     OW22801   5.254   0.451   5.657
 7301SOL    HW122802   5.169   0.504   5.647
 7301SOL    HW222803   5.311   0.494   5.727
 7302SOL     OW22804   4.919   1.154   5.783
 7302SOL    HW122805   4.991   1.175   5.849
 7302SOL    HW222806   4.830   1.172   5.824
 7303SOL     OW22807   2.064   1.567   1.728
 7303SOL    HW122808   2.072   1.521   1.817
 7303SOL    HW222809   1.982   1.534   1.682
 7304SOL     OW22810   2.507   5.916   1.584
 7304SOL    HW122811   2.438   5.846   1.564
 7304SOL    HW222812   2.468   6.007   1.572
 7305SOL     OW22813   6.559   1.770   0.595
 7305SOL    HW122814   6.507   1.699   0.548
 7305SOL    HW222815   6.582   1.739   0.687
 7306SOL     OW22816   1.939   2.376   1.988
 7306SOL    HW122817   2.011   2.419   2.042
 7306SOL    HW222818   1.897   2.445   1.928
 7307SOL     OW22819   2.139   0.351   1.753
 7307SOL    HW122820   2.175   0.334   1.845
 7307SOL    HW222821   2.206   0.320   1.685
 7308SOL     OW22822   5.064   0.944   3.463
 7308SOL    HW122823   5.127   0.929   3.387
 7308SOL    HW222824   5.114   0.945   3.549
 7309SOL     OW22825   2.093   5.418   3.137
 7309SOL    HW122826   2.105   5.514   3.114
 7309SOL    HW222827   2.021   5.409   3.207
 7310SOL     OW22828   2.470   2.612   6.404
 7310SOL    HW122829   2.450   2.593   6.500
 7310SOL    HW222830   2.390   2.652   6.361
 7311SOL     OW22831   0.092   6.458   6.584
 7311SOL    HW122832   0.125   6.552   6.581
 7311SOL    HW222833   0.078   6.424   6.491
 7312SOL     OW22834   6.912   2.139   4.052
 7312SOL    HW122835   6.925   2.233   4.020
 7312SOL    HW222836   6.854   2.090   3.987
 7313SOL     OW22837   2.999   0.573   1.983
 7313SOL    HW122838   3.031   0.641   1.918
 7313SOL    HW222839   3.077   0.525   2.022
 7314SOL     OW22840   0.718   3.894   6.536
 7314SOL    HW122841   0.809   3.918   6.571
 7314SOL    HW222842   0.652   3.962   6.568
 7315SOL     OW22843   1.328   4.082   2.268
 7315SOL    HW122844   1.411   4.034   2.240
 7315SOL    HW222845   1.348   4.141   2.346
 7316SOL     OW22846   3.282   1.673   0.834
 7316SOL    HW122847   3.226   1.590   0.843
 7316SOL    HW222848   3.375   1.648   0.809
 7317SOL     OW22849   3.872   1.211   1.169
 7317SOL    HW122850   3.836   1.194   1.261
 7317SOL    HW222851   3.971   1.220   1.172
 7318SOL     OW22852   4.286   6.456   0.081
 7318SOL    HW122853   4.382   6.471   0.061
 7318SOL    HW222854   4.274   6.369   0.130
 7319SOL     OW22855   5.967   4.959   6.807
 7319SOL    HW122856   5.924   4.875   6.840
 7319SOL    HW222857   6.009   4.943   6.718
 7320SOL     OW22858   6.845   2.771   1.964
 7320SOL    HW122859   6.841   2.726   1.875
 7320SOL    HW222860   6.755   2.768   2.007
 7321SOL     OW22861   1.792   0.240   6.807
 7321SOL    HW122862   1.883   0.277   6.825
 7321SOL    HW222863   1.796   0.140   6.809
 7322SOL     OW22864   0.669   2.918   2.664
 7322SOL    HW122865   0.581   2.960   2.685
 7322SOL    HW222866   0.708   2.876   2.746
 7323SOL     OW22867   1.117   2.554   1.270
 7323SOL    HW122868   1.061   2.486   1.319
 7323SOL    HW222869   1.150   2.622   1.335
 7324SOL     OW22870   5.400   4.947   3.196
 7324SOL    HW122871   5.348   4.984   3.273
 7324SOL    HW222872   5.495   4.931   3.225
 7325SOL     OW22873   4.481   1.185   5.889
 7325SOL    HW122874   4.505   1.124   5.813
 7325SOL    HW222875   4.411   1.250   5.860
 7326SOL     OW22876   3.660   0.358   0.043
 7326SOL    HW122877   3.583   0.300   0.014
 7326SOL    HW222878   3.731   0.356   6.999
 7327SOL     OW22879   0.697   3.476   3.542
 7327SOL    HW122880   0.651   3.389   3.524
 7327SOL    HW222881   0.785   3.476   3.496
 7328SOL     OW22882   4.324   4.716   4.757
 7328SOL    HW122883   4.326   4.651   4.833
 7328SOL    HW222884   4.411   4.712   4.707
 7329SOL     OW22885   2.841   3.148   1.149
 7329SOL    HW122886   2.935   3.123   1.174
 7329SOL    HW222887   2.780   3.126   1.225
 7330SOL     OW22888   2.765   3.105   1.754
 7330SOL    HW122889   2.845   3.093   1.694
 7330SOL    HW222890   2.771   3.193   1.801
 7331SOL     OW22891   4.894   0.605   3.240
 7331SOL    HW122892   4.894   0.619   3.141
 7331SOL    HW222893   4.831   0.531   3.263
 7332SOL     OW22894   3.269   5.356   6.206
 7332SOL    HW122895   3.225   5.351   6.295
 7332SOL    HW222896   3.211   5.313   6.137
 7333SOL     OW22897   0.096   1.879   1.173
 7333SOL    HW122898   0.100   1.842   1.266
 7333SOL    HW222899   0.182   1.926   1.152
 7334SOL     OW22900   2.622   0.253   4.432
 7334SOL    HW122901   2.653   0.169   4.476
 7334SOL    HW222902   2.545   0.291   4.483
 7335SOL     OW22903   6.374   2.918   2.160
 7335SOL    HW122904   6.331   2.980   2.226
 7335SOL    HW222905   6.303   2.863   2.116
 7336SOL     OW22906   1.651   6.743   1.945
 7336SOL    HW122907   1.734   6.732   1.890
 7336SOL    HW222908   1.630   6.840   1.954
 7337SOL     OW22909   1.999   2.149   3.549
 7337SOL    HW122910   1.981   2.174   3.454
 7337SOL    HW222911   1.919   2.103   3.587
 7338SOL     OW22912   5.458   2.971   1.472
 7338SOL    HW122913   5.434   2.885   1.427
 7338SOL    HW222914   5.537   3.012   1.426
 7339SOL     OW22915   6.121   4.958   4.302
 7339SOL    HW122916   6.209   5.006   4.292
 7339SOL    HW222917   6.061   4.981   4.226
 7340SOL     OW22918   2.599   0.180   0.562
 7340SOL    HW122919   2.648   0.186   0.649
 7340SOL    HW222920   2.533   0.254   0.555
 7341SOL     OW22921   5.924   5.003   4.136
 7341SOL    HW122922   5.848   5.047   4.184
 7341SOL    HW222923   5.891   4.920   4.090
 7342SOL     OW22924   0.267   6.136   0.297
 7342SOL    HW122925   0.273   6.171   0.391
 7342SOL    HW222926   0.249   6.212   0.235
 7343SOL     OW22927   5.770   3.600   2.388
 7343SOL    HW122928   5.819   3.525   2.345
 7343SOL    HW222929   5.705   3.564   2.455
 7344SOL     OW22930   1.521   6.936   0.230
 7344SOL    HW122931   1.431   6.905   0.201
 7344SOL    HW222932   1.546   7.019   0.180
 7345SOL     OW22933   3.741   5.639   6.716
 7345SOL    HW122934   3.708   5.717   6.662
 7345SOL    HW222935   3.667   5.606   6.775
 7346SOL     OW22936   3.977   4.675   1.739
 7346SOL    HW122937   4.028   4.590   1.727
 7346SOL    HW222938   4.000   4.716   1.827
 7347SOL     OW22939   6.253   1.686   3.163
 7347SOL    HW122940   6.194   1.734   3.099
 7347SOL    HW222941   6.214   1.691   3.255
 7348SOL     OW22942   1.360   2.026   3.124
 7348SOL    HW122943   1.264   2.035   3.098
 7348SOL    HW222944   1.368   2.023   3.223
 7349SOL     OW22945   3.639   1.183   0.990
 7349SOL    HW122946   3.602   1.097   1.024
 7349SOL    HW222947   3.693   1.227   1.062
 7350SOL     OW22948   2.385   1.640   3.145
 7350SOL    HW122949   2.423   1.616   3.234
 7350SOL    HW222950   2.307   1.581   3.124
 7351SOL     OW22951   4.077   4.345   6.699
 7351SOL    HW122952   3.986   4.314   6.726
 7351SOL    HW222953   4.129   4.370   6.780
 7352SOL     OW22954   0.832   1.290   2.343
 7352SOL    HW122955   0.781   1.334   2.269
 7352SOL    HW222956   0.928   1.316   2.337
 7353SOL     OW22957   5.178   2.132   4.723
 7353SOL    HW122958   5.118   2.199   4.768
 7353SOL    HW222959   5.147   2.040   4.747
 7354SOL     OW22960   6.044   4.824   5.712
 7354SOL    HW122961   6.042   4.781   5.621
 7354SOL    HW222962   6.139   4.833   5.742
 7355SOL     OW22963   1.999   5.300   2.044
 7355SOL    HW122964   2.020   5.380   1.988
 7355SOL    HW222965   2.028   5.317   2.138
 7356SOL     OW22966   5.700   1.436   5.832
 7356SOL    HW122967   5.785   1.385   5.842
 7356SOL    HW222968   5.720   1.530   5.803
 7357SOL     OW22969   6.230   1.676   0.296
 7357SOL    HW122970   6.172   1.655   0.218
 7357SOL    HW222971   6.291   1.753   0.273
 7358SOL     OW22972   3.059   1.244   3.837
 7358SOL    HW122973   3.078   1.164   3.780
 7358SOL    HW222974   2.987   1.221   3.903
 7359SOL     OW22975   4.060   3.132   3.675
 7359SOL    HW122976   4.081   3.206   3.611
 7359SOL    HW222977   3.981   3.080   3.641
 7360SOL     OW22978   0.531   2.790   4.931
 7360SOL    HW122979   0.546   2.837   5.018
 7360SOL    HW222980   0.493   2.855   4.865
 7361SOL     OW22981   5.125   6.091   2.491
 7361SOL    HW122982   5.072   6.176   2.489
 7361SOL    HW222983   5.220   6.111   2.467
 7362SOL     OW22984   1.999   6.021   6.118
 7362SOL    HW122985   1.972   6.003   6.023
 7362SOL    HW222986   2.070   5.957   6.145
 7363SOL     OW22987   4.692   3.436   6.217
 7363SOL    HW122988   4.658   3.343   6.204
 7363SOL    HW222989   4.671   3.468   6.309
 7364SOL     OW22990   4.079   6.630   1.541
 7364SOL    HW122991   4.039   6.717   1.513
 7364SOL    HW222992   4.099   6.633   1.639
 7365SOL     OW22993   3.153   0.068   2.573
 7365SOL    HW122994   3.136   0.161   2.541
 7365SOL    HW222995   3.144   0.065   2.673
 7366SOL     OW22996   0.673   5.152   6.568
 7366SOL    HW122997   0.751   5.098   6.534
 7366SOL    HW222998   0.646   5.118   6.658
 7367SOL     OW22999   4.853   4.096   1.151
 7367SOL    HW123000   4.901   4.165   1.098
 7367SOL    HW223001   4.800   4.140   1.224
 7368SOL     OW23002   3.289   3.557   4.895
 7368SOL    HW123003   3.261   3.624   4.827
 7368SOL    HW223004   3.216   3.544   4.962
 7369SOL     OW23005   4.944   3.765   0.536
 7369SOL    HW123006   5.003   3.830   0.583
 7369SOL    HW223007   4.902   3.810   0.457
 7370SOL     OW23008   2.301   6.670   0.840
 7370SOL    HW123009   2.360   6.738   0.884
 7370SOL    HW223010   2.357   6.596   0.802
 7371SOL     OW23011   2.526   5.124   4.577
 7371SOL    HW123012   2.538   5.072   4.492
 7371SOL    HW223013   2.448   5.088   4.628
 7372SOL     OW23014   3.668   0.467   5.861
 7372SOL    HW123015   3.736   0.532   5.894
 7372SOL    HW223016   3.655   0.479   5.762
 7373SOL     OW23017   3.923   0.633   2.045
 7373SOL    HW123018   3.945   0.663   2.137
 7373SOL    HW223019   3.905   0.535   2.045
 7374SOL     OW23020   1.722   3.042   6.360
 7374SOL    HW123021   1.733   3.001   6.270
 7374SOL    HW223022   1.758   3.135   6.360
 7375SOL     OW23023   1.427   0.448   4.201
 7375SOL    HW123024   1.522   0.418   4.214
 7375SOL    HW223025   1.418   0.544   4.229
 7376SOL     OW23026   2.363   3.484   6.835
 7376SOL    HW123027   2.362   3.453   6.740
 7376SOL    HW223028   2.324   3.576   6.841
 7377SOL     OW23029   4.682   4.441   1.558
 7377SOL    HW123030   4.597   4.445   1.505
 7377SOL    HW223031   4.668   4.389   1.642
 7378SOL     OW23032   6.773   0.861   5.129
 7378SOL    HW123033   6.684   0.886   5.090
 7378SOL    HW223034   6.845   0.889   5.066
 7379SOL     OW23035   4.056   1.321   2.142
 7379SOL    HW123036   3.986   1.270   2.091
 7379SOL    HW223037   4.013   1.395   2.193
 7380SOL     OW23038   0.194   3.485   6.293
 7380SOL    HW123039   0.201   3.465   6.195
 7380SOL    HW223040   0.285   3.490   6.332
 7381SOL     OW23041   5.310   1.980   1.490
 7381SOL    HW123042   5.252   1.903   1.517
 7381SOL    HW223043   5.329   1.976   1.392
 7382SOL     OW23044   6.852   5.917   4.125
 7382SOL    HW123045   6.921   5.937   4.195
 7382SOL    HW223046   6.761   5.927   4.166
 7383SOL     OW23047   6.794   6.065   3.267
 7383SOL    HW123048   6.858   5.989   3.278
 7383SOL    HW223049   6.753   6.062   3.176
 7384SOL     OW23050   5.209   0.278   2.556
 7384SOL    HW123051   5.245   0.279   2.463
 7384SOL    HW223052   5.132   0.342   2.563
 7385SOL     OW23053   4.824   6.145   1.563
 7385SOL    HW123054   4.820   6.176   1.658
 7385SOL    HW223055   4.919   6.124   1.540
 7386SOL     OW23056   0.807   2.208   5.314
 7386SOL    HW123057   0.864   2.281   5.276
 7386SOL    HW223058   0.813   2.127   5.255
 7387SOL     OW23059   3.763   5.689   3.588
 7387SOL    HW123060   3.740   5.662   3.494
 7387SOL    HW223061   3.719   5.777   3.609
 7388SOL     OW23062   6.243   4.958   3.234
 7388SOL    HW123063   6.187   5.030   3.192
 7388SOL    HW223064   6.230   4.959   3.333
 7389SOL     OW23065   1.680   4.162   6.125
 7389SOL    HW123066   1.599   4.109   6.103
 7389SOL    HW223067   1.712   4.209   6.042
 7390SOL     OW23068   1.207   0.175   5.545
 7390SOL    HW123069   1.267   0.186   5.466
 7390SOL    HW223070   1.186   0.078   5.557
 7391SOL     OW23071   5.998   3.304   6.603
 7391SOL    HW123072   6.044   3.352   6.677
 7391SOL    HW223073   5.927   3.244   6.641
 7392SOL     OW23074   1.253   4.283   4.137
 7392SOL    HW123075   1.343   4.315   4.167
 7392SOL    HW223076   1.182   4.335   4.184
 7393SOL     OW23077   0.516   4.520   2.625
 7393SOL    HW123078   0.509   4.498   2.722
 7393SOL    HW223079   0.574   4.453   2.579
 7394SOL     OW23080   4.118   3.666   6.789
 7394SOL    HW123081   4.207   3.623   6.804
 7394SOL    HW223082   4.128   3.745   6.729
 7395SOL     OW23083   0.841   0.557   0.538
 7395SOL    HW123084   0.906   0.609   0.481
 7395SOL    HW223085   0.784   0.499   0.479
 7396SOL     OW23086   0.785   6.941   6.235
 7396SOL    HW123087   0.884   6.926   6.244
 7396SOL    HW223088   0.765   6.984   6.147
 7397SOL     OW23089   5.998   5.007   5.282
 7397SOL    HW123090   6.009   4.911   5.306
 7397SOL    HW223091   6.088   5.049   5.272
 7398SOL     OW23092   4.594   4.413   3.856
 7398SOL    HW123093   4.651   4.446   3.931
 7398SOL    HW223094   4.581   4.314   3.864
 7399SOL     OW23095   5.046   3.954   5.938
 7399SOL    HW123096   4.987   3.888   5.892
 7399SOL    HW223097   5.086   3.912   6.020
 7400SOL     OW23098   3.006   5.649   6.825
 7400SOL    HW123099   2.913   5.670   6.857
 7400SOL    HW223100   3.004   5.631   6.727
 7401SOL     OW23101   0.003   2.062   3.715
 7401SOL    HW123102   0.060   2.143   3.732
 7401SOL    HW223103   0.047   1.982   3.755
 7402SOL     OW23104   2.676   0.264   3.927
 7402SOL    HW123105   2.699   0.191   3.863
 7402SOL    HW223106   2.760   0.305   3.962
 7403SOL     OW23107   1.749   3.906   2.867
 7403SOL    HW123108   1.831   3.849   2.858
 7403SOL    HW223109   1.670   3.847   2.886
 7404SOL     OW23110   1.275   0.230   1.640
 7404SOL    HW123111   1.299   0.144   1.594
 7404SOL    HW223112   1.353   0.292   1.636
 7405SOL     OW23113   3.139   5.213   6.020
 7405SOL    HW123114   3.088   5.127   6.028
 7405SOL    HW223115   3.076   5.286   5.994
 7406SOL     OW23116   0.643   4.590   1.800
 7406SOL    HW123117   0.573   4.599   1.728
 7406SOL    HW223118   0.602   4.611   1.888
 7407SOL     OW23119   1.168   6.480   6.603
 7407SOL    HW123120   1.107   6.406   6.632
 7407SOL    HW223121   1.256   6.470   6.649
 7408SOL     OW23122   1.715   4.638   5.676
 7408SOL    HW123123   1.634   4.661   5.622
 7408SOL    HW223124   1.776   4.717   5.678
 7409SOL     OW23125   2.076   5.695   5.123
 7409SOL    HW123126   2.008   5.745   5.176
 7409SOL    HW223127   2.167   5.714   5.158
 7410SOL     OW23128   6.898   5.272   1.193
 7410SOL    HW123129   6.872   5.206   1.122
 7410SOL    HW223130   6.896   5.227   1.282
 7411SOL     OW23131   3.390   6.203   5.077
 7411SOL    HW123132   3.404   6.176   4.982
 7411SOL    HW223133   3.479   6.221   5.119
 7412SOL     OW23134   1.076   1.712   0.347
 7412SOL    HW123135   0.985   1.750   0.329
 7412SOL    HW223136   1.115   1.756   0.428
 7413SOL     OW23137   5.924   3.897   4.880
 7413SOL    HW123138   5.938   3.800   4.897
 7413SOL    HW223139   6.009   3.939   4.849
 7414SOL     OW23140   6.589   7.016   2.275
 7414SOL    HW123141   6.504   0.000   2.222
 7414SOL    HW223142   6.646   0.071   2.261
 7415SOL     OW23143   1.617   2.937   3.888
 7415SOL    HW123144   1.646   2.841   3.897
 7415SOL    HW223145   1.671   2.994   3.950
 7416SOL     OW23146   3.421   0.854   4.004
 7416SOL    HW123147   3.510   0.892   3.980
 7416SOL    HW223148   3.432   0.758   4.031
 7417SOL     OW23149   1.127   6.596   0.274
 7417SOL    HW123150   1.218   6.624   0.243
 7417SOL    HW223151   1.105   6.506   0.237
 7418SOL     OW23152   1.780   3.147   0.835
 7418SOL    HW123153   1.837   3.065   0.839
 7418SOL    HW223154   1.834   3.227   0.862
 7419SOL     OW23155   6.391   1.076   4.908
 7419SOL    HW123156   6.448   1.054   4.988
 7419SOL    HW223157   6.298   1.044   4.924
 7420SOL     OW23158   6.826   5.817   1.592
 7420SOL    HW123159   6.882   5.804   1.674
 7420SOL    HW223160   6.740   5.861   1.618
 7421SOL     OW23161   3.962   3.505   1.433
 7421SOL    HW123162   3.969   3.602   1.410
 7421SOL    HW223163   4.052   3.470   1.459
 7422SOL     OW23164   0.236   2.908   0.381
 7422SOL    HW123165   0.300   2.886   0.454
 7422SOL    HW223166   0.191   2.995   0.401
 7423SOL     OW23167   1.774   4.945   6.494
 7423SOL    HW123168   1.754   5.038   6.525
 7423SOL    HW223169   1.873   4.936   6.477
 7424SOL     OW23170   5.668   0.869   4.261
 7424SOL    HW123171   5.731   0.941   4.290
 7424SOL    HW223172   5.576   0.907   4.250
 7425SOL     OW23173   3.708   5.359   6.081
 7425SOL    HW123174   3.772   5.290   6.047
 7425SOL    HW223175   3.641   5.316   6.141
 7426SOL     OW23176   1.205   1.110   6.644
 7426SOL    HW123177   1.172   1.157   6.727
 7426SOL    HW223178   1.134   1.049   6.610
 7427SOL     OW23179   4.190   5.092   5.060
 7427SOL    HW123180   4.111   5.068   5.004
 7427SOL    HW223181   4.209   5.190   5.051
 7428SOL     OW23182   3.434   2.196   5.956
 7428SOL    HW123183   3.431   2.243   6.045
 7428SOL    HW223184   3.455   2.099   5.970
 7429SOL     OW23185   0.348   0.535   2.938
 7429SOL    HW123186   0.444   0.547   2.915
 7429SOL    HW223187   0.340   0.469   3.013
 7430SOL     OW23188   6.178   3.993   5.286
 7430SOL    HW123189   6.114   3.917   5.275
 7430SOL    HW223190   6.269   3.957   5.307
 7431SOL     OW23191   0.631   4.311   1.915
 7431SOL    HW123192   0.600   4.401   1.884
 7431SOL    HW223193   0.601   4.242   1.850
 7432SOL     OW23194   0.178   6.574   5.182
 7432SOL    HW123195   0.093   6.585   5.233
 7432SOL    HW223196   0.178   6.485   5.136
 7433SOL     OW23197   6.238   5.325   0.813
 7433SOL    HW123198   6.239   5.391   0.888
 7433SOL    HW223199   6.146   5.321   0.773
 7434SOL     OW23200   3.441   1.195   6.253
 7434SOL    HW123201   3.480   1.167   6.340
 7434SOL    HW223202   3.490   1.150   6.178
 7435SOL     OW23203   2.864   6.506   0.424
 7435SOL    HW123204   2.788   6.497   0.489
 7435SOL    HW223205   2.898   6.600   0.425
 7436SOL     OW23206   4.966   3.261   0.381
 7436SOL    HW123207   4.957   3.180   0.323
 7436SOL    HW223208   4.966   3.234   0.477
 7437SOL     OW23209   0.876   5.987   5.915
 7437SOL    HW123210   0.954   6.050   5.912
 7437SOL    HW223211   0.899   5.907   5.969
 7438SOL     OW23212   6.560   4.612   1.909
 7438SOL    HW123213   6.647   4.596   1.861
 7438SOL    HW223214   6.575   4.674   1.986
 7439SOL     OW23215   1.929   7.016   3.784
 7439SOL    HW123216   1.962   0.083   3.801
 7439SOL    HW223217   1.950   6.990   3.690
 7440SOL     OW23218   1.335   2.610   4.437
 7440SOL    HW123219   1.287   2.523   4.424
 7440SOL    HW223220   1.368   2.643   4.348
 7441SOL     OW23221   5.817   1.334   4.180
 7441SOL    HW123222   5.847   1.278   4.257
 7441SOL    HW223223   5.838   1.430   4.198
 7442SOL     OW23224   1.000   0.904   6.576
 7442SOL    HW123225   0.963   0.910   6.483
 7442SOL    HW223226   0.941   0.847   6.632
 7443SOL     OW23227   0.384   1.287   6.847
 7443SOL    HW123228   0.412   1.192   6.835
 7443SOL    HW223229   0.463   1.343   6.871
 7444SOL     OW23230   0.687   3.118   6.438
 7444SOL    HW123231   0.745   3.038   6.422
 7444SOL    HW223232   0.731   3.178   6.505
 7445SOL     OW23233   5.152   1.709   1.854
 7445SOL    HW123234   5.240   1.705   1.901
 7445SOL    HW223235   5.127   1.618   1.823
 7446SOL     OW23236   6.489   4.321   1.265
 7446SOL    HW123237   6.413   4.327   1.329
 7446SOL    HW223238   6.535   4.410   1.259
 7447SOL     OW23239   1.378   4.002   6.312
 7447SOL    HW123240   1.360   4.092   6.352
 7447SOL    HW223241   1.400   4.012   6.215
 7448SOL     OW23242   6.484   0.125   6.098
 7448SOL    HW123243   6.563   0.065   6.089
 7448SOL    HW223244   6.511   0.219   6.080
 7449SOL     OW23245   5.666   2.117   1.964
 7449SOL    HW123246   5.661   2.018   1.955
 7449SOL    HW223247   5.680   2.141   2.060
 7450SOL     OW23248   4.592   2.117   2.822
 7450SOL    HW123249   4.677   2.097   2.872
 7450SOL    HW223250   4.605   2.198   2.766
 7451SOL     OW23251   2.169   0.912   4.755
 7451SOL    HW123252   2.141   0.940   4.846
 7451SOL    HW223253   2.171   0.812   4.750
 7452SOL     OW23254   1.697   6.554   4.808
 7452SOL    HW123255   1.778   6.498   4.824
 7452SOL    HW223256   1.620   6.516   4.859
 7453SOL     OW23257   5.583   6.315   4.508
 7453SOL    HW123258   5.533   6.320   4.595
 7453SOL    HW223259   5.644   6.236   4.509
 7454SOL     OW23260   0.877   3.548   1.355
 7454SOL    HW123261   0.816   3.623   1.379
 7454SOL    HW223262   0.858   3.518   1.261
 7455SOL     OW23263   4.753   2.845   0.522
 7455SOL    HW123264   4.668   2.891   0.547
 7455SOL    HW223265   4.831   2.906   0.539
 7456SOL     OW23266   1.836   3.486   4.913
 7456SOL    HW123267   1.801   3.499   4.820
 7456SOL    HW223268   1.814   3.393   4.943
 7457SOL     OW23269   6.328   0.706   5.378
 7457SOL    HW123270   6.386   0.683   5.456
 7457SOL    HW223271   6.385   0.721   5.297
 7458SOL     OW23272   2.732   0.876   0.728
 7458SOL    HW123273   2.816   0.894   0.780
 7458SOL    HW223274   2.696   0.786   0.752
 7459SOL     OW23275   4.455   0.626   4.712
 7459SOL    HW123276   4.358   0.635   4.688
 7459SOL    HW223277   4.463   0.579   4.800
 7460SOL     OW23278   0.490   4.475   0.618
 7460SOL    HW123279   0.555   4.406   0.586
 7460SOL    HW223280   0.478   4.545   0.546
 7461SOL     OW23281   5.255   1.021   4.737
 7461SOL    HW123282   5.158   1.038   4.756
 7461SOL    HW223283   5.310   1.056   4.814
 7462SOL     OW23284   2.145   1.987   2.583
 7462SOL    HW123285   2.240   1.958   2.574
 7462SOL    HW223286   2.103   1.992   2.492
 7463SOL     OW23287   4.154   3.578   2.251
 7463SOL    HW123288   4.207   3.496   2.230
 7463SOL    HW223289   4.165   3.601   2.348
 7464SOL     OW23290   5.112   5.699   0.644
 7464SOL    HW123291   5.122   5.652   0.732
 7464SOL    HW223292   5.044   5.652   0.588
 7465SOL     OW23293   3.185   0.160   1.861
 7465SOL    HW123294   3.102   0.137   1.809
 7465SOL    HW223295   3.164   0.160   1.959
 7466SOL     OW23296   0.330   0.465   6.788
 7466SOL    HW123297   0.355   0.406   6.711
 7466SOL    HW223298   0.262   0.418   6.844
 7467SOL     OW23299   0.264   1.833   0.810
 7467SOL    HW123300   0.199   1.758   0.821
 7467SOL    HW223301   0.238   1.889   0.731
 7468SOL     OW23302   5.663   1.500   2.697
 7468SOL    HW123303   5.757   1.472   2.678
 7468SOL    HW223304   5.663   1.573   2.765
 7469SOL     OW23305   1.352   0.945   0.796
 7469SOL    HW123306   1.410   0.864   0.784
 7469SOL    HW223307   1.265   0.917   0.836
 7470SOL     OW23308   6.950   2.120   2.264
 7470SOL    HW123309   6.935   2.128   2.166
 7470SOL    HW223310   6.920   2.205   2.309
 7471SOL     OW23311   6.130   6.626   5.730
 7471SOL    HW123312   6.055   6.692   5.725
 7471SOL    HW223313   6.107   6.554   5.796
 7472SOL     OW23314   3.397   0.564   4.000
 7472SOL    HW123315   3.327   0.493   4.009
 7472SOL    HW223316   3.485   0.522   3.976
 7473SOL     OW23317   6.579   3.964   4.543
 7473SOL    HW123318   6.553   4.048   4.495
 7473SOL    HW223319   6.611   3.896   4.477
 7474SOL     OW23320   3.929   0.858   3.391
 7474SOL    HW123321   3.921   0.957   3.377
 7474SOL    HW223322   3.855   0.811   3.344
 7475SOL     OW23323   3.914   0.863   1.234
 7475SOL    HW123324   3.819   0.832   1.240
 7475SOL    HW223325   3.942   0.903   1.321
 7476SOL     OW23326   3.539   6.521   4.120
 7476SOL    HW123327   3.474   6.590   4.089
 7476SOL    HW223328   3.615   6.516   4.055
 7477SOL     OW23329   3.884   1.307   4.222
 7477SOL    HW123330   3.819   1.354   4.282
 7477SOL    HW223331   3.935   1.240   4.275
 7478SOL     OW23332   2.087   4.435   0.402
 7478SOL    HW123333   2.034   4.492   0.466
 7478SOL    HW223334   2.057   4.340   0.410
 7479SOL     OW23335   4.554   0.934   6.797
 7479SOL    HW123336   4.473   0.883   6.825
 7479SOL    HW223337   4.533   1.032   6.797
 7480SOL     OW23338   6.365   5.829   0.977
 7480SOL    HW123339   6.406   5.916   0.949
 7480SOL    HW223340   6.419   5.753   0.940
 7481SOL     OW23341   5.768   4.779   0.648
 7481SOL    HW123342   5.749   4.720   0.569
 7481SOL    HW223343   5.820   4.859   0.618
 7482SOL     OW23344   4.764   0.953   2.729
 7482SOL    HW123345   4.797   0.919   2.816
 7482SOL    HW223346   4.673   0.915   2.710
 7483SOL     OW23347   3.518   1.002   4.540
 7483SOL    HW123348   3.553   1.022   4.632
 7483SOL    HW223349   3.428   1.044   4.530
 7484SOL     OW23350   2.041   6.383   2.343
 7484SOL    HW123351   2.002   6.292   2.359
 7484SOL    HW223352   1.967   6.449   2.332
 7485SOL     OW23353   2.872   5.634   6.108
 7485SOL    HW123354   2.905   5.586   6.190
 7485SOL    HW223355   2.812   5.709   6.136
 7486SOL     OW23356   3.022   6.194   5.438
 7486SOL    HW123357   2.997   6.101   5.410
 7486SOL    HW223358   3.095   6.229   5.379
 7487SOL     OW23359   3.192   6.171   4.179
 7487SOL    HW123360   3.231   6.105   4.114
 7487SOL    HW223361   3.124   6.125   4.236
 7488SOL     OW23362   3.813   0.251   6.012
 7488SOL    HW123363   3.745   0.306   5.965
 7488SOL    HW223364   3.887   0.227   5.948
 7489SOL     OW23365   4.896   2.821   3.954
 7489SOL    HW123366   4.888   2.897   4.018
 7489SOL    HW223367   4.815   2.818   3.895
 7490SOL     OW23368   5.645   0.789   1.088
 7490SOL    HW123369   5.644   0.767   0.991
 7490SOL    HW223370   5.618   0.884   1.101
 7491SOL     OW23371   6.600   5.823   6.108
 7491SOL    HW123372   6.699   5.824   6.121
 7491SOL    HW223373   6.571   5.731   6.083
 7492SOL     OW23374   1.623   2.736   5.183
 7492SOL    HW123375   1.672   2.818   5.214
 7492SOL    HW223376   1.684   2.680   5.128
 7493SOL     OW23377   5.324   3.430   6.658
 7493SOL    HW123378   5.245   3.448   6.717
 7493SOL    HW223379   5.399   3.491   6.684
 7494SOL     OW23380   5.330   0.352   1.945
 7494SOL    HW123381   5.399   0.424   1.937
 7494SOL    HW223382   5.251   0.375   1.889
 7495SOL     OW23383   2.090   2.120   0.708
 7495SOL    HW123384   2.110   2.064   0.789
 7495SOL    HW223385   2.016   2.077   0.656
 7496SOL     OW23386   1.198   5.008   6.241
 7496SOL    HW123387   1.099   4.999   6.237
 7496SOL    HW223388   1.240   4.918   6.223
 7497SOL     OW23389   1.606   4.039   2.277
 7497SOL    HW123390   1.696   4.039   2.233
 7497SOL    HW223391   1.616   4.058   2.374
 7498SOL     OW23392   3.606   1.936   4.773
 7498SOL    HW123393   3.653   1.993   4.841
 7498SOL    HW223394   3.559   1.995   4.707
 7499SOL     OW23395   5.600   0.087   4.517
 7499SOL    HW123396   5.612   0.179   4.556
 7499SOL    HW223397   5.690   0.046   4.501
 7500SOL     OW23398   4.613   6.220   2.106
 7500SOL    HW123399   4.640   6.296   2.165
 7500SOL    HW223400   4.642   6.134   2.147
 7501SOL     OW23401   0.487   4.031   3.730
 7501SOL    HW123402   0.436   3.946   3.715
 7501SOL    HW223403   0.573   4.010   3.777
 7502SOL     OW23404   2.535   0.776   5.153
 7502SOL    HW123405   2.493   0.688   5.174
 7502SOL    HW223406   2.523   0.838   5.230
 7503SOL     OW23407   3.078   1.133   0.155
 7503SOL    HW123408   3.158   1.099   0.105
 7503SOL    HW223409   3.044   1.215   0.110
 7504SOL     OW23410   4.173   6.727   3.174
 7504SOL    HW123411   4.127   6.741   3.261
 7504SOL    HW223412   4.271   6.744   3.185
 7505SOL     OW23413   1.734   1.517   4.864
 7505SOL    HW123414   1.752   1.610   4.896
 7505SOL    HW223415   1.820   1.475   4.834
 7506SOL     OW23416   3.627   0.732   2.550
 7506SOL    HW123417   3.646   0.773   2.461
 7506SOL    HW223418   3.713   0.723   2.602
 7507SOL     OW23419   0.962   6.437   5.597
 7507SOL    HW123420   0.947   6.521   5.648
 7507SOL    HW223421   0.940   6.358   5.656
 7508SOL     OW23422   5.915   6.862   2.664
 7508SOL    HW123423   5.902   6.833   2.759
 7508SOL    HW223424   5.981   6.801   2.619
 7509SOL     OW23425   4.920   3.380   6.008
 7509SOL    HW123426   4.852   3.417   5.944
 7509SOL    HW223427   4.873   3.329   6.080
 7510SOL     OW23428   3.602   4.208   4.788
 7510SOL    HW123429   3.638   4.164   4.706
 7510SOL    HW223430   3.676   4.223   4.853
 7511SOL     OW23431   1.605   0.596   2.308
 7511SOL    HW123432   1.574   0.525   2.245
 7511SOL    HW223433   1.698   0.576   2.339
 7512SOL     OW23434   2.911   2.795   1.539
 7512SOL    HW123435   2.847   2.768   1.611
 7512SOL    HW223436   2.949   2.885   1.560
 7513SOL     OW23437   1.666   1.774   6.727
 7513SOL    HW123438   1.665   1.828   6.811
 7513SOL    HW223439   1.752   1.789   6.678
 7514SOL     OW23440   2.638   5.524   2.297
 7514SOL    HW123441   2.738   5.522   2.298
 7514SOL    HW223442   2.607   5.611   2.335
 7515SOL     OW23443   6.559   6.754   2.531
 7515SOL    HW123444   6.623   6.702   2.473
 7515SOL    HW223445   6.521   6.693   2.600
 7516SOL     OW23446   1.014   1.041   3.794
 7516SOL    HW123447   0.930   1.049   3.740
 7516SOL    HW223448   1.006   0.963   3.857
 7517SOL     OW23449   0.305   4.034   0.795
 7517SOL    HW123450   0.388   4.008   0.746
 7517SOL    HW223451   0.235   4.063   0.729
 7518SOL     OW23452   4.360   5.539   4.117
 7518SOL    HW123453   4.374   5.440   4.113
 7518SOL    HW223454   4.323   5.564   4.207
 7519SOL     OW23455   1.606   6.223   4.570
 7519SOL    HW123456   1.568   6.306   4.610
 7519SOL    HW223457   1.586   6.220   4.472
 7520SOL     OW23458   1.534   6.707   3.702
 7520SOL    HW123459   1.525   6.700   3.603
 7520SOL    HW223460   1.613   6.655   3.732
 7521SOL     OW23461   4.843   4.074   4.809
 7521SOL    HW123462   4.870   3.998   4.750
 7521SOL    HW223463   4.782   4.135   4.758
 7522SOL     OW23464   2.230   1.167   0.857
 7522SOL    HW123465   2.299   1.225   0.900
 7522SOL    HW223466   2.176   1.221   0.792
 7523SOL     OW23467   5.837   0.421   6.159
 7523SOL    HW123468   5.906   0.363   6.116
 7523SOL    HW223469   5.749   0.373   6.161
 7524SOL     OW23470   0.455   2.042   5.446
 7524SOL    HW123471   0.511   2.112   5.401
 7524SOL    HW223472   0.482   2.034   5.542
 7525SOL     OW23473   1.550   0.739   0.118
 7525SOL    HW123474   1.592   0.828   0.101
 7525SOL    HW223475   1.609   0.668   0.078
 7526SOL     OW23476   3.593   2.931   4.400
 7526SOL    HW123477   3.686   2.956   4.430
 7526SOL    HW223478   3.595   2.908   4.303
 7527SOL     OW23479   5.058   4.078   2.767
 7527SOL    HW123480   5.140   4.062   2.823
 7527SOL    HW223481   4.991   4.006   2.787
 7528SOL     OW23482   4.915   2.583   0.254
 7528SOL    HW123483   4.925   2.558   0.350
 7528SOL    HW223484   4.820   2.608   0.236
 7529SOL     OW23485   3.722   0.926   5.235
 7529SOL    HW123486   3.628   0.904   5.211
 7529SOL    HW223487   3.724   0.970   5.325
 7530SOL     OW23488   0.106   4.215   2.169
 7530SOL    HW123489   0.157   4.172   2.244
 7530SOL    HW223490   0.051   4.146   2.122
 7531SOL     OW23491   4.169   1.949   3.857
 7531SOL    HW123492   4.259   1.978   3.889
 7531SOL    HW223493   4.114   2.029   3.835
 7532SOL     OW23494   5.284   5.697   2.409
 7532SOL    HW123495   5.224   5.710   2.330
 7532SOL    HW223496   5.305   5.786   2.450
 7533SOL     OW23497   3.395   1.381   4.786
 7533SOL    HW123498   3.382   1.324   4.705
 7533SOL    HW223499   3.390   1.478   4.760
 7534SOL     OW23500   4.194   6.373   5.056
 7534SOL    HW123501   4.194   6.290   5.111
 7534SOL    HW223502   4.240   6.355   4.969
 7535SOL     OW23503   2.851   2.575   6.063
 7535SOL    HW123504   2.930   2.572   6.001
 7535SOL    HW223505   2.879   2.546   6.154
 7536SOL     OW23506   4.072   5.436   4.739
 7536SOL    HW123507   4.033   5.385   4.816
 7536SOL    HW223508   4.041   5.395   4.653
 7537SOL     OW23509   2.609   4.902   5.631
 7537SOL    HW123510   2.636   4.841   5.705
 7537SOL    HW223511   2.667   4.886   5.551
 7538SOL     OW23512   2.976   3.505   3.271
 7538SOL    HW123513   2.960   3.595   3.232
 7538SOL    HW223514   2.926   3.436   3.219
 7539SOL     OW23515   2.042   2.889   5.206
 7539SOL    HW123516   2.079   2.862   5.117
 7539SOL    HW223517   2.105   2.953   5.250
 7540SOL     OW23518   2.943   1.636   7.003
 7540SOL    HW123519   2.935   1.674   6.910
 7540SOL    HW223520   3.020   1.680   0.024
 7541SOL     OW23521   6.097   1.911   5.119
 7541SOL    HW123522   6.119   1.913   5.021
 7541SOL    HW223523   6.074   1.818   5.147
 7542SOL     OW23524   1.330   6.839   5.668
 7542SOL    HW123525   1.359   6.892   5.589
 7542SOL    HW223526   1.410   6.810   5.720
 7543SOL     OW23527   3.831   3.523   0.621
 7543SOL    HW123528   3.787   3.477   0.698
 7543SOL    HW223529   3.908   3.578   0.654
 7544SOL     OW23530   1.946   2.527   3.214
 7544SOL    HW123531   1.932   2.583   3.296
 7544SOL    HW223532   2.021   2.565   3.161
 7545SOL     OW23533   5.198   6.629   3.925
 7545SOL    HW123534   5.290   6.656   3.898
 7545SOL    HW223535   5.185   6.531   3.909
 7546SOL     OW23536   4.878   0.556   0.030
 7546SOL    HW123537   4.919   0.647   0.038
 7546SOL    HW223538   4.938   0.497   7.002
 7547SOL     OW23539   3.749   0.330   0.340
 7547SOL    HW123540   3.667   0.312   0.395
 7547SOL    HW223541   3.725   0.335   0.244
 7548SOL     OW23542   2.710   2.268   1.491
 7548SOL    HW123543   2.779   2.286   1.421
 7548SOL    HW223544   2.740   2.305   1.578
 7549SOL     OW23545   5.366   2.191   2.753
 7549SOL    HW123546   5.346   2.205   2.656
 7549SOL    HW223547   5.280   2.183   2.803
 7550SOL     OW23548   2.039   6.159   2.751
 7550SOL    HW123549   1.998   6.102   2.679
 7550SOL    HW223550   2.025   6.115   2.840
 7551SOL     OW23551   4.815   3.141   6.675
 7551SOL    HW123552   4.771   3.051   6.680
 7551SOL    HW223553   4.805   3.187   6.763
 7552SOL     OW23554   2.663   5.451   4.278
 7552SOL    HW123555   2.576   5.418   4.241
 7552SOL    HW223556   2.666   5.551   4.273
 7553SOL     OW23557   3.853   5.698   5.840
 7553SOL    HW123558   3.757   5.680   5.861
 7553SOL    HW223559   3.865   5.703   5.740
 7554SOL     OW23560   5.440   1.599   0.256
 7554SOL    HW123561   5.468   1.521   0.312
 7554SOL    HW223562   5.488   1.681   0.287
 7555SOL     OW23563   0.142   6.310   5.126
 7555SOL    HW123564   0.191   6.226   5.150
 7555SOL    HW223565   0.079   6.291   5.051
 7556SOL     OW23566   0.444   2.803   4.291
 7556SOL    HW123567   0.441   2.856   4.206
 7556SOL    HW223568   0.537   2.804   4.327
 7557SOL     OW23569   5.304   4.185   5.930
 7557SOL    HW123570   5.361   4.255   5.974
 7557SOL    HW223571   5.272   4.121   6.000
 7558SOL     OW23572   1.856   3.647   3.200
 7558SOL    HW123573   1.879   3.605   3.112
 7558SOL    HW223574   1.852   3.575   3.270
 7559SOL     OW23575   0.419   4.781   1.069
 7559SOL    HW123576   0.445   4.836   1.148
 7559SOL    HW223577   0.355   4.709   1.099
 7560SOL     OW23578   5.523   6.760   0.809
 7560SOL    HW123579   5.474   6.723   0.888
 7560SOL    HW223580   5.457   6.792   0.740
 7561SOL     OW23581   6.425   3.484   0.457
 7561SOL    HW123582   6.511   3.460   0.502
 7561SOL    HW223583   6.428   3.454   0.362
 7562SOL     OW23584   5.014   6.445   5.120
 7562SOL    HW123585   5.090   6.505   5.146
 7562SOL    HW223586   5.050   6.357   5.088
 7563SOL     OW23587   3.044   0.687   2.268
 7563SOL    HW123588   3.000   0.674   2.179
 7563SOL    HW223589   2.976   0.678   2.340
 7564SOL     OW23590   4.824   0.073   3.051
 7564SOL    HW123591   4.873   0.133   3.114
 7564SOL    HW223592   4.742   0.119   3.018
 7565SOL     OW23593   4.566   5.155   6.894
 7565SOL    HW123594   4.542   5.083   6.829
 7565SOL    HW223595   4.657   5.191   6.872
 7566SOL     OW23596   0.760   5.862   4.624
 7566SOL    HW123597   0.704   5.779   4.631
 7566SOL    HW223598   0.848   5.839   4.582
 7567SOL     OW23599   2.776   4.864   6.583
 7567SOL    HW123600   2.734   4.928   6.518
 7567SOL    HW223601   2.869   4.842   6.553
 7568SOL     OW23602   5.176   5.439   3.215
 7568SOL    HW123603   5.260   5.417   3.264
 7568SOL    HW223604   5.186   5.531   3.174
 7569SOL     OW23605   3.978   5.597   0.031
 7569SOL    HW123606   3.901   5.624   0.089
 7569SOL    HW223607   3.946   5.584   6.962
 7570SOL     OW23608   5.557   5.355   3.942
 7570SOL    HW123609   5.579   5.452   3.946
 7570SOL    HW223610   5.536   5.322   4.034
 7571SOL     OW23611   5.803   3.855   1.479
 7571SOL    HW123612   5.728   3.791   1.492
 7571SOL    HW223613   5.833   3.853   1.383
 7572SOL     OW23614   3.591   0.796   4.349
 7572SOL    HW123615   3.551   0.876   4.395
 7572SOL    HW223616   3.518   0.746   4.302
 7573SOL     OW23617   0.256   6.238   4.378
 7573SOL    HW123618   0.220   6.232   4.286
 7573SOL    HW223619   0.353   6.263   4.374
 7574SOL     OW23620   5.397   6.937   3.274
 7574SOL    HW123621   5.406   6.954   3.372
 7574SOL    HW223622   5.313   6.885   3.256
 7575SOL     OW23623   3.875   1.352   5.412
 7575SOL    HW123624   3.811   1.425   5.434
 7575SOL    HW223625   3.963   1.392   5.384
 7576SOL     OW23626   6.397   3.388   0.215
 7576SOL    HW123627   6.452   3.381   0.131
 7576SOL    HW223628   6.301   3.374   0.193
 7577SOL     OW23629   6.378   1.025   4.639
 7577SOL    HW123630   6.436   1.039   4.719
 7577SOL    HW223631   6.428   0.974   4.569
 7578SOL     OW23632   2.066   5.386   4.954
 7578SOL    HW123633   2.157   5.424   4.972
 7578SOL    HW223634   2.006   5.405   5.032
 7579SOL     OW23635   3.544   1.613   2.662
 7579SOL    HW123636   3.486   1.667   2.723
 7579SOL    HW223637   3.535   1.516   2.685
 7580SOL     OW23638   1.856   4.186   2.531
 7580SOL    HW123639   1.781   4.175   2.595
 7580SOL    HW223640   1.933   4.230   2.577
 7581SOL     OW23641   5.031   1.703   0.879
 7581SOL    HW123642   5.052   1.612   0.914
 7581SOL    HW223643   5.095   1.769   0.919
 7582SOL     OW23644   3.502   1.395   1.156
 7582SOL    HW123645   3.550   1.455   1.220
 7582SOL    HW223646   3.569   1.340   1.106
 7583SOL     OW23647   5.747   3.134   1.890
 7583SOL    HW123648   5.786   3.225   1.876
 7583SOL    HW223649   5.793   3.089   1.965
 7584SOL     OW23650   2.759   6.674   1.662
 7584SOL    HW123651   2.672   6.627   1.678
 7584SOL    HW223652   2.763   6.706   1.567
 7585SOL     OW23653   1.433   4.901   6.671
 7585SOL    HW123654   1.487   4.867   6.594
 7585SOL    HW223655   1.493   4.926   6.747
 7586SOL     OW23656   2.916   0.466   2.645
 7586SOL    HW123657   2.894   0.370   2.628
 7586SOL    HW223658   3.016   0.478   2.643
 7587SOL     OW23659   1.174   1.640   6.408
 7587SOL    HW123660   1.090   1.694   6.408
 7587SOL    HW223661   1.248   1.694   6.367
 7588SOL     OW23662   0.216   4.935   3.183
 7588SOL    HW123663   0.309   4.924   3.218
 7588SOL    HW223664   0.209   4.891   3.093
 7589SOL     OW23665   5.925   6.012   0.578
 7589SOL    HW123666   5.881   6.007   0.668
 7589SOL    HW223667   5.897   6.097   0.532
 7590SOL     OW23668   2.630   1.576   5.836
 7590SOL    HW123669   2.613   1.540   5.928
 7590SOL    HW223670   2.547   1.567   5.781
 7591SOL     OW23671   6.751   4.905   6.749
 7591SOL    HW123672   6.803   4.991   6.747
 7591SOL    HW223673   6.750   4.864   6.658
 7592SOL     OW23674   6.512   5.131   6.738
 7592SOL    HW123675   6.471   5.212   6.780
 7592SOL    HW223676   6.597   5.155   6.693
 7593SOL     OW23677   4.848   2.067   6.895
 7593SOL    HW123678   4.865   2.114   6.982
 7593SOL    HW223679   4.775   2.000   6.907
 7594SOL     OW23680   0.864   6.017   4.005
 7594SOL    HW123681   0.860   6.046   3.909
 7594SOL    HW223682   0.951   5.972   4.022
 7595SOL     OW23683   6.970   3.080   6.381
 7595SOL    HW123684   0.014   3.149   6.362
 7595SOL    HW223685   6.904   3.078   6.305
 7596SOL     OW23686   5.416   4.597   1.716
 7596SOL    HW123687   5.399   4.598   1.618
 7596SOL    HW223688   5.331   4.615   1.765
 7597SOL     OW23689   3.838   5.184   1.621
 7597SOL    HW123690   3.851   5.154   1.527
 7597SOL    HW223691   3.759   5.245   1.627
 7598SOL     OW23692   6.927   0.069   3.009
 7598SOL    HW123693   6.870   0.073   2.926
 7598SOL    HW223694   6.887   0.005   3.074
 7599SOL     OW23695   6.438   2.005   3.648
 7599SOL    HW123696   6.434   2.092   3.698
 7599SOL    HW223697   6.448   2.024   3.550
 7600SOL     OW23698   1.606   0.845   2.137
 7600SOL    HW123699   1.650   0.917   2.191
 7600SOL    HW223700   1.594   0.764   2.193
 7601SOL     OW23701   1.608   6.227   4.288
 7601SOL    HW123702   1.705   6.219   4.311
 7601SOL    HW223703   1.599   6.242   4.190
 7602SOL     OW23704   1.468   4.171   4.709
 7602SOL    HW123705   1.531   4.244   4.685
 7602SOL    HW223706   1.520   4.089   4.734
 7603SOL     OW23707   1.150   5.939   0.841
 7603SOL    HW123708   1.178   6.021   0.791
 7603SOL    HW223709   1.201   5.935   0.928
 7604SOL     OW23710   4.070   6.158   4.651
 7604SOL    HW123711   4.083   6.104   4.734
 7604SOL    HW223712   4.050   6.253   4.676
 7605SOL     OW23713   0.282   4.459   7.020
 7605SOL    HW123714   0.368   4.439   0.041
 7605SOL    HW223715   0.206   4.445   0.058
 7606SOL     OW23716   6.769   2.730   2.488
 7606SOL    HW123717   6.765   2.818   2.439
 7606SOL    HW223718   6.829   2.740   2.568
 7607SOL     OW23719   4.990   0.152   6.448
 7607SOL    HW123720   4.906   0.172   6.399
 7607SOL    HW223721   4.988   0.057   6.481
 7608SOL     OW23722   2.906   3.316   4.089
 7608SOL    HW123723   2.990   3.267   4.067
 7608SOL    HW223724   2.843   3.312   4.011
 7609SOL     OW23725   0.775   3.746   3.661
 7609SOL    HW123726   0.790   3.834   3.706
 7609SOL    HW223727   0.742   3.762   3.568
 7610SOL     OW23728   5.264   0.165   0.925
 7610SOL    HW123729   5.252   0.071   0.958
 7610SOL    HW223730   5.316   0.217   0.993
 7611SOL     OW23731   1.275   1.906   6.927
 7611SOL    HW123732   1.322   1.861   6.852
 7611SOL    HW223733   1.285   2.005   6.918
 7612SOL     OW23734   3.812   1.916   4.279
 7612SOL    HW123735   3.900   1.877   4.252
 7612SOL    HW223736   3.774   1.970   4.203
 7613SOL     OW23737   4.975   0.987   1.632
 7613SOL    HW123738   5.005   1.005   1.538
 7613SOL    HW223739   4.876   0.971   1.632
 7614SOL     OW23740   3.799   1.835   1.363
 7614SOL    HW123741   3.744   1.917   1.347
 7614SOL    HW223742   3.739   1.760   1.392
 7615SOL     OW23743   3.810   5.484   6.406
 7615SOL    HW123744   3.782   5.447   6.317
 7615SOL    HW223745   3.732   5.483   6.468
 7616SOL     OW23746   6.649   4.110   3.419
 7616SOL    HW123747   6.562   4.112   3.469
 7616SOL    HW223748   6.657   4.024   3.369
 7617SOL     OW23749   3.202   5.118   3.517
 7617SOL    HW123750   3.282   5.178   3.523
 7617SOL    HW223751   3.123   5.164   3.560
 7618SOL     OW23752   1.648   2.150   6.693
 7618SOL    HW123753   1.648   2.235   6.639
 7618SOL    HW223754   1.734   2.144   6.744
 7619SOL     OW23755   6.132   3.439   5.333
 7619SOL    HW123756   6.040   3.450   5.369
 7619SOL    HW223757   6.139   3.351   5.287
 7620SOL     OW23758   4.275   0.036   0.632
 7620SOL    HW123759   4.191   0.073   0.672
 7620SOL    HW223760   4.260   6.968   0.602
 7621SOL     OW23761   1.967   1.081   0.928
 7621SOL    HW123762   1.946   1.124   1.016
 7621SOL    HW223763   2.059   1.106   0.899
 7622SOL     OW23764   4.083   3.243   1.057
 7622SOL    HW123765   4.044   3.219   0.969
 7622SOL    HW223766   4.120   3.162   1.101
 7623SOL     OW23767   4.394   6.332   5.963
 7623SOL    HW123768   4.482   6.321   6.010
 7623SOL    HW223769   4.375   6.429   5.950
 7624SOL     OW23770   0.913   1.468   3.117
 7624SOL    HW123771   0.922   1.471   3.216
 7624SOL    HW223772   0.832   1.521   3.090
 7625SOL     OW23773   5.248   0.587   1.174
 7625SOL    HW123774   5.222   0.627   1.086
 7625SOL    HW223775   5.173   0.598   1.239
 7626SOL     OW23776   1.335   6.447   4.607
 7626SOL    HW123777   1.356   6.355   4.641
 7626SOL    HW223778   1.377   6.459   4.517
 7627SOL     OW23779   6.867   2.897   0.961
 7627SOL    HW123780   6.922   2.879   1.042
 7627SOL    HW223781   6.877   2.993   0.935
 7628SOL     OW23782   3.128   1.494   1.162
 7628SOL    HW123783   3.187   1.574   1.151
 7628SOL    HW223784   3.086   1.471   1.074
 7629SOL     OW23785   6.771   5.898   2.702
 7629SOL    HW123786   6.842   5.868   2.764
 7629SOL    HW223787   6.685   5.908   2.752
 7630SOL     OW23788   6.797   0.192   2.215
 7630SOL    HW123789   6.824   0.262   2.282
 7630SOL    HW223790   6.748   0.235   2.140
 7631SOL     OW23791   0.763   1.585   4.498
 7631SOL    HW123792   0.811   1.616   4.580
 7631SOL    HW223793   0.666   1.575   4.518
 7632SOL     OW23794   4.514   2.242   1.222
 7632SOL    HW123795   4.440   2.278   1.279
 7632SOL    HW223796   4.480   2.167   1.165
 7633SOL     OW23797   5.302   3.171   6.597
 7633SOL    HW123798   5.256   3.125   6.673
 7633SOL    HW223799   5.319   3.267   6.622
 7634SOL     OW23800   2.090   0.641   2.381
 7634SOL    HW123801   2.106   0.710   2.310
 7634SOL    HW223802   2.126   0.675   2.469
 7635SOL     OW23803   2.531   5.522   6.164
 7635SOL    HW123804   2.435   5.502   6.140
 7635SOL    HW223805   2.580   5.436   6.177
 7636SOL     OW23806   1.211   0.880   4.234
 7636SOL    HW123807   1.220   0.844   4.141
 7636SOL    HW223808   1.244   0.975   4.236
 7637SOL     OW23809   1.175   6.900   4.170
 7637SOL    HW123810   1.239   6.845   4.115
 7637SOL    HW223811   1.147   6.847   4.250
 7638SOL     OW23812   5.258   5.758   1.890
 7638SOL    HW123813   5.357   5.768   1.887
 7638SOL    HW223814   5.230   5.684   1.829
 7639SOL     OW23815   0.909   1.559   5.425
 7639SOL    HW123816   0.894   1.465   5.457
 7639SOL    HW223817   0.821   1.598   5.398
 7640SOL     OW23818   2.626   2.108   1.085
 7640SOL    HW123819   2.604   2.011   1.074
 7640SOL    HW223820   2.708   2.117   1.142
 7641SOL     OW23821   6.095   3.972   2.259
 7641SOL    HW123822   6.128   3.954   2.352
 7641SOL    HW223823   6.013   3.918   2.242
 7642SOL     OW23824   2.368   1.833   2.463
 7642SOL    HW123825   2.404   1.889   2.388
 7642SOL    HW223826   2.444   1.796   2.516
 7643SOL     OW23827   4.569   2.522   2.690
 7643SOL    HW123828   4.616   2.434   2.684
 7643SOL    HW223829   4.583   2.573   2.606
 7644SOL     OW23830   0.305   2.936   3.263
 7644SOL    HW123831   0.394   2.912   3.303
 7644SOL    HW223832   0.232   2.907   3.325
 7645SOL     OW23833   4.882   4.611   6.927
 7645SOL    HW123834   4.861   4.515   6.908
 7645SOL    HW223835   4.822   4.669   6.873
 7646SOL     OW23836   2.226   2.086   2.215
 7646SOL    HW123837   2.223   2.151   2.139
 7646SOL    HW223838   2.135   2.050   2.232
 7647SOL     OW23839   1.913   3.904   1.430
 7647SOL    HW123840   1.915   3.808   1.400
 7647SOL    HW223841   1.840   3.917   1.497
 7648SOL     OW23842   4.400   1.618   3.850
 7648SOL    HW123843   4.465   1.552   3.885
 7648SOL    HW223844   4.346   1.655   3.925
 7649SOL     OW23845   2.526   0.624   2.225
 7649SOL    HW123846   2.486   0.712   2.252
 7649SOL    HW223847   2.605   0.641   2.166
 7650SOL     OW23848   6.765   3.761   1.972
 7650SOL    HW123849   6.778   3.791   2.066
 7650SOL    HW223850   6.733   3.837   1.916
 7651SOL     OW23851   3.403   0.092   6.633
 7651SOL    HW123852   3.394   0.032   6.712
 7651SOL    HW223853   3.363   0.049   6.553
 7652SOL     OW23854   0.005   3.766   3.394
 7652SOL    HW123855   7.005   3.792   3.487
 7652SOL    HW223856   0.057   3.680   3.395
 7653SOL     OW23857   2.707   1.583   1.470
 7653SOL    HW123858   2.733   1.536   1.386
 7653SOL    HW223859   2.780   1.573   1.538
 7654SOL     OW23860   5.154   3.094   3.983
 7654SOL    HW123861   5.164   3.045   4.070
 7654SOL    HW223862   5.165   3.029   3.907
 7655SOL     OW23863   3.098   6.775   4.745
 7655SOL    HW123864   3.176   6.777   4.807
 7655SOL    HW223865   3.041   6.695   4.765
 7656SOL     OW23866   0.015   6.147   4.956
 7656SOL    HW123867   6.980   6.153   4.877
 7656SOL    HW223868   0.097   6.096   4.931
 7657SOL     OW23869   3.049   1.941   3.538
 7657SOL    HW123870   3.129   1.947   3.478
 7657SOL    HW223871   3.079   1.941   3.633
 7658SOL     OW23872   4.441   0.766   5.830
 7658SOL    HW123873   4.397   0.684   5.795
 7658SOL    HW223874   4.372   0.827   5.868
 7659SOL     OW23875   6.245   6.553   0.564
 7659SOL    HW123876   6.333   6.599   0.572
 7659SOL    HW223877   6.184   6.584   0.636
 7660SOL     OW23878   5.538   5.680   2.659
 7660SOL    HW123879   5.481   5.702   2.739
 7660SOL    HW223880   5.527   5.583   2.636
 7661SOL     OW23881   6.417   2.914   3.717
 7661SOL    HW123882   6.381   2.835   3.766
 7661SOL    HW223883   6.360   2.933   3.637
 7662SOL     OW23884   1.228   3.470   2.188
 7662SOL    HW123885   1.266   3.550   2.143
 7662SOL    HW223886   1.279   3.451   2.272
 7663SOL     OW23887   0.915   4.945   6.313
 7663SOL    HW123888   0.921   4.995   6.400
 7663SOL    HW223889   0.916   4.846   6.331
 7664SOL     OW23890   2.482   6.456   3.602
 7664SOL    HW123891   2.522   6.548   3.596
 7664SOL    HW223892   2.390   6.462   3.640
 7665SOL     OW23893   2.780   0.907   4.312
 7665SOL    HW123894   2.738   0.974   4.373
 7665SOL    HW223895   2.714   0.879   4.242
 7666SOL     OW23896   1.148   0.019   1.279
 7666SOL    HW123897   1.107   0.009   1.369
 7666SOL    HW223898   1.239   7.003   1.279
 7667SOL     OW23899   4.969   6.803   6.932
 7667SOL    HW123900   4.902   6.877   6.941
 7667SOL    HW223901   4.991   6.767   7.023
 7668SOL     OW23902   3.889   4.255   1.136
 7668SOL    HW123903   3.940   4.255   1.050
 7668SOL    HW223904   3.838   4.170   1.145
 7669SOL     OW23905   4.484   0.051   3.841
 7669SOL    HW123906   4.497   0.142   3.801
 7669SOL    HW223907   4.564   0.026   3.894
 7670SOL     OW23908   1.268   5.722   0.317
 7670SOL    HW123909   1.312   5.794   0.371
 7670SOL    HW223910   1.215   5.663   0.378
 7671SOL     OW23911   5.731   1.766   4.538
 7671SOL    HW123912   5.829   1.766   4.556
 7671SOL    HW223913   5.698   1.673   4.526
 7672SOL     OW23914   5.424   0.542   3.783
 7672SOL    HW123915   5.484   0.622   3.786
 7672SOL    HW223916   5.431   0.491   3.868
 7673SOL     OW23917   0.619   5.052   0.930
 7673SOL    HW123918   0.660   5.000   1.004
 7673SOL    HW223919   0.659   5.144   0.927
 7674SOL     OW23920   6.784   1.909   4.517
 7674SOL    HW123921   6.829   1.859   4.592
 7674SOL    HW223922   6.772   2.005   4.543
 7675SOL     OW23923   4.730   0.145   2.093
 7675SOL    HW123924   4.767   0.235   2.114
 7675SOL    HW223925   4.802   0.076   2.102
 7676SOL     OW23926   1.253   0.784   6.575
 7676SOL    HW123927   1.170   0.833   6.601
 7676SOL    HW223928   1.326   0.805   6.640
 7677SOL     OW23929   2.000   3.575   2.502
 7677SOL    HW123930   2.071   3.532   2.447
 7677SOL    HW223931   1.933   3.506   2.531
 7678SOL     OW23932   0.591   0.693   0.652
 7678SOL    HW123933   0.606   0.792   0.650
 7678SOL    HW223934   0.678   0.646   0.665
 7679SOL     OW23935   0.845   5.559   4.814
 7679SOL    HW123936   0.825   5.612   4.896
 7679SOL    HW223937   0.941   5.570   4.789
 7680SOL     OW23938   3.318   3.661   7.015
 7680SOL    HW123939   3.314   3.675   0.088
 7680SOL    HW223940   3.413   3.654   6.986
 7681SOL     OW23941   2.773   1.811   0.085
 7681SOL    HW123942   2.840   1.750   0.041
 7681SOL    HW223943   2.771   1.898   0.037
 7682SOL     OW23944   3.345   0.072   1.501
 7682SOL    HW123945   3.314   0.167   1.510
 7682SOL    HW223946   3.343   0.028   1.590
 7683SOL     OW23947   6.084   1.826   2.953
 7683SOL    HW123948   6.105   1.924   2.943
 7683SOL    HW223949   6.100   1.780   2.866
 7684SOL     OW23950   4.806   1.853   6.006
 7684SOL    HW123951   4.707   1.845   5.993
 7684SOL    HW223952   4.854   1.802   5.935
 7685SOL     OW23953   3.643   2.846   0.776
 7685SOL    HW123954   3.575   2.919   0.771
 7685SOL    HW223955   3.659   2.808   0.685
 7686SOL     OW23956   4.570   6.704   3.760
 7686SOL    HW123957   4.666   6.725   3.780
 7686SOL    HW223958   4.522   6.684   3.846
 7687SOL     OW23959   5.195   5.344   5.607
 7687SOL    HW123960   5.153   5.434   5.620
 7687SOL    HW223961   5.194   5.320   5.510
 7688SOL     OW23962   6.585   6.516   5.299
 7688SOL    HW123963   6.672   6.478   5.330
 7688SOL    HW223964   6.567   6.487   5.205
 7689SOL     OW23965   4.453   6.538   4.519
 7689SOL    HW123966   4.545   6.523   4.555
 7689SOL    HW223967   4.434   6.636   4.517
 7690SOL     OW23968   5.564   4.453   3.219
 7690SOL    HW123969   5.545   4.551   3.211
 7690SOL    HW223970   5.509   4.403   3.152
 7691SOL     OW23971   5.067   2.581   4.024
 7691SOL    HW123972   5.030   2.493   4.055
 7691SOL    HW223973   4.992   2.640   3.993
 7692SOL     OW23974   1.719   6.212   2.002
 7692SOL    HW123975   1.659   6.262   2.065
 7692SOL    HW223976   1.806   6.260   1.994
 7693SOL     OW23977   3.826   1.235   5.946
 7693SOL    HW123978   3.855   1.239   5.851
 7693SOL    HW223979   3.860   1.316   5.994
 7694SOL     OW23980   6.626   4.682   4.266
 7694SOL    HW123981   6.570   4.601   4.286
 7694SOL    HW223982   6.616   4.748   4.340
 7695SOL     OW23983   4.568   6.967   0.943
 7695SOL    HW123984   4.491   6.905   0.935
 7695SOL    HW223985   4.535   0.035   0.959
 7696SOL     OW23986   0.210   2.196   4.612
 7696SOL    HW123987   0.143   2.143   4.561
 7696SOL    HW223988   0.217   2.288   4.572
 7697SOL     OW23989   2.140   1.511   3.346
 7697SOL    HW123990   2.237   1.521   3.371
 7697SOL    HW223991   2.087   1.585   3.387
 7698SOL     OW23992   6.928   2.789   4.712
 7698SOL    HW123993   6.999   2.853   4.738
 7698SOL    HW223994   6.944   2.757   4.619
 7699SOL     OW23995   2.699   5.909   1.007
 7699SOL    HW123996   2.705   5.809   1.005
 7699SOL    HW223997   2.780   5.948   0.963
 7700SOL     OW23998   4.675   6.654   4.967
 7700SOL    HW123999   4.753   6.710   4.995
 7700SOL    HW224000   4.692   6.616   4.876
 7701SOL     OW24001   0.304   1.222   5.064
 7701SOL    HW124002   0.338   1.194   5.153
 7701SOL    HW224003   0.211   1.259   5.073
 7702SOL     OW24004   3.190   5.944   5.672
 7702SOL    HW124005   3.121   5.930   5.743
 7702SOL    HW224006   3.256   6.012   5.702
 7703SOL     OW24007   0.351   1.351   5.573
 7703SOL    HW124008   0.290   1.338   5.494
 7703SOL    HW224009   0.398   1.439   5.565
 7704SOL     OW24010   4.585   4.281   6.553
 7704SOL    HW124011   4.567   4.251   6.647
 7704SOL    HW224012   4.581   4.381   6.549
 7705SOL     OW24013   3.705   5.313   5.290
 7705SOL    HW124014   3.713   5.253   5.210
 7705SOL    HW224015   3.767   5.391   5.278
 7706SOL     OW24016   6.161   0.478   5.251
 7706SOL    HW124017   6.255   0.506   5.273
 7706SOL    HW224018   6.104   0.483   5.333
 7707SOL     OW24019   6.654   5.581   6.266
 7707SOL    HW124020   6.638   5.489   6.302
 7707SOL    HW224021   6.645   5.579   6.166
 7708SOL     OW24022   4.811   6.601   4.084
 7708SOL    HW124023   4.712   6.606   4.087
 7708SOL    HW224024   4.840   6.507   4.065
 7709SOL     OW24025   4.863   2.466   1.656
 7709SOL    HW124026   4.809   2.539   1.699
 7709SOL    HW224027   4.948   2.506   1.620
 7710SOL     OW24028   3.061   0.103   0.602
 7710SOL    HW124029   2.996   0.120   0.529
 7710SOL    HW224030   3.016   0.114   0.691
 7711SOL     OW24031   5.457   6.322   5.620
 7711SOL    HW124032   5.424   6.413   5.594
 7711SOL    HW224033   5.383   6.256   5.612
 7712SOL     OW24034   6.014   5.011   0.978
 7712SOL    HW124035   6.007   4.986   0.882
 7712SOL    HW224036   6.106   4.989   1.011
 7713SOL     OW24037   1.682   4.169   6.666
 7713SOL    HW124038   1.644   4.115   6.591
 7713SOL    HW224039   1.622   4.247   6.685
 7714SOL     OW24040   5.955   4.198   3.946
 7714SOL    HW124041   5.997   4.267   3.887
 7714SOL    HW224042   5.965   4.108   3.904
 7715SOL     OW24043   5.152   0.198   1.454
 7715SOL    HW124044   5.065   0.184   1.408
 7715SOL    HW224045   5.212   0.253   1.396
 7716SOL     OW24046   4.712   2.303   2.678
 7716SOL    HW124047   4.734   2.277   2.584
 7716SOL    HW224048   4.793   2.339   2.723
 7717SOL     OW24049   2.844   1.460   5.386
 7717SOL    HW124050   2.927   1.489   5.434
 7717SOL    HW224051   2.823   1.526   5.313
 7718SOL     OW24052   2.634   1.003   3.444
 7718SOL    HW124053   2.679   0.915   3.430
 7718SOL    HW224054   2.676   1.072   3.386
 7719SOL     OW24055   0.068   2.220   4.238
 7719SOL    HW124056   0.002   2.186   4.171
 7719SOL    HW224057   0.055   2.319   4.251
 7720SOL     OW24058   6.350   6.281   1.039
 7720SOL    HW124059   6.413   6.220   0.991
 7720SOL    HW224060   6.386   6.375   1.036
 7721SOL     OW24061   2.410   4.299   3.517
 7721SOL    HW124062   2.420   4.347   3.430
 7721SOL    HW224063   2.337   4.230   3.509
 7722SOL     OW24064   6.197   4.573   3.614
 7722SOL    HW124065   6.294   4.555   3.599
 7722SOL    HW224066   6.175   4.557   3.710
 7723SOL     OW24067   7.019   2.917   0.609
 7723SOL    HW124068   0.053   2.994   0.629
 7723SOL    HW224069   0.042   2.832   0.629
 7724SOL     OW24070   1.084   4.625   1.048
 7724SOL    HW124071   1.035   4.538   1.054
 7724SOL    HW224072   1.137   4.627   0.963
 7725SOL     OW24073   6.041   2.713   3.396
 7725SOL    HW124074   6.000   2.803   3.384
 7725SOL    HW224075   6.128   2.710   3.348
 7726SOL     OW24076   0.797   4.163   2.838
 7726SOL    HW124077   0.707   4.192   2.872
 7726SOL    HW224078   0.784   4.096   2.765
 7727SOL     OW24079   6.517   2.802   3.399
 7727SOL    HW124080   6.544   2.804   3.496
 7727SOL    HW224081   6.544   2.889   3.356
 7728SOL     OW24082   1.796   3.155   2.800
 7728SOL    HW124083   1.730   3.204   2.857
 7728SOL    HW224084   1.840   3.084   2.854
 7729SOL     OW24085   5.180   2.403   1.188
 7729SOL    HW124086   5.231   2.470   1.133
 7729SOL    HW224087   5.199   2.419   1.285
 7730SOL     OW24088   4.792   6.684   2.819
 7730SOL    HW124089   4.844   6.768   2.833
 7730SOL    HW224090   4.768   6.674   2.723
 7731SOL     OW24091   6.084   1.495   0.054
 7731SOL    HW124092   6.164   1.554   0.043
 7731SOL    HW224093   6.089   1.447   0.142
 7732SOL     OW24094   4.433   5.984   0.258
 7732SOL    HW124095   4.442   5.910   0.192
 7732SOL    HW224096   4.439   5.947   0.351
 7733SOL     OW24097   3.580   0.587   1.564
 7733SOL    HW124098   3.535   0.612   1.478
 7733SOL    HW224099   3.544   0.644   1.638
 7734SOL     OW24100   1.211   2.550   3.944
 7734SOL    HW124101   1.136   2.616   3.936
 7734SOL    HW224102   1.258   2.564   4.031
 7735SOL     OW24103   5.348   4.362   6.573
 7735SOL    HW124104   5.384   4.442   6.621
 7735SOL    HW224105   5.300   4.303   6.637
 7736SOL     OW24106   5.585   4.168   6.980
 7736SOL    HW124107   5.595   4.132   0.047
 7736SOL    HW224108   5.491   4.200   6.967
 7737SOL     OW24109   4.620   1.912   0.577
 7737SOL    HW124110   4.573   1.918   0.665
 7737SOL    HW224111   4.553   1.923   0.503
 7738SOL     OW24112   2.946   5.765   0.564
 7738SOL    HW124113   2.935   5.820   0.481
 7738SOL    HW224114   2.859   5.762   0.613
 7739SOL     OW24115   0.710   2.433   1.293
 7739SOL    HW124116   0.756   2.522   1.283
 7739SOL    HW224117   0.634   2.443   1.357
 7740SOL     OW24118   0.439   6.907   2.516
 7740SOL    HW124119   0.377   6.907   2.594
 7740SOL    HW224120   0.529   6.874   2.546
 7741SOL     OW24121   1.691   5.928   3.950
 7741SOL    HW124122   1.745   5.934   3.866
 7741SOL    HW224123   1.751   5.909   4.028
 7742SOL     OW24124   6.226   2.036   3.226
 7742SOL    HW124125   6.193   2.008   3.316
 7742SOL    HW224126   6.270   1.959   3.181
 7743SOL     OW24127   4.648   2.493   4.795
 7743SOL    HW124128   4.569   2.534   4.751
 7743SOL    HW224129   4.704   2.446   4.727
 7744SOL     OW24130   6.495   0.134   3.719
 7744SOL    HW124131   6.483   0.131   3.620
 7744SOL    HW224132   6.492   0.040   3.755
 7745SOL     OW24133   3.454   2.699   6.050
 7745SOL    HW124134   3.519   2.725   6.121
 7745SOL    HW224135   3.472   2.751   5.967
 7746SOL     OW24136   1.953   0.547   0.052
 7746SOL    HW124137   2.027   0.612   0.069
 7746SOL    HW224138   1.921   0.510   0.140
 7747SOL     OW24139   5.228   6.027   1.097
 7747SOL    HW124140   5.140   6.072   1.109
 7747SOL    HW224141   5.269   6.056   1.011
 7748SOL     OW24142   2.532   4.302   6.265
 7748SOL    HW124143   2.443   4.281   6.305
 7748SOL    HW224144   2.520   4.347   6.177
 7749SOL     OW24145   5.396   3.009   5.382
 7749SOL    HW124146   5.460   3.018   5.458
 7749SOL    HW224147   5.314   3.062   5.401
 7750SOL     OW24148   0.202   5.802   1.793
 7750SOL    HW124149   0.193   5.868   1.718
 7750SOL    HW224150   0.169   5.713   1.761
 7751SOL     OW24151   0.634   2.601   1.988
 7751SOL    HW124152   0.611   2.592   1.891
 7751SOL    HW224153   0.590   2.682   2.026
 7752SOL     OW24154   4.508   1.247   4.340
 7752SOL    HW124155   4.566   1.282   4.267
 7752SOL    HW224156   4.554   1.172   4.387
 7753SOL     OW24157   2.470   1.421   5.414
 7753SOL    HW124158   2.552   1.471   5.387
 7753SOL    HW224159   2.394   1.448   5.355
 7754SOL     OW24160   4.218   6.183   2.118
 7754SOL    HW124161   4.208   6.095   2.071
 7754SOL    HW224162   4.269   6.246   2.059
 7755SOL     OW24163   1.424   4.349   5.825
 7755SOL    HW124164   1.383   4.406   5.896
 7755SOL    HW224165   1.523   4.358   5.827
 7756SOL     OW24166   3.215   6.065   1.554
 7756SOL    HW124167   3.247   6.018   1.472
 7756SOL    HW224168   3.290   6.072   1.620
 7757SOL     OW24169   0.100   4.520   2.901
 7757SOL    HW124170   0.188   4.542   2.943
 7757SOL    HW224171   0.105   4.539   2.803
 7758SOL     OW24172   1.665   0.685   5.493
 7758SOL    HW124173   1.596   0.758   5.497
 7758SOL    HW224174   1.728   0.703   5.418
 7759SOL     OW24175   3.244   2.075   6.573
 7759SOL    HW124176   3.185   2.049   6.649
 7759SOL    HW224177   3.311   2.002   6.557
 7760SOL     OW24178   4.665   3.201   1.284
 7760SOL    HW124179   4.707   3.112   1.305
 7760SOL    HW224180   4.667   3.259   1.365
 7761SOL     OW24181   4.505   5.758   4.368
 7761SOL    HW124182   4.435   5.822   4.399
 7761SOL    HW224183   4.492   5.670   4.412
 7762SOL     OW24184   6.459   0.539   2.863
 7762SOL    HW124185   6.546   0.574   2.896
 7762SOL    HW224186   6.417   0.605   2.801
 7763SOL     OW24187   2.654   6.884   4.838
 7763SOL    HW124188   2.610   6.879   4.748
 7763SOL    HW224189   2.649   6.794   4.882
 7764SOL     OW24190   3.035   4.047   5.565
 7764SOL    HW124191   3.074   4.031   5.656
 7764SOL    HW224192   3.089   3.999   5.497
 7765SOL     OW24193   6.887   3.089   4.529
 7765SOL    HW124194   6.938   3.084   4.615
 7765SOL    HW224195   6.925   3.024   4.464
 7766SOL     OW24196   6.716   4.082   6.706
 7766SOL    HW124197   6.726   4.005   6.644
 7766SOL    HW224198   6.622   4.115   6.703
 7767SOL     OW24199   2.620   0.927   3.038
 7767SOL    HW124200   2.701   0.948   3.092
 7767SOL    HW224201   2.580   1.013   3.004
 7768SOL     OW24202   4.674   5.283   3.001
 7768SOL    HW124203   4.683   5.200   2.945
 7768SOL    HW224204   4.587   5.328   2.979
 7769SOL     OW24205   3.348   2.513   5.333
 7769SOL    HW124206   3.285   2.460   5.276
 7769SOL    HW224207   3.320   2.609   5.334
 7770SOL     OW24208   2.207   3.202   4.632
 7770SOL    HW124209   2.138   3.136   4.604
 7770SOL    HW224210   2.162   3.286   4.663
 7771SOL     OW24211   2.647   2.143   6.462
 7771SOL    HW124212   2.717   2.088   6.416
 7771SOL    HW224213   2.634   2.229   6.413
 7772SOL     OW24214   5.066   0.153   1.924
 7772SOL    HW124215   5.137   0.101   1.973
 7772SOL    HW224216   5.095   0.248   1.914
 7773SOL     OW24217   3.585   6.076   0.168
 7773SOL    HW124218   3.671   6.086   0.218
 7773SOL    HW224219   3.509   6.085   0.232
 7774SOL     OW24220   4.584   1.802   2.737
 7774SOL    HW124221   4.498   1.835   2.776
 7774SOL    HW224222   4.573   1.788   2.639
 7775SOL     OW24223   3.306   0.456   6.896
 7775SOL    HW124224   3.369   0.485   6.824
 7775SOL    HW224225   3.336   0.494   6.984
 7776SOL     OW24226   1.767   1.213   4.784
 7776SOL    HW124227   1.685   1.255   4.743
 7776SOL    HW224228   1.844   1.277   4.775
 7777SOL     OW24229   4.858   5.209   3.534
 7777SOL    HW124230   4.911   5.277   3.485
 7777SOL    HW224231   4.761   5.217   3.509
 7778SOL     OW24232   5.749   4.867   2.999
 7778SOL    HW124233   5.665   4.812   2.991
 7778SOL    HW224234   5.802   4.836   3.077
 7779SOL     OW24235   3.606   5.800   2.351
 7779SOL    HW124236   3.532   5.867   2.346
 7779SOL    HW224237   3.686   5.842   2.395
 7780SOL     OW24238   5.684   5.836   4.881
 7780SOL    HW124239   5.687   5.799   4.974
 7780SOL    HW224240   5.646   5.768   4.819
 7781SOL     OW24241   1.943   2.581   0.715
 7781SOL    HW124242   1.990   2.515   0.656
 7781SOL    HW224243   1.953   2.553   0.811
 7782SOL     OW24244   5.556   4.033   3.609
 7782SOL    HW124245   5.540   3.955   3.549
 7782SOL    HW224246   5.607   4.104   3.560
 7783SOL     OW24247   1.087   0.510   5.392
 7783SOL    HW124248   1.015   0.553   5.338
 7783SOL    HW224249   1.049   0.436   5.447
 7784SOL     OW24250   2.252   3.001   2.927
 7784SOL    HW124251   2.333   2.953   2.960
 7784SOL    HW224252   2.219   2.958   2.843
 7785SOL     OW24253   0.540   6.485   2.736
 7785SOL    HW124254   0.491   6.448   2.657
 7785SOL    HW224255   0.633   6.449   2.737
 7786SOL     OW24256   4.626   0.104   5.953
 7786SOL    HW124257   4.607   0.202   5.958
 7786SOL    HW224258   4.616   0.073   5.858
 7787SOL     OW24259   2.531   2.590   1.517
 7787SOL    HW124260   2.459   2.522   1.532
 7787SOL    HW224261   2.603   2.551   1.460
 7788SOL     OW24262   0.052   4.300   1.622
 7788SOL    HW124263   0.055   4.390   1.577
 7788SOL    HW224264   0.126   4.294   1.689
 7789SOL     OW24265   3.718   1.361   6.245
 7789SOL    HW124266   3.627   1.350   6.204
 7789SOL    HW224267   3.736   1.285   6.308
 7790SOL     OW24268   5.126   4.676   1.744
 7790SOL    HW124269   5.077   4.632   1.668
 7790SOL    HW224270   5.145   4.771   1.720
 7791SOL     OW24271   2.740   4.891   2.577
 7791SOL    HW124272   2.818   4.907   2.637
 7791SOL    HW224273   2.670   4.839   2.627
 7792SOL     OW24274   1.195   1.726   2.301
 7792SOL    HW124275   1.281   1.745   2.253
 7792SOL    HW224276   1.119   1.751   2.242
 7793SOL     OW24277   4.638   0.673   6.030
 7793SOL    HW124278   4.545   0.704   6.011
 7793SOL    HW224279   4.635   0.587   6.080
 7794SOL     OW24280   0.502   6.696   3.277
 7794SOL    HW124281   0.521   6.707   3.375
 7794SOL    HW224282   0.578   6.735   3.224
 7795SOL     OW24283   3.425   5.850   6.462
 7795SOL    HW124284   3.372   5.837   6.546
 7795SOL    HW224285   3.376   5.811   6.385
 7796SOL     OW24286   3.977   3.411   6.304
 7796SOL    HW124287   3.967   3.329   6.248
 7796SOL    HW224288   3.899   3.418   6.367
 7797SOL     OW24289   1.281   6.471   2.883
 7797SOL    HW124290   1.278   6.569   2.861
 7797SOL    HW224291   1.219   6.453   2.959
 7798SOL     OW24292   1.179   3.130   0.547
 7798SOL    HW124293   1.124   3.203   0.586
 7798SOL    HW224294   1.214   3.071   0.620
 7799SOL     OW24295   2.336   5.815   3.708
 7799SOL    HW124296   2.418   5.769   3.675
 7799SOL    HW224297   2.350   5.914   3.709
 7800SOL     OW24298   0.335   6.534   1.660
 7800SOL    HW124299   0.329   6.456   1.722
 7800SOL    HW224300   0.275   6.607   1.694
 7801SOL     OW24301   1.835   2.367   2.465
 7801SOL    HW124302   1.900   2.431   2.504
 7801SOL    HW224303   1.800   2.404   2.378
 7802SOL     OW24304   0.299   3.766   4.442
 7802SOL    HW124305   0.307   3.865   4.439
 7802SOL    HW224306   0.388   3.725   4.422
 7803SOL     OW24307   4.242   2.571   5.634
 7803SOL    HW124308   4.235   2.475   5.606
 7803SOL    HW224309   4.150   2.611   5.638
 7804SOL     OW24310   3.075   1.815   5.374
 7804SOL    HW124311   3.026   1.895   5.407
 7804SOL    HW224312   3.157   1.844   5.325
 7805SOL     OW24313   5.918   2.873   0.395
 7805SOL    HW124314   5.923   2.775   0.416
 7805SOL    HW224315   5.823   2.899   0.380
 7806SOL     OW24316   0.038   2.564   5.622
 7806SOL    HW124317   0.023   2.466   5.628
 7806SOL    HW224318   0.116   2.590   5.679
 7807SOL     OW24319   2.738   4.735   6.189
 7807SOL    HW124320   2.757   4.642   6.220
 7807SOL    HW224321   2.650   4.737   6.141
 7808SOL     OW24322   4.880   3.432   3.244
 7808SOL    HW124323   4.831   3.508   3.201
 7808SOL    HW224324   4.814   3.373   3.290
 7809SOL     OW24325   4.422   5.016   3.388
 7809SOL    HW124326   4.342   5.074   3.401
 7809SOL    HW224327   4.435   4.958   3.469
 7810SOL     OW24328   3.533   6.691   5.334
 7810SOL    HW124329   3.489   6.779   5.316
 7810SOL    HW224330   3.611   6.679   5.272
 7811SOL     OW24331   1.504   5.631   3.292
 7811SOL    HW124332   1.416   5.610   3.249
 7811SOL    HW224333   1.519   5.730   3.289
 7812SOL     OW24334   3.070   1.862   6.512
 7812SOL    HW124335   3.110   1.771   6.516
 7812SOL    HW224336   3.138   1.930   6.538
 7813SOL     OW24337   5.494   0.778   0.792
 7813SOL    HW124338   5.509   0.874   0.814
 7813SOL    HW224339   5.560   0.749   0.723
 7814SOL     OW24340   6.863   3.291   1.969
 7814SOL    HW124341   6.872   3.294   2.069
 7814SOL    HW224342   6.772   3.323   1.943
 7815SOL     OW24343   5.686   3.593   5.178
 7815SOL    HW124344   5.717   3.678   5.134
 7815SOL    HW224345   5.637   3.537   5.112
 7816SOL     OW24346   0.745   1.205   5.127
 7816SOL    HW124347   0.742   1.111   5.094
 7816SOL    HW224348   0.826   1.218   5.183
 7817SOL     OW24349   3.193   3.156   6.353
 7817SOL    HW124350   3.210   3.208   6.436
 7817SOL    HW224351   3.094   3.143   6.341
 7818SOL     OW24352   5.600   1.173   2.237
 7818SOL    HW124353   5.546   1.097   2.274
 7818SOL    HW224354   5.698   1.155   2.252
 7819SOL     OW24355   1.202   3.948   3.499
 7819SOL    HW124356   1.226   4.029   3.552
 7819SOL    HW224357   1.257   3.945   3.416
 7820SOL     OW24358   1.878   6.888   6.281
 7820SOL    HW124359   1.898   6.794   6.253
 7820SOL    HW224360   1.932   6.951   6.225
 7821SOL     OW24361   5.509   5.586   6.636
 7821SOL    HW124362   5.584   5.529   6.669
 7821SOL    HW224363   5.541   5.642   6.559
 7822SOL     OW24364   1.519   1.249   4.674
 7822SOL    HW124365   1.480   1.317   4.612
 7822SOL    HW224366   1.445   1.201   4.722
 7823SOL     OW24367   1.409   3.577   6.163
 7823SOL    HW124368   1.430   3.484   6.192
 7823SOL    HW224369   1.380   3.631   6.243
 7824SOL     OW24370   5.355   2.542   3.155
 7824SOL    HW124371   5.349   2.572   3.250
 7824SOL    HW224372   5.359   2.622   3.095
 7825SOL     OW24373   3.382   3.502   2.490
 7825SOL    HW124374   3.334   3.415   2.476
 7825SOL    HW224375   3.316   3.573   2.515
 7826SOL     OW24376   6.756   0.598   0.627
 7826SOL    HW124377   6.780   0.501   0.617
 7826SOL    HW224378   6.661   0.605   0.656
 7827SOL     OW24379   5.557   5.024   1.712
 7827SOL    HW124380   5.539   5.082   1.633
 7827SOL    HW224381   5.650   5.040   1.745
 7828SOL     OW24382   0.734   6.673   0.678
 7828SOL    HW124383   0.752   6.652   0.582
 7828SOL    HW224384   0.759   6.768   0.697
 7829SOL     OW24385   4.088   2.887   1.621
 7829SOL    HW124386   4.090   2.792   1.650
 7829SOL    HW224387   4.013   2.935   1.667
 7830SOL     OW24388   6.574   2.623   6.719
 7830SOL    HW124389   6.589   2.720   6.704
 7830SOL    HW224390   6.484   2.598   6.682
 7831SOL     OW24391   1.500   3.078   0.073
 7831SOL    HW124392   1.551   3.090   0.158
 7831SOL    HW224393   1.403   3.096   0.090
 7832SOL     OW24394   2.714   2.437   5.622
 7832SOL    HW124395   2.734   2.454   5.525
 7832SOL    HW224396   2.692   2.523   5.667
 7833SOL     OW24397   0.409   6.804   0.106
 7833SOL    HW124398   0.455   6.785   0.193
 7833SOL    HW224399   0.373   6.897   0.107
 7834SOL     OW24400   0.716   0.278   1.274
 7834SOL    HW124401   0.648   0.246   1.208
 7834SOL    HW224402   0.747   0.369   1.249
 7835SOL     OW24403   2.048   2.552   4.993
 7835SOL    HW124404   2.082   2.629   4.939
 7835SOL    HW224405   2.105   2.541   5.075
 7836SOL     OW24406   2.316   6.505   0.593
 7836SOL    HW124407   2.410   6.527   0.570
 7836SOL    HW224408   2.266   6.590   0.613
 7837SOL     OW24409   6.404   0.075   2.967
 7837SOL    HW124410   6.353   0.129   3.034
 7837SOL    HW224411   6.386   0.110   2.875
 7838SOL     OW24412   3.479   0.201   4.397
 7838SOL    HW124413   3.530   0.212   4.312
 7838SOL    HW224414   3.543   0.196   4.474
 7839SOL     OW24415   6.511   4.705   4.568
 7839SOL    HW124416   6.453   4.663   4.637
 7839SOL    HW224417   6.577   4.766   4.612
 7840SOL     OW24418   6.071   2.959   4.826
 7840SOL    HW124419   5.985   2.910   4.813
 7840SOL    HW224420   6.147   2.902   4.792
 7841SOL     OW24421   0.930   1.750   6.486
 7841SOL    HW124422   0.902   1.808   6.563
 7841SOL    HW224423   0.892   1.659   6.497
 7842SOL     OW24424   2.700   0.814   2.664
 7842SOL    HW124425   2.771   0.871   2.705
 7842SOL    HW224426   2.643   0.774   2.736
 7843SOL     OW24427   5.496   3.733   0.704
 7843SOL    HW124428   5.468   3.637   0.711
 7843SOL    HW224429   5.429   3.791   0.752
 7844SOL     OW24430   4.489   1.046   3.579
 7844SOL    HW124431   4.459   1.003   3.494
 7844SOL    HW224432   4.571   1.001   3.613
 7845SOL     OW24433   6.753   1.706   3.974
 7845SOL    HW124434   6.694   1.787   3.976
 7845SOL    HW224435   6.700   1.629   3.939
 7846SOL     OW24436   2.848   6.857   2.402
 7846SOL    HW124437   2.911   6.808   2.341
 7846SOL    HW224438   2.892   6.871   2.490
 7847SOL     OW24439   6.951   0.801   0.564
 7847SOL    HW124440   6.891   0.721   0.563
 7847SOL    HW224441   6.912   0.871   0.624
 7848SOL     OW24442   5.149   4.089   1.740
 7848SOL    HW124443   5.227   4.045   1.696
 7848SOL    HW224444   5.117   4.031   1.815
 7849SOL     OW24445   6.431   3.812   5.260
 7849SOL    HW124446   6.402   3.738   5.320
 7849SOL    HW224447   6.516   3.851   5.295
 7850SOL     OW24448   1.387   0.912   4.813
 7850SOL    HW124449   1.379   0.966   4.896
 7850SOL    HW224450   1.326   0.833   4.817
 7851SOL     OW24451   5.399   6.802   6.996
 7851SOL    HW124452   5.372   6.888   6.953
 7851SOL    HW224453   5.473   6.760   6.944
 7852SOL     OW24454   2.871   6.163   0.142
 7852SOL    HW124455   2.784   6.204   0.114
 7852SOL    HW224456   2.930   6.234   0.181
 7853SOL     OW24457   2.631   2.943   0.179
 7853SOL    HW124458   2.692   2.928   0.101
 7853SOL    HW224459   2.644   2.869   0.245
 7854SOL     OW24460   3.673   4.022   2.433
 7854SOL    HW124461   3.678   4.089   2.506
 7854SOL    HW224462   3.764   4.004   2.397
 7855SOL     OW24463   4.190   6.159   5.902
 7855SOL    HW124464   4.253   6.232   5.926
 7855SOL    HW224465   4.242   6.074   5.887
 7856SOL     OW24466   5.372   3.396   5.913
 7856SOL    HW124467   5.448   3.370   5.974
 7856SOL    HW224468   5.290   3.411   5.968
 7857SOL     OW24469   6.835   1.599   5.697
 7857SOL    HW124470   6.788   1.641   5.619
 7857SOL    HW224471   6.769   1.546   5.751
 7858SOL     OW24472   6.216   3.961   2.644
 7858SOL    HW124473   6.152   3.975   2.720
 7858SOL    HW224474   6.233   3.863   2.632
 7859SOL     OW24475   1.234   5.429   6.923
 7859SOL    HW124476   1.207   5.481   7.004
 7859SOL    HW224477   1.315   5.471   6.882
 7860SOL     OW24478   4.149   6.848   2.075
 7860SOL    HW124479   4.212   6.772   2.090
 7860SOL    HW224480   4.186   6.931   2.115
 7861SOL     OW24481   4.977   4.431   0.383
 7861SOL    HW124482   4.992   4.493   0.460
 7861SOL    HW224483   5.064   4.413   0.337
 7862SOL     OW24484   3.075   4.550   1.608
 7862SOL    HW124485   3.170   4.562   1.582
 7862SOL    HW224486   3.070   4.504   1.697
 7863SOL     OW24487   6.668   5.859   1.897
 7863SOL    HW124488   6.760   5.821   1.886
 7863SOL    HW224489   6.627   5.875   1.807
 7864SOL     OW24490   0.632   5.110   4.680
 7864SOL    HW124491   0.689   5.192   4.681
 7864SOL    HW224492   0.688   5.030   4.701
 7865SOL     OW24493   3.183   0.144   3.591
 7865SOL    HW124494   3.126   0.186   3.519
 7865SOL    HW224495   3.274   0.125   3.554
 7866SOL     OW24496   2.519   2.068   4.325
 7866SOL    HW124497   2.424   2.048   4.350
 7866SOL    HW224498   2.580   2.031   4.395
 7867SOL     OW24499   6.149   4.417   1.748
 7867SOL    HW124500   6.234   4.455   1.783
 7867SOL    HW224501   6.139   4.322   1.778
 7868SOL     OW24502   5.484   6.357   0.725
 7868SOL    HW124503   5.414   6.422   0.697
 7868SOL    HW224504   5.567   6.406   0.752
 7869SOL     OW24505   0.735   3.304   1.807
 7869SOL    HW124506   0.726   3.262   1.897
 7869SOL    HW224507   0.737   3.404   1.817
 7870SOL     OW24508   6.965   5.477   3.820
 7870SOL    HW124509   6.982   5.379   3.829
 7870SOL    HW224510   6.906   5.507   3.895
 7871SOL     OW24511   4.919   3.100   3.024
 7871SOL    HW124512   4.905   3.182   2.969
 7871SOL    HW224513   4.920   3.020   2.964
 7872SOL     OW24514   6.935   3.033   3.102
 7872SOL    HW124515   6.950   2.938   3.073
 7872SOL    HW224516   6.936   3.037   3.202
 7873SOL     OW24517   0.332   5.182   5.347
 7873SOL    HW124518   0.417   5.235   5.345
 7873SOL    HW224519   0.348   5.095   5.393
 7874SOL     OW24520   5.818   1.372   0.542
 7874SOL    HW124521   5.844   1.428   0.464
 7874SOL    HW224522   5.891   1.307   0.562
 7875SOL     OW24523   4.208   3.248   6.455
 7875SOL    HW124524   4.294   3.298   6.441
 7875SOL    HW224525   4.166   3.228   6.367
 7876SOL     OW24526   6.546   0.115   3.436
 7876SOL    HW124527   6.513   0.209   3.431
 7876SOL    HW224528   6.471   0.053   3.414
 7877SOL     OW24529   6.880   2.017   2.499
 7877SOL    HW124530   6.798   2.066   2.529
 7877SOL    HW224531   6.902   2.044   2.405
 7878SOL     OW24532   5.025   3.639   2.106
 7878SOL    HW124533   5.094   3.577   2.145
 7878SOL    HW224534   4.979   3.593   2.030
 7879SOL     OW24535   4.948   0.358   3.957
 7879SOL    HW124536   4.857   0.399   3.946
 7879SOL    HW224537   5.002   0.414   4.019
 7880SOL     OW24538   0.384   0.064   6.516
 7880SOL    HW124539   0.319   0.001   6.475
 7880SOL    HW224540   0.468   0.015   6.540
 7881SOL     OW24541   0.041   4.864   4.424
 7881SOL    HW124542   0.109   4.931   4.396
 7881SOL    HW224543   0.024   4.872   4.522
 7882SOL     OW24544   6.670   3.941   2.966
 7882SOL    HW124545   6.619   4.018   3.004
 7882SOL    HW224546   6.755   3.929   3.016
 7883SOL     OW24547   3.409   1.567   3.665
 7883SOL    HW124548   3.333   1.506   3.642
 7883SOL    HW224549   3.387   1.615   3.750
 7884SOL     OW24550   0.441   4.293   4.591
 7884SOL    HW124551   0.458   4.219   4.656
 7884SOL    HW224552   0.502   4.370   4.610
 7885SOL     OW24553   6.066   5.621   3.006
 7885SOL    HW124554   6.162   5.595   3.011
 7885SOL    HW224555   6.015   5.549   2.959
 7886SOL     OW24556   4.791   2.852   2.441
 7886SOL    HW124557   4.766   2.928   2.501
 7886SOL    HW224558   4.889   2.836   2.446
 7887SOL     OW24559   2.967   3.475   0.566
 7887SOL    HW124560   3.030   3.514   0.633
 7887SOL    HW224561   3.019   3.437   0.489
 7888SOL     OW24562   5.327   2.071   4.162
 7888SOL    HW124563   5.281   2.000   4.110
 7888SOL    HW224564   5.370   2.136   4.099
 7889SOL     OW24565   5.976   4.684   0.851
 7889SOL    HW124566   5.894   4.667   0.796
 7889SOL    HW224567   5.971   4.632   0.936
 7890SOL     OW24568   1.116   3.589   4.499
 7890SOL    HW124569   1.184   3.630   4.559
 7890SOL    HW224570   1.051   3.537   4.553
 7891SOL     OW24571   0.939   1.956   4.339
 7891SOL    HW124572   0.923   1.921   4.431
 7891SOL    HW224573   0.851   1.971   4.293
 7892SOL     OW24574   1.022   2.628   5.728
 7892SOL    HW124575   1.000   2.718   5.691
 7892SOL    HW224576   0.968   2.558   5.680
 7893SOL     OW24577   5.817   0.762   0.831
 7893SOL    HW124578   5.788   0.773   0.736
 7893SOL    HW224579   5.902   0.813   0.845
 7894SOL     OW24580   2.894   1.404   6.660
 7894SOL    HW124581   2.840   1.481   6.693
 7894SOL    HW224582   2.896   1.405   6.560
 7895SOL     OW24583   4.078   6.462   3.479
 7895SOL    HW124584   4.111   6.458   3.573
 7895SOL    HW224585   4.143   6.415   3.419
 7896SOL     OW24586   3.294   1.757   1.110
 7896SOL    HW124587   3.224   1.829   1.111
 7896SOL    HW224588   3.313   1.731   1.015
 7897SOL     OW24589   3.916   4.236   0.018
 7897SOL    HW124590   3.968   4.227   0.103
 7897SOL    HW224591   3.896   4.146   7.007
 7898SOL     OW24592   5.690   0.360   4.303
 7898SOL    HW124593   5.670   0.328   4.211
 7898SOL    HW224594   5.623   0.321   4.367
 7899SOL     OW24595   5.377   4.473   2.075
 7899SOL    HW124596   5.314   4.419   2.018
 7899SOL    HW224597   5.469   4.434   2.069
 7900SOL     OW24598   0.591   3.574   0.406
 7900SOL    HW124599   0.530   3.571   0.327
 7900SOL    HW224600   0.684   3.596   0.377
 7901SOL     OW24601   6.016   1.543   6.206
 7901SOL    HW124602   5.973   1.568   6.293
 7901SOL    HW224603   5.976   1.457   6.172
 7902SOL     OW24604   0.395   6.399   2.958
 7902SOL    HW124605   0.329   6.324   2.957
 7902SOL    HW224606   0.415   6.427   2.864
 7903SOL     OW24607   2.419   2.345   5.129
 7903SOL    HW124608   2.449   2.291   5.050
 7903SOL    HW224609   2.367   2.287   5.191
 7904SOL     OW24610   5.284   0.930   1.718
 7904SOL    HW124611   5.240   1.020   1.723
 7904SOL    HW224612   5.260   0.877   1.800
 7905SOL     OW24613   5.463   0.408   0.574
 7905SOL    HW124614   5.546   0.400   0.629
 7905SOL    HW224615   5.404   0.329   0.593
 7906SOL     OW24616   1.690   5.578   1.040
 7906SOL    HW124617   1.667   5.571   0.943
 7906SOL    HW224618   1.624   5.526   1.094
 7907SOL     OW24619   6.239   0.411   3.021
 7907SOL    HW124620   6.185   0.353   2.960
 7907SOL    HW224621   6.323   0.438   2.973
 7908SOL     OW24622   6.822   0.600   0.075
 7908SOL    HW124623   6.772   0.686   0.074
 7908SOL    HW224624   6.756   0.524   0.074
 7909SOL     OW24625   5.547   3.942   2.099
 7909SOL    HW124626   5.499   4.015   2.149
 7909SOL    HW224627   5.607   3.893   2.162
 7910SOL     OW24628   2.285   3.569   0.365
 7910SOL    HW124629   2.338   3.619   0.433
 7910SOL    HW224630   2.346   3.505   0.317
 7911SOL     OW24631   1.022   4.014   0.851
 7911SOL    HW124632   0.939   4.069   0.844
 7911SOL    HW224633   1.036   3.987   0.946
 7912SOL     OW24634   5.926   5.677   0.210
 7912SOL    HW124635   6.025   5.691   0.207
 7912SOL    HW224636   5.892   5.699   0.301
 7913SOL     OW24637   0.715   3.682   0.929
 7913SOL    HW124638   0.729   3.674   0.830
 7913SOL    HW224639   0.617   3.693   0.947
 7914SOL     OW24640   6.279   5.270   4.732
 7914SOL    HW124641   6.376   5.275   4.707
 7914SOL    HW224642   6.233   5.203   4.674
 7915SOL     OW24643   3.677   6.936   3.116
 7915SOL    HW124644   3.697   6.861   3.178
 7915SOL    HW224645   3.605   6.993   3.155
 7916SOL     OW24646   1.828   0.593   4.457
 7916SOL    HW124647   1.860   0.643   4.537
 7916SOL    HW224648   1.906   0.565   4.401
 7917SOL     OW24649   4.017   3.342   0.465
 7917SOL    HW124650   3.955   3.309   0.395
 7917SOL    HW224651   3.964   3.377   0.542
 7918SOL     OW24652   2.571   1.152   4.928
 7918SOL    HW124653   2.610   1.210   5.000
 7918SOL    HW224654   2.616   1.063   4.929
 7919SOL     OW24655   1.406   5.887   2.903
 7919SOL    HW124656   1.474   5.841   2.845
 7919SOL    HW224657   1.347   5.944   2.845
 7920SOL     OW24658   4.964   0.011   0.890
 7920SOL    HW124659   5.036   6.991   0.943
 7920SOL    HW224660   4.990   0.105   0.871
 7921SOL     OW24661   4.778   1.439   1.799
 7921SOL    HW124662   4.766   1.352   1.846
 7921SOL    HW224663   4.794   1.511   1.867
 7922SOL     OW24664   0.307   5.559   0.830
 7922SOL    HW124665   0.301   5.603   0.920
 7922SOL    HW224666   0.227   5.583   0.776
 7923SOL     OW24667   3.903   1.555   0.093
 7923SOL    HW124668   3.996   1.523   0.072
 7923SOL    HW224669   3.908   1.642   0.142
 7924SOL     OW24670   6.205   6.984   0.314
 7924SOL    HW124671   6.246   6.960   0.226
 7924SOL    HW224672   6.114   6.944   0.321
 7925SOL     OW24673   2.117   6.335   0.686
 7925SOL    HW124674   2.076   6.283   0.610
 7925SOL    HW224675   2.203   6.375   0.657
 7926SOL     OW24676   4.182   5.825   6.538
 7926SOL    HW124677   4.119   5.764   6.586
 7926SOL    HW224678   4.203   5.786   6.448
 7927SOL     OW24679   4.480   6.853   2.106
 7927SOL    HW124680   4.574   6.835   2.137
 7927SOL    HW224681   4.476   6.943   2.062
 7928SOL     OW24682   6.686   1.531   2.904
 7928SOL    HW124683   6.678   1.487   2.994
 7928SOL    HW224684   6.668   1.464   2.832
 7929SOL     OW24685   3.831   4.350   5.656
 7929SOL    HW124686   3.744   4.302   5.655
 7929SOL    HW224687   3.854   4.381   5.564
 7930SOL     OW24688   4.321   5.729   5.385
 7930SOL    HW124689   4.247   5.664   5.376
 7930SOL    HW224690   4.360   5.749   5.295
 7931SOL     OW24691   3.505   2.022   0.696
 7931SOL    HW124692   3.524   1.979   0.784
 7931SOL    HW224693   3.457   1.957   0.637
 7932SOL     OW24694   0.889   5.237   1.824
 7932SOL    HW124695   0.790   5.236   1.815
 7932SOL    HW224696   0.921   5.331   1.835
 7933SOL     OW24697   0.370   1.053   6.118
 7933SOL    HW124698   0.445   1.076   6.057
 7933SOL    HW224699   0.388   0.964   6.160
 7934SOL     OW24700   0.832   4.431   1.039
 7934SOL    HW124701   0.810   4.529   1.032
 7934SOL    HW224702   0.762   4.378   0.991
 7935SOL     OW24703   5.449   2.913   2.455
 7935SOL    HW124704   5.422   2.941   2.547
 7935SOL    HW224705   5.393   2.835   2.426
 7936SOL     OW24706   3.363   5.912   4.111
 7936SOL    HW124707   3.428   5.942   4.181
 7936SOL    HW224708   3.358   5.812   4.112
 7937SOL     OW24709   3.185   6.619   6.901
 7937SOL    HW124710   3.218   6.603   6.994
 7937SOL    HW224711   3.112   6.555   6.880
 7938SOL     OW24712   3.360   6.518   4.651
 7938SOL    HW124713   3.410   6.603   4.634
 7938SOL    HW224714   3.384   6.482   4.741
 7939SOL     OW24715   0.487   1.580   4.569
 7939SOL    HW124716   0.447   1.652   4.625
 7939SOL    HW224717   0.419   1.548   4.503
 7940SOL     OW24718   4.833   0.794   3.429
 7940SOL    HW124719   4.825   0.720   3.363
 7940SOL    HW224720   4.923   0.838   3.420
 7941SOL     OW24721   3.749   6.421   1.536
 7941SOL    HW124722   3.701   6.430   1.623
 7941SOL    HW224723   3.697   6.359   1.476
 7942SOL     OW24724   1.469   4.352   1.353
 7942SOL    HW124725   1.536   4.295   1.306
 7942SOL    HW224726   1.458   4.438   1.304
 7943SOL     OW24727   1.487   6.001   6.261
 7943SOL    HW124728   1.509   6.050   6.176
 7943SOL    HW224729   1.552   5.926   6.273
 7944SOL     OW24730   1.625   2.816   0.989
 7944SOL    HW124731   1.629   2.763   1.074
 7944SOL    HW224732   1.557   2.775   0.927
 7945SOL     OW24733   5.709   4.577   2.760
 7945SOL    HW124734   5.762   4.513   2.706
 7945SOL    HW224735   5.688   4.659   2.706
 7946SOL     OW24736   3.514   1.281   5.522
 7946SOL    HW124737   3.549   1.310   5.433
 7946SOL    HW224738   3.539   1.348   5.591
 7947SOL     OW24739   1.434   2.936   5.602
 7947SOL    HW124740   1.528   2.953   5.572
 7947SOL    HW224741   1.375   2.928   5.523
 7948SOL     OW24742   1.348   4.505   2.410
 7948SOL    HW124743   1.417   4.446   2.452
 7948SOL    HW224744   1.393   4.587   2.372
 7949SOL     OW24745   3.662   4.922   6.713
 7949SOL    HW124746   3.653   4.989   6.640
 7949SOL    HW224747   3.585   4.931   6.777
 7950SOL     OW24748   5.970   5.380   5.529
 7950SOL    HW124749   6.049   5.376   5.467
 7950SOL    HW224750   5.896   5.432   5.486
 7951SOL     OW24751   2.762   5.705   3.053
 7951SOL    HW124752   2.721   5.650   3.126
 7951SOL    HW224753   2.843   5.658   3.018
 7952SOL     OW24754   4.890   3.623   6.853
 7952SOL    HW124755   4.914   3.671   6.769
 7952SOL    HW224756   4.799   3.583   6.844
 7953SOL     OW24757   2.653   1.146   0.920
 7953SOL    HW124758   2.616   1.066   0.872
 7953SOL    HW224759   2.579   1.191   0.970
 7954SOL     OW24760   3.487   3.177   0.116
 7954SOL    HW124761   3.448   3.158   0.206
 7954SOL    HW224762   3.566   3.239   0.126
 7955SOL     OW24763   1.667   0.706   6.709
 7955SOL    HW124764   1.672   0.607   6.708
 7955SOL    HW224765   1.579   0.736   6.746
 7956SOL     OW24766   6.638   6.336   0.851
 7956SOL    HW124767   6.651   6.400   0.927
 7956SOL    HW224768   6.592   6.383   0.776
 7957SOL     OW24769   4.535   0.686   5.518
 7957SOL    HW124770   4.562   0.590   5.507
 7957SOL    HW224771   4.478   0.713   5.440
 7958SOL     OW24772   5.791   2.854   6.898
 7958SOL    HW124773   5.849   2.895   6.828
 7958SOL    HW224774   5.819   2.759   6.912
 7959SOL     OW24775   5.143   1.190   6.013
 7959SOL    HW124776   5.182   1.172   5.922
 7959SOL    HW224777   5.128   1.104   6.060
 7960SOL     OW24778   0.477   0.705   5.544
 7960SOL    HW124779   0.391   0.660   5.517
 7960SOL    HW224780   0.457   0.779   5.609
 7961SOL     OW24781   6.825   0.396   0.409
 7961SOL    HW124782   6.870   0.323   0.460
 7961SOL    HW224783   6.892   0.445   0.354
 7962SOL     OW24784   6.113   6.867   5.525
 7962SOL    HW124785   6.200   6.821   5.507
 7962SOL    HW224786   6.039   6.800   5.516
 7963SOL     OW24787   0.296   5.169   5.074
 7963SOL    HW124788   0.385   5.139   5.039
 7963SOL    HW224789   0.303   5.190   5.172
 7964SOL     OW24790   6.266   3.674   2.389
 7964SOL    HW124791   6.184   3.713   2.431
 7964SOL    HW224792   6.325   3.748   2.358
 7965SOL     OW24793   4.097   1.541   6.654
 7965SOL    HW124794   4.152   1.471   6.609
 7965SOL    HW224795   4.119   1.544   6.751
 7966SOL     OW24796   4.873   4.042   5.101
 7966SOL    HW124797   4.872   4.064   5.004
 7966SOL    HW224798   4.790   3.992   5.125
 7967SOL     OW24799   1.402   4.699   2.678
 7967SOL    HW124800   1.376   4.772   2.615
 7967SOL    HW224801   1.342   4.620   2.664
 7968SOL     OW24802   6.564   2.198   4.174
 7968SOL    HW124803   6.571   2.154   4.084
 7968SOL    HW224804   6.546   2.129   4.243
 7969SOL     OW24805   4.663   5.662   6.954
 7969SOL    HW124806   4.621   5.713   6.880
 7969SOL    HW224807   4.690   5.571   6.922
 7970SOL     OW24808   6.331   2.443   2.613
 7970SOL    HW124809   6.250   2.410   2.661
 7970SOL    HW224810   6.358   2.532   2.650
 7971SOL     OW24811   3.234   1.103   0.630
 7971SOL    HW124812   3.217   1.033   0.699
 7971SOL    HW224813   3.327   1.139   0.640
 7972SOL     OW24814   4.066   3.312   3.175
 7972SOL    HW124815   4.090   3.402   3.210
 7972SOL    HW224816   4.097   3.304   3.080
 7973SOL     OW24817   6.573   3.739   2.808
 7973SOL    HW124818   6.583   3.820   2.866
 7973SOL    HW224819   6.651   3.678   2.823
 7974SOL     OW24820   6.540   2.020   5.212
 7974SOL    HW124821   6.570   1.935   5.256
 7974SOL    HW224822   6.542   2.008   5.113
 7975SOL     OW24823   5.256   0.724   0.895
 7975SOL    HW124824   5.347   0.729   0.854
 7975SOL    HW224825   5.188   0.704   0.825
 7976SOL     OW24826   0.810   0.043   6.663
 7976SOL    HW124827   0.892   0.004   6.621
 7976SOL    HW224828   0.765   6.999   6.719
 7977SOL     OW24829   5.408   6.176   2.850
 7977SOL    HW124830   5.428   6.173   2.752
 7977SOL    HW224831   5.491   6.150   2.901
 7978SOL     OW24832   0.248   5.125   0.803
 7978SOL    HW124833   0.255   5.144   0.901
 7978SOL    HW224834   0.294   5.039   0.782
 7979SOL     OW24835   1.387   3.365   4.853
 7979SOL    HW124836   1.357   3.374   4.948
 7979SOL    HW224837   1.456   3.434   4.833
 7980SOL     OW24838   4.203   4.966   6.779
 7980SOL    HW124839   4.263   5.046   6.775
 7980SOL    HW224840   4.116   4.988   6.735
 7981SOL     OW24841   1.768   4.676   3.575
 7981SOL    HW124842   1.681   4.638   3.607
 7981SOL    HW224843   1.825   4.698   3.654
 7982SOL     OW24844   0.806   1.725   6.216
 7982SOL    HW124845   0.825   1.764   6.306
 7982SOL    HW224846   0.749   1.789   6.164
 7983SOL     OW24847   5.062   0.686   1.332
 7983SOL    HW124848   5.035   0.781   1.318
 7983SOL    HW224849   4.981   0.628   1.335
 7984SOL     OW24850   1.104   2.044   2.146
 7984SOL    HW124851   1.036   2.116   2.162
 7984SOL    HW224852   1.162   2.035   2.227
 7985SOL     OW24853   1.990   2.086   5.669
 7985SOL    HW124854   2.055   2.126   5.735
 7985SOL    HW224855   1.897   2.102   5.701
 7986SOL     OW24856   2.511   1.303   3.720
 7986SOL    HW124857   2.549   1.395   3.721
 7986SOL    HW224858   2.454   1.290   3.802
 7987SOL     OW24859   1.523   3.332   0.815
 7987SOL    HW124860   1.597   3.306   0.753
 7987SOL    HW224861   1.526   3.431   0.831
 7988SOL     OW24862   0.521   1.857   0.892
 7988SOL    HW124863   0.431   1.839   0.854
 7988SOL    HW224864   0.533   1.956   0.906
 7989SOL     OW24865   1.176   4.954   0.574
 7989SOL    HW124866   1.182   5.018   0.651
 7989SOL    HW224867   1.081   4.924   0.562
 7990SOL     OW24868   3.134   5.259   5.594
 7990SOL    HW124869   3.082   5.184   5.552
 7990SOL    HW224870   3.195   5.221   5.665
 7991SOL     OW24871   5.501   1.355   4.691
 7991SOL    HW124872   5.431   1.424   4.675
 7991SOL    HW224873   5.530   1.359   4.787
 7992SOL     OW24874   2.876   0.413   0.702
 7992SOL    HW124875   2.943   0.415   0.628
 7992SOL    HW224876   2.922   0.390   0.788
 7993SOL     OW24877   6.481   5.710   1.351
 7993SOL    HW124878   6.559   5.717   1.288
 7993SOL    HW224879   6.514   5.721   1.445
 7994SOL     OW24880   5.198   0.548   3.275
 7994SOL    HW124881   5.217   0.641   3.303
 7994SOL    HW224882   5.127   0.509   3.334
 7995SOL     OW24883   0.034   4.548   1.536
 7995SOL    HW124884   7.022   4.584   1.451
 7995SOL    HW224885   0.112   4.604   1.565
 7996SOL     OW24886   3.757   0.343   2.925
 7996SOL    HW124887   3.801   0.411   2.983
 7996SOL    HW224888   3.825   0.276   2.896
 7997SOL     OW24889   0.615   2.473   0.219
 7997SOL    HW124890   0.712   2.475   0.243
 7997SOL    HW224891   0.584   2.565   0.196
 7998SOL     OW24892   3.035   0.766   0.545
 7998SOL    HW124893   3.020   0.780   0.643
 7998SOL    HW224894   3.030   0.853   0.497
 7999SOL     OW24895   1.473   1.213   5.395
 7999SOL    HW124896   1.511   1.280   5.458
 7999SOL    HW224897   1.453   1.256   5.308
 8000SOL     OW24898   5.763   5.377   6.663
 8000SOL    HW124899   5.812   5.409   6.745
 8000SOL    HW224900   5.725   5.287   6.680
 8001SOL     OW24901   4.857   0.464   1.303
 8001SOL    HW124902   4.758   0.450   1.315
 8001SOL    HW224903   4.876   0.483   1.206
 8002SOL     OW24904   0.796   6.960   5.542
 8002SOL    HW124905   0.745   6.984   5.625
 8002SOL    HW224906   0.846   0.014   5.508
 8003SOL     OW24907   2.383   6.704   3.312
 8003SOL    HW124908   2.477   6.737   3.317
 8003SOL    HW224909   2.370   6.656   3.225
 8004SOL     OW24910   1.133   3.341   4.107
 8004SOL    HW124911   1.215   3.364   4.056
 8004SOL    HW224912   1.067   3.416   4.101
 8005SOL     OW24913   2.582   0.419   3.618
 8005SOL    HW124914   2.523   0.370   3.554
 8005SOL    HW224915   2.677   0.410   3.589
 8006SOL     OW24916   3.416   4.446   5.307
 8006SOL    HW124917   3.390   4.540   5.328
 8006SOL    HW224918   3.514   4.443   5.287
 8007SOL     OW24919   5.904   1.079   6.810
 8007SOL    HW124920   5.848   1.161   6.817
 8007SOL    HW224921   5.993   1.096   6.854
 8008SOL     OW24922   5.102   6.600   6.401
 8008SOL    HW124923   5.053   6.656   6.335
 8008SOL    HW224924   5.135   6.517   6.357
 8009SOL     OW24925   5.098   1.350   0.015
 8009SOL    HW124926   5.069   1.254   0.024
 8009SOL    HW224927   5.077   1.399   0.100
 8010SOL     OW24928   2.537   2.649   5.384
 8010SOL    HW124929   2.619   2.692   5.421
 8010SOL    HW224930   2.533   2.554   5.415
 8011SOL     OW24931   4.155   1.946   1.996
 8011SOL    HW124932   4.230   1.999   1.957
 8011SOL    HW224933   4.084   2.007   2.031
 8012SOL     OW24934   0.947   2.795   5.372
 8012SOL    HW124935   0.909   2.875   5.418
 8012SOL    HW224936   0.938   2.805   5.273
 8013SOL     OW24937   1.921   2.695   3.443
 8013SOL    HW124938   2.019   2.713   3.432
 8013SOL    HW224939   1.887   2.744   3.523
 8014SOL     OW24940   1.908   1.137   2.730
 8014SOL    HW124941   1.898   1.042   2.761
 8014SOL    HW224942   1.832   1.192   2.764
 8015SOL     OW24943   2.055   0.193   5.434
 8015SOL    HW124944   1.983   0.220   5.369
 8015SOL    HW224945   2.040   0.239   5.521
 8016SOL     OW24946   4.580   1.418   5.292
 8016SOL    HW124947   4.578   1.430   5.193
 8016SOL    HW224948   4.637   1.339   5.315
 8017SOL     OW24949   6.449   6.764   0.370
 8017SOL    HW124950   6.398   6.808   0.443
 8017SOL    HW224951   6.539   6.735   0.404
 8018SOL     OW24952   4.498   1.718   6.997
 8018SOL    HW124953   4.405   1.701   0.002
 8018SOL    HW224954   4.508   1.688   6.902
 8019SOL     OW24955   3.224   2.971   0.929
 8019SOL    HW124956   3.279   2.927   0.999
 8019SOL    HW224957   3.137   2.923   0.920
 8020SOL     OW24958   0.305   0.481   5.198
 8020SOL    HW124959   0.223   0.527   5.165
 8020SOL    HW224960   0.386   0.530   5.167
 8021SOL     OW24961   1.463   2.374   2.583
 8021SOL    HW124962   1.497   2.458   2.541
 8021SOL    HW224963   1.412   2.397   2.666
 8022SOL     OW24964   4.636   1.322   2.110
 8022SOL    HW124965   4.556   1.319   2.050
 8022SOL    HW224966   4.712   1.273   2.067
 8023SOL     OW24967   4.866   5.627   3.715
 8023SOL    HW124968   4.819   5.541   3.735
 8023SOL    HW224969   4.834   5.663   3.627
 8024SOL     OW24970   2.181   6.714   6.412
 8024SOL    HW124971   2.251   6.777   6.380
 8024SOL    HW224972   2.193   6.697   6.510
 8025SOL     OW24973   1.933   5.194   1.403
 8025SOL    HW124974   2.005   5.165   1.467
 8025SOL    HW224975   1.847   5.149   1.428
 8026SOL     OW24976   0.945   5.838   6.777
 8026SOL    HW124977   0.945   5.738   6.778
 8026SOL    HW224978   0.853   5.872   6.794
 8027SOL     OW24979   3.587   6.330   6.783
 8027SOL    HW124980   3.652   6.281   6.725
 8027SOL    HW224981   3.635   6.372   6.860
 8028SOL     OW24982   2.864   5.781   4.865
 8028SOL    HW124983   2.917   5.754   4.945
 8028SOL    HW224984   2.832   5.875   4.876
 8029SOL     OW24985   6.023   0.588   0.697
 8029SOL    HW124986   6.013   0.617   0.792
 8029SOL    HW224987   6.061   0.496   0.694
 8030SOL     OW24988   0.017   4.597   0.583
 8030SOL    HW124989   0.058   4.507   0.574
 8030SOL    HW224990   0.002   4.636   0.492
 8031SOL     OW24991   0.075   0.516   2.465
 8031SOL    HW124992   0.134   0.482   2.537
 8031SOL    HW224993   0.128   0.528   2.381
 8032SOL     OW24994   5.615   2.524   1.270
 8032SOL    HW124995   5.572   2.435   1.288
 8032SOL    HW224996   5.699   2.532   1.323
 8033SOL     OW24997   4.116   4.034   1.100
 8033SOL    HW124998   4.087   3.947   1.061
 8033SOL    HW224999   4.215   4.036   1.107
 8034SOL     OW25000   5.570   0.326   5.499
 8034SOL    HW125001   5.620   0.355   5.418
 8034SOL    HW225002   5.475   0.357   5.491
 8035SOL     OW25003   5.234   1.594   2.902
 8035SOL    HW125004   5.315   1.542   2.875
 8035SOL    HW225005   5.156   1.532   2.911
 8036SOL     OW25006   6.691   3.442   3.325
 8036SOL    HW125007   6.787   3.415   3.331
 8036SOL    HW225008   6.653   3.410   3.238
 8037SOL     OW25009   0.525   2.459   6.035
 8037SOL    HW125010   0.599   2.455   5.968
 8037SOL    HW225011   0.545   2.396   6.110
 8038SOL     OW25012   6.656   6.202   2.399
 8038SOL    HW125013   6.705   6.201   2.486
 8038SOL    HW225014   6.585   6.132   2.399
 8039SOL     OW25015   1.408   2.061   5.329
 8039SOL    HW125016   1.389   2.019   5.240
 8039SOL    HW225017   1.506   2.062   5.345
 8040SOL     OW25018   1.759   5.112   6.188
 8040SOL    HW125019   1.784   5.015   6.184
 8040SOL    HW225020   1.791   5.151   6.274
 8041SOL     OW25021   3.525   1.666   3.221
 8041SOL    HW125022   3.578   1.749   3.239
 8041SOL    HW225023   3.547   1.597   3.289
 8042SOL     OW25024   4.065   4.210   5.454
 8042SOL    HW125025   4.023   4.298   5.432
 8042SOL    HW225026   3.996   4.148   5.492
 8043SOL     OW25027   5.321   4.695   0.340
 8043SOL    HW125028   5.305   4.733   0.249
 8043SOL    HW225029   5.333   4.596   0.333
 8044SOL     OW25030   3.212   3.538   1.032
 8044SOL    HW125031   3.305   3.523   1.065
 8044SOL    HW225032   3.164   3.601   1.093
 8045SOL     OW25033   0.425   1.102   2.699
 8045SOL    HW125034   0.490   1.033   2.731
 8045SOL    HW225035   0.473   1.166   2.638
 8046SOL     OW25036   0.416   5.331   2.310
 8046SOL    HW125037   0.516   5.330   2.319
 8046SOL    HW225038   0.386   5.419   2.274
 8047SOL     OW25039   4.085   6.732   5.598
 8047SOL    HW125040   4.163   6.780   5.639
 8047SOL    HW225041   4.016   6.716   5.668
 8048SOL     OW25042   3.939   3.777   0.255
 8048SOL    HW125043   4.004   3.721   0.307
 8048SOL    HW225044   3.951   3.760   0.158
 8049SOL     OW25045   2.198   0.114   1.188
 8049SOL    HW125046   2.245   0.172   1.121
 8049SOL    HW225047   2.230   0.019   1.179
 8050SOL     OW25048   1.642   4.435   4.645
 8050SOL    HW125049   1.583   4.468   4.719
 8050SOL    HW225050   1.734   4.421   4.681
 8051SOL     OW25051   3.324   5.929   4.586
 8051SOL    HW125052   3.344   6.026   4.592
 8051SOL    HW225053   3.252   5.914   4.518
 8052SOL     OW25054   2.399   2.576   2.325
 8052SOL    HW125055   2.310   2.545   2.359
 8052SOL    HW225056   2.466   2.504   2.337
 8053SOL     OW25057   2.678   3.113   6.130
 8053SOL    HW125058   2.583   3.137   6.147
 8053SOL    HW225059   2.684   3.055   6.049
 8054SOL     OW25060   5.532   4.039   5.065
 8054SOL    HW125061   5.458   4.027   5.000
 8054SOL    HW225062   5.518   4.124   5.116
 8055SOL     OW25063   6.820   0.946   5.387
 8055SOL    HW125064   6.782   0.894   5.464
 8055SOL    HW225065   6.800   0.898   5.302
 8056SOL     OW25066   2.674   1.022   4.549
 8056SOL    HW125067   2.706   1.108   4.589
 8056SOL    HW225068   2.587   0.996   4.591
 8057SOL     OW25069   2.668   2.397   2.184
 8057SOL    HW125070   2.735   2.351   2.125
 8057SOL    HW225071   2.716   2.455   2.249
 8058SOL     OW25072   3.132   6.676   3.533
 8058SOL    HW125073   3.040   6.641   3.513
 8058SOL    HW225074   3.198   6.600   3.527
 8059SOL     OW25075   2.711   3.439   6.445
 8059SOL    HW125076   2.738   3.446   6.541
 8059SOL    HW225077   2.618   3.403   6.438
 8060SOL     OW25078   6.282   0.136   5.405
 8060SOL    HW125079   6.202   0.096   5.360
 8060SOL    HW225080   6.251   0.188   5.485
 8061SOL     OW25081   0.526   1.411   2.180
 8061SOL    HW125082   0.468   1.366   2.248
 8061SOL    HW225083   0.508   1.509   2.180
 8062SOL     OW25084   4.312   6.030   5.098
 8062SOL    HW125085   4.309   6.010   5.195
 8062SOL    HW225086   4.394   6.084   5.078
 8063SOL     OW25087   3.335   6.757   3.201
 8063SOL    HW125088   3.368   6.711   3.283
 8063SOL    HW225089   3.383   6.722   3.121
 8064SOL     OW25090   5.940   2.624   6.967
 8064SOL    HW125091   5.871   2.556   6.992
 8064SOL    HW225092   5.997   2.644   0.021
 8065SOL     OW25093   3.336   6.627   5.050
 8065SOL    HW125094   3.318   6.701   4.986
 8065SOL    HW225095   3.424   6.584   5.029
 8066SOL     OW25096   0.117   0.585   4.433
 8066SOL    HW125097   0.179   0.613   4.359
 8066SOL    HW225098   0.023   0.587   4.399
 8067SOL     OW25099   5.134   3.203   3.619
 8067SOL    HW125100   5.223   3.177   3.583
 8067SOL    HW225101   5.132   3.189   3.718
 8068SOL     OW25102   6.332   4.390   0.920
 8068SOL    HW125103   6.250   4.400   0.976
 8068SOL    HW225104   6.412   4.422   0.971
 8069SOL     OW25105   2.418   4.461   2.450
 8069SOL    HW125106   2.492   4.415   2.401
 8069SOL    HW225107   2.334   4.457   2.395
 8070SOL     OW25108   5.491   4.656   6.976
 8070SOL    HW125109   5.516   4.582   0.013
 8070SOL    HW225110   5.400   4.691   7.000
 8071SOL     OW25111   3.469   6.701   5.890
 8071SOL    HW125112   3.437   6.628   5.951
 8071SOL    HW225113   3.468   6.668   5.796
 8072SOL     OW25114   1.766   2.872   6.584
 8072SOL    HW125115   1.779   2.938   6.510
 8072SOL    HW225116   1.725   2.920   6.663
 8073SOL     OW25117   3.800   0.308   6.478
 8073SOL    HW125118   3.780   0.263   6.391
 8073SOL    HW225119   3.748   0.263   6.551
 8074SOL     OW25120   1.765   1.374   0.056
 8074SOL    HW125121   1.757   1.440   7.007
 8074SOL    HW225122   1.808   1.419   0.135
 8075SOL     OW25123   0.322   6.474   6.894
 8075SOL    HW125124   0.350   6.554   6.841
 8075SOL    HW225125   0.380   6.465   6.975
 8076SOL     OW25126   6.844   6.639   6.804
 8076SOL    HW125127   6.915   6.576   6.837
 8076SOL    HW225128   6.780   6.590   6.746
 8077SOL     OW25129   4.179   5.144   0.856
 8077SOL    HW125130   4.156   5.164   0.761
 8077SOL    HW225131   4.237   5.217   0.893
 8078SOL     OW25132   0.375   0.776   1.247
 8078SOL    HW125133   0.474   0.765   1.245
 8078SOL    HW225134   0.334   0.718   1.176
 8079SOL     OW25135   1.454   1.487   4.858
 8079SOL    HW125136   1.429   1.407   4.803
 8079SOL    HW225137   1.553   1.503   4.850
 8080SOL     OW25138   1.051   3.439   2.568
 8080SOL    HW125139   1.141   3.433   2.524
 8080SOL    HW225140   0.980   3.425   2.500
 8081SOL     OW25141   5.871   5.085   4.737
 8081SOL    HW125142   5.835   5.140   4.661
 8081SOL    HW225143   5.962   5.051   4.713
 8082SOL     OW25144   3.261   2.127   2.547
 8082SOL    HW125145   3.359   2.130   2.566
 8082SOL    HW225146   3.246   2.123   2.449
 8083SOL     OW25147   5.762   1.928   5.073
 8083SOL    HW125148   5.720   2.018   5.090
 8083SOL    HW225149   5.792   1.888   5.159
 8084SOL     OW25150   2.378   0.225   6.522
 8084SOL    HW125151   2.374   0.258   6.427
 8084SOL    HW225152   2.288   0.187   6.547
 8085SOL     OW25153   6.988   5.639   4.180
 8085SOL    HW125154   6.940   5.725   4.166
 8085SOL    HW225155   0.050   5.640   4.131
 8086SOL     OW25156   0.746   1.297   2.053
 8086SOL    HW125157   0.663   1.320   2.103
 8086SOL    HW225158   0.751   1.352   1.970
 8087SOL     OW25159   1.348   0.611   6.977
 8087SOL    HW125160   1.387   0.680   0.012
 8087SOL    HW225161   1.252   0.632   6.958
 8088SOL     OW25162   5.159   0.084   5.746
 8088SOL    HW125163   5.195   0.002   5.789
 8088SOL    HW225164   5.084   0.121   5.801
 8089SOL     OW25165   6.094   2.414   6.076
 8089SOL    HW125166   5.998   2.426   6.100
 8089SOL    HW225167   6.151   2.473   6.133
 8090SOL     OW25168   4.359   1.695   6.502
 8090SOL    HW125169   4.445   1.659   6.465
 8090SOL    HW225170   4.318   1.628   6.563
 8091SOL     OW25171   1.082   4.111   5.005
 8091SOL    HW125172   1.161   4.157   5.046
 8091SOL    HW225173   1.109   4.068   4.919
 8092SOL     OW25174   5.289   2.267   5.492
 8092SOL    HW125175   5.347   2.246   5.571
 8092SOL    HW225176   5.299   2.364   5.468
 8093SOL     OW25177   3.023   6.574   2.489
 8093SOL    HW125178   2.935   6.600   2.449
 8093SOL    HW225179   3.076   6.521   2.423
 8094SOL     OW25180   1.635   4.282   3.907
 8094SOL    HW125181   1.720   4.297   3.856
 8094SOL    HW225182   1.656   4.242   3.996
 8095SOL     OW25183   1.355   4.632   5.222
 8095SOL    HW125184   1.407   4.546   5.229
 8095SOL    HW225185   1.289   4.637   5.297
 8096SOL     OW25186   0.829   6.800   2.344
 8096SOL    HW125187   0.733   6.808   2.317
 8096SOL    HW225188   0.841   6.719   2.402
 8097SOL     OW25189   2.916   6.186   5.118
 8097SOL    HW125190   2.898   6.264   5.179
 8097SOL    HW225191   2.971   6.118   5.167
 8098SOL     OW25192   1.004   5.361   4.126
 8098SOL    HW125193   1.066   5.316   4.063
 8098SOL    HW225194   1.055   5.400   4.202
 8099SOL     OW25195   2.735   5.900   4.565
 8099SOL    HW125196   2.670   5.892   4.641
 8099SOL    HW225197   2.828   5.908   4.601
 8100SOL     OW25198   6.721   0.890   6.491
 8100SOL    HW125199   6.778   0.819   6.449
 8100SOL    HW225200   6.780   0.955   6.539
 8101SOL     OW25201   1.781   6.231   1.396
 8101SOL    HW125202   1.750   6.297   1.327
 8101SOL    HW225203   1.726   6.242   1.479
 8102SOL     OW25204   0.942   3.137   4.262
 8102SOL    HW125205   0.862   3.159   4.206
 8102SOL    HW225206   0.925   3.166   4.356
 8103SOL     OW25207   3.491   1.334   2.321
 8103SOL    HW125208   3.428   1.389   2.376
 8103SOL    HW225209   3.439   1.266   2.269
 8104SOL     OW25210   2.210   6.623   6.661
 8104SOL    HW125211   2.158   6.553   6.712
 8104SOL    HW225212   2.305   6.624   6.694
 8105SOL     OW25213   6.888   1.484   2.387
 8105SOL    HW125214   6.812   1.460   2.447
 8105SOL    HW225215   6.974   1.482   2.438
 8106SOL     OW25216   1.848   5.842   4.972
 8106SOL    HW125217   1.755   5.824   5.003
 8106SOL    HW225218   1.912   5.781   5.020
 8107SOL     OW25219   1.479   5.189   5.137
 8107SOL    HW125220   1.533   5.105   5.131
 8107SOL    HW225221   1.529   5.264   5.094
 8108SOL     OW25222   0.316   0.715   6.898
 8108SOL    HW125223   0.219   0.740   6.893
 8108SOL    HW225224   0.331   0.630   6.847
 8109SOL     OW25225   6.642   3.569   6.397
 8109SOL    HW125226   6.568   3.634   6.379
 8109SOL    HW225227   6.667   3.523   6.312
 8110SOL     OW25228   4.841   4.984   0.705
 8110SOL    HW125229   4.890   4.929   0.773
 8110SOL    HW225230   4.864   5.081   0.719
 8111SOL     OW25231   5.872   0.794   2.837
 8111SOL    HW125232   5.837   0.863   2.774
 8111SOL    HW225233   5.946   0.832   2.891
 8112SOL     OW25234   0.582   2.311   5.396
 8112SOL    HW125235   0.565   2.379   5.324
 8112SOL    HW225236   0.672   2.269   5.381
 8113SOL     OW25237   6.063   2.532   0.739
 8113SOL    HW125238   6.034   2.538   0.643
 8113SOL    HW225239   6.043   2.618   0.786
 8114SOL     OW25240   1.494   4.159   1.539
 8114SOL    HW125241   1.436   4.164   1.620
 8114SOL    HW225242   1.450   4.208   1.464
 8115SOL     OW25243   2.836   6.800   0.080
 8115SOL    HW125244   2.836   6.704   0.053
 8115SOL    HW225245   2.929   6.837   0.071
 8116SOL     OW25246   3.477   5.052   1.032
 8116SOL    HW125247   3.520   5.069   0.943
 8116SOL    HW225248   3.414   4.975   1.024
 8117SOL     OW25249   2.640   0.291   2.842
 8117SOL    HW125250   2.574   0.271   2.914
 8117SOL    HW225251   2.686   0.378   2.861
 8118SOL     OW25252   6.362   3.371   6.795
 8118SOL    HW125253   6.354   3.412   6.704
 8118SOL    HW225254   6.290   3.408   6.854
 8119SOL     OW25255   5.954   5.741   5.790
 8119SOL    HW125256   5.881   5.752   5.722
 8119SOL    HW225257   6.029   5.688   5.750
 8120SOL     OW25258   1.961   5.732   0.580
 8120SOL    HW125259   1.888   5.776   0.633
 8120SOL    HW225260   2.047   5.780   0.598
 8121SOL     OW25261   1.124   4.071   2.779
 8121SOL    HW125262   1.077   4.158   2.762
 8121SOL    HW225263   1.066   4.013   2.835
 8122SOL     OW25264   0.932   4.214   2.387
 8122SOL    HW125265   0.954   4.299   2.341
 8122SOL    HW225266   0.893   4.233   2.477
 8123SOL     OW25267   0.215   1.801   6.330
 8123SOL    HW125268   0.234   1.848   6.416
 8123SOL    HW225269   0.297   1.752   6.300
 8124SOL     OW25270   5.308   5.439   3.618
 8124SOL    HW125271   5.364   5.442   3.535
 8124SOL    HW225272   5.330   5.357   3.670
 8125SOL     OW25273   0.717   0.487   3.189
 8125SOL    HW125274   0.675   0.575   3.214
 8125SOL    HW225275   0.676   0.415   3.245
 8126SOL     OW25276   3.620   5.450   4.075
 8126SOL    HW125277   3.544   5.502   4.114
 8126SOL    HW225278   3.586   5.383   4.009
 8127SOL     OW25279   2.616   2.704   0.433
 8127SOL    HW125280   2.641   2.626   0.490
 8127SOL    HW225281   2.517   2.717   0.437
 8128SOL     OW25282   3.162   2.994   2.299
 8128SOL    HW125283   3.258   2.999   2.273
 8128SOL    HW225284   3.153   3.014   2.397
 8129SOL     OW25285   1.232   2.197   0.393
 8129SOL    HW125286   1.254   2.159   0.482
 8129SOL    HW225287   1.249   2.129   0.322
 8130SOL     OW25288   1.460   5.597   0.040
 8130SOL    HW125289   1.497   5.507   0.066
 8130SOL    HW225290   1.423   5.642   0.122
 8131SOL     OW25291   2.142   3.021   0.725
 8131SOL    HW125292   2.075   3.073   0.672
 8131SOL    HW225293   2.125   2.923   0.713
 8132SOL     OW25294   6.195   0.162   3.770
 8132SOL    HW125295   6.214   0.160   3.869
 8132SOL    HW225296   6.273   0.125   3.720
 8133SOL     OW25297   3.617   5.141   1.268
 8133SOL    HW125298   3.541   5.149   1.332
 8133SOL    HW225299   3.584   5.102   1.182
 8134SOL     OW25300   6.519   0.687   5.158
 8134SOL    HW125301   6.468   0.619   5.106
 8134SOL    HW225302   6.597   0.643   5.204
 8135SOL     OW25303   2.882   0.074   2.146
 8135SOL    HW125304   2.978   0.058   2.169
 8135SOL    HW225305   2.873   0.162   2.098
 8136SOL     OW25306   4.578   4.916   2.267
 8136SOL    HW125307   4.559   4.937   2.171
 8136SOL    HW225308   4.647   4.844   2.272
 8137SOL     OW25309   4.080   1.895   4.765
 8137SOL    HW125310   3.996   1.846   4.790
 8137SOL    HW225311   4.155   1.864   4.824
 8138SOL     OW25312   5.258   1.196   1.798
 8138SOL    HW125313   5.270   1.267   1.728
 8138SOL    HW225314   5.333   1.203   1.865
 8139SOL     OW25315   1.259   1.633   2.544
 8139SOL    HW125316   1.217   1.647   2.454
 8139SOL    HW225317   1.353   1.601   2.533
 8140SOL     OW25318   4.250   0.912   4.085
 8140SOL    HW125319   4.320   0.956   4.029
 8140SOL    HW225320   4.161   0.953   4.065
 8141SOL     OW25321   4.466   5.073   5.450
 8141SOL    HW125322   4.509   5.079   5.540
 8141SOL    HW225323   4.372   5.042   5.460
 8142SOL     OW25324   5.727   4.492   0.533
 8142SOL    HW125325   5.650   4.429   0.543
 8142SOL    HW225326   5.807   4.455   0.581
 8143SOL     OW25327   5.974   4.477   6.044
 8143SOL    HW125328   5.991   4.464   6.141
 8143SOL    HW225329   5.883   4.442   6.021
 8144SOL     OW25330   5.545   0.140   0.074
 8144SOL    HW125331   5.630   0.088   0.085
 8144SOL    HW225332   5.528   0.193   0.157
 8145SOL     OW25333   6.339   6.064   2.904
 8145SOL    HW125334   6.313   6.121   2.982
 8145SOL    HW225335   6.277   5.986   2.899
 8146SOL     OW25336   3.483   0.955   5.822
 8146SOL    HW125337   3.553   0.884   5.815
 8146SOL    HW225338   3.436   0.965   5.734
 8147SOL     OW25339   4.428   2.176   4.453
 8147SOL    HW125340   4.352   2.169   4.388
 8147SOL    HW225341   4.508   2.212   4.406
 8148SOL     OW25342   5.480   2.682   2.696
 8148SOL    HW125343   5.426   2.651   2.618
 8148SOL    HW225344   5.420   2.700   2.774
 8149SOL     OW25345   3.863   5.220   2.599
 8149SOL    HW125346   3.921   5.180   2.671
 8149SOL    HW225347   3.773   5.241   2.636
 8150SOL     OW25348   0.715   5.256   0.267
 8150SOL    HW125349   0.711   5.319   0.345
 8150SOL    HW225350   0.801   5.267   0.219
 8151SOL     OW25351   1.387   2.166   4.636
 8151SOL    HW125352   1.397   2.263   4.658
 8151SOL    HW225353   1.457   2.139   4.570
 8152SOL     OW25354   1.848   0.657   3.665
 8152SOL    HW125355   1.919   0.683   3.600
 8152SOL    HW225356   1.759   0.656   3.618
 8153SOL     OW25357   2.698   6.927   1.457
 8153SOL    HW125358   2.710   6.932   1.556
 8153SOL    HW225359   2.601   6.942   1.435
 8154SOL     OW25360   1.874   6.376   4.035
 8154SOL    HW125361   1.808   6.417   3.972
 8154SOL    HW225362   1.897   6.442   4.106
 8155SOL     OW25363   2.966   3.116   2.535
 8155SOL    HW125364   2.954   3.154   2.627
 8155SOL    HW225365   3.047   3.156   2.493
 8156SOL     OW25366   5.809   0.959   5.503
 8156SOL    HW125367   5.867   0.986   5.580
 8156SOL    HW225368   5.798   0.860   5.502
 8157SOL     OW25369   5.771   3.957   6.599
 8157SOL    HW125370   5.747   3.959   6.502
 8157SOL    HW225371   5.810   3.868   6.623
 8158SOL     OW25372   1.242   5.615   1.509
 8158SOL    HW125373   1.243   5.563   1.424
 8158SOL    HW225374   1.150   5.651   1.526
 8159SOL     OW25375   2.207   5.093   1.915
 8159SOL    HW125376   2.152   5.094   1.998
 8159SOL    HW225377   2.302   5.070   1.938
 8160SOL     OW25378   4.281   2.074   1.363
 8160SOL    HW125379   4.190   2.068   1.321
 8160SOL    HW225380   4.287   2.158   1.418
 8161SOL     OW25381   4.823   1.378   0.492
 8161SOL    HW125382   4.840   1.396   0.396
 8161SOL    HW225383   4.823   1.464   0.543
 8162SOL     OW25384   5.745   6.800   1.291
 8162SOL    HW125385   5.657   6.759   1.268
 8162SOL    HW225386   5.778   6.855   1.214
 8163SOL     OW25387   2.379   4.290   5.365
 8163SOL    HW125388   2.414   4.348   5.291
 8163SOL    HW225389   2.397   4.194   5.342
 8164SOL     OW25390   4.343   2.340   1.411
 8164SOL    HW125391   4.410   2.348   1.484
 8164SOL    HW225392   4.289   2.425   1.406
 8165SOL     OW25393   2.193   4.237   1.330
 8165SOL    HW125394   2.268   4.292   1.367
 8165SOL    HW225395   2.139   4.200   1.405
 8166SOL     OW25396   2.747   0.743   2.045
 8166SOL    HW125397   2.823   0.698   2.000
 8166SOL    HW225398   2.670   0.751   1.981
 8167SOL     OW25399   6.060   2.922   3.779
 8167SOL    HW125400   6.060   2.826   3.750
 8167SOL    HW225401   6.092   2.928   3.873
 8168SOL     OW25402   3.642   1.301   3.002
 8168SOL    HW125403   3.567   1.361   3.030
 8168SOL    HW225404   3.660   1.234   3.075
 8169SOL     OW25405   4.401   3.754   7.020
 8169SOL    HW125406   4.369   3.732   0.086
 8169SOL    HW225407   4.491   3.798   0.000
 8170SOL     OW25408   0.537   5.893   4.243
 8170SOL    HW125409   0.445   5.877   4.279
 8170SOL    HW225410   0.596   5.815   4.264
 8171SOL     OW25411   0.654   2.294   6.209
 8171SOL    HW125412   0.649   2.320   6.305
 8171SOL    HW225413   0.740   2.245   6.192
 8172SOL     OW25414   0.332   6.698   0.664
 8172SOL    HW125415   0.236   6.713   0.687
 8172SOL    HW225416   0.381   6.785   0.668
 8173SOL     OW25417   3.410   2.901   0.066
 8173SOL    HW125418   3.418   2.883   0.164
 8173SOL    HW225419   3.456   2.987   0.045
 8174SOL     OW25420   5.539   0.885   1.575
 8174SOL    HW125421   5.564   0.792   1.601
 8174SOL    HW225422   5.444   0.902   1.599
 8175SOL     OW25423   0.533   1.992   6.701
 8175SOL    HW125424   0.555   2.026   6.609
 8175SOL    HW225425   0.594   2.035   6.768
 8176SOL     OW25426   2.495   5.535   2.054
 8176SOL    HW125427   2.554   5.608   2.020
 8176SOL    HW225428   2.529   5.504   2.143
 8177SOL     OW25429   6.831   6.604   4.617
 8177SOL    HW125430   6.914   6.639   4.573
 8177SOL    HW225431   6.825   6.639   4.710
 8178SOL     OW25432   1.395   6.474   6.722
 8178SOL    HW125433   1.420   6.396   6.779
 8178SOL    HW225434   1.463   6.487   6.650
 8179SOL     OW25435   3.179   2.977   6.869
 8179SOL    HW125436   3.097   2.968   6.811
 8179SOL    HW225437   3.188   3.073   6.897
 8180SOL     OW25438   6.464   6.740   4.760
 8180SOL    HW125439   6.525   6.772   4.832
 8180SOL    HW225440   6.491   6.648   4.731
 8181SOL     OW25441   2.357   2.167   3.258
 8181SOL    HW125442   2.378   2.223   3.178
 8181SOL    HW225443   2.352   2.071   3.231
 8182SOL     OW25444   4.236   2.121   5.265
 8182SOL    HW125445   4.223   2.217   5.291
 8182SOL    HW225446   4.308   2.080   5.321
 8183SOL     OW25447   1.348   3.790   4.449
 8183SOL    HW125448   1.276   3.852   4.419
 8183SOL    HW225449   1.366   3.722   4.378
 8184SOL     OW25450   6.831   0.194   5.549
 8184SOL    HW125451   6.823   0.274   5.609
 8184SOL    HW225452   6.830   0.224   5.454
 8185SOL     OW25453   3.140   1.643   2.116
 8185SOL    HW125454   3.149   1.644   2.216
 8185SOL    HW225455   3.126   1.737   2.083
 8186SOL     OW25456   3.933   6.102   5.781
 8186SOL    HW125457   4.032   6.099   5.793
 8186SOL    HW225458   3.889   6.047   5.853
 8187SOL     OW25459   1.692   2.036   5.364
 8187SOL    HW125460   1.784   1.996   5.372
 8187SOL    HW225461   1.698   2.135   5.362
 8188SOL     OW25462   6.275   2.591   3.057
 8188SOL    HW125463   6.230   2.512   3.099
 8188SOL    HW225464   6.284   2.664   3.124
 8189SOL     OW25465   6.228   4.355   2.802
 8189SOL    HW125466   6.304   4.420   2.795
 8189SOL    HW225467   6.224   4.299   2.719
 8190SOL     OW25468   5.372   3.510   3.764
 8190SOL    HW125469   5.372   3.610   3.768
 8190SOL    HW225470   5.464   3.476   3.784
 8191SOL     OW25471   0.797   5.505   4.020
 8191SOL    HW125472   0.868   5.444   4.056
 8191SOL    HW225473   0.720   5.451   3.987
 8192SOL     OW25474   1.966   4.347   2.038
 8192SOL    HW125475   1.929   4.438   2.054
 8192SOL    HW225476   1.940   4.286   2.113
 8193SOL     OW25477   3.908   0.017   5.230
 8193SOL    HW125478   3.808   0.014   5.226
 8193SOL    HW225479   3.943   6.958   5.268
 8194SOL     OW25480   6.659   0.729   0.385
 8194SOL    HW125481   6.733   0.771   0.333
 8194SOL    HW225482   6.696   0.666   0.453
 8195SOL     OW25483   6.697   6.391   0.082
 8195SOL    HW125484   6.657   6.482   0.086
 8195SOL    HW225485   6.631   6.328   0.041
 8196SOL     OW25486   2.937   6.508   6.334
 8196SOL    HW125487   2.979   6.598   6.321
 8196SOL    HW225488   2.839   6.515   6.316
 8197SOL     OW25489   0.616   0.576   6.042
 8197SOL    HW125490   0.588   0.502   6.103
 8197SOL    HW225491   0.586   0.556   5.949
 8198SOL     OW25492   2.824   6.873   3.263
 8198SOL    HW125493   2.890   6.887   3.337
 8198SOL    HW225494   2.731   6.889   3.298
 8199SOL     OW25495   6.775   3.259   6.976
 8199SOL    HW125496   6.743   3.245   6.882
 8199SOL    HW225497   6.821   3.347   6.983
 8200SOL     OW25498   5.522   4.011   0.972
 8200SOL    HW125499   5.537   4.071   1.051
 8200SOL    HW225500   5.578   3.928   0.982
 8201SOL     OW25501   5.736   6.882   3.552
 8201SOL    HW125502   5.669   6.956   3.549
 8201SOL    HW225503   5.809   6.900   3.486
 8202SOL     OW25504   1.499   3.992   3.544
 8202SOL    HW125505   1.591   4.014   3.511
 8202SOL    HW225506   1.493   3.895   3.566
 8203SOL     OW25507   6.022   3.612   1.394
 8203SOL    HW125508   6.109   3.661   1.392
 8203SOL    HW225509   5.979   3.618   1.304
 8204SOL     OW25510   3.549   0.197   2.079
 8204SOL    HW125511   3.567   0.174   1.983
 8204SOL    HW225512   3.503   0.119   2.123
 8205SOL     OW25513   5.634   5.597   1.445
 8205SOL    HW125514   5.552   5.541   1.458
 8205SOL    HW225515   5.676   5.575   1.357
 8206SOL     OW25516   4.307   1.976   5.033
 8206SOL    HW125517   4.290   1.885   4.994
 8206SOL    HW225518   4.343   1.966   5.125
 8207SOL     OW25519   2.721   5.613   6.780
 8207SOL    HW125520   2.649   5.660   6.729
 8207SOL    HW225521   2.684   5.532   6.824
 8208SOL     OW25522   1.765   4.782   0.878
 8208SOL    HW125523   1.774   4.688   0.845
 8208SOL    HW225524   1.770   4.782   0.978
 8209SOL     OW25525   0.479   0.256   5.073
 8209SOL    HW125526   0.457   0.331   5.135
 8209SOL    HW225527   0.475   0.169   5.123
 8210SOL     OW25528   2.555   1.025   0.351
 8210SOL    HW125529   2.482   1.022   0.283
 8210SOL    HW225530   2.639   0.986   0.312
 8211SOL     OW25531   3.508   2.883   4.689
 8211SOL    HW125532   3.543   2.873   4.595
 8211SOL    HW225533   3.584   2.871   4.753
 8212SOL     OW25534   3.639   0.479   1.140
 8212SOL    HW125535   3.680   0.512   1.055
 8212SOL    HW225536   3.659   0.381   1.150
 8213SOL     OW25537   4.574   4.036   1.641
 8213SOL    HW125538   4.666   4.003   1.665
 8213SOL    HW225539   4.547   4.107   1.706
 8214SOL     OW25540   3.492   5.481   4.474
 8214SOL    HW125541   3.500   5.573   4.436
 8214SOL    HW225542   3.421   5.479   4.544
 8215SOL     OW25543   4.309   6.743   6.753
 8215SOL    HW125544   4.214   6.716   6.769
 8215SOL    HW225545   4.312   6.828   6.702
 8216SOL     OW25546   5.191   5.115   1.387
 8216SOL    HW125547   5.169   5.207   1.352
 8216SOL    HW225548   5.238   5.063   1.316
 8217SOL     OW25549   1.864   5.926   3.711
 8217SOL    HW125550   1.785   5.871   3.683
 8217SOL    HW225551   1.948   5.876   3.691
 8218SOL     OW25552   1.668   0.057   4.727
 8218SOL    HW125553   1.575   0.091   4.716
 8218SOL    HW225554   1.688   0.044   4.824
 8219SOL     OW25555   3.694   3.433   0.826
 8219SOL    HW125556   3.622   3.502   0.827
 8219SOL    HW225557   3.733   3.425   0.918
 8220SOL     OW25558   4.139   3.341   4.314
 8220SOL    HW125559   4.112   3.381   4.226
 8220SOL    HW225560   4.238   3.325   4.314
 8221SOL     OW25561   5.900   3.191   3.488
 8221SOL    HW125562   5.928   3.284   3.461
 8221SOL    HW225563   5.929   3.173   3.581
 8222SOL     OW25564   6.203   3.522   0.636
 8222SOL    HW125565   6.291   3.485   0.604
 8222SOL    HW225566   6.171   3.592   0.572
 8223SOL     OW25567   0.567   5.808   5.315
 8223SOL    HW125568   0.505   5.754   5.373
 8223SOL    HW225569   0.538   5.801   5.219
 8224SOL     OW25570   5.179   1.811   0.524
 8224SOL    HW125571   5.085   1.808   0.557
 8224SOL    HW225572   5.230   1.734   0.563
 8225SOL     OW25573   5.106   1.463   0.611
 8225SOL    HW125574   5.088   1.366   0.627
 8225SOL    HW225575   5.021   1.509   0.587
 8226SOL     OW25576   4.146   0.453   0.469
 8226SOL    HW125577   4.188   0.438   0.379
 8226SOL    HW225578   4.053   0.488   0.456
 8227SOL     OW25579   5.139   2.164   2.913
 8227SOL    HW125580   5.117   2.140   2.818
 8227SOL    HW225581   5.119   2.086   2.972
 8228SOL     OW25582   1.891   0.557   5.013
 8228SOL    HW125583   1.915   0.566   4.916
 8228SOL    HW225584   1.962   0.600   5.069
 8229SOL     OW25585   4.583   4.394   0.886
 8229SOL    HW125586   4.518   4.413   0.960
 8229SOL    HW225587   4.534   4.365   0.805
 8230SOL     OW25588   5.800   0.685   6.085
 8230SOL    HW125589   5.766   0.691   5.991
 8230SOL    HW225590   5.803   0.589   6.113
 8231SOL     OW25591   2.265   1.513   2.673
 8231SOL    HW125592   2.293   1.568   2.751
 8231SOL    HW225593   2.207   1.568   2.612
 8232SOL     OW25594   3.654   6.326   2.629
 8232SOL    HW125595   3.731   6.390   2.630
 8232SOL    HW225596   3.689   6.233   2.637
 8233SOL     OW25597   0.843   1.312   5.987
 8233SOL    HW125598   0.882   1.231   6.029
 8233SOL    HW225599   0.885   1.327   5.898
 8234SOL     OW25600   1.294   1.813   0.488
 8234SOL    HW125601   1.375   1.836   0.434
 8234SOL    HW225602   1.302   1.720   0.522
 8235SOL     OW25603   0.576   5.694   1.286
 8235SOL    HW125604   0.517   5.701   1.205
 8235SOL    HW225605   0.656   5.754   1.274
 8236SOL     OW25606   0.700   6.255   0.879
 8236SOL    HW125607   0.705   6.231   0.782
 8236SOL    HW225608   0.792   6.270   0.914
 8237SOL     OW25609   4.534   4.798   0.154
 8237SOL    HW125610   4.599   4.770   0.225
 8237SOL    HW225611   4.521   4.897   0.158
 8238SOL     OW25612   0.744   4.176   0.572
 8238SOL    HW125613   0.776   4.187   0.666
 8238SOL    HW225614   0.748   4.080   0.546
 8239SOL     OW25615   1.777   1.325   5.480
 8239SOL    HW125616   1.732   1.372   5.556
 8239SOL    HW225617   1.754   1.370   5.394
 8240SOL     OW25618   3.679   3.842   4.497
 8240SOL    HW125619   3.596   3.871   4.545
 8240SOL    HW225620   3.743   3.919   4.490
 8241SOL     OW25621   2.133   3.915   6.174
 8241SOL    HW125622   2.084   3.839   6.217
 8241SOL    HW225623   2.228   3.888   6.158
 8242SOL     OW25624   0.992   3.574   3.641
 8242SOL    HW125625   0.900   3.614   3.649
 8242SOL    HW225626   1.060   3.643   3.662
 8243SOL     OW25627   0.364   5.061   4.616
 8243SOL    HW125628   0.462   5.071   4.635
 8243SOL    HW225629   0.317   5.036   4.701
 8244SOL     OW25630   1.161   0.508   4.620
 8244SOL    HW125631   1.093   0.436   4.607
 8244SOL    HW225632   1.154   0.574   4.545
 8245SOL     OW25633   5.410   1.790   3.507
 8245SOL    HW125634   5.357   1.847   3.445
 8245SOL    HW225635   5.425   1.840   3.593
 8246SOL     OW25636   2.344   5.420   6.818
 8246SOL    HW125637   2.279   5.413   6.893
 8246SOL    HW225638   2.341   5.513   6.780
 8247SOL     OW25639   2.776   5.197   2.769
 8247SOL    HW125640   2.827   5.268   2.721
 8247SOL    HW225641   2.687   5.186   2.726
 8248SOL     OW25642   0.032   5.137   2.992
 8248SOL    HW125643   0.077   5.224   3.011
 8248SOL    HW225644   0.099   5.063   2.994
 8249SOL     OW25645   3.371   2.035   6.235
 8249SOL    HW125646   3.339   2.026   6.329
 8249SOL    HW225647   3.396   2.130   6.217
 8250SOL     OW25648   1.431   1.381   6.965
 8250SOL    HW125649   1.525   1.401   6.996
 8250SOL    HW225650   1.428   1.384   6.865
 8251SOL     OW25651   0.397   1.974   4.495
 8251SOL    HW125652   0.343   2.039   4.441
 8251SOL    HW225653   0.415   2.013   4.585
 8252SOL     OW25654   1.425   1.832   6.586
 8252SOL    HW125655   1.502   1.828   6.649
 8252SOL    HW225656   1.448   1.786   6.500
 8253SOL     OW25657   4.875   6.023   0.848
 8253SOL    HW125658   4.844   5.945   0.793
 8253SOL    HW225659   4.829   6.106   0.817
 8254SOL     OW25660   5.164   4.993   6.496
 8254SOL    HW125661   5.218   5.075   6.514
 8254SOL    HW225662   5.160   4.937   6.579
 8255SOL     OW25663   0.840   6.596   6.614
 8255SOL    HW125664   0.840   6.567   6.710
 8255SOL    HW225665   0.812   6.692   6.609
 8256SOL     OW25666   1.618   5.396   3.325
 8256SOL    HW125667   1.551   5.470   3.336
 8256SOL    HW225668   1.626   5.345   3.411
 8257SOL     OW25669   4.941   3.324   2.888
 8257SOL    HW125670   4.983   3.399   2.836
 8257SOL    HW225671   4.883   3.362   2.960
 8258SOL     OW25672   6.435   3.174   2.032
 8258SOL    HW125673   6.469   3.094   2.083
 8258SOL    HW225674   6.341   3.157   2.002
 8259SOL     OW25675   5.195   1.165   4.287
 8259SOL    HW125676   5.206   1.248   4.232
 8259SOL    HW225677   5.184   1.190   4.383
 8260SOL     OW25678   3.944   1.286   1.494
 8260SOL    HW125679   3.908   1.310   1.585
 8260SOL    HW225680   3.979   1.369   1.450
 8261SOL     OW25681   5.830   0.298   2.938
 8261SOL    HW125682   5.843   0.245   2.854
 8261SOL    HW225683   5.793   0.389   2.915
 8262SOL     OW25684   5.925   3.820   2.042
 8262SOL    HW125685   5.956   3.730   2.011
 8262SOL    HW225686   5.886   3.870   1.964
 8263SOL     OW25687   6.890   2.282   5.854
 8263SOL    HW125688   6.855   2.374   5.873
 8263SOL    HW225689   6.955   2.287   5.778
 8264SOL     OW25690   2.890   0.050   3.069
 8264SOL    HW125691   2.849   0.044   2.978
 8264SOL    HW225692   2.866   6.995   3.122
 8265SOL     OW25693   5.174   0.285   0.310
 8265SOL    HW125694   5.140   0.304   0.402
 8265SOL    HW225695   5.168   0.368   0.255
 8266SOL     OW25696   2.524   0.642   3.866
 8266SOL    HW125697   2.548   0.710   3.797
 8266SOL    HW225698   2.585   0.650   3.944
 8267SOL     OW25699   1.593   4.324   2.995
 8267SOL    HW125700   1.627   4.245   3.046
 8267SOL    HW225701   1.500   4.305   2.963
 8268SOL     OW25702   3.624   4.840   6.390
 8268SOL    HW125703   3.632   4.759   6.449
 8268SOL    HW225704   3.626   4.812   6.294
 8269SOL     OW25705   6.051   2.653   3.693
 8269SOL    HW125706   6.032   2.672   3.596
 8269SOL    HW225707   6.068   2.555   3.704
 8270SOL     OW25708   3.728   0.113   6.311
 8270SOL    HW125709   3.746   0.024   6.352
 8270SOL    HW225710   3.714   0.102   6.212
 8271SOL     OW25711   3.830   5.971   5.537
 8271SOL    HW125712   3.886   5.889   5.533
 8271SOL    HW225713   3.855   6.025   5.617
 8272SOL     OW25714   0.512   0.213   1.492
 8272SOL    HW125715   0.558   0.268   1.422
 8272SOL    HW225716   0.523   0.116   1.471
 8273SOL     OW25717   3.467   0.249   6.911
 8273SOL    HW125718   3.403   0.323   6.894
 8273SOL    HW225719   3.426   0.162   6.886
 8274SOL     OW25720   5.568   6.381   5.918
 8274SOL    HW125721   5.508   6.347   5.846
 8274SOL    HW225722   5.654   6.330   5.916
 8275SOL     OW25723   5.658   0.416   3.243
 8275SOL    HW125724   5.689   0.328   3.207
 8275SOL    HW225725   5.567   0.405   3.284
 8276SOL     OW25726   0.237   2.225   6.207
 8276SOL    HW125727   0.279   2.201   6.294
 8276SOL    HW225728   0.138   2.229   6.217
 8277SOL     OW25729   1.055   6.245   6.706
 8277SOL    HW125730   0.988   6.196   6.651
 8277SOL    HW225731   1.136   6.187   6.718
 8278SOL     OW25732   3.842   1.014   0.330
 8278SOL    HW125733   3.835   1.060   0.419
 8278SOL    HW225734   3.896   0.930   0.341
 8279SOL     OW25735   4.924   4.988   5.548
 8279SOL    HW125736   5.017   4.980   5.513
 8279SOL    HW225737   4.911   5.079   5.588
 8280SOL     OW25738   5.063   3.175   7.020
 8280SOL    HW125739   5.141   3.146   0.050
 8280SOL    HW225740   4.987   3.112   0.010
 8281SOL     OW25741   2.388   4.968   0.300
 8281SOL    HW125742   2.486   4.980   0.281
 8281SOL    HW225743   2.375   4.952   0.398
 8282SOL     OW25744   2.788   1.812   0.597
 8282SOL    HW125745   2.885   1.788   0.598
 8282SOL    HW225746   2.741   1.758   0.528
 8283SOL     OW25747   0.013   5.596   3.160
 8283SOL    HW125748   6.959   5.557   3.207
 8283SOL    HW225749   7.014   5.617   3.065
 8284SOL     OW25750   2.781   1.867   2.155
 8284SOL    HW125751   2.874   1.881   2.121
 8284SOL    HW225752   2.723   1.943   2.128
 8285SOL     OW25753   3.062   4.383   6.300
 8285SOL    HW125754   3.086   4.468   6.253
 8285SOL    HW225755   3.034   4.404   6.394
 8286SOL     OW25756   5.486   1.688   5.567
 8286SOL    HW125757   5.486   1.600   5.520
 8286SOL    HW225758   5.435   1.680   5.653
 8287SOL     OW25759   2.239   0.513   3.584
 8287SOL    HW125760   2.285   0.600   3.565
 8287SOL    HW225761   2.191   0.482   3.502
 8288SOL     OW25762   2.341   1.176   3.062
 8288SOL    HW125763   2.391   1.163   3.148
 8288SOL    HW225764   2.277   1.252   3.071
 8289SOL     OW25765   6.632   1.509   5.872
 8289SOL    HW125766   6.537   1.516   5.842
 8289SOL    HW225767   6.634   1.505   5.972
 8290SOL     OW25768   4.618   2.892   1.659
 8290SOL    HW125769   4.645   2.957   1.730
 8290SOL    HW225770   4.519   2.893   1.648
 8291SOL     OW25771   4.094   4.988   6.434
 8291SOL    HW125772   4.141   4.900   6.446
 8291SOL    HW225773   4.162   5.061   6.428
 8292SOL     OW25774   0.882   4.197   4.412
 8292SOL    HW125775   0.851   4.208   4.507
 8292SOL    HW225776   0.936   4.113   4.404
 8293SOL     OW25777   2.963   4.896   4.152
 8293SOL    HW125778   3.051   4.872   4.193
 8293SOL    HW225779   2.905   4.940   4.220
 8294SOL     OW25780   4.706   3.151   5.711
 8294SOL    HW125781   4.634   3.170   5.778
 8294SOL    HW225782   4.697   3.057   5.677
 8295SOL     OW25783   5.224   4.313   1.913
 8295SOL    HW125784   5.230   4.231   1.856
 8295SOL    HW225785   5.136   4.358   1.896
 8296SOL     OW25786   3.528   6.421   1.729
 8296SOL    HW125787   3.501   6.402   1.824
 8296SOL    HW225788   3.457   6.473   1.683
 8297SOL     OW25789   5.822   4.239   3.609
 8297SOL    HW125790   5.911   4.250   3.563
 8297SOL    HW225791   5.753   4.293   3.561
 8298SOL     OW25792   6.597   6.919   6.073
 8298SOL    HW125793   6.682   6.923   6.019
 8298SOL    HW225794   6.611   6.859   6.152
 8299SOL     OW25795   0.268   3.637   1.027
 8299SOL    HW125796   0.219   3.715   0.989
 8299SOL    HW225797   0.306   3.583   0.952
 8300SOL     OW25798   4.913   4.715   2.824
 8300SOL    HW125799   4.973   4.658   2.880
 8300SOL    HW225800   4.968   4.772   2.763
 8301SOL     OW25801   4.739   6.636   0.385
 8301SOL    HW125802   4.749   6.735   0.377
 8301SOL    HW225803   4.685   6.614   0.466
 8302SOL     OW25804   3.299   6.806   5.554
 8302SOL    HW125805   3.221   6.849   5.600
 8302SOL    HW225806   3.374   6.872   5.546
 8303SOL     OW25807   0.017   6.243   3.028
 8303SOL    HW125808   6.981   6.166   3.011
 8303SOL    HW225809   6.989   6.322   3.060
 8304SOL     OW25810   5.506   3.825   3.196
 8304SOL    HW125811   5.488   3.760   3.122
 8304SOL    HW225812   5.508   3.918   3.158
 8305SOL     OW25813   4.738   6.322   4.774
 8305SOL    HW125814   4.649   6.277   4.783
 8305SOL    HW225815   4.737   6.385   4.696
 8306SOL     OW25816   6.675   0.702   1.897
 8306SOL    HW125817   6.724   0.616   1.906
 8306SOL    HW225818   6.587   0.687   1.851
 8307SOL     OW25819   1.694   3.770   2.592
 8307SOL    HW125820   1.699   3.715   2.509
 8307SOL    HW225821   1.622   3.733   2.652
 8308SOL     OW25822   1.599   5.510   0.798
 8308SOL    HW125823   1.584   5.432   0.737
 8308SOL    HW225824   1.636   5.587   0.746
 8309SOL     OW25825   6.040   4.562   4.491
 8309SOL    HW125826   5.998   4.496   4.429
 8309SOL    HW225827   6.127   4.526   4.525
 8310SOL     OW25828   1.190   6.693   0.778
 8310SOL    HW125829   1.103   6.645   0.789
 8310SOL    HW225830   1.199   6.725   0.684
 8311SOL     OW25831   5.930   6.609   3.331
 8311SOL    HW125832   6.007   6.573   3.382
 8311SOL    HW225833   5.933   6.709   3.332
 8312SOL     OW25834   5.489   1.724   0.559
 8312SOL    HW125835   5.584   1.696   0.575
 8312SOL    HW225836   5.432   1.694   0.635
 8313SOL     OW25837   5.544   2.784   5.045
 8313SOL    HW125838   5.605   2.780   4.966
 8313SOL    HW225839   5.457   2.739   5.023
 8314SOL     OW25840   5.001   6.008   4.698
 8314SOL    HW125841   4.985   6.107   4.691
 8314SOL    HW225842   4.994   5.966   4.608
 8315SOL     OW25843   3.742   4.177   5.037
 8315SOL    HW125844   3.746   4.108   5.109
 8315SOL    HW225845   3.824   4.171   4.981
 8316SOL     OW25846   2.332   2.218   6.531
 8316SOL    HW125847   2.377   2.304   6.508
 8316SOL    HW225848   2.381   2.173   6.605
 8317SOL     OW25849   1.701   1.400   3.871
 8317SOL    HW125850   1.785   1.369   3.828
 8317SOL    HW225851   1.691   1.355   3.960
 8318SOL     OW25852   4.568   0.027   0.322
 8318SOL    HW125853   4.597   0.070   0.408
 8318SOL    HW225854   4.521   0.095   0.266
 8319SOL     OW25855   1.347   6.714   6.934
 8319SOL    HW125856   1.342   6.678   0.001
 8319SOL    HW225857   1.419   6.666   6.883
 8320SOL     OW25858   3.261   2.975   4.714
 8320SOL    HW125859   3.213   2.957   4.800
 8320SOL    HW225860   3.349   2.929   4.714
 8321SOL     OW25861   0.465   6.516   1.437
 8321SOL    HW125862   0.413   6.520   1.522
 8321SOL    HW225863   0.408   6.476   1.365
 8322SOL     OW25864   0.674   0.182   0.198
 8322SOL    HW125865   0.604   0.192   0.127
 8322SOL    HW225866   0.672   0.089   0.233
 8323SOL     OW25867   5.833   4.204   0.210
 8323SOL    HW125868   5.864   4.201   0.304
 8323SOL    HW225869   5.833   4.299   0.177
 8324SOL     OW25870   4.824   5.812   6.203
 8324SOL    HW125871   4.893   5.766   6.146
 8324SOL    HW225872   4.855   5.815   6.297
 8325SOL     OW25873   1.309   5.569   6.580
 8325SOL    HW125874   1.230   5.521   6.618
 8325SOL    HW225875   1.277   5.643   6.521
 8326SOL     OW25876   1.444   3.723   0.496
 8326SOL    HW125877   1.434   3.662   0.417
 8326SOL    HW225878   1.384   3.802   0.485
 8327SOL     OW25879   0.749   7.017   4.865
 8327SOL    HW125880   0.751   0.089   4.883
 8327SOL    HW225881   0.683   6.998   4.792
 8328SOL     OW25882   1.160   0.292   0.044
 8328SOL    HW125883   1.155   0.389   0.072
 8328SOL    HW225884   1.120   0.236   0.116
 8329SOL     OW25885   1.938   2.829   4.716
 8329SOL    HW125886   2.000   2.870   4.783
 8329SOL    HW225887   1.845   2.860   4.734
 8330SOL     OW25888   3.956   1.143   6.663
 8330SOL    HW125889   3.912   1.079   6.600
 8330SOL    HW225890   3.943   1.236   6.630
 8331SOL     OW25891   1.875   2.283   6.189
 8331SOL    HW125892   1.853   2.201   6.136
 8331SOL    HW225893   1.883   2.361   6.127
 8332SOL     OW25894   6.174   4.915   1.439
 8332SOL    HW125895   6.263   4.869   1.443
 8332SOL    HW225896   6.188   5.013   1.428
 8333SOL     OW25897   2.072   5.038   0.588
 8333SOL    HW125898   2.171   5.052   0.577
 8333SOL    HW225899   2.054   5.003   0.679
 8334SOL     OW25900   3.606   2.093   6.425
 8334SOL    HW125901   3.555   2.178   6.435
 8334SOL    HW225902   3.619   2.051   6.515
 8335SOL     OW25903   5.346   3.709   6.285
 8335SOL    HW125904   5.426   3.759   6.317
 8335SOL    HW225905   5.354   3.613   6.309
 8336SOL     OW25906   1.283   4.187   3.889
 8336SOL    HW125907   1.273   4.213   3.985
 8336SOL    HW225908   1.365   4.132   3.877
 8337SOL     OW25909   0.689   0.801   4.668
 8337SOL    HW125910   0.777   0.767   4.701
 8337SOL    HW225911   0.699   0.833   4.573
 8338SOL     OW25912   4.222   5.825   2.233
 8338SOL    HW125913   4.266   5.864   2.152
 8338SOL    HW225914   4.164   5.748   2.206
 8339SOL     OW25915   5.994   6.730   0.572
 8339SOL    HW125916   6.055   6.737   0.652
 8339SOL    HW225917   5.902   6.759   0.598
 8340SOL     OW25918   6.360   2.144   6.819
 8340SOL    HW125919   6.426   2.128   6.746
 8340SOL    HW225920   6.307   2.226   6.799
 8341SOL     OW25921   3.500   0.824   0.869
 8341SOL    HW125922   3.555   0.802   0.789
 8341SOL    HW225923   3.445   0.744   0.895
 8342SOL     OW25924   4.569   0.626   0.024
 8342SOL    HW125925   4.667   0.609   0.032
 8342SOL    HW225926   4.546   0.710   0.072
 8343SOL     OW25927   5.670   4.180   3.889
 8343SOL    HW125928   5.769   4.195   3.892
 8343SOL    HW225929   5.633   4.223   3.806
 8344SOL     OW25930   1.348   5.282   5.349
 8344SOL    HW125931   1.388   5.281   5.441
 8344SOL    HW225932   1.411   5.238   5.285
 8345SOL     OW25933   4.354   1.289   3.581
 8345SOL    HW125934   4.406   1.203   3.582
 8345SOL    HW225935   4.346   1.322   3.487
 8346SOL     OW25936   5.982   3.621   4.945
 8346SOL    HW125937   6.066   3.583   4.907
 8346SOL    HW225938   5.916   3.548   4.961
 8347SOL     OW25939   2.823   0.633   0.353
 8347SOL    HW125940   2.902   0.679   0.394
 8347SOL    HW225941   2.748   0.631   0.419
 8348SOL     OW25942   3.186   6.619   1.780
 8348SOL    HW125943   3.154   6.712   1.764
 8348SOL    HW225944   3.267   6.601   1.724
 8349SOL     OW25945   0.297   6.313   1.802
 8349SOL    HW125946   0.296   6.261   1.888
 8349SOL    HW225947   0.334   6.256   1.729
 8350SOL     OW25948   2.700   0.613   0.822
 8350SOL    HW125949   2.697   0.604   0.921
 8350SOL    HW225950   2.787   0.578   0.787
 8351SOL     OW25951   6.599   3.359   3.077
 8351SOL    HW125952   6.531   3.408   3.023
 8351SOL    HW225953   6.655   3.302   3.017
 8352SOL     OW25954   2.237   6.029   1.840
 8352SOL    HW125955   2.334   6.048   1.855
 8352SOL    HW225956   2.223   6.001   1.745
 8353SOL     OW25957   1.340   4.513   2.089
 8353SOL    HW125958   1.274   4.446   2.123
 8353SOL    HW225959   1.350   4.587   2.156
 8354SOL     OW25960   3.099   0.159   3.199
 8354SOL    HW125961   3.016   0.118   3.160
 8354SOL    HW225962   3.146   0.092   3.256
 8355SOL     OW25963   2.630   6.153   6.869
 8355SOL    HW125964   2.643   6.055   6.881
 8355SOL    HW225965   2.678   6.184   6.787
 8356SOL     OW25966   1.981   5.647   0.968
 8356SOL    HW125967   1.890   5.631   1.004
 8356SOL    HW225968   2.006   5.572   0.906
 8357SOL     OW25969   4.351   6.028   5.364
 8357SOL    HW125970   4.394   6.081   5.437
 8357SOL    HW225971   4.349   5.931   5.389
 8358SOL     OW25972   0.767   1.370   4.909
 8358SOL    HW125973   0.729   1.325   4.990
 8358SOL    HW225974   0.860   1.335   4.893
 8359SOL     OW25975   3.449   2.126   5.420
 8359SOL    HW125976   3.487   2.201   5.365
 8359SOL    HW225977   3.351   2.118   5.402
 8360SOL     OW25978   4.504   0.005   1.692
 8360SOL    HW125979   4.554   6.945   1.708
 8360SOL    HW225980   4.566   0.073   1.652
 8361SOL     OW25981   3.814   0.247   6.870
 8361SOL    HW125982   3.888   0.271   6.808
 8361SOL    HW225983   3.850   0.197   6.948
 8362SOL     OW25984   0.049   4.019   1.545
 8362SOL    HW125985   0.048   4.118   1.560
 8362SOL    HW225986   0.101   3.975   1.618
 8363SOL     OW25987   2.642   3.199   0.066
 8363SOL    HW125988   2.742   3.209   0.061
 8363SOL    HW225989   2.619   3.136   0.140
 8364SOL     OW25990   7.019   3.404   4.702
 8364SOL    HW125991   0.029   3.311   4.689
 8364SOL    HW225992   0.069   3.464   4.727
 8365SOL     OW25993   1.957   2.755   2.313
 8365SOL    HW125994   2.014   2.698   2.255
 8365SOL    HW225995   1.980   2.852   2.297
 8366SOL     OW25996   4.984   5.502   1.928
 8366SOL    HW125997   5.026   5.416   1.957
 8366SOL    HW225998   5.035   5.539   1.850
 8367SOL     OW25999   3.614   5.274   4.342
 8367SOL    HW126000   3.629   5.316   4.253
 8367SOL    HW226001   3.603   5.345   4.412
 8368SOL     OW26002   6.781   6.414   0.377
 8368SOL    HW126003   6.773   6.422   0.278
 8368SOL    HW226004   6.843   6.338   0.399
 8369SOL     OW26005   2.565   0.187   1.294
 8369SOL    HW126006   2.524   0.104   1.331
 8369SOL    HW226007   2.512   0.266   1.324
 8370SOL     OW26008   2.393   3.006   0.331
 8370SOL    HW126009   2.387   2.928   0.394
 8370SOL    HW226010   2.479   3.001   0.281
 8371SOL     OW26011   1.847   4.282   6.408
 8371SOL    HW126012   1.824   4.258   6.314
 8371SOL    HW226013   1.776   4.248   6.470
 8372SOL     OW26014   2.335   5.742   2.544
 8372SOL    HW126015   2.398   5.694   2.605
 8372SOL    HW226016   2.307   5.829   2.586
 8373SOL     OW26017   0.033   1.472   4.012
 8373SOL    HW126018   0.013   1.569   4.027
 8373SOL    HW226019   0.022   1.422   4.098
 8374SOL     OW26020   1.587   0.397   4.493
 8374SOL    HW126021   1.602   0.373   4.397
 8374SOL    HW226022   1.659   0.459   4.524
 8375SOL     OW26023   3.818   0.749   4.478
 8375SOL    HW126024   3.755   0.774   4.405
 8375SOL    HW226025   3.769   0.701   4.550
 8376SOL     OW26026   2.208   0.890   3.027
 8376SOL    HW126027   2.188   0.983   3.059
 8376SOL    HW226028   2.294   0.859   3.067
 8377SOL     OW26029   4.245   5.397   6.977
 8377SOL    HW126030   4.259   5.468   6.908
 8377SOL    HW226031   4.227   5.439   0.040
 8378SOL     OW26032   5.138   5.667   4.501
 8378SOL    HW126033   5.105   5.761   4.490
 8378SOL    HW226034   5.166   5.631   4.412
 8379SOL     OW26035   5.763   0.982   1.713
 8379SOL    HW126036   5.789   1.079   1.704
 8379SOL    HW226037   5.668   0.971   1.683
 8380SOL     OW26038   6.301   5.833   0.637
 8380SOL    HW126039   6.226   5.767   0.633
 8380SOL    HW226040   6.264   5.925   0.644
 8381SOL     OW26041   0.339   2.327   2.111
 8381SOL    HW126042   0.240   2.335   2.101
 8381SOL    HW226043   0.364   2.341   2.207
 8382SOL     OW26044   2.460   0.425   1.340
 8382SOL    HW126045   2.403   0.488   1.287
 8382SOL    HW226046   2.542   0.473   1.371
 8383SOL     OW26047   2.719   6.220   6.601
 8383SOL    HW126048   2.716   6.130   6.558
 8383SOL    HW226049   2.815   6.248   6.614
 8384SOL     OW26050   0.505   2.416   1.474
 8384SOL    HW126051   0.481   2.323   1.502
 8384SOL    HW226052   0.518   2.473   1.555
 8385SOL     OW26053   3.675   3.549   1.346
 8385SOL    HW126054   3.672   3.626   1.409
 8385SOL    HW226055   3.768   3.512   1.342
 8386SOL     OW26056   2.035   5.854   1.939
 8386SOL    HW126057   1.978   5.850   1.857
 8386SOL    HW226058   2.115   5.912   1.922
 8387SOL     OW26059   1.610   1.267   2.512
 8387SOL    HW126060   1.636   1.264   2.608
 8387SOL    HW226061   1.680   1.316   2.460
 8388SOL     OW26062   3.991   6.318   1.145
 8388SOL    HW126063   4.006   6.385   1.218
 8388SOL    HW226064   3.943   6.362   1.069
 8389SOL     OW26065   0.486   2.667   3.976
 8389SOL    HW126066   0.443   2.753   4.005
 8389SOL    HW226067   0.572   2.654   4.026
 8390SOL     OW26068   3.189   1.078   5.901
 8390SOL    HW126069   3.117   1.023   5.943
 8390SOL    HW226070   3.220   1.148   5.966
 8391SOL     OW26071   4.810   5.965   1.226
 8391SOL    HW126072   4.846   5.882   1.184
 8391SOL    HW226073   4.839   5.968   1.322
 8392SOL     OW26074   5.384   6.154   5.290
 8392SOL    HW126075   5.285   6.174   5.293
 8392SOL    HW226076   5.408   6.093   5.365
 8393SOL     OW26077   6.863   5.891   2.975
 8393SOL    HW126078   6.907   5.889   3.064
 8393SOL    HW226079   6.791   5.960   2.974
 8394SOL     OW26080   0.560   2.171   2.947
 8394SOL    HW126081   0.572   2.217   2.860
 8394SOL    HW226082   0.585   2.074   2.938
 8395SOL     OW26083   6.899   5.823   5.407
 8395SOL    HW126084   6.918   5.728   5.383
 8395SOL    HW226085   6.889   5.877   5.323
 8396SOL     OW26086   4.929   3.497   1.875
 8396SOL    HW126087   4.982   3.439   1.813
 8396SOL    HW226088   4.842   3.521   1.833
 8397SOL     OW26089   2.128   5.557   3.458
 8397SOL    HW126090   2.163   5.641   3.418
 8397SOL    HW226091   2.055   5.520   3.400
 8398SOL     OW26092   4.371   1.877   0.471
 8398SOL    HW126093   4.278   1.895   0.441
 8398SOL    HW226094   4.372   1.799   0.534
 8399SOL     OW26095   5.650   5.612   0.188
 8399SOL    HW126096   5.620   5.679   0.256
 8399SOL    HW226097   5.735   5.643   0.147
 8400SOL     OW26098   6.880   0.862   2.540
 8400SOL    HW126099   6.781   0.869   2.554
 8400SOL    HW226100   6.898   0.816   2.454
 8401SOL     OW26101   3.176   4.497   6.658
 8401SOL    HW126102   3.200   4.410   6.702
 8401SOL    HW226103   3.226   4.571   6.701
 8402SOL     OW26104   4.611   1.944   7.012
 8402SOL    HW126105   4.573   1.852   7.006
 8402SOL    HW226106   4.553   2.009   6.962
 8403SOL     OW26107   1.988   1.405   4.748
 8403SOL    HW126108   2.059   1.334   4.753
 8403SOL    HW226109   2.020   1.479   4.688
 8404SOL     OW26110   4.605   5.237   5.774
 8404SOL    HW126111   4.586   5.139   5.768
 8404SOL    HW226112   4.554   5.276   5.851
 8405SOL     OW26113   0.741   2.661   5.482
 8405SOL    HW126114   0.726   2.702   5.572
 8405SOL    HW226115   0.833   2.683   5.450
 8406SOL     OW26116   5.060   3.325   1.676
 8406SOL    HW126117   5.040   3.242   1.727
 8406SOL    HW226118   5.138   3.308   1.614
 8407SOL     OW26119   4.758   3.948   2.796
 8407SOL    HW126120   4.718   4.010   2.863
 8407SOL    HW226121   4.763   3.992   2.707
 8408SOL     OW26122   5.056   2.384   4.939
 8408SOL    HW126123   5.098   2.413   5.025
 8408SOL    HW226124   5.065   2.457   4.872
 8409SOL     OW26125   1.260   1.675   3.786
 8409SOL    HW126126   1.239   1.686   3.689
 8409SOL    HW226127   1.185   1.626   3.831
 8410SOL     OW26128   3.949   6.978   1.659
 8410SOL    HW126129   4.013   6.924   1.715
 8410SOL    HW226130   4.000   0.023   1.611
 8411SOL     OW26131   1.559   3.577   4.910
 8411SOL    HW126132   1.643   3.627   4.890
 8411SOL    HW226133   1.514   3.617   4.990
 8412SOL     OW26134   5.402   2.304   3.471
 8412SOL    HW126135   5.391   2.256   3.385
 8412SOL    HW226136   5.498   2.299   3.501
 8413SOL     OW26137   3.728   4.688   0.668
 8413SOL    HW126138   3.828   4.681   0.666
 8413SOL    HW226139   3.693   4.641   0.749
 8414SOL     OW26140   4.219   6.454   3.134
 8414SOL    HW126141   4.229   6.431   3.037
 8414SOL    HW226142   4.181   6.546   3.142
 8415SOL     OW26143   6.574   4.370   2.584
 8415SOL    HW126144   6.504   4.300   2.565
 8415SOL    HW226145   6.544   4.428   2.659
 8416SOL     OW26146   5.357   3.729   2.408
 8416SOL    HW126147   5.436   3.692   2.359
 8416SOL    HW226148   5.384   3.812   2.457
 8417SOL     OW26149   2.700   6.332   6.078
 8417SOL    HW126150   2.624   6.320   6.015
 8417SOL    HW226151   2.671   6.386   6.157
 8418SOL     OW26152   6.676   5.275   3.084
 8418SOL    HW126153   6.692   5.245   3.178
 8418SOL    HW226154   6.588   5.241   3.052
 8419SOL     OW26155   4.395   0.704   3.340
 8419SOL    HW126156   4.462   0.779   3.348
 8419SOL    HW226157   4.376   0.667   3.431
 8420SOL     OW26158   3.849   0.999   6.456
 8420SOL    HW126159   3.880   0.929   6.520
 8420SOL    HW226160   3.864   0.967   6.362
 8421SOL     OW26161   1.863   6.758   1.813
 8421SOL    HW126162   1.906   6.825   1.873
 8421SOL    HW226163   1.924   6.736   1.737
 8422SOL     OW26164   4.742   6.988   0.729
 8422SOL    HW126165   4.669   6.974   0.796
 8422SOL    HW226166   4.829   7.003   0.777
 8423SOL     OW26167   3.748   3.719   0.994
 8423SOL    HW126168   3.668   3.768   1.029
 8423SOL    HW226169   3.829   3.747   1.045
 8424SOL     OW26170   3.423   1.193   2.687
 8424SOL    HW126171   3.363   1.232   2.757
 8424SOL    HW226172   3.504   1.251   2.677
 8425SOL     OW26173   6.441   4.743   0.044
 8425SOL    HW126174   6.513   4.802   0.008
 8425SOL    HW226175   6.360   4.798   0.063
 8426SOL     OW26176   4.132   3.604   3.562
 8426SOL    HW126177   4.184   3.594   3.646
 8426SOL    HW226178   4.067   3.680   3.571
 8427SOL     OW26179   2.194   3.924   6.655
 8427SOL    HW126180   2.290   3.954   6.651
 8427SOL    HW226181   2.134   4.000   6.633
 8428SOL     OW26182   6.650   4.231   1.954
 8428SOL    HW126183   6.645   4.214   2.052
 8428SOL    HW226184   6.744   4.254   1.928
 8429SOL     OW26185   1.585   6.371   3.613
 8429SOL    HW126186   1.572   6.421   3.699
 8429SOL    HW226187   1.655   6.417   3.559
 8430SOL     OW26188   4.298   4.894   2.817
 8430SOL    HW126189   4.232   4.861   2.749
 8430SOL    HW226190   4.363   4.956   2.773
 8431SOL     OW26191   3.177   5.026   1.275
 8431SOL    HW126192   3.091   5.066   1.308
 8431SOL    HW226193   3.233   4.999   1.354
 8432SOL     OW26194   4.426   6.779   6.282
 8432SOL    HW126195   4.454   6.866   6.324
 8432SOL    HW226196   4.338   6.791   6.237
 8433SOL     OW26197   1.184   2.253   6.109
 8433SOL    HW126198   1.142   2.306   6.035
 8433SOL    HW226199   1.154   2.290   6.197
 8434SOL     OW26200   5.378   0.042   5.398
 8434SOL    HW126201   5.378   0.136   5.363
 8434SOL    HW226202   5.463   7.023   5.371
 8435SOL     OW26203   4.243   1.679   1.253
 8435SOL    HW126204   4.332   1.721   1.266
 8435SOL    HW226205   4.249   1.608   1.182
 8436SOL     OW26206   4.296   4.284   1.677
 8436SOL    HW126207   4.297   4.221   1.600
 8436SOL    HW226208   4.371   4.263   1.739
 8437SOL     OW26209   0.795   1.389   1.311
 8437SOL    HW126210   0.726   1.455   1.283
 8437SOL    HW226211   0.864   1.380   1.239
 8438SOL     OW26212   1.782   5.546   2.324
 8438SOL    HW126213   1.810   5.607   2.250
 8438SOL    HW226214   1.777   5.453   2.290
 8439SOL     OW26215   0.197   5.106   2.516
 8439SOL    HW126216   0.225   5.196   2.484
 8439SOL    HW226217   0.098   5.096   2.506
 8440SOL     OW26218   0.807   1.157   2.636
 8440SOL    HW126219   0.835   1.246   2.671
 8440SOL    HW226220   0.767   1.169   2.545
 8441SOL     OW26221   4.270   5.257   6.511
 8441SOL    HW126222   4.298   5.251   6.607
 8441SOL    HW226223   4.205   5.332   6.500
 8442SOL     OW26224   2.336   4.847   0.036
 8442SOL    HW126225   2.293   4.927   7.020
 8442SOL    HW226226   2.373   4.871   0.125
 8443SOL     OW26227   1.838   0.536   2.994
 8443SOL    HW126228   1.883   0.624   2.979
 8443SOL    HW226229   1.864   0.473   2.921
 8444SOL     OW26230   3.345   6.311   3.285
 8444SOL    HW126231   3.326   6.214   3.303
 8444SOL    HW226232   3.318   6.365   3.364
 8445SOL     OW26233   3.809   4.906   2.896
 8445SOL    HW126234   3.739   4.900   2.968
 8445SOL    HW226235   3.765   4.905   2.806
 8446SOL     OW26236   5.580   4.588   2.391
 8446SOL    HW126237   5.540   4.497   2.401
 8446SOL    HW226238   5.575   4.617   2.296
 8447SOL     OW26239   4.657   2.582   2.014
 8447SOL    HW126240   4.682   2.662   2.069
 8447SOL    HW226241   4.709   2.582   1.929
 8448SOL     OW26242   0.810   3.582   6.555
 8448SOL    HW126243   0.790   3.599   6.459
 8448SOL    HW226244   0.770   3.653   6.611
 8449SOL     OW26245   1.890   3.197   4.638
 8449SOL    HW126246   1.863   3.270   4.576
 8449SOL    HW226247   1.909   3.114   4.585
 8450SOL     OW26248   2.209   5.381   2.792
 8450SOL    HW126249   2.147   5.327   2.849
 8450SOL    HW226250   2.227   5.469   2.835
 8451SOL     OW26251   3.564   2.522   1.221
 8451SOL    HW126252   3.581   2.488   1.129
 8451SOL    HW226253   3.646   2.510   1.277
 8452SOL     OW26254   6.703   6.660   0.479
 8452SOL    HW126255   6.772   6.730   0.461
 8452SOL    HW226256   6.740   6.570   0.455
 8453SOL     OW26257   6.352   3.856   5.981
 8453SOL    HW126258   6.349   3.756   5.991
 8453SOL    HW226259   6.355   3.898   6.072
 8454SOL     OW26260   1.930   0.223   4.128
 8454SOL    HW126261   1.946   0.238   4.226
 8454SOL    HW226262   1.840   0.183   4.115
 8455SOL     OW26263   4.737   1.665   1.240
 8455SOL    HW126264   4.814   1.727   1.246
 8455SOL    HW226265   4.760   1.578   1.283
 8456SOL     OW26266   5.712   5.600   2.852
 8456SOL    HW126267   5.648   5.528   2.880
 8456SOL    HW226268   5.670   5.656   2.781
 8457SOL     OW26269   0.008   6.140   5.787
 8457SOL    HW126270   6.998   6.053   5.752
 8457SOL    HW226271   6.997   6.157   5.878
 8458SOL     OW26272   1.182   1.545   0.575
 8458SOL    HW126273   1.097   1.589   0.603
 8458SOL    HW226274   1.162   1.463   0.522
 8459SOL     OW26275   3.189   5.732   2.015
 8459SOL    HW126276   3.188   5.777   1.926
 8459SOL    HW226277   3.094   5.716   2.045
 8460SOL     OW26278   4.786   1.373   0.879
 8460SOL    HW126279   4.791   1.441   0.805
 8460SOL    HW226280   4.696   1.379   0.923
 8461SOL     OW26281   6.408   3.863   1.642
 8461SOL    HW126282   6.395   3.939   1.578
 8461SOL    HW226283   6.484   3.884   1.703
 8462SOL     OW26284   3.611   4.653   6.586
 8462SOL    HW126285   3.546   4.610   6.648
 8462SOL    HW226286   3.660   4.726   6.635
 8463SOL     OW26287   6.685   1.719   0.253
 8463SOL    HW126288   6.596   1.763   0.248
 8463SOL    HW226289   6.754   1.778   0.212
 8464SOL     OW26290   0.343   3.285   0.263
 8464SOL    HW126291   0.295   3.233   0.334
 8464SOL    HW226292   0.305   3.262   0.173
 8465SOL     OW26293   4.381   3.278   1.330
 8465SOL    HW126294   4.460   3.218   1.333
 8465SOL    HW226295   4.319   3.250   1.257
 8466SOL     OW26296   6.048   0.300   6.028
 8466SOL    HW126297   6.122   0.355   5.990
 8466SOL    HW226298   6.000   0.253   5.953
 8467SOL     OW26299   3.555   1.254   1.449
 8467SOL    HW126300   3.592   1.345   1.431
 8467SOL    HW226301   3.545   1.241   1.548
 8468SOL     OW26302   6.369   3.109   6.926
 8468SOL    HW126303   6.370   3.199   6.884
 8468SOL    HW226304   6.278   3.089   6.962
 8469SOL     OW26305   3.644   3.035   5.791
 8469SOL    HW126306   3.657   3.133   5.773
 8469SOL    HW226307   3.679   2.982   5.714
 8470SOL     OW26308   1.466   5.198   1.390
 8470SOL    HW126309   1.380   5.212   1.340
 8470SOL    HW226310   1.536   5.164   1.328
 8471SOL     OW26311   3.745   2.280   5.313
 8471SOL    HW126312   3.840   2.302   5.338
 8471SOL    HW226313   3.745   2.213   5.239
 8472SOL     OW26314   5.603   1.883   5.976
 8472SOL    HW126315   5.613   1.802   6.033
 8472SOL    HW226316   5.605   1.965   6.033
 8473SOL     OW26317   4.840   4.260   5.940
 8473SOL    HW126318   4.794   4.175   5.913
 8473SOL    HW226319   4.918   4.275   5.879
 8474SOL     OW26320   3.654   3.825   2.884
 8474SOL    HW126321   3.618   3.859   2.970
 8474SOL    HW226322   3.745   3.864   2.868
 8475SOL     OW26323   6.462   2.563   1.861
 8475SOL    HW126324   6.466   2.530   1.955
 8475SOL    HW226325   6.453   2.662   1.860
 8476SOL     OW26326   6.054   0.040   1.552
 8476SOL    HW126327   6.028   6.998   1.484
 8476SOL    HW226328   6.019   0.012   1.642
 8477SOL     OW26329   5.735   6.719   1.729
 8477SOL    HW126330   5.739   6.642   1.666
 8477SOL    HW226331   5.777   6.693   1.816
 8478SOL     OW26332   6.770   0.249   5.287
 8478SOL    HW126333   6.674   0.229   5.305
 8478SOL    HW226334   6.818   0.163   5.268
 8479SOL     OW26335   0.748   2.322   1.640
 8479SOL    HW126336   0.747   2.222   1.645
 8479SOL    HW226337   0.656   2.357   1.656
 8480SOL     OW26338   4.992   4.222   7.010
 8480SOL    HW126339   4.927   4.189   0.053
 8480SOL    HW226340   4.943   4.257   6.931
 8481SOL     OW26341   3.777   2.127   3.817
 8481SOL    HW126342   3.868   2.168   3.825
 8481SOL    HW226343   3.742   2.142   3.724
 8482SOL     OW26344   4.586   1.095   0.068
 8482SOL    HW126345   4.502   1.088   0.014
 8482SOL    HW226346   4.650   1.157   0.023
 8483SOL     OW26347   3.013   5.675   3.229
 8483SOL    HW126348   3.035   5.598   3.289
 8483SOL    HW226349   3.012   5.645   3.134
 8484SOL     OW26350   5.804   6.126   4.292
 8484SOL    HW126351   5.807   6.033   4.255
 8484SOL    HW226352   5.758   6.187   4.227
 8485SOL     OW26353   2.701   2.220   0.052
 8485SOL    HW126354   2.795   2.207   0.021
 8485SOL    HW226355   2.697   2.298   0.115
 8486SOL     OW26356   0.899   0.903   2.601
 8486SOL    HW126357   0.868   0.997   2.616
 8486SOL    HW226358   0.999   0.900   2.605
 8487SOL     OW26359   6.091   1.897   5.420
 8487SOL    HW126360   6.056   1.940   5.503
 8487SOL    HW226361   6.052   1.943   5.340
 8488SOL     OW26362   5.016   5.237   1.615
 8488SOL    HW126363   5.052   5.287   1.536
 8488SOL    HW226364   5.052   5.144   1.615
 8489SOL     OW26365   5.286   1.094   1.407
 8489SOL    HW126366   5.316   1.022   1.345
 8489SOL    HW226367   5.189   1.081   1.429
 8490SOL     OW26368   2.400   0.418   6.718
 8490SOL    HW126369   2.408   0.337   6.659
 8490SOL    HW226370   2.342   0.486   6.675
 8491SOL     OW26371   3.200   5.511   2.223
 8491SOL    HW126372   3.245   5.570   2.155
 8491SOL    HW226373   3.132   5.565   2.273
 8492SOL     OW26374   5.819   5.454   4.520
 8492SOL    HW126375   5.802   5.473   4.423
 8492SOL    HW226376   5.743   5.489   4.575
 8493SOL     OW26377   3.904   0.134   0.452
 8493SOL    HW126378   3.945   0.164   0.538
 8493SOL    HW226379   3.842   0.205   0.418
 8494SOL     OW26380   5.844   5.301   1.990
 8494SOL    HW126381   5.796   5.324   1.906
 8494SOL    HW226382   5.898   5.379   2.021
 8495SOL     OW26383   6.731   6.057   0.134
 8495SOL    HW126384   6.803   6.013   0.186
 8495SOL    HW226385   6.715   6.149   0.171
 8496SOL     OW26386   4.942   2.030   2.460
 8496SOL    HW126387   4.852   2.075   2.465
 8496SOL    HW226388   4.942   1.966   2.383
 8497SOL     OW26389   6.628   0.600   3.606
 8497SOL    HW126390   6.549   0.615   3.546
 8497SOL    HW226391   6.603   0.537   3.680
 8498SOL     OW26392   4.861   0.228   4.731
 8498SOL    HW126393   4.843   0.172   4.813
 8498SOL    HW226394   4.775   0.263   4.695
 8499SOL     OW26395   6.533   6.452   6.290
 8499SOL    HW126396   6.439   6.423   6.306
 8499SOL    HW226397   6.571   6.400   6.213
 8500SOL     OW26398   1.829   0.814   5.315
 8500SOL    HW126399   1.926   0.830   5.334
 8500SOL    HW226400   1.777   0.896   5.339
 8501SOL     OW26401   0.448   1.406   6.526
 8501SOL    HW126402   0.495   1.448   6.603
 8501SOL    HW226403   0.417   1.314   6.553
 8502SOL     OW26404   0.599   2.854   6.765
 8502SOL    HW126405   0.611   2.946   6.803
 8502SOL    HW226406   0.505   2.844   6.731
 8503SOL     OW26407   6.010   6.203   4.044
 8503SOL    HW126408   5.932   6.266   4.047
 8503SOL    HW226409   5.979   6.110   4.064
 8504SOL     OW26410   2.200   5.188   2.592
 8504SOL    HW126411   2.150   5.113   2.636
 8504SOL    HW226412   2.210   5.264   2.657
 8505SOL     OW26413   5.406   3.004   2.733
 8505SOL    HW126414   5.420   2.976   2.828
 8505SOL    HW226415   5.316   3.044   2.722
 8506SOL     OW26416   2.411   0.260   0.224
 8506SOL    HW126417   2.478   0.330   0.200
 8506SOL    HW226418   2.399   0.258   0.323
 8507SOL     OW26419   4.545   5.564   5.422
 8507SOL    HW126420   4.510   5.474   5.396
 8507SOL    HW226421   4.482   5.634   5.389
 8508SOL     OW26422   3.900   2.075   0.165
 8508SOL    HW126423   3.975   2.129   0.126
 8508SOL    HW226424   3.831   2.058   0.094
 8509SOL     OW26425   5.361   0.778   3.425
 8509SOL    HW126426   5.325   0.718   3.497
 8509SOL    HW226427   5.461   0.777   3.428
 8510SOL     OW26428   6.483   1.765   4.700
 8510SOL    HW126429   6.477   1.864   4.713
 8510SOL    HW226430   6.539   1.746   4.619
 8511SOL     OW26431   6.063   2.716   1.788
 8511SOL    HW126432   6.038   2.621   1.769
 8511SOL    HW226433   6.052   2.770   1.705
 8512SOL     OW26434   1.366   6.688   4.725
 8512SOL    HW126435   1.339   6.604   4.677
 8512SOL    HW226436   1.438   6.734   4.673
 8513SOL     OW26437   5.834   6.228   6.426
 8513SOL    HW126438   5.914   6.242   6.485
 8513SOL    HW226439   5.842   6.286   6.345
 8514SOL     OW26440   2.392   6.280   4.412
 8514SOL    HW126441   2.459   6.207   4.396
 8514SOL    HW226442   2.366   6.281   4.508
 8515SOL     OW26443   4.729   1.941   1.802
 8515SOL    HW126444   4.802   1.897   1.854
 8515SOL    HW226445   4.714   1.891   1.717
 8516SOL     OW26446   0.083   2.348   2.044
 8516SOL    HW126447   0.046   2.353   1.952
 8516SOL    HW226448   0.037   2.414   2.103
 8517SOL     OW26449   1.976   2.546   6.400
 8517SOL    HW126450   1.999   2.496   6.484
 8517SOL    HW226451   1.877   2.557   6.394
 8518SOL     OW26452   3.772   5.741   0.668
 8518SOL    HW126453   3.827   5.822   0.646
 8518SOL    HW226454   3.675   5.764   0.665
 8519SOL     OW26455   0.831   5.743   3.056
 8519SOL    HW126456   0.893   5.749   2.978
 8519SOL    HW226457   0.832   5.829   3.107
 8520SOL     OW26458   3.691   0.778   6.845
 8520SOL    HW126459   3.633   0.784   6.926
 8520SOL    HW226460   3.775   0.728   6.869
 8521SOL     OW26461   1.345   6.373   6.398
 8521SOL    HW126462   1.303   6.377   6.306
 8521SOL    HW226463   1.273   6.379   6.467
 8522SOL     OW26464   1.251   5.807   5.063
 8522SOL    HW126465   1.325   5.742   5.076
 8522SOL    HW226466   1.213   5.797   4.971
 8523SOL     OW26467   1.233   6.943   0.218
 8523SOL    HW126468   1.179   7.010   0.268
 8523SOL    HW226469   1.204   6.942   0.122
 8524SOL     OW26470   1.276   3.288   6.416
 8524SOL    HW126471   1.196   3.292   6.355
 8524SOL    HW226472   1.296   3.379   6.451
 8525SOL     OW26473   6.282   3.280   3.294
 8525SOL    HW126474   6.222   3.354   3.323
 8525SOL    HW226475   6.374   3.315   3.278
 8526SOL     OW26476   2.168   2.901   2.694
 8526SOL    HW126477   2.185   2.941   2.604
 8526SOL    HW226478   2.075   2.862   2.695
 8527SOL     OW26479   4.308   0.947   4.556
 8527SOL    HW126480   4.228   0.894   4.528
 8527SOL    HW226481   4.385   0.926   4.495
 8528SOL     OW26482   5.034   2.823   6.301
 8528SOL    HW126483   5.001   2.766   6.226
 8528SOL    HW226484   5.030   2.920   6.274
 8529SOL     OW26485   0.537   4.466   0.110
 8529SOL    HW126486   0.625   4.456   0.064
 8529SOL    HW226487   0.521   4.563   0.131
 8530SOL     OW26488   2.034   3.734   5.372
 8530SOL    HW126489   2.128   3.727   5.405
 8530SOL    HW226490   2.010   3.830   5.360
 8531SOL     OW26491   4.885   4.699   2.320
 8531SOL    HW126492   4.883   4.628   2.390
 8531SOL    HW226493   4.961   4.682   2.257
 8532SOL     OW26494   2.923   4.064   6.186
 8532SOL    HW126495   2.865   3.995   6.143
 8532SOL    HW226496   2.873   4.109   6.259
 8533SOL     OW26497   3.381   0.692   4.680
 8533SOL    HW126498   3.375   0.693   4.780
 8533SOL    HW226499   3.341   0.776   4.643
 8534SOL     OW26500   1.458   2.784   2.890
 8534SOL    HW126501   1.515   2.737   2.822
 8534SOL    HW226502   1.369   2.805   2.849
 8535SOL     OW26503   0.393   2.065   4.789
 8535SOL    HW126504   0.432   2.110   4.869
 8535SOL    HW226505   0.328   2.126   4.744
 8536SOL     OW26506   0.224   1.665   6.047
 8536SOL    HW126507   0.235   1.574   6.007
 8536SOL    HW226508   0.312   1.700   6.077
 8537SOL     OW26509   5.711   0.448   2.232
 8537SOL    HW126510   5.675   0.407   2.315
 8537SOL    HW226511   5.635   0.474   2.172
 8538SOL     OW26512   5.759   0.657   4.406
 8538SOL    HW126513   5.724   0.732   4.349
 8538SOL    HW226514   5.792   0.583   4.347
 8539SOL     OW26515   0.020   3.408   1.793
 8539SOL    HW126516   6.996   3.333   1.837
 8539SOL    HW226517   0.001   3.494   1.841
 8540SOL     OW26518   4.191   0.348   0.016
 8540SOL    HW126519   4.181   0.308   0.107
 8540SOL    HW226520   4.220   0.277   6.977
 8541SOL     OW26521   3.096   0.730   5.171
 8541SOL    HW126522   3.108   0.805   5.235
 8541SOL    HW226523   3.046   0.655   5.215
 8542SOL     OW26524   1.727   4.515   6.694
 8542SOL    HW126525   1.713   4.449   6.619
 8542SOL    HW226526   1.678   4.483   6.775
 8543SOL     OW26527   2.243   1.932   6.455
 8543SOL    HW126528   2.270   2.001   6.522
 8543SOL    HW226529   2.194   1.975   6.380
 8544SOL     OW26530   5.302   3.683   4.989
 8544SOL    HW126531   5.280   3.779   4.974
 8544SOL    HW226532   5.305   3.664   5.088
 8545SOL     OW26533   2.997   0.535   6.319
 8545SOL    HW126534   2.928   0.582   6.373
 8545SOL    HW226535   3.086   0.577   6.335
 8546SOL     OW26536   5.429   0.184   1.258
 8546SOL    HW126537   5.481   0.223   1.334
 8546SOL    HW226538   5.401   0.091   1.281
 8547SOL     OW26539   6.001   6.319   5.372
 8547SOL    HW126540   5.910   6.331   5.412
 8547SOL    HW226541   6.054   6.255   5.427
 8548SOL     OW26542   0.576   3.077   5.875
 8548SOL    HW126543   0.536   3.163   5.842
 8548SOL    HW226544   0.520   3.040   5.949
 8549SOL     OW26545   1.455   1.150   3.154
 8549SOL    HW126546   1.452   1.250   3.153
 8549SOL    HW226547   1.469   1.116   3.061
 8550SOL     OW26548   0.024   4.514   6.434
 8550SOL    HW126549   6.969   4.465   6.402
 8550SOL    HW226550   7.022   4.586   6.497
 8551SOL     OW26551   2.306   1.324   6.076
 8551SOL    HW126552   2.294   1.326   6.175
 8551SOL    HW226553   2.310   1.230   6.044
 8552SOL     OW26554   2.848   1.893   2.977
 8552SOL    HW126555   2.905   1.976   2.983
 8552SOL    HW226556   2.897   1.822   2.927
 8553SOL     OW26557   5.206   3.024   6.798
 8553SOL    HW126558   5.224   2.927   6.786
 8553SOL    HW226559   5.166   3.040   6.889
 8554SOL     OW26560   1.304   0.728   0.262
 8554SOL    HW126561   1.270   0.642   0.299
 8554SOL    HW226562   1.394   0.713   0.219
 8555SOL     OW26563   4.705   1.281   4.134
 8555SOL    HW126564   4.803   1.289   4.114
 8555SOL    HW226565   4.678   1.185   4.134
 8556SOL     OW26566   1.671   6.285   0.931
 8556SOL    HW126567   1.633   6.277   0.839
 8556SOL    HW226568   1.769   6.303   0.925
 8557SOL     OW26569   0.375   0.755   0.443
 8557SOL    HW126570   0.420   0.775   0.356
 8557SOL    HW226571   0.444   0.735   0.513
 8558SOL     OW26572   2.582   5.649   3.899
 8558SOL    HW126573   2.678   5.677   3.898
 8558SOL    HW226574   2.541   5.669   3.988
 8559SOL     OW26575   1.175   5.539   2.886
 8559SOL    HW126576   1.184   5.443   2.859
 8559SOL    HW226577   1.214   5.551   2.977
 8560SOL     OW26578   3.035   4.216   1.695
 8560SOL    HW126579   3.068   4.137   1.748
 8560SOL    HW226580   3.001   4.286   1.757
 8561SOL     OW26581   4.312   6.654   2.162
 8561SOL    HW126582   4.341   6.749   2.178
 8561SOL    HW226583   4.345   6.596   2.236
 8562SOL     OW26584   4.406   1.411   7.002
 8562SOL    HW126585   4.399   1.314   7.022
 8562SOL    HW226586   4.491   1.447   0.016
 8563SOL     OW26587   2.528   4.928   2.251
 8563SOL    HW126588   2.563   4.854   2.195
 8563SOL    HW226589   2.450   4.896   2.305
 8564SOL     OW26590   4.281   0.356   6.641
 8564SOL    HW126591   4.321   0.439   6.679
 8564SOL    HW226592   4.254   0.295   6.715
 8565SOL     OW26593   2.476   5.375   1.047
 8565SOL    HW126594   2.431   5.464   1.039
 8565SOL    HW226595   2.418   5.304   1.006
 8566SOL     OW26596   3.232   0.999   3.086
 8566SOL    HW126597   3.328   1.026   3.080
 8566SOL    HW226598   3.174   1.081   3.085
 8567SOL     OW26599   2.072   2.378   1.605
 8567SOL    HW126600   2.016   2.322   1.666
 8567SOL    HW226601   2.024   2.389   1.517
 8568SOL     OW26602   6.563   0.962   6.879
 8568SOL    HW126603   6.495   0.930   6.813
 8568SOL    HW226604   6.540   1.056   6.907
 8569SOL     OW26605   4.781   2.140   6.298
 8569SOL    HW126606   4.863   2.102   6.257
 8569SOL    HW226607   4.799   2.164   6.394
 8570SOL     OW26608   1.342   2.895   3.925
 8570SOL    HW126609   1.416   2.962   3.924
 8570SOL    HW226610   1.363   2.822   3.859
 8571SOL     OW26611   1.701   0.847   3.016
 8571SOL    HW126612   1.753   0.840   2.931
 8571SOL    HW226613   1.610   0.807   3.003
 8572SOL     OW26614   3.159   4.140   5.855
 8572SOL    HW126615   3.060   4.124   5.855
 8572SOL    HW226616   3.180   4.218   5.915
 8573SOL     OW26617   3.795   6.217   0.581
 8573SOL    HW126618   3.780   6.126   0.542
 8573SOL    HW226619   3.716   6.241   0.638
 8574SOL     OW26620   5.267   0.240   4.781
 8574SOL    HW126621   5.197   0.221   4.712
 8574SOL    HW226622   5.333   0.165   4.783
 8575SOL     OW26623   2.803   6.341   3.341
 8575SOL    HW126624   2.842   6.344   3.248
 8575SOL    HW226625   2.789   6.434   3.374
 8576SOL     OW26626   0.884   4.823   2.972
 8576SOL    HW126627   0.899   4.787   3.064
 8576SOL    HW226628   0.859   4.920   2.978
 8577SOL     OW26629   1.513   1.608   0.235
 8577SOL    HW126630   1.597   1.635   0.187
 8577SOL    HW226631   1.442   1.676   0.218
 8578SOL     OW26632   6.785   6.958   5.808
 8578SOL    HW126633   6.796   0.031   5.808
 8578SOL    HW226634   6.872   6.914   5.788
 8579SOL     OW26635   3.333   6.494   2.773
 8579SOL    HW126636   3.401   6.444   2.827
 8579SOL    HW226637   3.345   6.474   2.676
 8580SOL     OW26638   2.492   0.610   1.631
 8580SOL    HW126639   2.393   0.596   1.637
 8580SOL    HW226640   2.539   0.527   1.662
 8581SOL     OW26641   2.946   4.469   1.371
 8581SOL    HW126642   2.954   4.546   1.309
 8581SOL    HW226643   2.993   4.490   1.457
 8582SOL     OW26644   4.063   4.599   5.834
 8582SOL    HW126645   3.975   4.556   5.816
 8582SOL    HW226646   4.098   4.569   5.923
 8583SOL     OW26647   4.434   0.518   2.833
 8583SOL    HW126648   4.500   0.528   2.758
 8583SOL    HW226649   4.440   0.597   2.894
 8584SOL     OW26650   6.711   1.322   4.199
 8584SOL    HW126651   6.701   1.237   4.250
 8584SOL    HW226652   6.632   1.381   4.214
 8585SOL     OW26653   5.551   2.050   2.464
 8585SOL    HW126654   5.496   2.130   2.440
 8585SOL    HW226655   5.516   1.970   2.415
 8586SOL     OW26656   6.015   5.620   1.384
 8586SOL    HW126657   6.107   5.597   1.416
 8586SOL    HW226658   5.958   5.647   1.461
 8587SOL     OW26659   1.921   1.449   6.189
 8587SOL    HW126660   1.915   1.405   6.279
 8587SOL    HW226661   1.833   1.441   6.142
 8588SOL     OW26662   2.956   1.336   0.019
 8588SOL    HW126663   2.938   1.434   0.009
 8588SOL    HW226664   2.935   1.290   6.958
 8589SOL     OW26665   6.804   3.104   6.159
 8589SOL    HW126666   6.719   3.141   6.196
 8589SOL    HW226667   6.824   3.148   6.071
 8590SOL     OW26668   1.674   1.365   3.066
 8590SOL    HW126669   1.704   1.460   3.060
 8590SOL    HW226670   1.575   1.362   3.075
 8591SOL     OW26671   6.639   4.380   0.080
 8591SOL    HW126672   6.653   4.335   0.169
 8591SOL    HW226673   6.712   4.446   0.064
 8592SOL     OW26674   1.375   1.386   6.190
 8592SOL    HW126675   1.353   1.308   6.131
 8592SOL    HW226676   1.474   1.385   6.209
 8593SOL     OW26677   3.452   1.318   6.610
 8593SOL    HW126678   3.379   1.308   6.678
 8593SOL    HW226679   3.424   1.382   6.539
 8594SOL     OW26680   6.598   2.665   5.410
 8594SOL    HW126681   6.691   2.635   5.428
 8594SOL    HW226682   6.599   2.760   5.378
 8595SOL     OW26683   5.777   6.235   2.244
 8595SOL    HW126684   5.848   6.212   2.310
 8595SOL    HW226685   5.791   6.329   2.211
 8596SOL     OW26686   0.921   1.554   3.372
 8596SOL    HW126687   0.949   1.526   3.464
 8596SOL    HW226688   0.900   1.652   3.373
 8597SOL     OW26689   5.575   3.188   0.096
 8597SOL    HW126690   5.574   3.277   0.049
 8597SOL    HW226691   5.596   3.116   0.029
 8598SOL     OW26692   6.025   6.712   4.003
 8598SOL    HW126693   6.045   6.742   3.910
 8598SOL    HW226694   6.050   6.615   4.012
 8599SOL     OW26695   0.704   3.351   3.912
 8599SOL    HW126696   0.607   3.356   3.887
 8599SOL    HW226697   0.755   3.307   3.839
 8600SOL     OW26698   4.045   2.133   1.202
 8600SOL    HW126699   3.976   2.159   1.269
 8600SOL    HW226700   4.037   2.036   1.182
 8601SOL     OW26701   1.230   6.683   3.299
 8601SOL    HW126702   1.252   6.756   3.234
 8601SOL    HW226703   1.137   6.651   3.283
 8602SOL     OW26704   2.002   6.823   4.705
 8602SOL    HW126705   1.986   6.899   4.768
 8602SOL    HW226706   1.948   6.837   4.621
 8603SOL     OW26707   0.176   0.697   0.625
 8603SOL    HW126708   0.240   0.684   0.549
 8603SOL    HW226709   0.086   0.723   0.589
 8604SOL     OW26710   0.571   4.207   6.282
 8604SOL    HW126711   0.558   4.285   6.343
 8604SOL    HW226712   0.489   4.150   6.281
 8605SOL     OW26713   6.809   5.241   4.521
 8605SOL    HW126714   6.884   5.218   4.460
 8605SOL    HW226715   6.791   5.339   4.516
 8606SOL     OW26716   1.926   3.057   6.953
 8606SOL    HW126717   1.924   3.114   0.010
 8606SOL    HW226718   1.992   3.096   6.889
 8607SOL     OW26719   2.651   4.045   1.509
 8607SOL    HW126720   2.688   4.116   1.569
 8607SOL    HW226721   2.555   4.028   1.533
 8608SOL     OW26722   2.379   5.464   3.164
 8608SOL    HW126723   2.437   5.385   3.144
 8608SOL    HW226724   2.283   5.440   3.150
 8609SOL     OW26725   4.594   1.024   4.103
 8609SOL    HW126726   4.506   1.026   4.056
 8609SOL    HW226727   4.664   0.989   4.041
 8610SOL     OW26728   0.758   6.336   2.645
 8610SOL    HW126729   0.742   6.297   2.735
 8610SOL    HW226730   0.734   6.270   2.574
 8611SOL     OW26731   2.726   1.250   4.691
 8611SOL    HW126732   2.680   1.320   4.636
 8611SOL    HW226733   2.682   1.244   4.781
 8612SOL     OW26734   3.943   3.809   3.624
 8612SOL    HW126735   3.846   3.798   3.645
 8612SOL    HW226736   3.992   3.839   3.706
 8613SOL     OW26737   3.397   2.918   1.119
 8613SOL    HW126738   3.420   2.839   1.176
 8613SOL    HW226739   3.408   3.001   1.173
 8614SOL     OW26740   1.278   2.580   3.077
 8614SOL    HW126741   1.246   2.501   3.024
 8614SOL    HW226742   1.287   2.659   3.016
 8615SOL     OW26743   4.272   1.300   3.834
 8615SOL    HW126744   4.266   1.304   3.734
 8615SOL    HW226745   4.188   1.339   3.873
 8616SOL     OW26746   4.402   4.606   2.858
 8616SOL    HW126747   4.384   4.575   2.765
 8616SOL    HW226748   4.346   4.686   2.878
 8617SOL     OW26749   3.747   0.140   3.822
 8617SOL    HW126750   3.841   0.171   3.828
 8617SOL    HW226751   3.744   0.040   3.831
 8618SOL     OW26752   5.635   4.175   0.733
 8618SOL    HW126753   5.730   4.145   0.745
 8618SOL    HW226754   5.584   4.156   0.817
 8619SOL     OW26755   5.260   4.471   0.686
 8619SOL    HW126756   5.347   4.445   0.643
 8619SOL    HW226757   5.227   4.395   0.741
 8620SOL     OW26758   1.994   0.231   4.418
 8620SOL    HW126759   1.935   0.284   4.479
 8620SOL    HW226760   2.090   0.245   4.446
 8621SOL     OW26761   5.086   2.743   1.140
 8621SOL    HW126762   4.991   2.728   1.170
 8621SOL    HW226763   5.146   2.677   1.185
 8622SOL     OW26764   6.520   4.819   2.778
 8622SOL    HW126765   6.550   4.821   2.873
 8622SOL    HW226766   6.584   4.763   2.725
 8623SOL     OW26767   0.264   3.382   4.430
 8623SOL    HW126768   0.192   3.421   4.374
 8623SOL    HW226769   0.228   3.359   4.521
 8624SOL     OW26770   2.902   4.070   5.884
 8624SOL    HW126771   2.837   4.113   5.946
 8624SOL    HW226772   2.892   3.970   5.890
 8625SOL     OW26773   3.793   2.248   5.604
 8625SOL    HW126774   3.777   2.237   5.506
 8625SOL    HW226775   3.705   2.246   5.652
 8626SOL     OW26776   4.294   4.252   0.548
 8626SOL    HW126777   4.383   4.296   0.556
 8626SOL    HW226778   4.234   4.308   0.492
 8627SOL     OW26779   2.191   0.714   2.794
 8627SOL    HW126780   2.261   0.642   2.800
 8627SOL    HW226781   2.218   0.792   2.850
 8628SOL     OW26782   0.985   6.553   0.845
 8628SOL    HW126783   0.895   6.554   0.803
 8628SOL    HW226784   0.976   6.557   0.945
 8629SOL     OW26785   0.038   6.733   4.548
 8629SOL    HW126786   0.089   6.755   4.631
 8629SOL    HW226787   0.070   6.791   4.474
 8630SOL     OW26788   5.192   2.797   2.143
 8630SOL    HW126789   5.181   2.706   2.182
 8630SOL    HW226790   5.286   2.828   2.154
 8631SOL     OW26791   3.056   6.621   0.249
 8631SOL    HW126792   3.137   6.602   0.193
 8631SOL    HW226793   2.973   6.602   0.196
 8632SOL     OW26794   5.045   4.844   5.962
 8632SOL    HW126795   5.075   4.753   5.932
 8632SOL    HW226796   5.125   4.900   5.983
 8633SOL     OW26797   5.308   3.422   6.371
 8633SOL    HW126798   5.319   3.405   6.469
 8633SOL    HW226799   5.211   3.435   6.350
 8634SOL     OW26800   5.165   4.224   0.272
 8634SOL    HW126801   5.080   4.187   0.311
 8634SOL    HW226802   5.197   4.165   0.198
 8635SOL     OW26803   5.849   2.496   6.198
 8635SOL    HW126804   5.749   2.489   6.199
 8635SOL    HW226805   5.876   2.589   6.173
 8636SOL     OW26806   4.989   6.711   1.205
 8636SOL    HW126807   5.028   6.741   1.292
 8636SOL    HW226808   5.061   6.667   1.150
 8637SOL     OW26809   2.124   1.661   6.784
 8637SOL    HW126810   2.167   1.707   6.862
 8637SOL    HW226811   2.175   1.577   6.764
 8638SOL     OW26812   4.673   2.316   5.018
 8638SOL    HW126813   4.624   2.232   4.994
 8638SOL    HW226814   4.688   2.370   4.935
 8639SOL     OW26815   3.564   4.012   6.730
 8639SOL    HW126816   3.630   4.017   6.654
 8639SOL    HW226817   3.597   3.946   6.798
 8640SOL     OW26818   2.564   3.672   1.336
 8640SOL    HW126819   2.631   3.602   1.311
 8640SOL    HW226820   2.474   3.631   1.344
 8641SOL     OW26821   4.149   5.958   2.472
 8641SOL    HW126822   4.172   5.907   2.389
 8641SOL    HW226823   4.197   5.918   2.550
 8642SOL     OW26824   0.429   6.087   3.797
 8642SOL    HW126825   0.486   6.169   3.799
 8642SOL    HW226826   0.469   6.017   3.856
 8643SOL     OW26827   4.342   6.823   0.869
 8643SOL    HW126828   4.315   6.728   0.855
 8643SOL    HW226829   4.303   6.880   0.797
 8644SOL     OW26830   6.119   1.989   0.118
 8644SOL    HW126831   6.193   1.939   0.162
 8644SOL    HW226832   6.067   1.928   0.058
 8645SOL     OW26833   5.796   3.291   2.469
 8645SOL    HW126834   5.853   3.349   2.528
 8645SOL    HW226835   5.810   3.317   2.373
 8646SOL     OW26836   0.055   1.982   5.195
 8646SOL    HW126837   6.997   1.926   5.195
 8646SOL    HW226838   0.129   1.931   5.238
 8647SOL     OW26839   2.146   4.764   2.209
 8647SOL    HW126840   2.144   4.863   2.195
 8647SOL    HW226841   2.223   4.725   2.159
 8648SOL     OW26842   5.465   5.398   0.608
 8648SOL    HW126843   5.413   5.456   0.546
 8648SOL    HW226844   5.492   5.314   0.561
 8649SOL     OW26845   4.238   6.915   1.575
 8649SOL    HW126846   4.240   7.015   1.586
 8649SOL    HW226847   4.331   6.880   1.585
 8650SOL     OW26848   1.831   0.015   4.475
 8650SOL    HW126849   1.800   0.047   4.564
 8650SOL    HW226850   1.888   0.084   4.431
 8651SOL     OW26851   3.591   1.835   0.897
 8651SOL    HW126852   3.685   1.827   0.930
 8651SOL    HW226853   3.544   1.747   0.908
 8652SOL     OW26854   1.339   3.627   3.517
 8652SOL    HW126855   1.436   3.627   3.539
 8652SOL    HW226856   1.289   3.683   3.583
 8653SOL     OW26857   7.019   1.569   6.157
 8653SOL    HW126858   0.075   1.626   6.148
 8653SOL    HW226859   6.938   1.626   6.162
 8654SOL     OW26860   0.848   4.301   1.615
 8654SOL    HW126861   0.841   4.345   1.704
 8654SOL    HW226862   0.944   4.293   1.589
 8655SOL     OW26863   0.843   0.587   5.280
 8655SOL    HW126864   0.831   0.687   5.282
 8655SOL    HW226865   0.834   0.554   5.187
 8656SOL     OW26866   4.709   0.127   1.535
 8656SOL    HW126867   4.749   0.186   1.465
 8656SOL    HW226868   4.701   0.034   1.499
 8657SOL     OW26869   4.733   1.205   2.834
 8657SOL    HW126870   4.682   1.255   2.764
 8657SOL    HW226871   4.778   1.126   2.793
 8658SOL     OW26872   0.038   4.959   1.036
 8658SOL    HW126873   0.116   5.020   1.047
 8658SOL    HW226874   0.071   4.865   1.025
 8659SOL     OW26875   4.184   1.167   2.299
 8659SOL    HW126876   4.201   1.207   2.389
 8659SOL    HW226877   4.131   1.230   2.244
 8660SOL     OW26878   6.843   3.952   1.452
 8660SOL    HW126879   6.766   3.985   1.506
 8660SOL    HW226880   6.929   3.983   1.494
 8661SOL     OW26881   6.747   3.163   2.937
 8661SOL    HW126882   6.753   3.100   2.860
 8661SOL    HW226883   6.816   3.141   3.005
 8662SOL     OW26884   2.687   4.842   3.167
 8662SOL    HW126885   2.652   4.757   3.206
 8662SOL    HW226886   2.786   4.844   3.176
 8663SOL     OW26887   3.803   5.806   2.875
 8663SOL    HW126888   3.889   5.806   2.823
 8663SOL    HW226889   3.824   5.812   2.973
 8664SOL     OW26890   2.968   5.668   4.130
 8664SOL    HW126891   2.943   5.583   4.085
 8664SOL    HW226892   2.900   5.690   4.200
 8665SOL     OW26893   5.478   3.132   6.096
 8665SOL    HW126894   5.498   3.227   6.121
 8665SOL    HW226895   5.452   3.081   6.178
 8666SOL     OW26896   4.467   6.288   2.675
 8666SOL    HW126897   4.565   6.273   2.682
 8666SOL    HW226898   4.432   6.247   2.591
 8667SOL     OW26899   5.119   2.049   3.892
 8667SOL    HW126900   5.170   2.096   3.819
 8667SOL    HW226901   5.147   1.952   3.894
 8668SOL     OW26902   4.896   2.633   5.180
 8668SOL    HW126903   4.947   2.647   5.095
 8668SOL    HW226904   4.810   2.586   5.160
 8669SOL     OW26905   6.008   6.202   5.717
 8669SOL    HW126906   6.100   6.241   5.711
 8669SOL    HW226907   5.986   6.157   5.630
 8670SOL     OW26908   5.933   4.316   5.654
 8670SOL    HW126909   5.842   4.352   5.638
 8670SOL    HW226910   5.968   4.273   5.571
 8671SOL     OW26911   0.041   1.828   2.569
 8671SOL    HW126912   7.000   1.902   2.575
 8671SOL    HW226913   0.046   1.795   2.475
 8672SOL     OW26914   0.859   1.269   3.351
 8672SOL    HW126915   0.874   1.368   3.355
 8672SOL    HW226916   0.763   1.250   3.333
 8673SOL     OW26917   0.942   1.730   1.320
 8673SOL    HW126918   0.935   1.814   1.267
 8673SOL    HW226919   0.973   1.656   1.261
 8674SOL     OW26920   6.495   4.808   3.275
 8674SOL    HW126921   6.409   4.858   3.265
 8674SOL    HW226922   6.480   4.712   3.252
 8675SOL     OW26923   4.060   1.815   6.082
 8675SOL    HW126924   4.074   1.796   6.179
 8675SOL    HW226925   3.962   1.813   6.061
 8676SOL     OW26926   5.703   0.796   0.565
 8676SOL    HW126927   5.749   0.718   0.523
 8676SOL    HW226928   5.731   0.881   0.518
 8677SOL     OW26929   1.605   6.481   5.757
 8677SOL    HW126930   1.565   6.564   5.795
 8677SOL    HW226931   1.704   6.491   5.754
 8678SOL     OW26932   1.905   1.203   1.163
 8678SOL    HW126933   1.833   1.146   1.204
 8678SOL    HW226934   1.919   1.284   1.219
 8679SOL     OW26935   2.181   1.536   4.612
 8679SOL    HW126936   2.273   1.549   4.650
 8679SOL    HW226937   2.182   1.555   4.514
 8680SOL     OW26938   6.321   2.142   6.432
 8680SOL    HW126939   6.376   2.187   6.362
 8680SOL    HW226940   6.244   2.201   6.457
 8681SOL     OW26941   5.605   5.809   1.653
 8681SOL    HW126942   5.556   5.889   1.616
 8681SOL    HW226943   5.623   5.745   1.578
 8682SOL     OW26944   1.028   1.100   0.978
 8682SOL    HW126945   0.930   1.119   0.966
 8682SOL    HW226946   1.050   1.011   0.938
 8683SOL     OW26947   1.918   4.410   4.706
 8683SOL    HW126948   1.977   4.428   4.628
 8683SOL    HW226949   1.920   4.488   4.768
 8684SOL     OW26950   0.817   3.618   4.851
 8684SOL    HW126951   0.830   3.596   4.948
 8684SOL    HW226952   0.903   3.653   4.813
 8685SOL     OW26953   5.152   2.465   5.205
 8685SOL    HW126954   5.083   2.466   5.278
 8685SOL    HW226955   5.215   2.389   5.220
 8686SOL     OW26956   6.930   5.642   2.899
 8686SOL    HW126957   6.896   5.734   2.918
 8686SOL    HW226958   6.908   5.617   2.805
 8687SOL     OW26959   5.857   3.158   4.245
 8687SOL    HW126960   5.861   3.237   4.307
 8687SOL    HW226961   5.944   3.108   4.250
 8688SOL     OW26962   1.090   4.705   6.445
 8688SOL    HW126963   1.145   4.749   6.516
 8688SOL    HW226964   0.995   4.701   6.474
 8689SOL     OW26965   4.934   3.703   6.587
 8689SOL    HW126966   4.993   3.744   6.517
 8689SOL    HW226967   4.906   3.611   6.558
 8690SOL     OW26968   1.707   2.230   3.760
 8690SOL    HW126969   1.727   2.142   3.717
 8690SOL    HW226970   1.697   2.217   3.859
 8691SOL     OW26971   2.965   2.453   5.347
 8691SOL    HW126972   3.027   2.415   5.278
 8691SOL    HW226973   2.983   2.409   5.435
 8692SOL     OW26974   4.292   1.985   5.662
 8692SOL    HW126975   4.323   1.897   5.626
 8692SOL    HW226976   4.355   2.057   5.633
 8693SOL     OW26977   6.734   0.290   6.432
 8693SOL    HW126978   6.727   0.378   6.479
 8693SOL    HW226979   6.643   0.249   6.423
 8694SOL     OW26980   5.638   3.002   4.165
 8694SOL    HW126981   5.575   2.983   4.241
 8694SOL    HW226982   5.713   3.059   4.198
 8695SOL     OW26983   3.574   4.258   5.997
 8695SOL    HW126984   3.582   4.261   5.897
 8695SOL    HW226985   3.660   4.290   6.038
 8696SOL     OW26986   3.285   5.675   6.327
 8696SOL    HW126987   3.248   5.655   6.236
 8696SOL    HW226988   3.212   5.663   6.395
 8697SOL     OW26989   1.414   3.439   5.672
 8697SOL    HW126990   1.447   3.450   5.765
 8697SOL    HW226991   1.481   3.388   5.618
 8698SOL     OW26992   5.701   5.650   5.085
 8698SOL    HW126993   5.714   5.575   5.021
 8698SOL    HW226994   5.617   5.637   5.137
 8699SOL     OW26995   1.597   3.243   6.903
 8699SOL    HW126996   1.687   3.211   6.872
 8699SOL    HW226997   1.563   3.182   6.975
 8700SOL     OW26998   0.950   0.138   5.100
 8700SOL    HW126999   0.875   0.193   5.063
 8700SOL    HW227000   1.007   0.104   5.025
 8701SOL     OW27001   0.961   2.433   0.044
 8701SOL    HW127002   0.986   2.343   0.009
 8701SOL    HW227003   0.930   2.491   6.995
 8702SOL     OW27004   5.756   4.430   1.563
 8702SOL    HW127005   5.749   4.372   1.644
 8702SOL    HW227006   5.683   4.499   1.565
 8703SOL     OW27007   2.670   4.730   1.153
 8703SOL    HW127008   2.765   4.702   1.168
 8703SOL    HW227009   2.615   4.705   1.233
 8704SOL     OW27010   0.765   1.862   3.649
 8704SOL    HW127011   0.732   1.884   3.741
 8704SOL    HW227012   0.810   1.773   3.650
 8705SOL     OW27013   4.028   2.802   0.230
 8705SOL    HW127014   4.076   2.739   0.169
 8705SOL    HW227015   4.043   2.896   0.198
 8706SOL     OW27016   4.589   3.528   6.461
 8706SOL    HW127017   4.497   3.505   6.493
 8706SOL    HW227018   4.599   3.627   6.455
 8707SOL     OW27019   1.929   1.992   5.055
 8707SOL    HW127020   1.838   2.025   5.031
 8707SOL    HW227021   1.958   2.035   5.141
 8708SOL     OW27022   5.892   1.904   1.827
 8708SOL    HW127023   5.910   1.961   1.907
 8708SOL    HW227024   5.820   1.945   1.771
 8709SOL     OW27025   6.871   0.450   5.684
 8709SOL    HW127026   6.933   0.432   5.760
 8709SOL    HW227027   6.784   0.486   5.720
 8710SOL     OW27028   2.336   1.153   3.561
 8710SOL    HW127029   2.390   1.217   3.616
 8710SOL    HW227030   2.358   1.166   3.465
 8711SOL     OW27031   1.847   0.483   1.950
 8711SOL    HW127032   1.771   0.537   1.916
 8711SOL    HW227033   1.926   0.542   1.966
 8712SOL     OW27034   1.529   3.066   6.007
 8712SOL    HW127035   1.616   3.108   6.032
 8712SOL    HW227036   1.469   3.135   5.967
 8713SOL     OW27037   0.620   5.125   2.125
 8713SOL    HW127038   0.683   5.049   2.111
 8713SOL    HW227039   0.559   5.133   2.047
 8714SOL     OW27040   6.957   6.349   0.031
 8714SOL    HW127041   6.857   6.353   0.039
 8714SOL    HW227042   6.987   6.414   6.987
 8715SOL     OW27043   2.191   2.827   1.078
 8715SOL    HW127044   2.193   2.728   1.065
 8715SOL    HW227045   2.246   2.871   1.007
 8716SOL     OW27046   6.537   6.584   1.530
 8716SOL    HW127047   6.581   6.587   1.440
 8716SOL    HW227048   6.497   6.493   1.544
 8717SOL     OW27049   2.673   4.451   0.817
 8717SOL    HW127050   2.673   4.352   0.802
 8717SOL    HW227051   2.585   4.478   0.857
 8718SOL     OW27052   2.458   4.790   6.807
 8718SOL    HW127053   2.422   4.876   6.771
 8718SOL    HW227054   2.438   4.783   6.905
 8719SOL     OW27055   3.971   0.583   5.581
 8719SOL    HW127056   4.056   0.542   5.548
 8719SOL    HW227057   3.950   0.665   5.527
 8720SOL     OW27058   6.656   4.356   5.170
 8720SOL    HW127059   6.619   4.449   5.169
 8720SOL    HW227060   6.587   4.293   5.134
 8721SOL     OW27061   0.579   6.727   6.178
 8721SOL    HW127062   0.672   6.744   6.210
 8721SOL    HW227063   0.532   6.813   6.160
 8722SOL     OW27064   4.089   1.014   1.469
 8722SOL    HW127065   4.073   1.109   1.495
 8722SOL    HW227066   4.165   0.977   1.521
 8723SOL     OW27067   4.549   6.983   2.478
 8723SOL    HW127068   4.559   6.951   2.572
 8723SOL    HW227069   4.607   6.929   2.418
 8724SOL     OW27070   4.166   0.929   4.797
 8724SOL    HW127071   4.244   0.965   4.745
 8724SOL    HW227072   4.098   1.001   4.809
 8725SOL     OW27073   0.084   6.462   3.636
 8725SOL    HW127074   0.114   6.472   3.731
 8725SOL    HW227075   0.157   6.420   3.582
 8726SOL     OW27076   0.499   0.970   0.680
 8726SOL    HW127077   0.424   0.976   0.614
 8726SOL    HW227078   0.499   1.051   0.738
 8727SOL     OW27079   4.545   4.986   6.239
 8727SOL    HW127080   4.605   5.006   6.316
 8727SOL    HW227081   4.600   4.972   6.157
 8728SOL     OW27082   6.994   0.607   3.318
 8728SOL    HW127083   0.068   0.609   3.330
 8728SOL    HW227084   6.969   0.529   3.261
 8729SOL     OW27085   3.658   5.971   6.787
 8729SOL    HW127086   3.562   5.996   6.769
 8729SOL    HW227087   3.697   5.930   6.704
 8730SOL     OW27088   4.889   4.996   2.364
 8730SOL    HW127089   4.926   4.989   2.271
 8730SOL    HW227090   4.861   4.905   2.395
 8731SOL     OW27091   1.216   1.573   3.156
 8731SOL    HW127092   1.201   1.569   3.255
 8731SOL    HW227093   1.130   1.553   3.109
 8732SOL     OW27094   5.465   6.142   0.555
 8732SOL    HW127095   5.388   6.088   0.590
 8732SOL    HW227096   5.477   6.223   0.613
 8733SOL     OW27097   6.459   5.389   1.924
 8733SOL    HW127098   6.447   5.290   1.917
 8733SOL    HW227099   6.370   5.434   1.914
 8734SOL     OW27100   0.159   3.714   2.097
 8734SOL    HW127101   0.100   3.682   2.172
 8734SOL    HW227102   0.206   3.636   2.056
 8735SOL     OW27103   1.628   3.970   5.814
 8735SOL    HW127104   1.705   3.912   5.842
 8735SOL    HW227105   1.598   3.943   5.722
 8736SOL     OW27106   0.983   5.910   2.908
 8736SOL    HW127107   0.977   6.009   2.921
 8736SOL    HW227108   0.935   5.885   2.825
 8737SOL     OW27109   1.594   6.534   6.978
 8737SOL    HW127110   1.661   6.496   6.914
 8737SOL    HW227111   1.620   6.627   7.002
 8738SOL     OW27112   1.287   3.352   3.520
 8738SOL    HW127113   1.323   3.298   3.596
 8738SOL    HW227114   1.313   3.448   3.531
 8739SOL     OW27115   5.524   4.306   5.165
 8739SOL    HW127116   5.562   4.306   5.257
 8739SOL    HW227117   5.479   4.393   5.147
 8740SOL     OW27118   3.160   1.622   4.792
 8740SOL    HW127119   3.142   1.530   4.756
 8740SOL    HW227120   3.250   1.653   4.761
 8741SOL     OW27121   0.892   6.894   2.883
 8741SOL    HW127122   0.807   6.928   2.924
 8741SOL    HW227123   0.917   6.807   2.924
 8742SOL     OW27124   3.093   1.832   2.765
 8742SOL    HW127125   3.048   1.798   2.683
 8742SOL    HW227126   3.104   1.931   2.758
 8743SOL     OW27127   1.137   1.706   1.531
 8743SOL    HW127128   1.225   1.731   1.490
 8743SOL    HW227129   1.067   1.702   1.460
 8744SOL     OW27130   3.239   4.719   6.830
 8744SOL    HW127131   3.228   4.671   6.917
 8744SOL    HW227132   3.241   4.818   6.847
 8745SOL     OW27133   6.063   1.561   5.897
 8745SOL    HW127134   6.041   1.553   5.995
 8745SOL    HW227135   6.112   1.646   5.881
 8746SOL     OW27136   4.352   4.956   4.466
 8746SOL    HW127137   4.367   4.939   4.368
 8746SOL    HW227138   4.287   4.890   4.502
 8747SOL     OW27139   0.371   1.127   1.742
 8747SOL    HW127140   0.342   1.043   1.696
 8747SOL    HW227141   0.466   1.118   1.772
 8748SOL     OW27142   0.684   2.367   3.928
 8748SOL    HW127143   0.629   2.387   4.009
 8748SOL    HW227144   0.645   2.413   3.849
 8749SOL     OW27145   3.105   1.394   5.245
 8749SOL    HW127146   3.006   1.387   5.258
 8749SOL    HW227147   3.132   1.344   5.163
 8750SOL     OW27148   4.050   2.929   6.039
 8750SOL    HW127149   4.019   2.955   6.130
 8750SOL    HW227150   3.994   2.854   6.005
 8751SOL     OW27151   0.865   6.034   1.837
 8751SOL    HW127152   0.920   5.962   1.878
 8751SOL    HW227153   0.910   6.122   1.852
 8752SOL     OW27154   4.824   3.447   6.560
 8752SOL    HW127155   4.832   3.353   6.594
 8752SOL    HW227156   4.737   3.458   6.512
 8753SOL     OW27157   2.410   2.682   0.048
 8753SOL    HW127158   2.393   2.769   0.095
 8753SOL    HW227159   2.477   2.697   7.000
 8754SOL     OW27160   2.557   5.265   0.522
 8754SOL    HW127161   2.543   5.274   0.621
 8754SOL    HW227162   2.613   5.185   0.504
 8755SOL     OW27163   6.930   2.376   2.392
 8755SOL    HW127164   6.999   2.398   2.462
 8755SOL    HW227165   6.927   2.449   2.324
 8756SOL     OW27166   2.051   1.850   2.997
 8756SOL    HW127167   2.006   1.885   3.079
 8756SOL    HW227168   2.139   1.895   2.986
 8757SOL     OW27169   5.089   6.192   4.997
 8757SOL    HW127170   5.178   6.160   4.964
 8757SOL    HW227171   5.026   6.114   5.001
 8758SOL     OW27172   3.149   6.470   4.456
 8758SOL    HW127173   3.176   6.498   4.364
 8758SOL    HW227174   3.208   6.515   4.523
 8759SOL     OW27175   5.637   1.197   0.649
 8759SOL    HW127176   5.660   1.132   0.578
 8759SOL    HW227177   5.708   1.267   0.655
 8760SOL     OW27178   2.398   2.578   4.161
 8760SOL    HW127179   2.380   2.504   4.227
 8760SOL    HW227180   2.366   2.665   4.199
 8761SOL     OW27181   4.692   0.739   2.101
 8761SOL    HW127182   4.656   0.757   2.010
 8761SOL    HW227183   4.771   0.798   2.119
 8762SOL     OW27184   1.274   4.866   3.089
 8762SOL    HW127185   1.289   4.793   3.155
 8762SOL    HW227186   1.352   4.872   3.027
 8763SOL     OW27187   0.604   1.089   6.554
 8763SOL    HW127188   0.507   1.111   6.544
 8763SOL    HW227189   0.659   1.161   6.512
 8764SOL     OW27190   2.966   4.585   5.649
 8764SOL    HW127191   2.960   4.486   5.661
 8764SOL    HW227192   2.907   4.631   5.716
 8765SOL     OW27193   5.003   0.389   5.037
 8765SOL    HW127194   4.942   0.318   5.073
 8765SOL    HW227195   4.956   0.438   4.964
 8766SOL     OW27196   5.103   5.240   5.327
 8766SOL    HW127197   5.026   5.212   5.270
 8766SOL    HW227198   5.124   5.168   5.393
 8767SOL     OW27199   2.893   1.103   4.005
 8767SOL    HW127200   2.886   1.003   4.010
 8767SOL    HW227201   2.803   1.143   4.018
 8768SOL     OW27202   6.565   2.247   7.000
 8768SOL    HW127203   6.524   2.338   6.999
 8768SOL    HW227204   6.508   2.184   6.948
 8769SOL     OW27205   6.167   0.740   0.476
 8769SOL    HW127206   6.143   0.669   0.543
 8769SOL    HW227207   6.118   0.724   0.391
 8770SOL     OW27208   4.747   4.189   1.384
 8770SOL    HW127209   4.697   4.275   1.394
 8770SOL    HW227210   4.786   4.163   1.473
 8771SOL     OW27211   0.234   3.547   0.354
 8771SOL    HW127212   0.267   3.456   0.328
 8771SOL    HW227213   0.288   3.617   0.307
 8772SOL     OW27214   5.737   6.665   3.708
 8772SOL    HW127215   5.740   6.730   3.632
 8772SOL    HW227216   5.668   6.694   3.775
 8773SOL     OW27217   0.036   1.649   3.641
 8773SOL    HW127218   6.973   1.695   3.646
 8773SOL    HW227219   0.067   1.648   3.546
 8774SOL     OW27220   1.733   0.965   0.871
 8774SOL    HW127221   1.822   1.011   0.866
 8774SOL    HW227222   1.706   0.954   0.966
 8775SOL     OW27223   5.240   1.640   4.236
 8775SOL    HW127224   5.259   1.682   4.325
 8775SOL    HW227225   5.217   1.710   4.169
 8776SOL     OW27226   4.083   3.083   0.293
 8776SOL    HW127227   4.129   3.120   0.212
 8776SOL    HW227228   4.081   3.153   0.365
 8777SOL     OW27229   1.046   2.514   3.268
 8777SOL    HW127230   1.138   2.538   3.239
 8777SOL    HW227231   0.979   2.573   3.222
 8778SOL     OW27232   4.209   5.112   0.163
 8778SOL    HW127233   4.180   5.035   0.107
 8778SOL    HW227234   4.138   5.183   0.162
 8779SOL     OW27235   3.705   4.879   3.522
 8779SOL    HW127236   3.738   4.885   3.428
 8779SOL    HW227237   3.784   4.877   3.585
 8780SOL     OW27238   5.635   5.122   3.435
 8780SOL    HW127239   5.663   5.027   3.421
 8780SOL    HW227240   5.678   5.180   3.366
 8781SOL     OW27241   3.273   6.472   2.070
 8781SOL    HW127242   3.348   6.521   2.113
 8781SOL    HW227243   3.243   6.521   1.988
 8782SOL     OW27244   5.024   1.047   1.886
 8782SOL    HW127245   5.094   1.118   1.879
 8782SOL    HW227246   4.992   1.023   1.795
 8783SOL     OW27247   4.886   3.387   4.845
 8783SOL    HW127248   4.789   3.384   4.866
 8783SOL    HW227249   4.938   3.346   4.919
 8784SOL     OW27250   5.731   6.762   0.647
 8784SOL    HW127251   5.670   6.776   0.726
 8784SOL    HW227252   5.677   6.735   0.568
 8785SOL     OW27253   0.675   5.359   6.411
 8785SOL    HW127254   0.763   5.371   6.365
 8785SOL    HW227255   0.672   5.269   6.455
 8786SOL     OW27256   4.351   2.117   1.887
 8786SOL    HW127257   4.361   2.096   1.790
 8786SOL    HW227258   4.432   2.169   1.917
 8787SOL     OW27259   3.585   6.983   1.158
 8787SOL    HW127260   3.651   6.943   1.222
 8787SOL    HW227261   3.605   6.949   1.065
 8788SOL     OW27262   0.572   0.582   4.352
 8788SOL    HW127263   0.561   0.586   4.451
 8788SOL    HW227264   0.659   0.537   4.329
 8789SOL     OW27265   6.687   2.708   4.820
 8789SOL    HW127266   6.722   2.680   4.909
 8789SOL    HW227267   6.758   2.756   4.769
 8790SOL     OW27268   5.371   2.974   5.908
 8790SOL    HW127269   5.395   2.877   5.917
 8790SOL    HW227270   5.413   3.026   5.983
 8791SOL     OW27271   4.077   5.428   6.050
 8791SOL    HW127272   4.059   5.334   6.019
 8791SOL    HW227273   4.160   5.462   6.005
 8792SOL     OW27274   5.291   5.229   1.101
 8792SOL    HW127275   5.318   5.133   1.098
 8792SOL    HW227276   5.299   5.269   1.010
 8793SOL     OW27277   6.967   5.179   4.302
 8793SOL    HW127278   0.020   5.123   4.326
 8793SOL    HW227279   6.922   5.140   4.221
 8794SOL     OW27280   0.619   0.958   2.025
 8794SOL    HW127281   0.622   1.050   2.065
 8794SOL    HW227282   0.610   0.890   2.098
 8795SOL     OW27283   1.536   5.315   6.166
 8795SOL    HW127284   1.471   5.320   6.242
 8795SOL    HW227285   1.598   5.238   6.180
 8796SOL     OW27286   6.662   3.830   3.331
 8796SOL    HW127287   6.719   3.789   3.402
 8796SOL    HW227288   6.611   3.758   3.284
 8797SOL     OW27289   4.732   6.858   4.369
 8797SOL    HW127290   4.795   6.805   4.425
 8797SOL    HW227291   4.766   6.862   4.275
 8798SOL     OW27292   3.544   6.061   5.863
 8798SOL    HW127293   3.587   6.100   5.944
 8798SOL    HW227294   3.608   6.001   5.816
 8799SOL     OW27295   1.631   5.518   1.954
 8799SOL    HW127296   1.679   5.503   2.040
 8799SOL    HW227297   1.665   5.601   1.910
 8800SOL     OW27298   6.950   5.883   5.669
 8800SOL    HW127299   6.971   5.794   5.710
 8800SOL    HW227300   6.936   5.872   5.571
 8801SOL     OW27301   6.200   2.852   5.335
 8801SOL    HW127302   6.141   2.884   5.261
 8801SOL    HW227303   6.217   2.754   5.325
 8802SOL     OW27304   1.360   6.719   6.101
 8802SOL    HW127305   1.378   6.816   6.119
 8802SOL    HW227306   1.330   6.675   6.186
 8803SOL     OW27307   6.479   0.191   6.728
 8803SOL    HW127308   6.384   0.209   6.754
 8803SOL    HW227309   6.491   0.212   6.631
 8804SOL     OW27310   1.774   6.610   2.768
 8804SOL    HW127311   1.721   6.589   2.850
 8804SOL    HW227312   1.726   6.577   2.688
 8805SOL     OW27313   4.794   5.094   3.181
 8805SOL    HW127314   4.781   5.190   3.155
 8805SOL    HW227315   4.869   5.055   3.127
 8806SOL     OW27316   2.260   0.244   0.771
 8806SOL    HW127317   2.164   0.269   0.755
 8806SOL    HW227318   2.284   0.167   0.712
 8807SOL     OW27319   4.844   2.999   0.863
 8807SOL    HW127320   4.819   2.923   0.924
 8807SOL    HW227321   4.772   3.068   0.864
 8808SOL     OW27322   2.218   2.542   1.070
 8808SOL    HW127323   2.124   2.523   1.040
 8808SOL    HW227324   2.246   2.472   1.136
 8809SOL     OW27325   0.797   3.937   2.615
 8809SOL    HW127326   0.894   3.921   2.635
 8809SOL    HW227327   0.748   3.850   2.618
 8810SOL     OW27328   0.686   0.697   6.285
 8810SOL    HW127329   0.702   0.668   6.191
 8810SOL    HW227330   0.675   0.617   6.344
 8811SOL     OW27331   3.393   5.368   2.504
 8811SOL    HW127332   3.294   5.383   2.502
 8811SOL    HW227333   3.440   5.456   2.514
 8812SOL     OW27334   4.948   1.451   6.505
 8812SOL    HW127335   5.043   1.455   6.474
 8812SOL    HW227336   4.947   1.438   6.605
 8813SOL     OW27337   2.587   4.591   3.505
 8813SOL    HW127338   2.649   4.643   3.563
 8813SOL    HW227339   2.547   4.516   3.557
 8814SOL     OW27340   5.289   6.616   6.591
 8814SOL    HW127341   5.363   6.553   6.568
 8814SOL    HW227342   5.217   6.609   6.522
 8815SOL     OW27343   5.760   1.682   7.022
 8815SOL    HW127344   5.790   1.606   6.966
 8815SOL    HW227345   5.662   1.675   0.013
 8816SOL     OW27346   0.769   6.440   5.099
 8816SOL    HW127347   0.836   6.453   5.026
 8816SOL    HW227348   0.695   6.506   5.088
 8817SOL     OW27349   1.517   3.370   3.743
 8817SOL    HW127350   1.485   3.278   3.763
 8817SOL    HW227351   1.592   3.394   3.805
 8818SOL     OW27352   1.426   6.992   4.388
 8818SOL    HW127353   1.478   0.015   4.457
 8818SOL    HW227354   1.377   0.032   4.331
 8819SOL     OW27355   5.757   4.334   5.958
 8819SOL    HW127356   5.790   4.259   5.900
 8819SOL    HW227357   5.676   4.304   6.007
 8820SOL     OW27358   3.132   0.354   4.641
 8820SOL    HW127359   3.069   0.376   4.566
 8820SOL    HW227360   3.219   0.400   4.627
 8821SOL     OW27361   0.361   4.269   6.791
 8821SOL    HW127362   0.306   4.283   6.874
 8821SOL    HW227363   0.438   4.333   6.790
 8822SOL     OW27364   6.612   6.991   4.098
 8822SOL    HW127365   6.663   7.021   4.017
 8822SOL    HW227366   6.604   0.041   4.163
 8823SOL     OW27367   4.063   0.850   2.785
 8823SOL    HW127368   4.091   0.906   2.863
 8823SOL    HW227369   4.134   0.853   2.715
 8824SOL     OW27370   2.204   1.104   2.196
 8824SOL    HW127371   2.247   1.148   2.275
 8824SOL    HW227372   2.244   1.140   2.112
 8825SOL     OW27373   0.161   6.359   0.195
 8825SOL    HW127374   0.236   6.410   0.154
 8825SOL    HW227375   0.079   6.368   0.138
 8826SOL     OW27376   1.344   3.554   0.314
 8826SOL    HW127377   1.335   3.550   0.214
 8826SOL    HW227378   1.334   3.462   0.351
 8827SOL     OW27379   3.954   6.697   2.366
 8827SOL    HW127380   4.004   6.781   2.343
 8827SOL    HW227381   4.020   6.622   2.378
 8828SOL     OW27382   3.570   3.319   6.225
 8828SOL    HW127383   3.545   3.254   6.297
 8828SOL    HW227384   3.529   3.408   6.244
 8829SOL     OW27385   0.118   1.468   2.535
 8829SOL    HW127386   0.165   1.529   2.599
 8829SOL    HW227387   0.120   1.374   2.570
 8830SOL     OW27388   3.095   1.571   3.969
 8830SOL    HW127389   3.073   1.546   4.064
 8830SOL    HW227390   3.122   1.489   3.918
 8831SOL     OW27391   0.244   2.612   2.322
 8831SOL    HW127392   0.239   2.652   2.231
 8831SOL    HW227393   0.339   2.591   2.344
 8832SOL     OW27394   6.187   0.686   4.312
 8832SOL    HW127395   6.193   0.631   4.395
 8832SOL    HW227396   6.279   0.695   4.272
 8833SOL     OW27397   3.431   2.695   0.882
 8833SOL    HW127398   3.517   2.744   0.898
 8833SOL    HW227399   3.413   2.692   0.784
 8834SOL     OW27400   4.964   3.187   5.609
 8834SOL    HW127401   5.043   3.132   5.635
 8834SOL    HW227402   4.886   3.164   5.667
 8835SOL     OW27403   6.498   0.811   5.872
 8835SOL    HW127404   6.567   0.766   5.814
 8835SOL    HW227405   6.543   0.853   5.950
 8836SOL     OW27406   4.502   1.900   0.838
 8836SOL    HW127407   4.427   1.964   0.822
 8836SOL    HW227408   4.549   1.923   0.923
 8837SOL     OW27409   5.385   6.946   1.360
 8837SOL    HW127410   5.314   6.885   1.396
 8837SOL    HW227411   5.439   6.898   1.291
 8838SOL     OW27412   0.311   4.067   2.832
 8838SOL    HW127413   0.338   3.994   2.895
 8838SOL    HW227414   0.378   4.141   2.837
 8839SOL     OW27415   4.935   5.675   3.233
 8839SOL    HW127416   4.882   5.648   3.152
 8839SOL    HW227417   5.032   5.682   3.208
 8840SOL     OW27418   0.049   0.929   1.093
 8840SOL    HW127419   0.081   0.836   1.074
 8840SOL    HW227420   0.100   0.994   1.037
 8841SOL     OW27421   3.046   1.294   1.404
 8841SOL    HW127422   3.052   1.236   1.323
 8841SOL    HW227423   3.136   1.331   1.425
 8842SOL     OW27424   3.759   3.587   4.372
 8842SOL    HW127425   3.722   3.677   4.392
 8842SOL    HW227426   3.829   3.594   4.300
 8843SOL     OW27427   2.611   4.652   6.463
 8843SOL    HW127428   2.670   4.717   6.512
 8843SOL    HW227429   2.668   4.591   6.408
 8844SOL     OW27430   4.556   1.682   5.312
 8844SOL    HW127431   4.577   1.585   5.314
 8844SOL    HW227432   4.617   1.728   5.248
 8845SOL     OW27433   0.226   4.850   2.267
 8845SOL    HW127434   0.313   4.861   2.315
 8845SOL    HW227435   0.155   4.825   2.332
 8846SOL     OW27436   5.512   4.801   3.545
 8846SOL    HW127437   5.439   4.869   3.540
 8846SOL    HW227438   5.582   4.832   3.610
 8847SOL     OW27439   2.333   2.302   3.014
 8847SOL    HW127440   2.250   2.305   2.959
 8847SOL    HW227441   2.407   2.349   2.965
 8848SOL     OW27442   3.843   1.796   1.035
 8848SOL    HW127443   3.908   1.762   0.967
 8848SOL    HW227444   3.894   1.831   1.115
 8849SOL     OW27445   2.646   5.413   4.956
 8849SOL    HW127446   2.714   5.344   4.978
 8849SOL    HW227447   2.609   5.395   4.865
 8850SOL     OW27448   3.116   1.637   1.778
 8850SOL    HW127449   3.047   1.593   1.834
 8850SOL    HW227450   3.072   1.679   1.698
 8851SOL     OW27451   6.902   5.115   2.718
 8851SOL    HW127452   6.898   5.021   2.751
 8851SOL    HW227453   6.980   5.162   2.759
 8852SOL     OW27454   5.258   2.534   5.487
 8852SOL    HW127455   5.170   2.562   5.450
 8852SOL    HW227456   5.328   2.600   5.461
 8853SOL     OW27457   4.536   0.999   5.672
 8853SOL    HW127458   4.533   1.008   5.573
 8853SOL    HW227459   4.524   0.902   5.697
 8854SOL     OW27460   1.769   1.688   6.463
 8854SOL    HW127461   1.763   1.788   6.459
 8854SOL    HW227462   1.863   1.661   6.482
 8855SOL     OW27463   6.415   5.044   6.364
 8855SOL    HW127464   6.361   5.128   6.376
 8855SOL    HW227465   6.370   4.968   6.412
 8856SOL     OW27466   5.484   0.886   4.643
 8856SOL    HW127467   5.560   0.951   4.646
 8856SOL    HW227468   5.398   0.934   4.662
 8857SOL     OW27469   6.785   2.274   3.730
 8857SOL    HW127470   6.828   2.220   3.657
 8857SOL    HW227471   6.725   2.343   3.689
 8858SOL     OW27472   0.337   3.157   6.684
 8858SOL    HW127473   0.395   3.238   6.694
 8858SOL    HW227474   0.242   3.182   6.701
 8859SOL     OW27475   1.828   5.861   5.924
 8859SOL    HW127476   1.763   5.817   5.986
 8859SOL    HW227477   1.779   5.899   5.846
 8860SOL     OW27478   1.520   1.922   2.706
 8860SOL    HW127479   1.498   1.995   2.641
 8860SOL    HW227480   1.565   1.961   2.786
 8861SOL     OW27481   4.067   3.250   7.025
 8861SOL    HW127482   4.049   3.341   6.986
 8861SOL    HW227483   4.165   3.235   0.007
 8862SOL     OW27484   5.661   1.496   4.485
 8862SOL    HW127485   5.608   1.505   4.401
 8862SOL    HW227486   5.614   1.435   4.548
 8863SOL     OW27487   2.026   5.699   5.505
 8863SOL    HW127488   2.094   5.773   5.503
 8863SOL    HW227489   2.073   5.611   5.500
 8864SOL     OW27490   1.296   2.459   6.786
 8864SOL    HW127491   1.317   2.406   6.703
 8864SOL    HW227492   1.381   2.481   6.833
 8865SOL     OW27493   2.640   2.366   6.291
 8865SOL    HW127494   2.634   2.331   6.198
 8865SOL    HW227495   2.598   2.457   6.295
 8866SOL     OW27496   3.070   6.275   4.670
 8866SOL    HW127497   3.089   6.324   4.585
 8866SOL    HW227498   3.112   6.325   4.746
 8867SOL     OW27499   6.617   3.081   3.474
 8867SOL    HW127500   6.622   3.091   3.574
 8867SOL    HW227501   6.571   3.160   3.435
 8868SOL     OW27502   4.221   4.325   6.948
 8868SOL    HW127503   4.271   4.323   0.009
 8868SOL    HW227504   4.167   4.242   6.938
 8869SOL     OW27505   5.165   2.671   3.791
 8869SOL    HW127506   5.243   2.622   3.751
 8869SOL    HW227507   5.140   2.628   3.877
 8870SOL     OW27508   4.223   1.069   0.686
 8870SOL    HW127509   4.262   1.158   0.708
 8870SOL    HW227510   4.241   1.006   0.761
 8871SOL     OW27511   2.398   2.168   3.539
 8871SOL    HW127512   2.368   2.181   3.445
 8871SOL    HW227513   2.491   2.131   3.540
 8872SOL     OW27514   1.444   3.901   4.061
 8872SOL    HW127515   1.477   3.969   3.995
 8872SOL    HW227516   1.345   3.906   4.068
 8873SOL     OW27517   0.594   5.269   4.335
 8873SOL    HW127518   0.641   5.269   4.423
 8873SOL    HW227519   0.604   5.180   4.292
 8874SOL     OW27520   2.983   0.455   0.968
 8874SOL    HW127521   2.894   0.448   1.012
 8874SOL    HW227522   3.046   0.390   1.010
 8875SOL     OW27523   1.850   2.577   4.317
 8875SOL    HW127524   1.772   2.522   4.346
 8875SOL    HW227525   1.909   2.596   4.396
 8876SOL     OW27526   0.854   0.548   4.998
 8876SOL    HW127527   0.827   0.527   4.904
 8876SOL    HW227528   0.882   0.644   5.004
 8877SOL     OW27529   2.634   0.384   4.854
 8877SOL    HW127530   2.719   0.335   4.871
 8877SOL    HW227531   2.601   0.363   4.762
 8878SOL     OW27532   6.795   4.317   6.595
 8878SOL    HW127533   6.765   4.231   6.637
 8878SOL    HW227534   6.764   4.321   6.500
 8879SOL     OW27535   5.432   6.806   6.225
 8879SOL    HW127536   5.473   6.766   6.307
 8879SOL    HW227537   5.439   6.740   6.149
 8880SOL     OW27538   6.859   4.980   4.994
 8880SOL    HW127539   6.837   4.883   5.006
 8880SOL    HW227540   6.864   5.001   4.897
 8881SOL     OW27541   6.485   1.480   1.026
 8881SOL    HW127542   6.472   1.455   0.930
 8881SOL    HW227543   6.471   1.579   1.037
 8882SOL     OW27544   5.372   1.672   6.503
 8882SOL    HW127545   5.400   1.768   6.513
 8882SOL    HW227546   5.386   1.624   6.589
 8883SOL     OW27547   6.555   1.023   5.567
 8883SOL    HW127548   6.539   0.930   5.534
 8883SOL    HW227549   6.535   1.089   5.494
 8884SOL     OW27550   6.518   0.581   6.165
 8884SOL    HW127551   6.552   0.675   6.161
 8884SOL    HW227552   6.460   0.563   6.086
 8885SOL     OW27553   5.567   3.533   1.942
 8885SOL    HW127554   5.578   3.631   1.930
 8885SOL    HW227555   5.519   3.495   1.863
 8886SOL     OW27556   3.130   6.897   6.086
 8886SOL    HW127557   3.103   6.808   6.048
 8886SOL    HW227558   3.214   6.886   6.139
 8887SOL     OW27559   2.780   1.514   0.930
 8887SOL    HW127560   2.778   1.431   0.986
 8887SOL    HW227561   2.736   1.495   0.842
 8888SOL     OW27562   3.456   1.756   2.080
 8888SOL    HW127563   3.497   1.844   2.059
 8888SOL    HW227564   3.528   1.691   2.107
 8889SOL     OW27565   3.785   6.583   4.620
 8889SOL    HW127566   3.734   6.616   4.541
 8889SOL    HW227567   3.727   6.523   4.675
 8890SOL     OW27568   1.265   5.166   4.555
 8890SOL    HW127569   1.318   5.238   4.599
 8890SOL    HW227570   1.183   5.148   4.609
 8891SOL     OW27571   4.594   2.923   6.581
 8891SOL    HW127572   4.583   2.979   6.499
 8891SOL    HW227573   4.576   2.827   6.558
 8892SOL     OW27574   2.050   6.954   2.955
 8892SOL    HW127575   2.130   6.935   3.013
 8892SOL    HW227576   2.045   6.887   2.881
 8893SOL     OW27577   0.531   1.453   1.217
 8893SOL    HW127578   0.559   1.544   1.188
 8893SOL    HW227579   0.469   1.461   1.295
 8894SOL     OW27580   3.996   3.189   6.647
 8894SOL    HW127581   4.075   3.209   6.589
 8894SOL    HW227582   4.023   3.124   6.718
 8895SOL     OW27583   0.940   6.993   1.934
 8895SOL    HW127584   0.869   0.031   1.904
 8895SOL    HW227585   0.990   0.007   2.012
 8896SOL     OW27586   1.657   4.026   4.863
 8896SOL    HW127587   1.687   4.117   4.891
 8896SOL    HW227588   1.736   3.969   4.843
 8897SOL     OW27589   1.094   2.218   1.652
 8897SOL    HW127590   1.023   2.191   1.717
 8897SOL    HW227591   1.176   2.244   1.701
 8898SOL     OW27592   5.312   3.742   4.401
 8898SOL    HW127593   5.378   3.679   4.360
 8898SOL    HW227594   5.314   3.829   4.352
 8899SOL     OW27595   1.400   4.538   0.412
 8899SOL    HW127596   1.462   4.572   0.483
 8899SOL    HW227597   1.453   4.509   0.332
 8900SOL     OW27598   5.612   2.208   3.594
 8900SOL    HW127599   5.691   2.157   3.558
 8900SOL    HW227600   5.593   2.179   3.687
 8901SOL     OW27601   1.779   0.520   2.674
 8901SOL    HW127602   1.782   0.544   2.577
 8901SOL    HW227603   1.689   0.484   2.697
 8902SOL     OW27604   1.345   5.087   6.893
 8902SOL    HW127605   1.319   5.022   6.964
 8902SOL    HW227606   1.263   5.122   6.847
 8903SOL     OW27607   2.062   1.730   3.484
 8903SOL    HW127608   2.120   1.811   3.489
 8903SOL    HW227609   2.022   1.712   3.574
 8904SOL     OW27610   0.444   6.149   3.389
 8904SOL    HW127611   0.490   6.238   3.389
 8904SOL    HW227612   0.401   6.134   3.300
 8905SOL     OW27613   2.535   3.748   5.317
 8905SOL    HW127614   2.503   3.828   5.267
 8905SOL    HW227615   2.457   3.697   5.352
 8906SOL     OW27616   6.256   6.475   5.528
 8906SOL    HW127617   6.207   6.528   5.598
 8906SOL    HW227618   6.314   6.537   5.474
 8907SOL     OW27619   3.188   2.782   5.832
 8907SOL    HW127620   3.284   2.776   5.806
 8907SOL    HW227621   3.170   2.870   5.876
 8908SOL     OW27622   0.903   2.625   1.646
 8908SOL    HW127623   0.900   2.529   1.617
 8908SOL    HW227624   0.815   2.668   1.626
 8909SOL     OW27625   2.096   0.780   6.630
 8909SOL    HW127626   2.109   0.813   6.723
 8909SOL    HW227627   2.004   0.804   6.598
 8910SOL     OW27628   3.126   3.817   6.618
 8910SOL    HW127629   3.076   3.847   6.700
 8910SOL    HW227630   3.204   3.878   6.603
 8911SOL     OW27631   4.014   2.178   4.205
 8911SOL    HW127632   4.109   2.183   4.174
 8911SOL    HW227633   3.957   2.233   4.144
 8912SOL     OW27634   4.749   2.544   6.134
 8912SOL    HW127635   4.820   2.609   6.105
 8912SOL    HW227636   4.675   2.593   6.180
 8913SOL     OW27637   5.041   4.712   1.348
 8913SOL    HW127638   4.988   4.733   1.430
 8913SOL    HW227639   5.062   4.614   1.347
 8914SOL     OW27640   3.425   1.665   4.730
 8914SOL    HW127641   3.442   1.758   4.763
 8914SOL    HW227642   3.436   1.662   4.631
 8915SOL     OW27643   1.801   4.005   2.032
 8915SOL    HW127644   1.827   4.084   2.087
 8915SOL    HW227645   1.802   3.923   2.089
 8916SOL     OW27646   6.661   3.370   2.770
 8916SOL    HW127647   6.736   3.437   2.772
 8916SOL    HW227648   6.666   3.312   2.852
 8917SOL     OW27649   5.976   6.188   6.906
 8917SOL    HW127650   6.041   6.229   6.842
 8917SOL    HW227651   5.965   6.249   6.985
 8918SOL     OW27652   5.602   4.936   6.204
 8918SOL    HW127653   5.692   4.910   6.238
 8918SOL    HW227654   5.541   4.857   6.205
 8919SOL     OW27655   2.948   5.216   1.023
 8919SOL    HW127656   2.933   5.117   1.025
 8919SOL    HW227657   2.917   5.257   1.109
 8920SOL     OW27658   6.047   5.792   5.221
 8920SOL    HW127659   6.082   5.877   5.258
 8920SOL    HW227660   6.017   5.806   5.127
 8921SOL     OW27661   1.634   0.338   3.802
 8921SOL    HW127662   1.563   0.314   3.868
 8921SOL    HW227663   1.611   0.301   3.712
 8922SOL     OW27664   0.523   4.250   0.296
 8922SOL    HW127665   0.432   4.233   0.332
 8922SOL    HW227666   0.521   4.330   0.236
 8923SOL     OW27667   2.310   4.202   6.381
 8923SOL    HW127668   2.251   4.214   6.301
 8923SOL    HW227669   2.279   4.262   6.454
 8924SOL     OW27670   2.507   5.448   5.710
 8924SOL    HW127671   2.486   5.526   5.769
 8924SOL    HW227672   2.603   5.453   5.682
 8925SOL     OW27673   0.079   6.884   1.976
 8925SOL    HW127674   0.027   6.954   2.025
 8925SOL    HW227675   0.158   6.927   1.932
 8926SOL     OW27676   5.296   2.590   0.995
 8926SOL    HW127677   5.251   2.679   0.981
 8926SOL    HW227678   5.301   2.542   0.907
 8927SOL     OW27679   2.284   2.471   4.755
 8927SOL    HW127680   2.332   2.502   4.837
 8927SOL    HW227681   2.186   2.483   4.767
 8928SOL     OW27682   0.648   6.559   5.644
 8928SOL    HW127683   0.641   6.526   5.550
 8928SOL    HW227684   0.623   6.656   5.647
 8929SOL     OW27685   6.123   3.886   3.553
 8929SOL    HW127686   6.202   3.866   3.495
 8929SOL    HW227687   6.040   3.852   3.509
 8930SOL     OW27688   1.055   5.188   4.750
 8930SOL    HW127689   1.050   5.120   4.823
 8930SOL    HW227690   1.010   5.152   4.668
 8931SOL     OW27691   4.570   1.287   0.537
 8931SOL    HW127692   4.662   1.306   0.504
 8931SOL    HW227693   4.530   1.371   0.573
 8932SOL     OW27694   0.081   0.142   6.704
 8932SOL    HW127695   0.068   0.192   6.619
 8932SOL    HW227696   0.031   0.056   6.700
 8933SOL     OW27697   1.620   0.603   5.078
 8933SOL    HW127698   1.719   0.596   5.067
 8933SOL    HW227699   1.591   0.698   5.060
 8934SOL     OW27700   3.247   5.729   2.523
 8934SOL    HW127701   3.273   5.810   2.576
 8934SOL    HW227702   3.330   5.679   2.497
 8935SOL     OW27703   5.026   2.716   3.225
 8935SOL    HW127704   5.022   2.628   3.178
 8935SOL    HW227705   4.934   2.752   3.236
 8936SOL     OW27706   0.982   5.554   2.132
 8936SOL    HW127707   0.883   5.566   2.140
 8936SOL    HW227708   1.021   5.535   2.222
 8937SOL     OW27709   5.619   6.988   4.150
 8937SOL    HW127710   5.648   0.012   4.068
 8937SOL    HW227711   5.691   6.924   4.178
 8938SOL     OW27712   6.136   1.105   0.868
 8938SOL    HW127713   6.207   1.040   0.841
 8938SOL    HW227714   6.177   1.195   0.883
 8939SOL     OW27715   0.396   2.906   3.734
 8939SOL    HW127716   0.318   2.915   3.796
 8939SOL    HW227717   0.481   2.919   3.784
 8940SOL     OW27718   6.488   2.909   1.168
 8940SOL    HW127719   6.418   2.900   1.239
 8940SOL    HW227720   6.548   2.829   1.170
 8941SOL     OW27721   4.456   2.869   1.350
 8941SOL    HW127722   4.468   2.785   1.296
 8941SOL    HW227723   4.546   2.906   1.375
 8942SOL     OW27724   5.741   4.764   4.153
 8942SOL    HW127725   5.769   4.781   4.247
 8942SOL    HW227726   5.747   4.666   4.133
 8943SOL     OW27727   5.031   4.015   6.854
 8943SOL    HW127728   5.042   4.090   6.919
 8943SOL    HW227729   5.092   4.029   6.776
 8944SOL     OW27730   5.287   5.804   4.805
 8944SOL    HW127731   5.273   5.781   4.901
 8944SOL    HW227732   5.262   5.726   4.748
 8945SOL     OW27733   5.786   4.095   5.358
 8945SOL    HW127734   5.745   4.052   5.438
 8945SOL    HW227735   5.885   4.089   5.364
 8946SOL     OW27736   5.388   1.008   5.195
 8946SOL    HW127737   5.301   0.962   5.213
 8946SOL    HW227738   5.451   0.944   5.150
 8947SOL     OW27739   2.035   5.323   6.807
 8947SOL    HW127740   1.937   5.333   6.823
 8947SOL    HW227741   2.080   5.300   6.893
 8948SOL     OW27742   6.943   0.544   2.875
 8948SOL    HW127743   7.004   0.589   2.810
 8948SOL    HW227744   6.896   0.468   2.829
 8949SOL     OW27745   3.566   6.321   0.703
 8949SOL    HW127746   3.595   6.416   0.698
 8949SOL    HW227747   3.503   6.309   0.780
 8950SOL     OW27748   4.962   4.300   1.028
 8950SOL    HW127749   4.903   4.376   1.058
 8950SOL    HW227750   5.058   4.324   1.044
 8951SOL     OW27751   2.006   1.811   4.677
 8951SOL    HW127752   2.058   1.726   4.670
 8951SOL    HW227753   2.054   1.875   4.737
 8952SOL     OW27754   2.055   4.165   3.877
 8952SOL    HW127755   2.109   4.189   3.796
 8952SOL    HW227756   1.997   4.242   3.902
 8953SOL     OW27757   1.203   4.849   2.082
 8953SOL    HW127758   1.162   4.884   1.998
 8953SOL    HW227759   1.196   4.918   2.154
 8954SOL     OW27760   1.816   5.155   5.600
 8954SOL    HW127761   1.797   5.219   5.674
 8954SOL    HW227762   1.897   5.186   5.549
 8955SOL     OW27763   5.827   2.808   4.083
 8955SOL    HW127764   5.776   2.890   4.109
 8955SOL    HW227765   5.800   2.731   4.141
 8956SOL     OW27766   0.915   5.848   6.408
 8956SOL    HW127767   0.890   5.773   6.469
 8956SOL    HW227768   0.889   5.825   6.314
 8957SOL     OW27769   0.546   6.421   3.186
 8957SOL    HW127770   0.512   6.510   3.217
 8957SOL    HW227771   0.485   6.385   3.115
 8958SOL     OW27772   1.593   3.861   5.553
 8958SOL    HW127773   1.609   3.915   5.470
 8958SOL    HW227774   1.644   3.776   5.549
 8959SOL     OW27775   0.363   3.165   2.929
 8959SOL    HW127776   0.271   3.196   2.905
 8959SOL    HW227777   0.419   3.244   2.955
 8960SOL     OW27778   5.029   4.257   3.583
 8960SOL    HW127779   5.030   4.357   3.583
 8960SOL    HW227780   5.120   4.223   3.558
 8961SOL     OW27781   2.601   6.848   5.534
 8961SOL    HW127782   2.517   6.813   5.576
 8961SOL    HW227783   2.606   6.947   5.548
 8962SOL     OW27784   0.492   5.800   1.883
 8962SOL    HW127785   0.396   5.820   1.866
 8962SOL    HW227786   0.514   5.710   1.846
 8963SOL     OW27787   4.315   6.360   4.350
 8963SOL    HW127788   4.323   6.264   4.376
 8963SOL    HW227789   4.371   6.416   4.412
 8964SOL     OW27790   0.720   3.275   4.179
 8964SOL    HW127791   0.629   3.260   4.218
 8964SOL    HW227792   0.712   3.291   4.081
 8965SOL     OW27793   4.156   5.286   0.624
 8965SOL    HW127794   4.248   5.299   0.588
 8965SOL    HW227795   4.121   5.374   0.656
 8966SOL     OW27796   5.276   4.986   6.039
 8966SOL    HW127797   5.213   5.058   6.067
 8966SOL    HW227798   5.365   5.026   6.017
 8967SOL     OW27799   2.886   0.025   3.883
 8967SOL    HW127800   2.848   0.017   3.975
 8967SOL    HW227801   2.864   6.968   3.831
 8968SOL     OW27802   3.728   5.231   1.915
 8968SOL    HW127803   3.667   5.152   1.921
 8968SOL    HW227804   3.770   5.233   1.824
 8969SOL     OW27805   0.144   1.242   2.704
 8969SOL    HW127806   0.213   1.200   2.762
 8969SOL    HW227807   0.110   1.326   2.747
 8970SOL     OW27808   1.799   0.848   5.011
 8970SOL    HW127809   1.790   0.809   5.103
 8970SOL    HW227810   1.723   0.817   4.954
 8971SOL     OW27811   4.486   5.430   0.604
 8971SOL    HW127812   4.544   5.366   0.654
 8971SOL    HW227813   4.480   5.402   0.508
 8972SOL     OW27814   6.446   4.557   0.389
 8972SOL    HW127815   6.358   4.517   0.415
 8972SOL    HW227816   6.439   4.599   0.299
 8973SOL     OW27817   1.199   3.007   2.906
 8973SOL    HW127818   1.192   3.068   2.828
 8973SOL    HW227819   1.183   2.913   2.877
 8974SOL     OW27820   2.218   4.195   4.836
 8974SOL    HW127821   2.251   4.126   4.900
 8974SOL    HW227822   2.180   4.150   4.755
 8975SOL     OW27823   0.297   6.429   6.000
 8975SOL    HW127824   0.392   6.402   6.014
 8975SOL    HW227825   0.275   6.426   5.902
 8976SOL     OW27826   6.570   6.820   1.634
 8976SOL    HW127827   6.553   6.732   1.590
 8976SOL    HW227828   6.669   6.835   1.643
 8977SOL     OW27829   6.967   5.108   6.015
 8977SOL    HW127830   7.020   5.192   6.003
 8977SOL    HW227831   7.008   5.034   5.961
 8978SOL     OW27832   5.594   5.745   6.413
 8978SOL    HW127833   5.636   5.799   6.486
 8978SOL    HW227834   5.665   5.710   6.352
 8979SOL     OW27835   1.313   5.091   5.744
 8979SOL    HW127836   1.308   5.138   5.832
 8979SOL    HW227837   1.278   4.998   5.754
 8980SOL     OW27838   3.550   0.496   5.101
 8980SOL    HW127839   3.473   0.545   5.142
 8980SOL    HW227840   3.601   0.449   5.173
 8981SOL     OW27841   3.765   2.870   0.211
 8981SOL    HW127842   3.854   2.834   0.241
 8981SOL    HW227843   3.751   2.960   0.251
 8982SOL     OW27844   0.797   1.622   1.543
 8982SOL    HW127845   0.852   1.539   1.537
 8982SOL    HW227846   0.840   1.694   1.487
 8983SOL     OW27847   1.031   0.039   2.191
 8983SOL    HW127848   1.074   0.129   2.193
 8983SOL    HW227849   1.017   0.007   2.285
 8984SOL     OW27850   6.254   0.518   3.717
 8984SOL    HW127851   6.225   0.547   3.809
 8984SOL    HW227852   6.340   0.468   3.724
 8985SOL     OW27853   4.502   2.924   0.632
 8985SOL    HW127854   4.508   2.861   0.708
 8985SOL    HW227855   4.407   2.932   0.602
 8986SOL     OW27856   0.089   5.512   0.093
 8986SOL    HW127857   0.035   5.514   0.177
 8986SOL    HW227858   0.185   5.532   0.114
 8987SOL     OW27859   2.239   0.857   1.681
 8987SOL    HW127860   2.212   0.765   1.652
 8987SOL    HW227861   2.229   0.865   1.780
 8988SOL     OW27862   1.452   5.807   1.812
 8988SOL    HW127863   1.490   5.875   1.874
 8988SOL    HW227864   1.526   5.768   1.757
 8989SOL     OW27865   5.059   1.445   1.796
 8989SOL    HW127866   5.130   1.412   1.734
 8989SOL    HW227867   4.970   1.413   1.765
 8990SOL     OW27868   3.691   0.427   1.785
 8990SOL    HW127869   3.661   0.446   1.692
 8990SOL    HW227870   3.613   0.428   1.847
 8991SOL     OW27871   2.067   2.506   0.307
 8991SOL    HW127872   2.028   2.457   0.385
 8991SOL    HW227873   2.033   2.600   0.306
 8992SOL     OW27874   0.106   4.129   0.615
 8992SOL    HW127875   0.041   4.111   0.689
 8992SOL    HW227876   0.069   4.092   0.529
 8993SOL     OW27877   5.922   3.572   4.251
 8993SOL    HW127878   5.851   3.550   4.184
 8993SOL    HW227879   6.011   3.545   4.214
 8994SOL     OW27880   0.745   5.292   3.322
 8994SOL    HW127881   0.795   5.378   3.317
 8994SOL    HW227882   0.799   5.219   3.280
 8995SOL     OW27883   1.868   3.781   4.906
 8995SOL    HW127884   1.881   3.712   4.835
 8995SOL    HW227885   1.956   3.802   4.949
 8996SOL     OW27886   0.909   3.949   2.017
 8996SOL    HW127887   0.884   3.855   2.042
 8996SOL    HW227888   1.006   3.964   2.037
 8997SOL     OW27889   5.020   1.437   5.362
 8997SOL    HW127890   5.001   1.359   5.302
 8997SOL    HW227891   4.948   1.443   5.431
 8998SOL     OW27892   1.489   2.910   6.475
 8998SOL    HW127893   1.403   2.940   6.433
 8998SOL    HW227894   1.565   2.926   6.412
 8999SOL     OW27895   6.429   1.316   4.053
 8999SOL    HW127896   6.453   1.220   4.043
 8999SOL    HW227897   6.402   1.334   4.147
 9000SOL     OW27898   3.326   3.838   0.879
 9000SOL    HW127899   3.244   3.822   0.823
 9000SOL    HW227900   3.371   3.923   0.849
 9001SOL     OW27901   1.528   4.952   3.434
 9001SOL    HW127902   1.603   4.962   3.499
 9001SOL    HW227903   1.514   4.855   3.414
 9002SOL     OW27904   5.255   4.898   5.284
 9002SOL    HW127905   5.251   4.960   5.205
 9002SOL    HW227906   5.315   4.821   5.262
 9003SOL     OW27907   5.677   2.826   6.415
 9003SOL    HW127908   5.640   2.899   6.472
 9003SOL    HW227909   5.773   2.844   6.395
 9004SOL     OW27910   4.251   6.506   1.147
 9004SOL    HW127911   4.344   6.544   1.148
 9004SOL    HW227912   4.227   6.477   1.055
 9005SOL     OW27913   4.824   1.596   3.059
 9005SOL    HW127914   4.878   1.640   3.131
 9005SOL    HW227915   4.864   1.507   3.037
 9006SOL     OW27916   0.911   5.703   1.200
 9006SOL    HW127917   0.970   5.778   1.227
 9006SOL    HW227918   0.884   5.714   1.105
 9007SOL     OW27919   2.490   6.821   4.286
 9007SOL    HW127920   2.503   6.853   4.380
 9007SOL    HW227921   2.478   6.900   4.226
 9008SOL     OW27922   6.442   4.286   2.157
 9008SOL    HW127923   6.521   4.313   2.213
 9008SOL    HW227924   6.465   4.297   2.060
 9009SOL     OW27925   3.279   6.499   0.913
 9009SOL    HW127926   3.314   6.455   0.996
 9009SOL    HW227927   3.203   6.560   0.937
 9010SOL     OW27928   1.134   6.320   5.122
 9010SOL    HW127929   1.094   6.236   5.085
 9010SOL    HW227930   1.117   6.324   5.220
 9011SOL     OW27931   4.641   2.014   1.329
 9011SOL    HW127932   4.663   2.003   1.426
 9011SOL    HW227933   4.628   2.111   1.308
 9012SOL     OW27934   7.011   5.508   1.391
 9012SOL    HW127935   0.018   5.574   1.459
 9012SOL    HW227936   6.964   5.433   1.437
 9013SOL     OW27937   5.933   5.726   3.368
 9013SOL    HW127938   5.875   5.797   3.409
 9013SOL    HW227939   5.995   5.690   3.436
 9014SOL     OW27940   3.224   0.971   1.268
 9014SOL    HW127941   3.149   1.035   1.250
 9014SOL    HW227942   3.194   0.903   1.335
 9015SOL     OW27943   0.305   1.051   5.552
 9015SOL    HW127944   0.312   1.123   5.622
 9015SOL    HW227945   0.213   1.051   5.513
 9016SOL     OW27946   6.197   6.057   6.303
 9016SOL    HW127947   6.265   6.006   6.250
 9016SOL    HW227948   6.213   6.044   6.400
 9017SOL     OW27949   6.599   2.892   3.100
 9017SOL    HW127950   6.685   2.906   3.149
 9017SOL    HW227951   6.618   2.867   3.005
 9018SOL     OW27952   3.639   2.522   5.378
 9018SOL    HW127953   3.669   2.427   5.371
 9018SOL    HW227954   3.555   2.534   5.326
 9019SOL     OW27955   2.291   6.903   1.101
 9019SOL    HW127956   2.269   6.922   1.005
 9019SOL    HW227957   2.350   6.823   1.106
 9020SOL     OW27958   0.459   4.891   3.233
 9020SOL    HW127959   0.531   4.829   3.266
 9020SOL    HW227960   0.497   4.982   3.219
 9021SOL     OW27961   6.812   5.620   5.039
 9021SOL    HW127962   6.824   5.709   4.996
 9021SOL    HW227963   6.883   5.606   5.108
 9022SOL     OW27964   3.335   0.766   0.452
 9022SOL    HW127965   3.246   0.809   0.437
 9022SOL    HW227966   3.406   0.836   0.452
 9023SOL     OW27967   3.359   3.424   3.415
 9023SOL    HW127968   3.368   3.375   3.502
 9023SOL    HW227969   3.322   3.516   3.432
 9024SOL     OW27970   1.903   6.733   0.329
 9024SOL    HW127971   1.916   6.817   0.381
 9024SOL    HW227972   1.955   6.659   0.372
 9025SOL     OW27973   6.202   4.505   0.684
 9025SOL    HW127974   6.238   4.458   0.604
 9025SOL    HW227975   6.232   4.458   0.767
 9026SOL     OW27976   3.445   2.834   5.004
 9026SOL    HW127977   3.437   2.736   5.023
 9026SOL    HW227978   3.353   2.873   4.990
 9027SOL     OW27979   1.704   3.045   3.607
 9027SOL    HW127980   1.634   3.079   3.545
 9027SOL    HW227981   1.661   2.998   3.684
 9028SOL     OW27982   2.991   4.961   4.952
 9028SOL    HW127983   2.921   4.895   4.981
 9028SOL    HW227984   3.057   4.974   5.026
 9029SOL     OW27985   5.130   6.123   3.139
 9029SOL    HW127986   5.120   6.145   3.042
 9029SOL    HW227987   5.041   6.097   3.177
 9030SOL     OW27988   3.124   1.082   1.872
 9030SOL    HW127989   3.181   1.000   1.868
 9030SOL    HW227990   3.076   1.085   1.959
 9031SOL     OW27991   2.659   6.551   6.325
 9031SOL    HW127992   2.617   6.533   6.414
 9031SOL    HW227993   2.588   6.581   6.260
 9032SOL     OW27994   2.042   1.768   1.974
 9032SOL    HW127995   2.102   1.778   1.895
 9032SOL    HW227996   2.094   1.781   2.058
 9033SOL     OW27997   1.596   4.030   2.562
 9033SOL    HW127998   1.607   3.931   2.565
 9033SOL    HW227999   1.618   4.069   2.651
 9034SOL     OW28000   3.352   6.313   6.209
 9034SOL    HW128001   3.343   6.286   6.305
 9034SOL    HW228002   3.308   6.245   6.151
 9035SOL     OW28003   7.019   1.325   4.255
 9035SOL    HW128004   0.019   1.285   4.344
 9035SOL    HW228005   6.920   1.344   4.255
 9036SOL     OW28006   1.221   2.062   5.526
 9036SOL    HW128007   1.255   1.999   5.596
 9036SOL    HW228008   1.286   2.066   5.450
 9037SOL     OW28009   1.963   4.046   6.559
 9037SOL    HW128010   1.959   4.121   6.493
 9037SOL    HW228011   1.884   4.052   6.620
 9038SOL     OW28012   4.948   6.313   5.702
 9038SOL    HW128013   5.037   6.273   5.679
 9038SOL    HW228014   4.925   6.384   5.635
 9039SOL     OW28015   2.159   5.701   5.908
 9039SOL    HW128016   2.149   5.787   5.858
 9039SOL    HW228017   2.069   5.664   5.928
 9040SOL     OW28018   1.938   1.669   2.667
 9040SOL    HW128019   1.850   1.623   2.658
 9040SOL    HW228020   1.983   1.673   2.577
 9041SOL     OW28021   2.150   3.121   0.300
 9041SOL    HW128022   2.248   3.106   0.295
 9041SOL    HW228023   2.129   3.216   0.280
 9042SOL     OW28024   2.775   4.737   4.038
 9042SOL    HW128025   2.860   4.777   4.072
 9042SOL    HW228026   2.707   4.735   4.112
 9043SOL     OW28027   0.315   2.211   5.752
 9043SOL    HW128028   0.385   2.140   5.761
 9043SOL    HW228029   0.310   2.264   5.836
 9044SOL     OW28030   6.008   6.278   0.414
 9044SOL    HW128031   6.108   6.290   0.411
 9044SOL    HW228032   5.969   6.348   0.473
 9045SOL     OW28033   3.087   6.681   3.839
 9045SOL    HW128034   3.110   6.678   3.742
 9045SOL    HW228035   3.090   6.775   3.872
 9046SOL     OW28036   3.300   4.174   4.650
 9046SOL    HW128037   3.355   4.250   4.684
 9046SOL    HW228038   3.250   4.132   4.726
 9047SOL     OW28039   1.010   4.634   4.645
 9047SOL    HW128040   0.988   4.558   4.708
 9047SOL    HW228041   1.090   4.683   4.679
 9048SOL     OW28042   0.581   3.372   4.551
 9048SOL    HW128043   0.582   3.467   4.520
 9048SOL    HW228044   0.542   3.368   4.643
 9049SOL     OW28045   5.231   5.373   6.445
 9049SOL    HW128046   5.291   5.446   6.413
 9049SOL    HW228047   5.185   5.331   6.367
 9050SOL     OW28048   0.085   5.328   5.997
 9050SOL    HW128049   0.154   5.344   6.067
 9050SOL    HW228050   0.007   5.388   6.013
 9051SOL     OW28051   5.309   6.246   6.718
 9051SOL    HW128052   5.408   6.262   6.712
 9051SOL    HW228053   5.276   6.271   6.809
 9052SOL     OW28054   2.182   5.143   5.049
 9052SOL    HW128055   2.115   5.192   5.105
 9052SOL    HW228056   2.148   5.135   4.955
 9053SOL     OW28057   2.896   2.255   3.866
 9053SOL    HW128058   2.993   2.263   3.890
 9053SOL    HW228059   2.839   2.281   3.944
 9054SOL     OW28060   2.987   0.587   1.254
 9054SOL    HW128061   3.062   0.550   1.309
 9054SOL    HW228062   2.904   0.534   1.271
 9055SOL     OW28063   1.179   2.901   4.139
 9055SOL    HW128064   1.085   2.884   4.108
 9055SOL    HW228065   1.232   2.941   4.065
 9056SOL     OW28066   5.381   0.357   3.380
 9056SOL    HW128067   5.340   0.448   3.370
 9056SOL    HW228068   5.338   0.294   3.315
 9057SOL     OW28069   5.575   5.427   6.207
 9057SOL    HW128070   5.502   5.445   6.273
 9057SOL    HW228071   5.609   5.334   6.220
 9058SOL     OW28072   1.584   2.962   4.491
 9058SOL    HW128073   1.639   2.916   4.561
 9058SOL    HW228074   1.487   2.949   4.510
 9059SOL     OW28075   0.196   1.812   2.796
 9059SOL    HW128076   0.146   1.795   2.711
 9059SOL    HW228077   0.131   1.822   2.871
 9060SOL     OW28078   0.501   4.132   1.216
 9060SOL    HW128079   0.535   4.056   1.272
 9060SOL    HW228080   0.569   4.205   1.215
 9061SOL     OW28081   5.458   4.843   1.892
 9061SOL    HW128082   5.520   4.768   1.868
 9061SOL    HW228083   5.461   4.913   1.820
 9062SOL     OW28084   0.693   5.575   3.551
 9062SOL    HW128085   0.605   5.614   3.524
 9062SOL    HW228086   0.749   5.559   3.470
 9063SOL     OW28087   3.888   0.984   2.112
 9063SOL    HW128088   3.837   0.955   2.031
 9063SOL    HW228089   3.852   1.070   2.146
 9064SOL     OW28090   0.630   4.916   3.510
 9064SOL    HW128091   0.639   4.863   3.426
 9064SOL    HW228092   0.721   4.941   3.543
 9065SOL     OW28093   2.330   4.978   5.744
 9065SOL    HW128094   2.376   4.931   5.668
 9065SOL    HW228095   2.395   4.994   5.818
 9066SOL     OW28096   5.185   5.026   5.510
 9066SOL    HW128097   5.221   4.969   5.436
 9066SOL    HW228098   5.252   5.029   5.585
 9067SOL     OW28099   0.069   0.380   4.204
 9067SOL    HW128100   0.157   0.389   4.250
 9067SOL    HW228101   0.010   0.318   4.257
 9068SOL     OW28102   4.717   6.489   4.557
 9068SOL    HW128103   4.754   6.442   4.476
 9068SOL    HW228104   4.713   6.587   4.539
 9069SOL     OW28105   4.934   1.838   2.009
 9069SOL    HW128106   4.873   1.760   2.002
 9069SOL    HW228107   5.026   1.812   1.979
 9070SOL     OW28108   1.699   1.751   5.829
 9070SOL    HW128109   1.719   1.751   5.927
 9070SOL    HW228110   1.783   1.769   5.778
 9071SOL     OW28111   5.252   1.514   5.510
 9071SOL    HW128112   5.160   1.499   5.475
 9071SOL    HW228113   5.249   1.526   5.609
 9072SOL     OW28114   4.867   1.000   3.042
 9072SOL    HW128115   4.917   0.956   3.117
 9072SOL    HW228116   4.873   1.099   3.051
 9073SOL     OW28117   4.336   0.954   6.410
 9073SOL    HW128118   4.366   0.859   6.414
 9073SOL    HW228119   4.359   0.993   6.321
 9074SOL     OW28120   1.547   6.915   1.700
 9074SOL    HW128121   1.616   6.973   1.744
 9074SOL    HW228122   1.590   6.861   1.628
 9075SOL     OW28123   6.462   0.273   1.386
 9075SOL    HW128124   6.529   0.305   1.319
 9075SOL    HW228125   6.373   0.314   1.366
 9076SOL     OW28126   7.011   0.534   2.119
 9076SOL    HW128127   6.946   0.502   2.189
 9076SOL    HW228128   0.039   0.609   2.157
 9077SOL     OW28129   6.390   1.461   6.070
 9077SOL    HW128130   6.439   1.388   6.117
 9077SOL    HW228131   6.349   1.425   5.986
 9078SOL     OW28132   5.371   5.920   6.970
 9078SOL    HW128133   5.372   6.005   7.023
 9078SOL    HW228134   5.333   5.938   6.879
 9079SOL     OW28135   0.984   0.479   6.505
 9079SOL    HW128136   1.078   0.512   6.499
 9079SOL    HW228137   0.969   0.433   6.593
 9080SOL     OW28138   6.203   3.796   1.030
 9080SOL    HW128139   6.272   3.789   0.958
 9080SOL    HW228140   6.155   3.709   1.038
 9081SOL     OW28141   3.794   1.923   0.667
 9081SOL    HW128142   3.840   1.969   0.591
 9081SOL    HW228143   3.725   1.984   0.706
 9082SOL     OW28144   2.833   5.719   5.772
 9082SOL    HW128145   2.868   5.625   5.779
 9082SOL    HW228146   2.901   5.783   5.805
 9083SOL     OW28147   4.715   4.756   6.769
 9083SOL    HW128148   4.679   4.681   6.714
 9083SOL    HW228149   4.642   4.823   6.786
 9084SOL     OW28150   0.934   2.945   5.677
 9084SOL    HW128151   0.881   2.998   5.610
 9084SOL    HW228152   1.016   2.995   5.702
 9085SOL     OW28153   2.456   5.184   6.740
 9085SOL    HW128154   2.383   5.116   6.730
 9085SOL    HW228155   2.415   5.276   6.742
 9086SOL     OW28156   6.860   4.247   0.522
 9086SOL    HW128157   6.838   4.184   0.596
 9086SOL    HW228158   6.852   4.341   0.555
 9087SOL     OW28159   5.857   1.251   1.631
 9087SOL    HW128160   5.943   1.204   1.654
 9087SOL    HW228161   5.867   1.298   1.544
 9088SOL     OW28162   6.518   0.274   0.493
 9088SOL    HW128163   6.527   0.200   0.427
 9088SOL    HW228164   6.530   0.362   0.447
 9089SOL     OW28165   4.497   5.916   3.971
 9089SOL    HW128166   4.405   5.896   3.939
 9089SOL    HW228167   4.545   5.970   3.903
 9090SOL     OW28168   5.660   6.364   4.841
 9090SOL    HW128169   5.673   6.405   4.931
 9090SOL    HW228170   5.701   6.423   4.772
 9091SOL     OW28171   2.580   1.858   0.960
 9091SOL    HW128172   2.498   1.842   0.905
 9091SOL    HW228173   2.601   1.776   1.014
 9092SOL     OW28174   1.224   6.541   5.704
 9092SOL    HW128175   1.147   6.604   5.697
 9092SOL    HW228176   1.264   6.527   5.614
 9093SOL     OW28177   1.561   5.347   0.380
 9093SOL    HW128178   1.543   5.294   0.298
 9093SOL    HW228179   1.546   5.444   0.361
 9094SOL     OW28180   0.171   5.939   2.071
 9094SOL    HW128181   0.209   6.031   2.065
 9094SOL    HW228182   0.236   5.874   2.032
 9095SOL     OW28183   4.181   3.600   6.367
 9095SOL    HW128184   4.130   3.679   6.401
 9095SOL    HW228185   4.119   3.524   6.353
 9096SOL     OW28186   5.950   2.581   2.864
 9096SOL    HW128187   5.863   2.542   2.834
 9096SOL    HW228188   5.935   2.676   2.893
 9097SOL     OW28189   1.260   3.807   6.681
 9097SOL    HW128190   1.270   3.906   6.679
 9097SOL    HW228191   1.329   3.768   6.743
 9098SOL     OW28192   3.904   3.840   2.132
 9098SOL    HW128193   3.989   3.822   2.083
 9098SOL    HW228194   3.838   3.883   2.070
 9099SOL     OW28195   2.460   3.324   1.428
 9099SOL    HW128196   2.487   3.371   1.512
 9099SOL    HW228197   2.419   3.235   1.450
 9100SOL     OW28198   0.509   3.207   0.962
 9100SOL    HW128199   0.451   3.145   0.911
 9100SOL    HW228200   0.510   3.296   0.918
 9101SOL     OW28201   1.566   2.592   2.445
 9101SOL    HW128202   1.612   2.646   2.516
 9101SOL    HW228203   1.616   2.604   2.358
 9102SOL     OW28204   4.041   5.438   1.892
 9102SOL    HW128205   4.022   5.384   1.974
 9102SOL    HW228206   4.116   5.395   1.841
 9103SOL     OW28207   6.744   3.835   0.551
 9103SOL    HW128208   6.700   3.923   0.533
 9103SOL    HW228209   6.836   3.851   0.587
 9104SOL     OW28210   4.623   6.410   1.478
 9104SOL    HW128211   4.681   6.458   1.411
 9104SOL    HW228212   4.641   6.312   1.473
 9105SOL     OW28213   1.624   0.828   6.243
 9105SOL    HW128214   1.642   0.924   6.220
 9105SOL    HW228215   1.540   0.823   6.296
 9106SOL     OW28216   6.023   5.119   0.017
 9106SOL    HW128217   5.997   5.081   6.953
 9106SOL    HW228218   5.944   5.115   0.078
 9107SOL     OW28219   3.573   7.015   0.445
 9107SOL    HW128220   3.477   7.006   0.470
 9107SOL    HW228221   3.598   6.941   0.383
 9108SOL     OW28222   4.726   4.405   5.513
 9108SOL    HW128223   4.823   4.384   5.530
 9108SOL    HW228224   4.719   4.471   5.438
 9109SOL     OW28225   2.574   2.446   3.535
 9109SOL    HW128226   2.492   2.390   3.527
 9109SOL    HW228227   2.655   2.392   3.512
 9110SOL     OW28228   1.972   4.713   3.790
 9110SOL    HW128229   2.069   4.735   3.779
 9110SOL    HW228230   1.942   4.741   3.881
 9111SOL     OW28231   3.915   4.247   1.459
 9111SOL    HW128232   4.010   4.219   1.445
 9111SOL    HW228233   3.861   4.167   1.486
 9112SOL     OW28234   0.972   4.297   2.701
 9112SOL    HW128235   0.898   4.267   2.761
 9112SOL    HW228236   0.949   4.385   2.660
 9113SOL     OW28237   5.059   0.436   0.558
 9113SOL    HW128238   5.137   0.491   0.529
 9113SOL    HW228239   4.975   0.488   0.549
 9114SOL     OW28240   2.230   4.310   2.130
 9114SOL    HW128241   2.259   4.222   2.093
 9114SOL    HW228242   2.152   4.344   2.077
 9115SOL     OW28243   1.557   5.064   4.359
 9115SOL    HW128244   1.465   5.032   4.335
 9115SOL    HW228245   1.595   5.116   4.282
 9116SOL     OW28246   6.493   1.796   6.837
 9116SOL    HW128247   6.438   1.849   6.772
 9116SOL    HW228248   6.546   1.859   6.894
 9117SOL     OW28249   6.160   2.958   5.980
 9117SOL    HW128250   6.176   2.934   6.076
 9117SOL    HW228251   6.165   3.057   5.970
 9118SOL     OW28252   6.139   0.046   0.982
 9118SOL    HW128253   6.218   0.024   0.925
 9118SOL    HW228254   6.079   0.110   0.933
 9119SOL     OW28255   5.778   0.717   1.913
 9119SOL    HW128256   5.863   0.743   1.866
 9119SOL    HW228257   5.778   0.757   2.005
 9120SOL     OW28258   5.793   1.938   5.800
 9120SOL    HW128259   5.732   1.920   5.877
 9120SOL    HW228260   5.844   2.023   5.818
 9121SOL     OW28261   0.591   2.932   5.161
 9121SOL    HW128262   0.664   2.867   5.183
 9121SOL    HW228263   0.544   2.958   5.244
 9122SOL     OW28264   1.649   3.022   2.616
 9122SOL    HW128265   1.711   3.062   2.683
 9122SOL    HW228266   1.558   3.012   2.656
 9123SOL     OW28267   2.667   6.360   5.302
 9123SOL    HW128268   2.586   6.397   5.348
 9123SOL    HW228269   2.662   6.379   5.204
 9124SOL     OW28270   6.619   5.833   5.283
 9124SOL    HW128271   6.646   5.920   5.242
 9124SOL    HW228272   6.573   5.776   5.215
 9125SOL     OW28273   4.770   4.192   3.623
 9125SOL    HW128274   4.729   4.180   3.532
 9125SOL    HW228275   4.869   4.200   3.614
 9126SOL     OW28276   6.083   1.103   1.472
 9126SOL    HW128277   6.142   1.139   1.400
 9126SOL    HW228278   6.103   1.006   1.487
 9127SOL     OW28279   5.760   0.073   6.106
 9127SOL    HW128280   5.687   0.134   6.136
 9127SOL    HW228281   5.834   0.075   6.172
 9128SOL     OW28282   3.904   1.162   5.171
 9128SOL    HW128283   3.838   1.163   5.247
 9128SOL    HW228284   3.855   1.174   5.085
 9129SOL     OW28285   1.703   2.966   6.838
 9129SOL    HW128286   1.796   2.971   6.874
 9129SOL    HW228287   1.640   2.941   6.911
 9130SOL     OW28288   0.016   4.644   6.924
 9130SOL    HW128289   6.983   4.607   6.852
 9130SOL    HW228290   0.068   4.569   6.966
 9131SOL     OW28291   0.257   4.567   5.054
 9131SOL    HW128292   0.225   4.598   5.144
 9131SOL    HW228293   0.223   4.475   5.036
 9132SOL     OW28294   6.743   4.321   3.778
 9132SOL    HW128295   6.794   4.393   3.730
 9132SOL    HW228296   6.802   4.242   3.790
 9133SOL     OW28297   2.513   4.618   0.510
 9133SOL    HW128298   2.575   4.540   0.520
 9133SOL    HW228299   2.487   4.653   0.600
 9134SOL     OW28300   3.551   6.404   0.227
 9134SOL    HW128301   3.565   6.333   0.157
 9134SOL    HW228302   3.540   6.360   0.316
 9135SOL     OW28303   0.161   6.648   2.126
 9135SOL    HW128304   0.259   6.669   2.132
 9135SOL    HW228305   0.109   6.732   2.113
 9136SOL     OW28306   5.221   5.245   5.858
 9136SOL    HW128307   5.239   5.266   5.762
 9136SOL    HW228308   5.142   5.298   5.889
 9137SOL     OW28309   5.345   1.119   0.926
 9137SOL    HW128310   5.353   1.173   0.842
 9137SOL    HW228311   5.428   1.065   0.938
 9138SOL     OW28312   6.057   5.233   6.203
 9138SOL    HW128313   6.039   5.174   6.281
 9138SOL    HW228314   6.137   5.290   6.222
 9139SOL     OW28315   2.902   1.504   5.899
 9139SOL    HW128316   2.962   1.572   5.941
 9139SOL    HW228317   2.826   1.550   5.854
 9140SOL     OW28318   6.676   2.492   2.957
 9140SOL    HW128319   6.589   2.481   2.909
 9140SOL    HW228320   6.659   2.535   3.046
 9141SOL     OW28321   5.352   6.906   6.535
 9141SOL    HW128322   5.323   6.932   6.443
 9141SOL    HW228323   5.320   6.813   6.555
 9142SOL     OW28324   0.344   3.002   5.334
 9142SOL    HW128325   0.366   3.071   5.265
 9142SOL    HW228326   0.268   2.946   5.301
 9143SOL     OW28327   4.657   3.825   0.046
 9143SOL    HW128328   4.732   3.811   0.111
 9143SOL    HW228329   4.694   3.856   6.984
 9144SOL     OW28330   1.986   6.222   6.501
 9144SOL    HW128331   1.943   6.287   6.438
 9144SOL    HW228332   1.927   6.210   6.581
 9145SOL     OW28333   0.278   5.360   0.600
 9145SOL    HW128334   0.250   5.279   0.652
 9145SOL    HW228335   0.260   5.442   0.655
 9146SOL     OW28336   4.991   2.047   1.330
 9146SOL    HW128337   4.977   2.079   1.237
 9146SOL    HW228338   4.960   2.117   1.394
 9147SOL     OW28339   5.517   6.633   4.428
 9147SOL    HW128340   5.449   6.564   4.450
 9147SOL    HW228341   5.576   6.649   4.507
 9148SOL     OW28342   6.041   6.578   2.089
 9148SOL    HW128343   6.052   6.605   1.994
 9148SOL    HW228344   5.952   6.535   2.102
 9149SOL     OW28345   4.677   2.775   3.803
 9149SOL    HW128346   4.685   2.853   3.740
 9149SOL    HW228347   4.672   2.690   3.750
 9150SOL     OW28348   4.202   6.228   3.281
 9150SOL    HW128349   4.207   6.322   3.248
 9150SOL    HW228350   4.240   6.166   3.213
 9151SOL     OW28351   1.515   3.782   2.239
 9151SOL    HW128352   1.533   3.879   2.255
 9151SOL    HW228353   1.586   3.727   2.282
 9152SOL     OW28354   2.337   5.995   4.191
 9152SOL    HW128355   2.306   6.069   4.132
 9152SOL    HW228356   2.360   6.032   4.281
 9153SOL     OW28357   1.829   2.935   0.353
 9153SOL    HW128358   1.830   2.860   0.420
 9153SOL    HW228359   1.836   2.896   0.261
 9154SOL     OW28360   2.552   5.767   6.600
 9154SOL    HW128361   2.471   5.820   6.626
 9154SOL    HW228362   2.527   5.698   6.533
 9155SOL     OW28363   2.450   3.389   0.238
 9155SOL    HW128364   2.520   3.431   0.181
 9155SOL    HW228365   2.396   3.325   0.183
 9156SOL     OW28366   3.373   3.110   1.317
 9156SOL    HW128367   3.409   3.054   1.392
 9156SOL    HW228368   3.397   3.206   1.334
 9157SOL     OW28369   5.707   4.863   5.339
 9157SOL    HW128370   5.722   4.933   5.409
 9157SOL    HW228371   5.795   4.832   5.303
 9158SOL     OW28372   6.520   3.260   4.405
 9158SOL    HW128373   6.527   3.207   4.489
 9158SOL    HW228374   6.612   3.287   4.375
 9159SOL     OW28375   7.006   5.870   3.234
 9159SOL    HW128376   0.038   5.906   3.307
 9159SOL    HW228377   7.018   5.771   3.227
 9160SOL     OW28378   6.781   0.015   4.889
 9160SOL    HW128379   6.861   0.032   4.947
 9160SOL    HW228380   6.802   0.039   4.795
 9161SOL     OW28381   4.933   3.846   4.659
 9161SOL    HW128382   4.920   3.756   4.702
 9161SOL    HW228383   4.950   3.833   4.561
 9162SOL     OW28384   5.106   2.416   3.349
 9162SOL    HW128385   5.178   2.350   3.329
 9162SOL    HW228386   5.059   2.441   3.264
 9163SOL     OW28387   2.110   3.379   3.756
 9163SOL    HW128388   2.033   3.323   3.728
 9163SOL    HW228389   2.170   3.328   3.818
 9164SOL     OW28390   2.680   0.836   6.689
 9164SOL    HW128391   2.604   0.778   6.719
 9164SOL    HW228392   2.735   0.863   6.768
 9165SOL     OW28393   6.179   1.220   6.365
 9165SOL    HW128394   6.218   1.312   6.368
 9165SOL    HW228395   6.172   1.189   6.270
 9166SOL     OW28396   4.512   6.563   1.140
 9166SOL    HW128397   4.517   6.656   1.103
 9166SOL    HW228398   4.597   6.543   1.188
 9167SOL     OW28399   1.749   3.210   6.091
 9167SOL    HW128400   1.808   3.222   6.011
 9167SOL    HW228401   1.800   3.233   6.174
 9168SOL     OW28402   1.869   6.447   5.665
 9168SOL    HW128403   1.958   6.411   5.638
 9168SOL    HW228404   1.810   6.458   5.584
 9169SOL     OW28405   6.705   0.952   4.756
 9169SOL    HW128406   6.701   1.051   4.742
 9169SOL    HW228407   6.742   0.932   4.846
 9170SOL     OW28408   0.186   5.246   6.764
 9170SOL    HW128409   0.132   5.273   6.844
 9170SOL    HW228410   0.283   5.260   6.783
 9171SOL     OW28411   3.493   5.459   0.211
 9171SOL    HW128412   3.467   5.447   0.306
 9171SOL    HW228413   3.413   5.445   0.153
 9172SOL     OW28414   3.684   0.659   4.679
 9172SOL    HW128415   3.591   0.685   4.653
 9172SOL    HW228416   3.690   0.649   4.778
 9173SOL     OW28417   5.716   4.486   4.554
 9173SOL    HW128418   5.681   4.502   4.647
 9173SOL    HW228419   5.813   4.464   4.559
 9174SOL     OW28420   6.188   4.118   0.480
 9174SOL    HW128421   6.208   4.063   0.561
 9174SOL    HW228422   6.089   4.123   0.468
 9175SOL     OW28423   1.887   6.360   4.872
 9175SOL    HW128424   1.859   6.269   4.844
 9175SOL    HW228425   1.877   6.369   4.971
 9176SOL     OW28426   2.601   1.229   5.801
 9176SOL    HW128427   2.658   1.271   5.731
 9176SOL    HW228428   2.633   1.136   5.818
 9177SOL     OW28429   1.523   5.240   4.133
 9177SOL    HW128430   1.507   5.330   4.091
 9177SOL    HW228431   1.440   5.211   4.181
 9178SOL     OW28432   2.207   5.373   0.701
 9178SOL    HW128433   2.242   5.293   0.750
 9178SOL    HW228434   2.247   5.376   0.609
 9179SOL     OW28435   2.536   5.813   4.175
 9179SOL    HW128436   2.472   5.888   4.189
 9179SOL    HW228437   2.546   5.761   4.259
 9180SOL     OW28438   6.207   2.330   3.418
 9180SOL    HW128439   6.144   2.328   3.341
 9180SOL    HW228440   6.256   2.243   3.423
 9181SOL     OW28441   4.344   2.404   3.184
 9181SOL    HW128442   4.395   2.451   3.112
 9181SOL    HW228443   4.262   2.361   3.145
 9182SOL     OW28444   2.919   0.183   2.607
 9182SOL    HW128445   2.908   0.145   2.699
 9182SOL    HW228446   2.968   0.117   2.549
 9183SOL     OW28447   5.510   6.244   0.296
 9183SOL    HW128448   5.515   6.195   0.384
 9183SOL    HW228449   5.420   6.230   0.255
 9184SOL     OW28450   4.953   1.488   0.277
 9184SOL    HW128451   4.895   1.531   0.208
 9184SOL    HW228452   5.035   1.542   0.291
 9185SOL     OW28453   4.415   6.791   4.583
 9185SOL    HW128454   4.459   6.880   4.588
 9185SOL    HW228455   4.350   6.782   4.659
 9186SOL     OW28456   5.913   0.862   3.959
 9186SOL    HW128457   5.867   0.797   3.898
 9186SOL    HW228458   5.955   0.935   3.906
 9187SOL     OW28459   2.839   0.466   1.511
 9187SOL    HW128460   2.769   0.453   1.582
 9187SOL    HW228461   2.916   0.405   1.529
 9188SOL     OW28462   2.138   6.840   2.237
 9188SOL    HW128463   2.047   6.878   2.250
 9188SOL    HW228464   2.142   6.791   2.150
 9189SOL     OW28465   5.390   6.094   2.374
 9189SOL    HW128466   5.454   6.171   2.369
 9189SOL    HW228467   5.426   6.024   2.435
 9190SOL     OW28468   1.311   5.071   0.352
 9190SOL    HW128469   1.301   5.050   0.449
 9190SOL    HW228470   1.237   5.027   0.301
 9191SOL     OW28471   6.066   0.687   5.981
 9191SOL    HW128472   5.994   0.711   6.045
 9191SOL    HW228473   6.107   0.770   5.944
 9192SOL     OW28474   0.646   3.957   5.439
 9192SOL    HW128475   0.617   4.052   5.434
 9192SOL    HW228476   0.739   3.947   5.403
 9193SOL     OW28477   4.780   4.432   0.211
 9193SOL    HW128478   4.855   4.425   0.277
 9193SOL    HW228479   4.754   4.340   0.181
 9194SOL     OW28480   3.149   0.878   3.329
 9194SOL    HW128481   3.208   0.938   3.383
 9194SOL    HW228482   3.093   0.933   3.267
 9195SOL     OW28483   1.493   2.192   4.366
 9195SOL    HW128484   1.555   2.117   4.389
 9195SOL    HW228485   1.467   2.185   4.270
 9196SOL     OW28486   4.126   0.427   4.592
 9196SOL    HW128487   4.149   0.501   4.655
 9196SOL    HW228488   4.101   0.465   4.503
 9197SOL     OW28489   1.230   4.180   1.315
 9197SOL    HW128490   1.153   4.188   1.252
 9197SOL    HW228491   1.309   4.227   1.276
 9198SOL     OW28492   6.363   5.377   5.522
 9198SOL    HW128493   6.374   5.302   5.588
 9198SOL    HW228494   6.292   5.352   5.456
 9199SOL     OW28495   1.016   3.795   6.327
 9199SOL    HW128496   0.987   3.774   6.233
 9199SOL    HW228497   1.115   3.805   6.329
 9200SOL     OW28498   2.660   0.291   0.838
 9200SOL    HW128499   2.711   0.338   0.766
 9200SOL    HW228500   2.713   0.292   0.923
 9201SOL     OW28501   0.719   2.957   0.636
 9201SOL    HW128502   0.807   2.958   0.684
 9201SOL    HW228503   0.648   2.920   0.696
 9202SOL     OW28504   2.353   0.003   3.440
 9202SOL    HW128505   2.317   6.956   3.382
 9202SOL    HW228506   2.329   7.010   3.535
 9203SOL     OW28507   0.406   5.336   6.508
 9203SOL    HW128508   0.389   5.242   6.481
 9203SOL    HW228509   0.504   5.356   6.499
 9204SOL     OW28510   4.540   2.702   7.011
 9204SOL    HW128511   4.455   2.754   7.015
 9204SOL    HW228512   4.606   2.749   6.953
 9205SOL     OW28513   6.104   4.273   2.540
 9205SOL    HW128514   6.018   4.248   2.585
 9205SOL    HW228515   6.083   4.316   2.452
 9206SOL     OW28516   3.989   5.400   1.297
 9206SOL    HW128517   4.029   5.487   1.268
 9206SOL    HW228518   3.923   5.417   1.371
 9207SOL     OW28519   4.259   4.730   0.156
 9207SOL    HW128520   4.225   4.740   0.063
 9207SOL    HW228521   4.351   4.770   0.162
 9208SOL     OW28522   5.944   4.351   4.347
 9208SOL    HW128523   6.015   4.342   4.278
 9208SOL    HW228524   5.960   4.284   4.420
 9209SOL     OW28525   2.996   0.786   0.067
 9209SOL    HW128526   3.094   0.789   0.086
 9209SOL    HW228527   2.968   0.692   0.049
 9210SOL     OW28528   6.608   1.376   2.699
 9210SOL    HW128529   6.580   1.285   2.730
 9210SOL    HW228530   6.606   1.380   2.600
 9211SOL     OW28531   6.733   2.848   4.312
 9211SOL    HW128532   6.782   2.919   4.262
 9211SOL    HW228533   6.726   2.766   4.256
 9212SOL     OW28534   3.997   5.122   4.191
 9212SOL    HW128535   4.096   5.129   4.184
 9212SOL    HW228536   3.955   5.211   4.172
 9213SOL     OW28537   5.541   3.075   5.166
 9213SOL    HW128538   5.482   3.049   5.242
 9213SOL    HW228539   5.519   3.019   5.086
 9214SOL     OW28540   0.389   5.715   5.675
 9214SOL    HW128541   0.307   5.680   5.630
 9214SOL    HW228542   0.375   5.811   5.699
 9215SOL     OW28543   1.200   2.405   0.232
 9215SOL    HW128544   1.155   2.484   0.272
 9215SOL    HW228545   1.207   2.332   0.300
 9216SOL     OW28546   2.811   0.289   3.128
 9216SOL    HW128547   2.866   0.209   3.102
 9216SOL    HW228548   2.869   0.370   3.127
 9217SOL     OW28549   0.136   0.762   5.785
 9217SOL    HW128550   0.098   0.852   5.807
 9217SOL    HW228551   0.219   0.747   5.839
 9218SOL     OW28552   3.917   6.361   0.378
 9218SOL    HW128553   3.925   6.310   0.293
 9218SOL    HW228554   3.863   6.308   0.444
 9219SOL     OW28555   0.576   2.721   0.110
 9219SOL    HW128556   0.478   2.701   0.115
 9219SOL    HW228557   0.613   2.688   0.023
 9220SOL     OW28558   2.799   6.336   1.399
 9220SOL    HW128559   2.755   6.248   1.413
 9220SOL    HW228560   2.830   6.372   1.487
 9221SOL     OW28561   3.080   0.541   4.371
 9221SOL    HW128562   3.026   0.457   4.375
 9221SOL    HW228563   3.026   0.617   4.406
 9222SOL     OW28564   2.613   0.217   6.917
 9222SOL    HW128565   2.705   0.236   6.952
 9222SOL    HW228566   2.560   0.170   6.988
 9223SOL     OW28567   1.391   1.718   4.998
 9223SOL    HW128568   1.348   1.705   5.087
 9223SOL    HW228569   1.405   1.629   4.954
 9224SOL     OW28570   2.842   5.188   4.903
 9224SOL    HW128571   2.839   5.218   4.998
 9224SOL    HW228572   2.874   5.094   4.898
 9225SOL     OW28573   3.576   6.910   6.057
 9225SOL    HW128574   3.561   6.993   6.004
 9225SOL    HW228575   3.562   6.830   5.998
 9226SOL     OW28576   5.374   6.651   1.761
 9226SOL    HW128577   5.418   6.652   1.851
 9226SOL    HW228578   5.361   6.745   1.730
 9227SOL     OW28579   0.854   5.396   2.955
 9227SOL    HW128580   0.875   5.298   2.964
 9227SOL    HW228581   0.911   5.448   3.019
 9228SOL     OW28582   1.215   0.569   5.961
 9228SOL    HW128583   1.162   0.605   6.037
 9228SOL    HW228584   1.211   0.633   5.884
 9229SOL     OW28585   1.498   5.605   4.561
 9229SOL    HW128586   1.563   5.560   4.501
 9229SOL    HW228587   1.546   5.665   4.625
 9230SOL     OW28588   6.021   0.202   2.477
 9230SOL    HW128589   6.113   0.189   2.514
 9230SOL    HW228590   6.028   0.229   2.381
 9231SOL     OW28591   2.155   3.794   4.092
 9231SOL    HW128592   2.169   3.806   4.190
 9231SOL    HW228593   2.059   3.770   4.075
 9232SOL     OW28594   3.261   5.326   0.676
 9232SOL    HW128595   3.245   5.343   0.773
 9232SOL    HW228596   3.249   5.228   0.656
 9233SOL     OW28597   5.892   4.929   1.403
 9233SOL    HW128598   5.989   4.908   1.412
 9233SOL    HW228599   5.841   4.891   1.480
 9234SOL     OW28600   3.315   5.391   4.190
 9234SOL    HW128601   3.337   5.301   4.152
 9234SOL    HW228602   3.259   5.381   4.272
 9235SOL     OW28603   1.621   2.291   3.458
 9235SOL    HW128604   1.651   2.326   3.369
 9235SOL    HW228605   1.702   2.269   3.513
 9236SOL     OW28606   3.615   4.149   5.346
 9236SOL    HW128607   3.665   4.069   5.381
 9236SOL    HW228608   3.534   4.118   5.296
 9237SOL     OW28609   2.052   4.360   4.990
 9237SOL    HW128610   2.081   4.306   4.911
 9237SOL    HW228611   2.096   4.450   4.986
 9238SOL     OW28612   4.337   2.516   6.060
 9238SOL    HW128613   4.309   2.420   6.062
 9238SOL    HW228614   4.398   2.531   5.982
 9239SOL     OW28615   0.277   4.163   1.050
 9239SOL    HW128616   0.290   4.098   0.975
 9239SOL    HW228617   0.355   4.158   1.112
 9240SOL     OW28618   5.514   1.340   0.317
 9240SOL    HW128619   5.440   1.299   0.369
 9240SOL    HW228620   5.596   1.346   0.374
 9241SOL     OW28621   6.730   5.575   5.795
 9241SOL    HW128622   6.689   5.565   5.886
 9241SOL    HW228623   6.829   5.585   5.804
 9242SOL     OW28624   6.479   5.451   0.444
 9242SOL    HW128625   6.535   5.519   0.396
 9242SOL    HW228626   6.385   5.486   0.452
 9243SOL     OW28627   6.148   5.888   3.003
 9243SOL    HW128628   6.157   5.908   3.100
 9243SOL    HW228629   6.104   5.799   2.990
 9244SOL     OW28630   4.482   5.391   5.963
 9244SOL    HW128631   4.549   5.422   6.030
 9244SOL    HW228632   4.418   5.328   6.007
 9245SOL     OW28633   1.235   5.335   2.517
 9245SOL    HW128634   1.219   5.325   2.615
 9245SOL    HW228635   1.312   5.278   2.490
 9246SOL     OW28636   5.648   4.841   3.304
 9246SOL    HW128637   5.619   4.793   3.387
 9246SOL    HW228638   5.743   4.818   3.284
 9247SOL     OW28639   0.282   6.772   3.154
 9247SOL    HW128640   0.310   6.835   3.082
 9247SOL    HW228641   0.363   6.740   3.203
 9248SOL     OW28642   2.115   2.859   6.074
 9248SOL    HW128643   2.175   2.828   6.000
 9248SOL    HW228644   2.022   2.826   6.058
 9249SOL     OW28645   5.565   2.704   5.627
 9249SOL    HW128646   5.516   2.684   5.543
 9249SOL    HW228647   5.660   2.674   5.618
 9250SOL     OW28648   5.324   3.975   4.921
 9250SOL    HW128649   5.362   4.057   4.878
 9250SOL    HW228650   5.267   3.926   4.855
 9251SOL     OW28651   3.700   2.091   3.555
 9251SOL    HW128652   3.697   1.993   3.535
 9251SOL    HW228653   3.783   2.131   3.518
 9252SOL     OW28654   6.627   0.702   4.290
 9252SOL    HW128655   6.604   0.686   4.387
 9252SOL    HW228656   6.685   0.783   4.282
 9253SOL     OW28657   4.343   5.945   5.903
 9253SOL    HW128658   4.415   5.903   5.847
 9253SOL    HW228659   4.339   5.900   5.992
 9254SOL     OW28660   5.981   3.711   1.644
 9254SOL    HW128661   5.937   3.791   1.603
 9254SOL    HW228662   5.994   3.641   1.574
 9255SOL     OW28663   5.047   2.772   0.092
 9255SOL    HW128664   4.999   2.714   0.158
 9255SOL    HW228665   4.987   2.847   0.063
 9256SOL     OW28666   3.989   4.929   3.447
 9256SOL    HW128667   3.988   4.875   3.531
 9256SOL    HW228668   4.028   4.875   3.373
 9257SOL     OW28669   0.699   4.084   2.384
 9257SOL    HW128670   0.722   4.026   2.462
 9257SOL    HW228671   0.782   4.110   2.335
 9258SOL     OW28672   3.948   3.081   3.911
 9258SOL    HW128673   3.888   3.007   3.880
 9258SOL    HW228674   4.015   3.101   3.841
 9259SOL     OW28675   1.352   2.349   0.887
 9259SOL    HW128676   1.338   2.250   0.891
 9259SOL    HW228677   1.295   2.386   0.813
 9260SOL     OW28678   5.078   2.122   5.375
 9260SOL    HW128679   5.133   2.070   5.309
 9260SOL    HW228680   5.139   2.164   5.442
 9261SOL     OW28681   4.161   0.089   6.368
 9261SOL    HW128682   4.091   0.086   6.296
 9261SOL    HW228683   4.174   7.023   6.405
 9262SOL     OW28684   6.296   2.457   5.624
 9262SOL    HW128685   6.219   2.518   5.640
 9262SOL    HW228686   6.324   2.414   5.710
 9263SOL     OW28687   6.271   3.762   1.405
 9263SOL    HW128688   6.362   3.756   1.363
 9263SOL    HW228689   6.257   3.853   1.443
 9264SOL     OW28690   6.042   3.719   0.145
 9264SOL    HW128691   5.960   3.775   0.159
 9264SOL    HW228692   6.121   3.766   0.185
 9265SOL     OW28693   3.474   1.346   0.007
 9265SOL    HW128694   3.571   1.367   0.020
 9265SOL    HW228695   3.425   1.364   0.093
 9266SOL     OW28696   2.616   6.482   3.124
 9266SOL    HW128697   2.519   6.465   3.142
 9266SOL    HW228698   2.664   6.395   3.111
 9267SOL     OW28699   0.072   4.055   5.649
 9267SOL    HW128700   0.113   4.128   5.594
 9267SOL    HW228701   7.011   4.086   5.686
 9268SOL     OW28702   0.843   6.559   2.458
 9268SOL    HW128703   0.898   6.510   2.391
 9268SOL    HW228704   0.803   6.494   2.522
 9269SOL     OW28705   2.866   2.181   6.726
 9269SOL    HW128706   2.929   2.181   6.804
 9269SOL    HW228707   2.915   2.205   6.643
 9270SOL     OW28708   5.283   6.528   5.650
 9270SOL    HW128709   5.212   6.584   5.607
 9270SOL    HW228710   5.259   6.510   5.745
 9271SOL     OW28711   1.410   6.152   1.130
 9271SOL    HW128712   1.366   6.115   1.212
 9271SOL    HW228713   1.509   6.141   1.137
 9272SOL     OW28714   3.171   4.641   6.258
 9272SOL    HW128715   3.104   4.684   6.319
 9272SOL    HW228716   3.251   4.612   6.311
 9273SOL     OW28717   5.087   5.986   3.987
 9273SOL    HW128718   5.009   5.937   3.950
 9273SOL    HW228719   5.172   5.941   3.960
 9274SOL     OW28720   5.817   1.900   6.501
 9274SOL    HW128721   5.883   1.972   6.479
 9274SOL    HW228722   5.822   1.879   6.599
 9275SOL     OW28723   0.638   1.199   0.134
 9275SOL    HW128724   0.626   1.289   0.093
 9275SOL    HW228725   0.631   1.129   0.064
 9276SOL     OW28726   2.241   4.953   4.421
 9276SOL    HW128727   2.329   4.992   4.394
 9276SOL    HW228728   2.207   4.999   4.503
 9277SOL     OW28729   4.225   3.967   0.225
 9277SOL    HW128730   4.229   3.869   0.246
 9277SOL    HW228731   4.296   4.015   0.276
 9278SOL     OW28732   1.895   0.996   4.044
 9278SOL    HW128733   1.920   1.081   4.091
 9278SOL    HW228734   1.937   0.995   3.953
 9279SOL     OW28735   4.710   0.900   1.652
 9279SOL    HW128736   4.662   0.976   1.695
 9279SOL    HW228737   4.646   0.847   1.596
 9280SOL     OW28738   1.837   0.506   3.871
 9280SOL    HW128739   1.768   0.438   3.846
 9280SOL    HW228740   1.820   0.591   3.820
 9281SOL     OW28741   3.077   3.769   0.704
 9281SOL    HW128742   3.007   3.833   0.735
 9281SOL    HW228743   3.053   3.677   0.736
 9282SOL     OW28744   4.972   2.354   4.158
 9282SOL    HW128745   4.970   2.268   4.208
 9282SOL    HW228746   4.882   2.399   4.165
 9283SOL     OW28747   6.349   1.012   2.397
 9283SOL    HW128748   6.279   1.074   2.362
 9283SOL    HW228749   6.421   1.001   2.328
 9284SOL     OW28750   4.083   4.940   0.008
 9284SOL    HW128751   3.984   4.941   7.015
 9284SOL    HW228752   4.133   4.930   6.947
 9285SOL     OW28753   5.098   2.855   0.459
 9285SOL    HW128754   5.176   2.821   0.406
 9285SOL    HW228755   5.035   2.779   0.478
 9286SOL     OW28756   6.002   0.138   5.536
 9286SOL    HW128757   6.034   0.046   5.517
 9286SOL    HW228758   5.915   0.134   5.586
 9287SOL     OW28759   3.494   5.497   1.218
 9287SOL    HW128760   3.479   5.486   1.316
 9287SOL    HW228761   3.434   5.433   1.169
 9288SOL     OW28762   3.350   1.029   5.593
 9288SOL    HW128763   3.264   1.036   5.643
 9288SOL    HW228764   3.388   1.120   5.579
 9289SOL     OW28765   3.902   1.835   2.443
 9289SOL    HW128766   3.869   1.748   2.477
 9289SOL    HW228767   3.843   1.867   2.369
 9290SOL     OW28768   4.314   1.554   4.721
 9290SOL    HW128769   4.354   1.475   4.675
 9290SOL    HW228770   4.218   1.563   4.694
 9291SOL     OW28771   2.335   0.665   5.701
 9291SOL    HW128772   2.425   0.633   5.728
 9291SOL    HW228773   2.340   0.762   5.674
 9292SOL     OW28774   6.325   3.342   5.828
 9292SOL    HW128775   6.266   3.268   5.796
 9292SOL    HW228776   6.420   3.324   5.801
 9293SOL     OW28777   6.545   4.078   0.958
 9293SOL    HW128778   6.551   3.993   0.906
 9293SOL    HW228779   6.487   4.064   1.037
 9294SOL     OW28780   3.812   6.330   5.836
 9294SOL    HW128781   3.763   6.311   5.920
 9294SOL    HW228782   3.863   6.249   5.808
 9295SOL     OW28783   5.063   1.597   3.226
 9295SOL    HW128784   5.103   1.506   3.210
 9295SOL    HW228785   5.123   1.667   3.185
 9296SOL     OW28786   6.843   6.684   6.077
 9296SOL    HW128787   6.804   6.599   6.040
 9296SOL    HW228788   6.938   6.668   6.103
 9297SOL     OW28789   0.174   0.349   1.134
 9297SOL    HW128790   0.191   0.302   1.221
 9297SOL    HW228791   0.200   0.445   1.142
 9298SOL     OW28792   1.720   6.321   5.988
 9298SOL    HW128793   1.669   6.383   6.048
 9298SOL    HW228794   1.727   6.361   5.897
 9299SOL     OW28795   1.276   3.450   4.308
 9299SOL    HW128796   1.241   3.399   4.229
 9299SOL    HW228797   1.201   3.495   4.355
 9300SOL     OW28798   6.699   4.868   4.647
 9300SOL    HW128799   6.703   4.911   4.557
 9300SOL    HW228800   6.655   4.930   4.711
 9301SOL     OW28801   4.724   4.369   3.230
 9301SOL    HW128802   4.691   4.431   3.302
 9301SOL    HW228803   4.763   4.423   3.155
 9302SOL     OW28804   2.158   2.925   4.055
 9302SOL    HW128805   2.107   2.839   4.060
 9302SOL    HW228806   2.180   2.956   4.147
 9303SOL     OW28807   3.492   5.772   0.647
 9303SOL    HW128808   3.420   5.837   0.620
 9303SOL    HW228809   3.455   5.709   0.715
 9304SOL     OW28810   4.440   3.911   0.881
 9304SOL    HW128811   4.535   3.906   0.853
 9304SOL    HW228812   4.397   3.991   0.841
 9305SOL     OW28813   4.842   1.450   1.362
 9305SOL    HW128814   4.808   1.373   1.309
 9305SOL    HW228815   4.931   1.479   1.325
 9306SOL     OW28816   0.538   5.062   5.007
 9306SOL    HW128817   0.615   5.088   5.066
 9306SOL    HW228818   0.561   4.977   4.959
 9307SOL     OW28819   1.063   3.119   1.214
 9307SOL    HW128820   1.058   3.095   1.311
 9307SOL    HW228821   1.152   3.091   1.177
 9308SOL     OW28822   0.709   4.257   1.349
 9308SOL    HW128823   0.732   4.245   1.446
 9308SOL    HW228824   0.782   4.219   1.292
 9309SOL     OW28825   3.722   5.255   5.603
 9309SOL    HW128826   3.754   5.339   5.647
 9309SOL    HW228827   3.675   5.278   5.518
 9310SOL     OW28828   4.310   5.997   6.265
 9310SOL    HW128829   4.321   6.094   6.289
 9310SOL    HW228830   4.233   5.986   6.203
 9311SOL     OW28831   6.148   4.401   1.105
 9311SOL    HW128832   6.059   4.446   1.103
 9311SOL    HW228833   6.139   4.308   1.140
 9312SOL     OW28834   2.181   4.474   0.689
 9312SOL    HW128835   2.185   4.453   0.787
 9312SOL    HW228836   2.176   4.389   0.637
 9313SOL     OW28837   0.203   0.615   1.376
 9313SOL    HW128838   0.119   0.660   1.345
 9313SOL    HW228839   0.282   0.667   1.343
 9314SOL     OW28840   4.531   4.956   6.683
 9314SOL    HW128841   4.562   5.008   6.603
 9314SOL    HW228842   4.490   4.870   6.652
 9315SOL     OW28843   6.372   0.470   5.009
 9315SOL    HW128844   6.315   0.528   4.951
 9315SOL    HW228845   6.426   0.408   4.952
 9316SOL     OW28846   4.418   5.738   5.144
 9316SOL    HW128847   4.443   5.829   5.114
 9316SOL    HW228848   4.478   5.670   5.101
 9317SOL     OW28849   6.183   6.266   2.780
 9317SOL    HW128850   6.125   6.184   2.781
 9317SOL    HW228851   6.277   6.240   2.799
 9318SOL     OW28852   6.768   1.224   4.736
 9318SOL    HW128853   6.720   1.310   4.720
 9318SOL    HW228854   6.866   1.241   4.740
 9319SOL     OW28855   0.568   2.672   6.190
 9319SOL    HW128856   0.667   2.673   6.177
 9319SOL    HW228857   0.527   2.608   6.125
 9320SOL     OW28858   4.534   1.844   5.970
 9320SOL    HW128859   4.472   1.920   5.951
 9320SOL    HW228860   4.503   1.762   5.922
 9321SOL     OW28861   6.190   6.970   2.292
 9321SOL    HW128862   6.251   0.007   2.243
 9321SOL    HW228863   6.215   6.971   2.389
 9322SOL     OW28864   7.018   6.291   6.028
 9322SOL    HW128865   0.071   6.345   5.998
 9322SOL    HW228866   0.021   6.224   6.096
 9323SOL     OW28867   1.592   0.520   5.688
 9323SOL    HW128868   1.643   0.564   5.615
 9323SOL    HW228869   1.523   0.460   5.649
 9324SOL     OW28870   1.549   5.334   0.068
 9324SOL    HW128871   1.640   5.367   0.040
 9324SOL    HW228872   1.551   5.235   0.076
 9325SOL     OW28873   4.933   1.970   0.912
 9325SOL    HW128874   4.976   2.008   0.994
 9325SOL    HW228875   4.973   1.881   0.892
 9326SOL     OW28876   2.711   6.782   1.190
 9326SOL    HW128877   2.698   6.826   1.279
 9326SOL    HW228878   2.759   6.695   1.203
 9327SOL     OW28879   5.201   6.658   2.950
 9327SOL    HW128880   5.124   6.665   3.013
 9327SOL    HW228881   5.245   6.748   2.941
 9328SOL     OW28882   3.987   1.376   6.140
 9328SOL    HW128883   3.893   1.370   6.173
 9328SOL    HW228884   4.041   1.300   6.176
 9329SOL     OW28885   0.185   3.700   2.594
 9329SOL    HW128886   0.182   3.628   2.663
 9329SOL    HW228887   0.098   3.701   2.544
 9330SOL     OW28888   0.163   5.889   0.340
 9330SOL    HW128889   0.214   5.814   0.382
 9330SOL    HW228890   0.226   5.964   0.318
 9331SOL     OW28891   0.559   1.336   5.996
 9331SOL    HW128892   0.528   1.350   6.090
 9331SOL    HW228893   0.659   1.340   5.994
 9332SOL     OW28894   3.310   4.122   3.000
 9332SOL    HW128895   3.264   4.119   2.912
 9332SOL    HW228896   3.255   4.074   3.068
 9333SOL     OW28897   5.474   3.875   1.274
 9333SOL    HW128898   5.406   3.840   1.338
 9333SOL    HW228899   5.451   3.846   1.181
 9334SOL     OW28900   3.697   0.122   3.522
 9334SOL    HW128901   3.694   0.164   3.612
 9334SOL    HW228902   3.760   0.045   3.522
 9335SOL     OW28903   1.347   1.116   6.397
 9335SOL    HW128904   1.306   1.119   6.488
 9335SOL    HW228905   1.363   1.020   6.372
 9336SOL     OW28906   3.538   6.115   6.412
 9336SOL    HW128907   3.501   6.207   6.426
 9336SOL    HW228908   3.465   6.048   6.421
 9337SOL     OW28909   5.050   0.485   2.864
 9337SOL    HW128910   5.000   0.571   2.875
 9337SOL    HW228911   5.027   0.443   2.777
 9338SOL     OW28912   4.372   0.643   2.140
 9338SOL    HW128913   4.427   0.577   2.088
 9338SOL    HW228914   4.309   0.594   2.200
 9339SOL     OW28915   5.864   0.157   0.360
 9339SOL    HW128916   5.876   0.062   0.331
 9339SOL    HW228917   5.858   0.216   0.279
 9340SOL     OW28918   5.322   3.699   5.266
 9340SOL    HW128919   5.363   3.618   5.308
 9340SOL    HW228920   5.380   3.779   5.285
 9341SOL     OW28921   1.360   5.847   6.764
 9341SOL    HW128922   1.325   5.757   6.738
 9341SOL    HW228923   1.358   5.856   6.864
 9342SOL     OW28924   2.412   0.817   4.483
 9342SOL    HW128925   2.499   0.769   4.493
 9342SOL    HW228926   2.395   0.873   4.564
 9343SOL     OW28927   6.182   4.566   3.899
 9343SOL    HW128928   6.120   4.643   3.911
 9343SOL    HW228929   6.253   4.569   3.969
 9344SOL     OW28930   4.520   5.811   1.459
 9344SOL    HW128931   4.542   5.735   1.521
 9344SOL    HW228932   4.445   5.783   1.398
 9345SOL     OW28933   6.232   2.753   1.994
 9345SOL    HW128934   6.171   2.754   1.915
 9345SOL    HW228935   6.240   2.659   2.028
 9346SOL     OW28936   6.071   0.835   0.941
 9346SOL    HW128937   6.012   0.853   1.019
 9346SOL    HW228938   6.087   0.921   0.891
 9347SOL     OW28939   1.828   5.555   1.277
 9347SOL    HW128940   1.771   5.496   1.334
 9347SOL    HW228941   1.812   5.535   1.181
 9348SOL     OW28942   4.436   5.268   1.333
 9348SOL    HW128943   4.482   5.201   1.392
 9348SOL    HW228944   4.493   5.287   1.253
 9349SOL     OW28945   0.765   0.137   2.451
 9349SOL    HW128946   0.850   0.111   2.405
 9349SOL    HW228947   0.773   0.230   2.486
 9350SOL     OW28948   0.761   2.434   5.905
 9350SOL    HW128949   0.787   2.343   5.937
 9350SOL    HW228950   0.774   2.440   5.806
 9351SOL     OW28951   3.335   1.596   6.870
 9351SOL    HW128952   3.259   1.560   6.816
 9351SOL    HW228953   3.382   1.520   6.915
 9352SOL     OW28954   2.680   3.683   0.121
 9352SOL    HW128955   2.637   3.604   0.078
 9352SOL    HW228956   2.747   3.651   0.189
 9353SOL     OW28957   1.000   4.925   1.624
 9353SOL    HW128958   1.096   4.928   1.651
 9353SOL    HW228959   0.946   4.886   1.698
 9354SOL     OW28960   6.845   2.783   6.433
 9354SOL    HW128961   6.931   2.833   6.424
 9354SOL    HW228962   6.857   2.690   6.400
 9355SOL     OW28963   1.061   2.092   4.607
 9355SOL    HW128964   1.156   2.123   4.612
 9355SOL    HW228965   1.059   1.994   4.589
 9356SOL     OW28966   4.280   6.787   1.133
 9356SOL    HW128967   4.240   6.696   1.132
 9356SOL    HW228968   4.305   6.814   1.040
 9357SOL     OW28969   1.145   2.166   6.720
 9357SOL    HW128970   1.225   2.197   6.772
 9357SOL    HW228971   1.161   2.073   6.687
 9358SOL     OW28972   0.225   4.096   2.369
 9358SOL    HW128973   0.194   4.119   2.461
 9358SOL    HW228974   0.322   4.074   2.371
 9359SOL     OW28975   1.848   6.018   6.337
 9359SOL    HW128976   1.910   6.035   6.260
 9359SOL    HW228977   1.865   6.085   6.409
 9360SOL     OW28978   1.531   6.826   6.734
 9360SOL    HW128979   1.443   6.867   6.758
 9360SOL    HW228980   1.525   6.786   6.642
 9361SOL     OW28981   1.633   6.475   3.923
 9361SOL    HW128982   1.588   6.540   3.985
 9361SOL    HW228983   1.608   6.382   3.948
 9362SOL     OW28984   1.987   1.021   1.981
 9362SOL    HW128985   2.043   0.968   2.044
 9362SOL    HW228986   1.921   0.960   1.936
 9363SOL     OW28987   2.853   5.338   2.334
 9363SOL    HW128988   2.768   5.304   2.375
 9363SOL    HW228989   2.867   5.293   2.246
 9364SOL     OW28990   2.507   2.498   1.923
 9364SOL    HW128991   2.555   2.454   1.999
 9364SOL    HW228992   2.518   2.597   1.930
 9365SOL     OW28993   2.965   1.937   4.515
 9365SOL    HW128994   3.042   1.907   4.458
 9365SOL    HW228995   2.992   1.935   4.611
 9366SOL     OW28996   3.341   5.638   0.820
 9366SOL    HW128997   3.264   5.692   0.786
 9366SOL    HW228998   3.307   5.563   0.876
 9367SOL     OW28999   5.086   6.950   1.319
 9367SOL    HW129000   4.990   6.964   1.291
 9367SOL    HW229001   5.094   6.965   1.417
 9368SOL     OW29002   3.945   0.414   2.698
 9368SOL    HW129003   4.040   0.444   2.710
 9368SOL    HW229004   3.933   0.324   2.740
 9369SOL     OW29005   1.177   5.789   6.471
 9369SOL    HW129006   1.084   5.825   6.475
 9369SOL    HW229007   1.241   5.861   6.445
 9370SOL     OW29008   4.135   1.389   4.422
 9370SOL    HW129009   4.204   1.354   4.486
 9370SOL    HW229010   4.075   1.453   4.469
 9371SOL     OW29011   3.643   5.717   1.478
 9371SOL    HW129012   3.614   5.810   1.456
 9371SOL    HW229013   3.577   5.652   1.441
 9372SOL     OW29014   4.642   6.804   1.829
 9372SOL    HW129015   4.551   6.771   1.854
 9372SOL    HW229016   4.674   6.756   1.747
 9373SOL     OW29017   5.919   2.313   6.758
 9373SOL    HW129018   5.821   2.324   6.742
 9373SOL    HW229019   5.939   2.218   6.782
 9374SOL     OW29020   0.765   5.036   5.957
 9374SOL    HW129021   0.763   5.096   5.877
 9374SOL    HW229022   0.824   4.958   5.940
 9375SOL     OW29023   6.835   1.982   6.522
 9375SOL    HW129024   6.878   2.002   6.434
 9375SOL    HW229025   6.829   2.066   6.576
 9376SOL     OW29026   2.103   3.463   2.243
 9376SOL    HW129027   2.149   3.468   2.154
 9376SOL    HW229028   2.009   3.433   2.230
 9377SOL     OW29029   1.824   5.265   2.314
 9377SOL    HW129030   1.924   5.271   2.302
 9377SOL    HW229031   1.803   5.234   2.406
 9378SOL     OW29032   3.651   1.015   3.922
 9378SOL    HW129033   3.730   1.014   3.861
 9378SOL    HW229034   3.647   1.102   3.971
 9379SOL     OW29035   3.631   6.362   4.740
 9379SOL    HW129036   3.678   6.333   4.656
 9379SOL    HW229037   3.561   6.295   4.764
 9380SOL     OW29038   4.251   5.612   6.310
 9380SOL    HW129039   4.343   5.594   6.348
 9380SOL    HW229040   4.260   5.654   6.220
 9381SOL     OW29041   5.274   1.474   4.589
 9381SOL    HW129042   5.254   1.381   4.558
 9381SOL    HW229043   5.208   1.500   4.660
 9382SOL     OW29044   3.341   0.644   4.282
 9382SOL    HW129045   3.288   0.606   4.358
 9382SOL    HW229046   3.280   0.691   4.218
 9383SOL     OW29047   4.767   3.962   3.754
 9383SOL    HW129048   4.783   3.970   3.852
 9383SOL    HW229049   4.736   4.049   3.717
 9384SOL     OW29050   1.640   0.005   2.232
 9384SOL    HW129051   1.623   0.102   2.215
 9384SOL    HW229052   1.557   6.979   2.210
 9385SOL     OW29053   4.146   1.568   3.686
 9385SOL    HW129054   4.064   1.603   3.731
 9385SOL    HW229055   4.225   1.583   3.747
 9386SOL     OW29056   4.209   5.601   5.060
 9386SOL    HW129057   4.281   5.657   5.100
 9386SOL    HW229058   4.139   5.661   5.019
 9387SOL     OW29059   3.596   2.210   0.186
 9387SOL    HW129060   3.553   2.281   0.130
 9387SOL    HW229061   3.631   2.137   0.127
 9388SOL     OW29062   2.029   6.825   4.251
 9388SOL    HW129063   2.022   6.725   4.256
 9388SOL    HW229064   1.982   6.857   4.169
 9389SOL     OW29065   3.806   5.114   2.356
 9389SOL    HW129066   3.822   5.142   2.451
 9389SOL    HW229067   3.823   5.016   2.346
 9390SOL     OW29068   5.104   4.611   5.612
 9390SOL    HW129069   5.113   4.538   5.545
 9390SOL    HW229070   5.018   4.660   5.597
 9391SOL     OW29071   0.990   6.264   4.401
 9391SOL    HW129072   1.066   6.273   4.336
 9391SOL    HW229073   0.968   6.167   4.413
 9392SOL     OW29074   5.082   3.807   2.589
 9392SOL    HW129075   5.001   3.752   2.568
 9392SOL    HW229076   5.066   3.902   2.560
 9393SOL     OW29077   3.067   6.265   6.414
 9393SOL    HW129078   3.011   6.345   6.394
 9393SOL    HW229079   3.047   6.192   6.348
 9394SOL     OW29080   4.916   0.195   1.312
 9394SOL    HW129081   4.883   0.141   1.234
 9394SOL    HW229082   4.933   0.289   1.282
 9395SOL     OW29083   3.175   1.726   0.391
 9395SOL    HW129084   3.128   1.814   0.379
 9395SOL    HW229085   3.108   1.656   0.415
 9396SOL     OW29086   1.407   6.239   6.851
 9396SOL    HW129087   1.344   6.192   6.789
 9396SOL    HW229088   1.453   6.171   6.908
 9397SOL     OW29089   4.009   0.105   6.140
 9397SOL    HW129090   3.989   0.007   6.145
 9397SOL    HW229091   3.934   0.151   6.092
 9398SOL     OW29092   6.688   1.736   6.470
 9398SOL    HW129093   6.746   1.817   6.478
 9398SOL    HW229094   6.599   1.762   6.432
 9399SOL     OW29095   1.780   2.693   3.912
 9399SOL    HW129096   1.752   2.705   4.008
 9399SOL    HW229097   1.780   2.596   3.889
 9400SOL     OW29098   5.357   0.869   0.441
 9400SOL    HW129099   5.411   0.899   0.362
 9400SOL    HW229100   5.385   0.776   0.466
 9401SOL     OW29101   0.870   1.663   2.909
 9401SOL    HW129102   0.937   1.689   2.839
 9401SOL    HW229103   0.851   1.741   2.968
 9402SOL     OW29104   1.282   5.539   3.541
 9402SOL    HW129105   1.196   5.519   3.587
 9402SOL    HW229106   1.289   5.637   3.522
 9403SOL     OW29107   6.413   1.781   2.151
 9403SOL    HW129108   6.510   1.797   2.164
 9403SOL    HW229109   6.388   1.690   2.186
 9404SOL     OW29110   2.165   3.322   0.952
 9404SOL    HW129111   2.184   3.278   0.864
 9404SOL    HW229112   2.245   3.375   0.980
 9405SOL     OW29113   0.182   4.713   5.506
 9405SOL    HW129114   0.104   4.709   5.444
 9405SOL    HW229115   0.218   4.806   5.510
 9406SOL     OW29116   0.150   2.843   6.911
 9406SOL    HW129117   0.205   2.849   6.827
 9406SOL    HW229118   0.168   2.923   6.968
 9407SOL     OW29119   1.895   5.018   5.140
 9407SOL    HW129120   1.916   5.104   5.187
 9407SOL    HW229121   1.978   4.962   5.136
 9408SOL     OW29122   6.844   4.704   4.980
 9408SOL    HW129123   6.881   4.704   4.887
 9408SOL    HW229124   6.875   4.621   5.027
 9409SOL     OW29125   6.366   5.055   2.368
 9409SOL    HW129126   6.425   5.023   2.442
 9409SOL    HW229127   6.417   5.115   2.307
 9410SOL     OW29128   3.960   0.454   1.777
 9410SOL    HW129129   3.978   0.549   1.802
 9410SOL    HW229130   3.861   0.436   1.783
 9411SOL     OW29131   3.753   2.950   3.772
 9411SOL    HW129132   3.727   3.043   3.797
 9411SOL    HW229133   3.785   2.948   3.677
 9412SOL     OW29134   6.893   0.082   1.128
 9412SOL    HW129135   6.916   0.177   1.150
 9412SOL    HW229136   6.795   0.067   1.144
 9413SOL     OW29137   4.037   5.088   3.712
 9413SOL    HW129138   4.136   5.085   3.698
 9413SOL    HW229139   4.004   5.181   3.699
 9414SOL     OW29140   2.130   2.021   4.859
 9414SOL    HW129141   2.103   2.114   4.831
 9414SOL    HW229142   2.068   1.990   4.931
 9415SOL     OW29143   3.936   0.648   2.313
 9415SOL    HW129144   3.883   0.584   2.369
 9415SOL    HW229145   3.908   0.742   2.334
 9416SOL     OW29146   6.664   5.271   6.100
 9416SOL    HW129147   6.584   5.242   6.152
 9416SOL    HW229148   6.683   5.204   6.027
 9417SOL     OW29149   3.598   5.966   1.363
 9417SOL    HW129150   3.595   6.014   1.450
 9417SOL    HW229151   3.679   5.996   1.311
 9418SOL     OW29152   3.285   1.945   4.773
 9418SOL    HW129153   3.185   1.941   4.770
 9418SOL    HW229154   3.319   1.978   4.686
 9419SOL     OW29155   2.873   2.883   0.033
 9419SOL    HW129156   2.875   2.894   6.959
 9419SOL    HW229157   2.961   2.909   0.071
 9420SOL     OW29158   5.080   3.414   6.896
 9420SOL    HW129159   5.039   3.328   6.927
 9420SOL    HW229160   5.007   3.479   6.871
 9421SOL     OW29161   3.562   6.602   5.610
 9421SOL    HW129162   3.636   6.537   5.591
 9421SOL    HW229163   3.594   6.695   5.591
 9422SOL     OW29164   2.106   6.022   4.792
 9422SOL    HW129165   2.007   6.037   4.781
 9422SOL    HW229166   2.124   5.992   4.886
 9423SOL     OW29167   4.181   5.778   3.216
 9423SOL    HW129168   4.177   5.851   3.284
 9423SOL    HW229169   4.273   5.739   3.214
 9424SOL     OW29170   5.474   0.560   4.340
 9424SOL    HW129171   5.491   0.502   4.420
 9424SOL    HW229172   5.544   0.632   4.336
 9425SOL     OW29173   6.796   4.852   0.689
 9425SOL    HW129174   6.844   4.806   0.764
 9425SOL    HW229175   6.856   4.921   0.649
 9426SOL     OW29176   6.894   2.479   6.378
 9426SOL    HW129177   6.986   2.443   6.392
 9426SOL    HW229178   6.876   2.489   6.280
 9427SOL     OW29179   3.514   6.100   2.920
 9427SOL    HW129180   3.520   6.194   2.956
 9427SOL    HW229181   3.496   6.037   2.995
 9428SOL     OW29182   6.456   0.237   6.436
 9428SOL    HW129183   6.418   0.329   6.447
 9428SOL    HW229184   6.388   0.179   6.392
 9429SOL     OW29185   1.967   2.269   4.356
 9429SOL    HW129186   1.954   2.342   4.423
 9429SOL    HW229187   2.062   2.268   4.326
 9430SOL     OW29188   0.624   2.282   4.415
 9430SOL    HW129189   0.614   2.255   4.510
 9430SOL    HW229190   0.717   2.314   4.399
 9431SOL     OW29191   0.296   4.756   6.419
 9431SOL    HW129192   0.216   4.810   6.443
 9431SOL    HW229193   0.292   4.730   6.323
 9432SOL     OW29194   6.875   1.573   3.190
 9432SOL    HW129195   6.810   1.579   3.265
 9432SOL    HW229196   6.846   1.633   3.115
 9433SOL     OW29197   3.842   6.240   2.860
 9433SOL    HW129198   3.784   6.169   2.819
 9433SOL    HW229199   3.876   6.300   2.788
 9434SOL     OW29200   5.264   5.196   4.038
 9434SOL    HW129201   5.274   5.211   3.940
 9434SOL    HW229202   5.205   5.266   4.077
 9435SOL     OW29203   0.483   3.158   1.397
 9435SOL    HW129204   0.518   3.187   1.486
 9435SOL    HW229205   0.427   3.231   1.358
 9436SOL     OW29206   0.899   0.379   3.638
 9436SOL    HW129207   0.917   0.454   3.575
 9436SOL    HW229208   0.941   0.399   3.726
 9437SOL     OW29209   6.551   5.271   4.648
 9437SOL    HW129210   6.635   5.228   4.616
 9437SOL    HW229211   6.572   5.361   4.686
 9438SOL     OW29212   3.183   5.887   1.783
 9438SOL    HW129213   3.160   5.984   1.780
 9438SOL    HW229214   3.149   5.842   1.700
 9439SOL     OW29215   1.281   2.822   0.210
 9439SOL    HW129216   1.257   2.869   0.124
 9439SOL    HW229217   1.210   2.756   0.233
 9440SOL     OW29218   2.488   5.198   2.646
 9440SOL    HW129219   2.509   5.203   2.548
 9440SOL    HW229220   2.399   5.154   2.659
 9441SOL     OW29221   6.567   6.334   4.418
 9441SOL    HW129222   6.567   6.235   4.403
 9441SOL    HW229223   6.472   6.368   4.417
 9442SOL     OW29224   4.513   4.063   0.243
 9442SOL    HW129225   4.543   3.968   0.231
 9442SOL    HW229226   4.547   4.099   0.330
 9443SOL     OW29227   2.034   4.305   2.925
 9443SOL    HW129228   1.998   4.325   2.834
 9443SOL    HW229229   2.108   4.238   2.917
 9444SOL     OW29230   1.294   4.246   0.317
 9444SOL    HW129231   1.205   4.291   0.310
 9444SOL    HW229232   1.366   4.316   0.317
 9445SOL     OW29233   0.314   1.924   4.157
 9445SOL    HW129234   0.411   1.905   4.151
 9445SOL    HW229235   0.300   2.020   4.183
 9446SOL     OW29236   6.596   4.869   3.025
 9446SOL    HW129237   6.691   4.898   3.027
 9446SOL    HW229238   6.564   4.852   3.119
 9447SOL     OW29239   5.726   5.187   2.202
 9447SOL    HW129240   5.733   5.088   2.210
 9447SOL    HW229241   5.758   5.216   2.112
 9448SOL     OW29242   5.593   0.390   5.779
 9448SOL    HW129243   5.581   0.350   5.688
 9448SOL    HW229244   5.531   0.346   5.843
 9449SOL     OW29245   6.329   0.243   1.891
 9449SOL    HW129246   6.351   0.232   1.794
 9449SOL    HW229247   6.234   0.215   1.907
 9450SOL     OW29248   1.920   6.123   4.148
 9450SOL    HW129249   1.911   6.217   4.113
 9450SOL    HW229250   1.945   6.126   4.245
 9451SOL     OW29251   3.749   6.223   6.581
 9451SOL    HW129252   3.833   6.168   6.588
 9451SOL    HW229253   3.685   6.178   6.518
 9452SOL     OW29254   6.932   4.086   0.805
 9452SOL    HW129255   6.854   4.149   0.805
 9452SOL    HW229256   6.922   4.020   0.880
 9453SOL     OW29257   3.788   6.033   3.190
 9453SOL    HW129258   3.751   6.058   3.100
 9453SOL    HW229259   3.838   6.111   3.228
 9454SOL     OW29260   4.971   4.082   0.453
 9454SOL    HW129261   4.931   4.062   0.543
 9454SOL    HW229262   5.033   4.008   0.428
 9455SOL     OW29263   2.965   2.161   2.199
 9455SOL    HW129264   2.886   2.126   2.249
 9455SOL    HW229265   2.937   2.238   2.142
 9456SOL     OW29266   6.572   2.756   2.080
 9456SOL    HW129267   6.483   2.794   2.104
 9456SOL    HW229268   6.609   2.706   2.158
 9457SOL     OW29269   0.054   5.205   3.784
 9457SOL    HW129270   0.102   5.283   3.742
 9457SOL    HW229271   0.121   5.147   3.831
 9458SOL     OW29272   6.107   3.725   6.819
 9458SOL    HW129273   6.186   3.669   6.792
 9458SOL    HW229274   6.101   3.728   6.918
 9459SOL     OW29275   5.004   5.253   4.721
 9459SOL    HW129276   4.971   5.196   4.796
 9459SOL    HW229277   4.946   5.239   4.641
 9460SOL     OW29278   1.145   2.244   2.823
 9460SOL    HW129279   1.190   2.177   2.763
 9460SOL    HW229280   1.128   2.202   2.912
 9461SOL     OW29281   1.187   2.312   2.378
 9461SOL    HW129282   1.124   2.341   2.451
 9461SOL    HW229283   1.240   2.391   2.347
 9462SOL     OW29284   1.694   1.803   4.642
 9462SOL    HW129285   1.747   1.816   4.726
 9462SOL    HW229286   1.748   1.748   4.578
 9463SOL     OW29287   5.720   5.539   0.777
 9463SOL    HW129288   5.688   5.545   0.683
 9463SOL    HW229289   5.728   5.443   0.804
 9464SOL     OW29290   0.759   0.991   1.358
 9464SOL    HW129291   0.718   0.948   1.438
 9464SOL    HW229292   0.857   1.006   1.374
 9465SOL     OW29293   6.776   4.123   1.162
 9465SOL    HW129294   6.771   4.076   1.250
 9465SOL    HW229295   6.713   4.080   1.097
 9466SOL     OW29296   3.949   5.241   6.638
 9466SOL    HW129297   3.923   5.148   6.664
 9466SOL    HW229298   4.019   5.238   6.567
 9467SOL     OW29299   2.404   3.061   1.299
 9467SOL    HW129300   2.446   3.087   1.212
 9467SOL    HW229301   2.459   2.990   1.343
 9468SOL     OW29302   6.560   2.428   0.540
 9468SOL    HW129303   6.465   2.406   0.565
 9468SOL    HW229304   6.588   2.369   0.464
 9469SOL     OW29305   0.733   6.386   1.345
 9469SOL    HW129306   0.782   6.348   1.423
 9469SOL    HW229307   0.643   6.419   1.374
 9470SOL     OW29308   4.069   4.255   0.922
 9470SOL    HW129309   4.021   4.231   0.838
 9470SOL    HW229310   4.078   4.174   0.980
 9471SOL     OW29311   6.149   2.493   5.077
 9471SOL    HW129312   6.164   2.394   5.078
 9471SOL    HW229313   6.089   2.517   5.002
 9472SOL     OW29314   1.806   3.298   6.373
 9472SOL    HW129315   1.906   3.295   6.376
 9472SOL    HW229316   1.776   3.385   6.335
 9473SOL     OW29317   3.016   4.579   0.544
 9473SOL    HW129318   2.955   4.658   0.554
 9473SOL    HW229319   3.078   4.595   0.467
 9474SOL     OW29320   5.421   3.180   1.683
 9474SOL    HW129321   5.364   3.141   1.755
 9474SOL    HW229322   5.440   3.111   1.614
 9475SOL     OW29323   4.454   3.513   6.071
 9475SOL    HW129324   4.461   3.583   6.000
 9475SOL    HW229325   4.538   3.512   6.125
 9476SOL     OW29326   3.519   3.854   5.911
 9476SOL    HW129327   3.553   3.761   5.897
 9476SOL    HW229328   3.531   3.880   6.007
 9477SOL     OW29329   1.859   3.980   1.173
 9477SOL    HW129330   1.937   3.945   1.122
 9477SOL    HW229331   1.876   3.972   1.271
 9478SOL     OW29332   5.373   2.347   0.117
 9478SOL    HW129333   5.340   2.260   0.156
 9478SOL    HW229334   5.297   2.411   0.111
 9479SOL     OW29335   3.905   0.750   1.553
 9479SOL    HW129336   3.835   0.694   1.508
 9479SOL    HW229337   3.884   0.847   1.539
 9480SOL     OW29338   6.246   0.237   6.995
 9480SOL    HW129339   6.254   0.301   6.918
 9480SOL    HW229340   6.270   0.284   0.054
 9481SOL     OW29341   4.337   1.815   2.832
 9481SOL    HW129342   4.328   1.879   2.908
 9481SOL    HW229343   4.272   1.838   2.760
 9482SOL     OW29344   5.963   0.252   0.826
 9482SOL    HW129345   5.894   0.319   0.854
 9482SOL    HW229346   5.919   0.170   0.791
 9483SOL     OW29347   0.215   1.040   0.923
 9483SOL    HW129348   0.211   0.989   0.838
 9483SOL    HW229349   0.307   1.034   0.961
 9484SOL     OW29350   3.252   5.818   4.842
 9484SOL    HW129351   3.280   5.832   4.747
 9484SOL    HW229352   3.173   5.875   4.862
 9485SOL     OW29353   6.579   1.359   6.816
 9485SOL    HW129354   6.598   1.442   6.764
 9485SOL    HW229355   6.641   1.354   6.894
 9486SOL     OW29356   4.776   5.761   0.139
 9486SOL    HW129357   4.860   5.710   0.157
 9486SOL    HW229358   4.723   5.715   0.068
 9487SOL     OW29359   3.417   3.125   3.956
 9487SOL    HW129360   3.371   3.042   3.987
 9487SOL    HW229361   3.509   3.128   3.995
 9488SOL     OW29362   1.381   1.880   0.771
 9488SOL    HW129363   1.359   1.786   0.799
 9488SOL    HW229364   1.418   1.879   0.678
 9489SOL     OW29365   4.785   4.333   0.558
 9489SOL    HW129366   4.827   4.263   0.616
 9489SOL    HW229367   4.843   4.349   0.478
 9490SOL     OW29368   5.668   3.491   3.562
 9490SOL    HW129369   5.653   3.469   3.659
 9490SOL    HW229370   5.581   3.509   3.517
 9491SOL     OW29371   4.927   6.444   2.816
 9491SOL    HW129372   4.879   6.529   2.838
 9491SOL    HW229373   4.904   6.374   2.884
 9492SOL     OW29374   4.837   2.566   4.553
 9492SOL    HW129375   4.872   2.555   4.459
 9492SOL    HW229376   4.767   2.498   4.570
 9493SOL     OW29377   4.588   6.362   3.046
 9493SOL    HW129378   4.590   6.372   3.146
 9493SOL    HW229379   4.496   6.336   3.017
 9494SOL     OW29380   5.437   2.295   1.907
 9494SOL    HW129381   5.533   2.265   1.902
 9494SOL    HW229382   5.404   2.314   1.815
 9495SOL     OW29383   1.012   0.549   2.665
 9495SOL    HW129384   0.951   0.536   2.744
 9495SOL    HW229385   1.077   0.622   2.685
 9496SOL     OW29386   4.131   1.854   2.642
 9496SOL    HW129387   4.051   1.826   2.589
 9496SOL    HW229388   4.189   1.913   2.586
 9497SOL     OW29389   5.480   5.067   4.430
 9497SOL    HW129390   5.519   5.153   4.464
 9497SOL    HW229391   5.411   5.034   4.495
 9498SOL     OW29392   6.429   5.157   3.952
 9498SOL    HW129393   6.437   5.060   3.930
 9498SOL    HW229394   6.520   5.198   3.955
 9499SOL     OW29395   5.922   6.047   5.512
 9499SOL    HW129396   5.872   5.966   5.541
 9499SOL    HW229397   5.994   6.020   5.448
 9500SOL     OW29398   4.377   1.097   1.007
 9500SOL    HW129399   4.459   1.118   0.953
 9500SOL    HW229400   4.332   1.016   0.969
 9501SOL     OW29401   1.665   2.872   4.743
 9501SOL    HW129402   1.591   2.939   4.746
 9501SOL    HW229403   1.627   2.782   4.722
 9502SOL     OW29404   5.582   4.641   5.211
 9502SOL    HW129405   5.559   4.705   5.285
 9502SOL    HW229406   5.524   4.660   5.132
 9503SOL     OW29407   0.367   2.438   6.565
 9503SOL    HW129408   0.392   2.531   6.538
 9503SOL    HW229409   0.329   2.439   6.657
 9504SOL     OW29410   6.164   5.084   1.848
 9504SOL    HW129411   6.143   5.173   1.809
 9504SOL    HW229412   6.113   5.072   1.934
 9505SOL     OW29413   4.247   4.861   5.195
 9505SOL    HW129414   4.225   4.943   5.141
 9505SOL    HW229415   4.242   4.884   5.293
 9506SOL     OW29416   3.404   1.703   1.353
 9506SOL    HW129417   3.480   1.638   1.345
 9506SOL    HW229418   3.373   1.729   1.262
 9507SOL     OW29419   5.585   6.936   2.075
 9507SOL    HW129420   5.526   6.999   2.024
 9507SOL    HW229421   5.627   6.984   2.151
 9508SOL     OW29422   4.905   1.308   3.041
 9508SOL    HW129423   4.823   1.312   2.983
 9508SOL    HW229424   4.986   1.297   2.984
 9509SOL     OW29425   6.728   6.965   2.541
 9509SOL    HW129426   6.694   6.992   2.451
 9509SOL    HW229427   6.675   6.887   2.575
 9510SOL     OW29428   0.788   2.770   3.775
 9510SOL    HW129429   0.879   2.748   3.739
 9510SOL    HW229430   0.718   2.726   3.717
 9511SOL     OW29431   1.532   1.168   0.609
 9511SOL    HW129432   1.537   1.126   0.518
 9511SOL    HW229433   1.475   1.111   0.668
 9512SOL     OW29434   6.727   2.403   1.191
 9512SOL    HW129435   6.791   2.352   1.248
 9512SOL    HW229436   6.651   2.344   1.165
 9513SOL     OW29437   4.003   5.298   0.122
 9513SOL    HW129438   4.015   5.381   0.176
 9513SOL    HW229439   4.038   5.313   0.030
 9514SOL     OW29440   3.423   3.389   6.780
 9514SOL    HW129441   3.366   3.470   6.766
 9514SOL    HW229442   3.513   3.405   6.740
 9515SOL     OW29443   2.427   5.417   4.097
 9515SOL    HW129444   2.327   5.422   4.092
 9515SOL    HW229445   2.467   5.468   4.021
 9516SOL     OW29446   6.515   3.729   0.128
 9516SOL    HW129447   6.599   3.780   0.110
 9516SOL    HW229448   6.529   3.667   0.205
 9517SOL     OW29449   1.239   4.863   0.952
 9517SOL    HW129450   1.153   4.844   0.998
 9517SOL    HW229451   1.262   4.786   0.892
 9518SOL     OW29452   1.967   1.153   0.354
 9518SOL    HW129453   1.891   1.135   0.417
 9518SOL    HW229454   2.052   1.120   0.395
 9519SOL     OW29455   1.278   2.878   5.369
 9519SOL    HW129456   1.185   2.890   5.335
 9519SOL    HW229457   1.343   2.926   5.310
 9520SOL     OW29458   2.335   6.561   2.649
 9520SOL    HW129459   2.297   6.642   2.603
 9520SOL    HW229460   2.262   6.493   2.662
 9521SOL     OW29461   5.229   5.534   4.262
 9521SOL    HW129462   5.207   5.521   4.165
 9521SOL    HW229463   5.315   5.584   4.270
 9522SOL     OW29464   3.838   6.070   0.817
 9522SOL    HW129465   3.917   6.012   0.837
 9522SOL    HW229466   3.851   6.114   0.728
 9523SOL     OW29467   3.143   5.342   4.765
 9523SOL    HW129468   3.173   5.274   4.831
 9523SOL    HW229469   3.053   5.317   4.730
 9524SOL     OW29470   4.194   3.528   1.110
 9524SOL    HW129471   4.228   3.568   1.195
 9524SOL    HW229472   4.132   3.453   1.130
 9525SOL     OW29473   2.679   0.924   6.234
 9525SOL    HW129474   2.632   1.012   6.230
 9525SOL    HW229475   2.612   0.850   6.225
 9526SOL     OW29476   5.226   5.238   2.725
 9526SOL    HW129477   5.149   5.213   2.782
 9526SOL    HW229478   5.194   5.288   2.644
 9527SOL     OW29479   0.382   1.472   1.970
 9527SOL    HW129480   0.431   1.421   2.040
 9527SOL    HW229481   0.327   1.544   2.013
 9528SOL     OW29482   0.266   0.608   2.260
 9528SOL    HW129483   0.250   0.695   2.308
 9528SOL    HW229484   0.362   0.602   2.232
 9529SOL     OW29485   0.710   2.830   5.758
 9529SOL    HW129486   0.639   2.885   5.801
 9529SOL    HW229487   0.791   2.887   5.742
 9530SOL     OW29488   1.211   2.545   3.546
 9530SOL    HW129489   1.284   2.607   3.519
 9530SOL    HW229490   1.249   2.470   3.600
 9531SOL     OW29491   3.352   0.364   3.182
 9531SOL    HW129492   3.354   0.462   3.162
 9531SOL    HW229493   3.339   0.350   3.280
 9532SOL     OW29494   1.865   0.306   1.738
 9532SOL    HW129495   1.844   0.397   1.774
 9532SOL    HW229496   1.960   0.284   1.758
 9533SOL     OW29497   1.685   1.079   6.147
 9533SOL    HW129498   1.743   1.099   6.226
 9533SOL    HW229499   1.672   1.161   6.092
 9534SOL     OW29500   5.438   2.409   4.873
 9534SOL    HW129501   5.443   2.310   4.871
 9534SOL    HW229502   5.383   2.442   4.796
 9535SOL     OW29503   2.709   1.106   5.301
 9535SOL    HW129504   2.732   1.148   5.388
 9535SOL    HW229505   2.673   1.175   5.238
 9536SOL     OW29506   1.400   6.090   5.770
 9536SOL    HW129507   1.457   6.137   5.703
 9536SOL    HW229508   1.368   6.004   5.731
 9537SOL     OW29509   2.951   0.172   1.747
 9537SOL    HW129510   2.878   0.107   1.727
 9537SOL    HW229511   2.985   0.212   1.662
 9538SOL     OW29512   6.655   2.417   4.302
 9538SOL    HW129513   6.580   2.467   4.346
 9538SOL    HW229514   6.618   2.344   4.245
 9539SOL     OW29515   0.740   6.122   0.362
 9539SOL    HW129516   0.776   6.033   0.390
 9539SOL    HW229517   0.687   6.112   0.278
 9540SOL     OW29518   4.683   4.651   4.386
 9540SOL    HW129519   4.603   4.670   4.329
 9540SOL    HW229520   4.656   4.649   4.482
 9541SOL     OW29521   2.056   2.673   4.025
 9541SOL    HW129522   2.028   2.612   4.099
 9541SOL    HW229523   1.990   2.666   3.949
 9542SOL     OW29524   4.862   3.578   4.414
 9542SOL    HW129525   4.862   3.588   4.314
 9542SOL    HW229526   4.770   3.593   4.449
 9543SOL     OW29527   5.431   1.432   2.862
 9543SOL    HW129528   5.517   1.436   2.811
 9543SOL    HW229529   5.398   1.338   2.864
 9544SOL     OW29530   4.602   1.418   2.718
 9544SOL    HW129531   4.519   1.431   2.773
 9544SOL    HW229532   4.674   1.478   2.751
 9545SOL     OW29533   6.744   0.980   3.553
 9545SOL    HW129534   6.832   1.026   3.568
 9545SOL    HW229535   6.760   0.894   3.505
 9546SOL     OW29536   2.595   5.334   0.786
 9546SOL    HW129537   2.575   5.335   0.884
 9546SOL    HW229538   2.694   5.327   0.772
 9547SOL     OW29539   0.869   6.595   3.771
 9547SOL    HW129540   0.899   6.673   3.826
 9547SOL    HW229541   0.771   6.579   3.786
 9548SOL     OW29542   4.870   5.823   3.892
 9548SOL    HW129543   4.807   5.786   3.961
 9548SOL    HW229544   4.905   5.748   3.837
 9549SOL     OW29545   2.511   5.964   0.767
 9549SOL    HW129546   2.465   5.984   0.854
 9549SOL    HW229547   2.562   6.045   0.738
 9550SOL     OW29548   1.389   1.394   0.342
 9550SOL    HW129549   1.293   1.419   0.335
 9550SOL    HW229550   1.446   1.467   0.305
 9551SOL     OW29551   0.984   6.565   4.597
 9551SOL    HW129552   0.920   6.573   4.521
 9551SOL    HW229553   1.041   6.484   4.585
 9552SOL     OW29554   1.797   5.856   3.099
 9552SOL    HW129555   1.857   5.850   3.179
 9552SOL    HW229556   1.846   5.823   3.018
 9553SOL     OW29557   5.654   4.097   5.802
 9553SOL    HW129558   5.732   4.104   5.740
 9553SOL    HW229559   5.569   4.105   5.749
 9554SOL     OW29560   2.080   1.407   1.975
 9554SOL    HW129561   2.098   1.448   2.065
 9554SOL    HW229562   2.014   1.332   1.986
 9555SOL     OW29563   0.132   2.275   0.788
 9555SOL    HW129564   0.063   2.204   0.793
 9555SOL    HW229565   0.161   2.288   0.693
 9556SOL     OW29566   2.079   1.958   1.505
 9556SOL    HW129567   2.115   1.873   1.467
 9556SOL    HW229568   2.049   2.018   1.430
 9557SOL     OW29569   5.486   0.898   2.198
 9557SOL    HW129570   5.390   0.926   2.202
 9557SOL    HW229571   5.519   0.905   2.104
 9558SOL     OW29572   6.147   4.787   2.483
 9558SOL    HW129573   6.113   4.829   2.399
 9558SOL    HW229574   6.082   4.718   2.515
 9559SOL     OW29575   6.995   3.017   1.987
 9559SOL    HW129576   6.947   3.104   1.979
 9559SOL    HW229577   6.929   2.942   1.996
 9560SOL     OW29578   3.303   1.733   3.895
 9560SOL    HW129579   3.259   1.810   3.847
 9560SOL    HW229580   3.233   1.673   3.932
 9561SOL     OW29581   4.571   6.464   0.534
 9561SOL    HW129582   4.591   6.471   0.632
 9561SOL    HW229583   4.613   6.381   0.497
 9562SOL     OW29584   5.315   5.030   2.585
 9562SOL    HW129585   5.410   5.033   2.553
 9562SOL    HW229586   5.294   5.113   2.635
 9563SOL     OW29587   6.338   5.991   7.015
 9563SOL    HW129588   6.252   5.955   6.979
 9563SOL    HW229589   6.359   6.079   6.972
 9564SOL     OW29590   2.630   6.840   6.911
 9564SOL    HW129591   2.544   6.848   6.961
 9564SOL    HW229592   2.707   6.854   6.974
 9565SOL     OW29593   3.630   5.946   4.661
 9565SOL    HW129594   3.724   5.977   4.680
 9565SOL    HW229595   3.608   5.964   4.565
 9566SOL     OW29596   2.829   4.374   5.398
 9566SOL    HW129597   2.906   4.375   5.461
 9566SOL    HW229598   2.858   4.407   5.308
 9567SOL     OW29599   6.138   5.565   5.680
 9567SOL    HW129600   6.066   5.508   5.640
 9567SOL    HW229601   6.227   5.522   5.664
 9568SOL     OW29602   4.905   3.739   6.119
 9568SOL    HW129603   4.856   3.775   6.040
 9568SOL    HW229604   4.906   3.639   6.115
 9569SOL     OW29605   6.413   0.868   0.478
 9569SOL    HW129606   6.482   0.796   0.478
 9569SOL    HW229607   6.322   0.828   0.465
 9570SOL     OW29608   0.726   0.954   0.525
 9570SOL    HW129609   0.747   0.999   0.439
 9570SOL    HW229610   0.642   0.993   0.564
 9571SOL     OW29611   2.085   3.751   0.354
 9571SOL    HW129612   2.130   3.800   0.429
 9571SOL    HW229613   2.151   3.692   0.308
 9572SOL     OW29614   1.416   4.586   1.216
 9572SOL    HW129615   1.344   4.599   1.285
 9572SOL    HW229616   1.454   4.675   1.191
 9573SOL     OW29617   1.691   1.731   0.935
 9573SOL    HW129618   1.673   1.788   0.855
 9573SOL    HW229619   1.605   1.709   0.981
 9574SOL     OW29620   2.668   1.801   5.674
 9574SOL    HW129621   2.666   1.871   5.745
 9574SOL    HW229622   2.664   1.711   5.716
 9575SOL     OW29623   5.833   0.765   2.190
 9575SOL    HW129624   5.779   0.763   2.274
 9575SOL    HW229625   5.926   0.733   2.209
 9576SOL     OW29626   3.393   1.896   5.655
 9576SOL    HW129627   3.408   1.952   5.573
 9576SOL    HW229628   3.310   1.927   5.702
 9577SOL     OW29629   1.078   6.397   3.073
 9577SOL    HW129630   0.993   6.348   3.092
 9577SOL    HW229631   1.145   6.375   3.144
 9578SOL     OW29632   6.103   3.208   2.210
 9578SOL    HW129633   6.164   3.285   2.189
 9578SOL    HW229634   6.140   3.157   2.288
 9579SOL     OW29635   1.041   6.582   2.662
 9579SOL    HW129636   1.122   6.631   2.628
 9579SOL    HW229637   0.972   6.579   2.591
 9580SOL     OW29638   4.172   3.374   5.917
 9580SOL    HW129639   4.079   3.412   5.921
 9580SOL    HW229640   4.228   3.431   5.857
 9581SOL     OW29641   1.281   4.580   5.764
 9581SOL    HW129642   1.325   4.500   5.723
 9581SOL    HW229643   1.199   4.604   5.711
 9582SOL     OW29644   4.073   4.858   4.722
 9582SOL    HW129645   4.117   4.777   4.761
 9582SOL    HW229646   4.041   4.837   4.630
 9583SOL     OW29647   1.827   4.278   1.482
 9583SOL    HW129648   1.909   4.337   1.485
 9583SOL    HW229649   1.781   4.281   1.570
 9584SOL     OW29650   5.848   6.097   6.099
 9584SOL    HW129651   5.927   6.047   6.064
 9584SOL    HW229652   5.842   6.085   6.198
 9585SOL     OW29653   5.957   0.331   4.356
 9585SOL    HW129654   5.861   0.361   4.358
 9585SOL    HW229655   6.005   0.382   4.285
 9586SOL     OW29656   5.613   3.130   3.051
 9586SOL    HW129657   5.696   3.154   3.001
 9586SOL    HW229658   5.628   3.144   3.149
 9587SOL     OW29659   4.705   6.796   2.294
 9587SOL    HW129660   4.745   6.812   2.203
 9587SOL    HW229661   4.770   6.747   2.351
 9588SOL     OW29662   0.312   0.454   2.003
 9588SOL    HW129663   0.346   0.501   1.921
 9588SOL    HW229664   0.254   0.516   2.055
 9589SOL     OW29665   2.663   1.622   6.681
 9589SOL    HW129666   2.574   1.617   6.636
 9589SOL    HW229667   2.650   1.625   6.780
 9590SOL     OW29668   6.523   4.228   4.483
 9590SOL    HW129669   6.542   4.243   4.580
 9590SOL    HW229670   6.536   4.313   4.433
 9591SOL     OW29671   1.638   4.939   1.772
 9591SOL    HW129672   1.629   4.849   1.815
 9591SOL    HW229673   1.637   5.010   1.842
 9592SOL     OW29674   4.744   5.002   1.908
 9592SOL    HW129675   4.659   5.055   1.905
 9592SOL    HW229676   4.742   4.933   1.835
 9593SOL     OW29677   0.914   2.918   4.089
 9593SOL    HW129678   0.835   2.859   4.073
 9593SOL    HW229679   0.917   2.944   4.186
 9594SOL     OW29680   5.960   7.011   2.165
 9594SOL    HW129681   6.043   6.984   2.214
 9594SOL    HW229682   5.984   0.044   2.088
 9595SOL     OW29683   1.219   5.345   3.856
 9595SOL    HW129684   1.306   5.300   3.879
 9595SOL    HW229685   1.155   5.276   3.822
 9596SOL     OW29686   5.422   6.256   4.723
 9596SOL    HW129687   5.498   6.265   4.787
 9596SOL    HW229688   5.335   6.266   4.772
 9597SOL     OW29689   2.035   3.857   0.977
 9597SOL    HW129690   2.091   3.817   1.049
 9597SOL    HW229691   2.033   3.795   0.898
 9598SOL     OW29692   0.139   5.582   5.587
 9598SOL    HW129693   0.103   5.488   5.593
 9598SOL    HW229694   0.066   5.647   5.608
 9599SOL     OW29695   4.751   1.872   4.850
 9599SOL    HW129696   4.842   1.912   4.863
 9599SOL    HW229697   4.682   1.942   4.868
 9600SOL     OW29698   1.086   6.932   6.996
 9600SOL    HW129699   1.079   6.887   6.907
 9600SOL    HW229700   1.039   7.020   6.992
 9601SOL     OW29701   0.652   5.145   5.704
 9601SOL    HW129702   0.579   5.197   5.748
 9601SOL    HW229703   0.628   5.128   5.608
 9602SOL     OW29704   1.061   5.651   0.485
 9602SOL    HW129705   1.019   5.560   0.491
 9602SOL    HW229706   1.041   5.703   0.568
 9603SOL     OW29707   1.768   5.601   4.021
 9603SOL    HW129708   1.717   5.684   4.043
 9603SOL    HW229709   1.856   5.625   3.980
 9604SOL     OW29710   6.402   1.194   6.944
 9604SOL    HW129711   6.456   1.256   6.887
 9604SOL    HW229712   6.406   1.226   0.013
 9605SOL     OW29713   1.801   6.148   6.687
 9605SOL    HW129714   1.728   6.094   6.646
 9605SOL    HW229715   1.761   6.223   6.741
 9606SOL     OW29716   6.325   6.516   4.134
 9606SOL    HW129717   6.372   6.456   4.070
 9606SOL    HW229718   6.391   6.555   4.198
 9607SOL     OW29719   0.890   2.306   1.880
 9607SOL    HW129720   0.872   2.210   1.900
 9607SOL    HW229721   0.813   2.345   1.830
 9608SOL     OW29722   0.020   6.617   2.399
 9608SOL    HW129723   6.947   6.601   2.404
 9608SOL    HW229724   0.046   6.639   2.305
 9609SOL     OW29725   1.553   3.401   4.391
 9609SOL    HW129726   1.456   3.424   4.380
 9609SOL    HW229727   1.573   3.317   4.340
 9610SOL     OW29728   2.892   1.726   6.743
 9610SOL    HW129729   2.814   1.685   6.697
 9610SOL    HW229730   2.948   1.775   6.676
 9611SOL     OW29731   6.649   0.009   1.236
 9611SOL    HW129732   6.613   0.061   1.159
 9611SOL    HW229733   6.653   0.068   1.317
 9612SOL     OW29734   5.500   2.528   1.694
 9612SOL    HW129735   5.495   2.434   1.661
 9612SOL    HW229736   5.594   2.547   1.724
 9613SOL     OW29737   5.718   6.300   5.526
 9613SOL    HW129738   5.635   6.321   5.577
 9613SOL    HW229739   5.754   6.211   5.556
 9614SOL     OW29740   3.631   3.204   2.631
 9614SOL    HW129741   3.704   3.186   2.566
 9614SOL    HW229742   3.566   3.128   2.631
 9615SOL     OW29743   0.854   6.455   3.504
 9615SOL    HW129744   0.794   6.493   3.575
 9615SOL    HW229745   0.825   6.362   3.483
 9616SOL     OW29746   3.173   3.455   0.765
 9616SOL    HW129747   3.191   3.483   0.859
 9616SOL    HW229748   3.128   3.366   0.766
 9617SOL     OW29749   0.882   4.521   3.434
 9617SOL    HW129750   0.881   4.449   3.365
 9617SOL    HW229751   0.791   4.530   3.475
 9618SOL     OW29752   4.386   5.827   6.712
 9618SOL    HW129753   4.453   5.810   6.640
 9618SOL    HW229754   4.297   5.846   6.670
 9619SOL     OW29755   2.608   6.885   0.656
 9619SOL    HW129756   2.543   6.947   0.700
 9619SOL    HW229757   2.603   6.895   0.557
 9620SOL     OW29758   3.357   1.437   6.376
 9620SOL    HW129759   3.390   1.524   6.339
 9620SOL    HW229760   3.400   1.361   6.327
 9621SOL     OW29761   1.375   1.393   1.124
 9621SOL    HW129762   1.347   1.381   1.219
 9621SOL    HW229763   1.470   1.363   1.113
 9622SOL     OW29764   6.436   0.332   5.537
 9622SOL    HW129765   6.409   0.338   5.441
 9622SOL    HW229766   6.356   0.313   5.593
 9623SOL     OW29767   4.006   6.102   6.577
 9623SOL    HW129768   4.070   6.077   6.649
 9623SOL    HW229769   4.028   6.053   6.493
 9624SOL     OW29770   4.024   5.303   4.504
 9624SOL    HW129771   3.982   5.216   4.529
 9624SOL    HW229772   4.095   5.287   4.435
 9625SOL     OW29773   4.856   3.759   5.849
 9625SOL    HW129774   4.765   3.777   5.812
 9625SOL    HW229775   4.891   3.673   5.811
 9626SOL     OW29776   2.223   3.446   6.561
 9626SOL    HW129777   2.180   3.536   6.567
 9626SOL    HW229778   2.205   3.407   6.471
 9627SOL     OW29779   0.895   5.107   6.925
 9627SOL    HW129780   0.808   5.076   6.887
 9627SOL    HW229781   0.876   5.167   7.004
 9628SOL     OW29782   6.024   2.050   6.783
 9628SOL    HW129783   6.114   2.024   6.819
 9628SOL    HW229784   5.960   1.974   6.795
 9629SOL     OW29785   6.124   5.686   3.545
 9629SOL    HW129786   6.193   5.617   3.525
 9629SOL    HW229787   6.166   5.763   3.592
 9630SOL     OW29788   5.869   6.555   6.226
 9630SOL    HW129789   5.855   6.648   6.190
 9630SOL    HW229790   5.786   6.502   6.214
 9631SOL     OW29791   4.050   0.962   6.966
 9631SOL    HW129792   3.981   0.937   6.898
 9631SOL    HW229793   4.137   0.917   6.944
 9632SOL     OW29794   3.513   6.310   1.978
 9632SOL    HW129795   3.570   6.235   1.945
 9632SOL    HW229796   3.435   6.272   2.027
 9633SOL     OW29797   3.421   3.085   2.398
 9633SOL    HW129798   3.493   3.102   2.330
 9633SOL    HW229799   3.454   3.018   2.465
 9634SOL     OW29800   5.529   4.099   3.026
 9634SOL    HW129801   5.476   4.182   3.043
 9634SOL    HW229802   5.615   4.104   3.076
 9635SOL     OW29803   0.265   4.747   4.033
 9635SOL    HW129804   0.237   4.669   3.977
 9635SOL    HW229805   0.327   4.716   4.105
 9636SOL     OW29806   4.940   2.959   4.390
 9636SOL    HW129807   5.034   2.925   4.385
 9636SOL    HW229808   4.904   2.969   4.298
 9637SOL     OW29809   2.345   2.754   0.408
 9637SOL    HW129810   2.296   2.743   0.495
 9637SOL    HW229811   2.280   2.760   0.333
 9638SOL     OW29812   6.336   4.855   5.656
 9638SOL    HW129813   6.346   4.759   5.629
 9638SOL    HW229814   6.332   4.913   5.574
 9639SOL     OW29815   3.681   1.353   2.719
 9639SOL    HW129816   3.666   1.364   2.818
 9639SOL    HW229817   3.749   1.419   2.688
 9640SOL     OW29818   4.708   0.368   3.213
 9640SOL    HW129819   4.643   0.292   3.214
 9640SOL    HW229820   4.697   0.419   3.128
 9641SOL     OW29821   6.240   3.674   3.192
 9641SOL    HW129822   6.177   3.618   3.246
 9641SOL    HW229823   6.207   3.680   3.098
 9642SOL     OW29824   1.452   0.245   4.003
 9642SOL    HW129825   1.403   0.232   4.089
 9642SOL    HW229826   1.405   0.196   3.930
 9643SOL     OW29827   4.887   4.715   4.001
 9643SOL    HW129828   4.980   4.751   4.013
 9643SOL    HW229829   4.877   4.631   4.055
 9644SOL     OW29830   1.205   5.847   4.766
 9644SOL    HW129831   1.281   5.818   4.708
 9644SOL    HW229832   1.195   5.947   4.760
 9645SOL     OW29833   0.454   5.298   6.801
 9645SOL    HW129834   0.476   5.378   6.856
 9645SOL    HW229835   0.468   5.320   6.704
 9646SOL     OW29836   3.596   5.686   5.875
 9646SOL    HW129837   3.563   5.732   5.958
 9646SOL    HW229838   3.531   5.703   5.800
 9647SOL     OW29839   6.436   6.717   3.487
 9647SOL    HW129840   6.431   6.619   3.469
 9647SOL    HW229841   6.384   6.739   3.569
 9648SOL     OW29842   4.318   2.008   1.631
 9648SOL    HW129843   4.249   2.080   1.641
 9648SOL    HW229844   4.327   1.985   1.534
 9649SOL     OW29845   1.625   5.168   6.807
 9649SOL    HW129846   1.529   5.154   6.829
 9649SOL    HW229847   1.667   5.228   6.875
 9650SOL     OW29848   6.923   5.378   4.940
 9650SOL    HW129849   6.895   5.474   4.950
 9650SOL    HW229850   7.019   5.374   4.911
 9651SOL     OW29851   4.212   1.647   0.275
 9651SOL    HW129852   4.290   1.600   0.317
 9651SOL    HW229853   4.135   1.647   0.338
 9652SOL     OW29854   6.799   3.547   0.216
 9652SOL    HW129855   6.814   3.527   0.119
 9652SOL    HW229856   6.778   3.462   0.264
 9653SOL     OW29857   4.081   4.209   6.202
 9653SOL    HW129858   4.139   4.136   6.164
 9653SOL    HW229859   4.019   4.169   6.269
 9654SOL     OW29860   3.880   3.469   3.683
 9654SOL    HW129861   3.785   3.494   3.662
 9654SOL    HW229862   3.938   3.493   3.604
 9655SOL     OW29863   4.335   0.915   1.713
 9655SOL    HW129864   4.303   0.888   1.804
 9655SOL    HW229865   4.345   1.014   1.709
 9656SOL     OW29866   5.888   3.802   0.834
 9656SOL    HW129867   5.853   3.735   0.768
 9656SOL    HW229868   5.940   3.754   0.904
 9657SOL     OW29869   5.693   3.204   3.300
 9657SOL    HW129870   5.646   3.292   3.306
 9657SOL    HW229871   5.752   3.192   3.380
 9658SOL     OW29872   5.332   2.125   2.113
 9658SOL    HW129873   5.344   2.180   2.030
 9658SOL    HW229874   5.320   2.186   2.192
 9659SOL     OW29875   2.799   2.919   0.637
 9659SOL    HW129876   2.734   2.844   0.649
 9659SOL    HW229877   2.754   3.006   0.657
 9660SOL     OW29878   0.551   5.576   1.741
 9660SOL    HW129879   0.635   5.526   1.720
 9660SOL    HW229880   0.498   5.590   1.657
 9661SOL     OW29881   5.514   5.011   0.763
 9661SOL    HW129882   5.597   5.050   0.721
 9661SOL    HW229883   5.459   4.966   0.694
 9662SOL     OW29884   5.554   4.917   5.858
 9662SOL    HW129885   5.542   4.851   5.931
 9662SOL    HW229886   5.650   4.919   5.830
 9663SOL     OW29887   0.519   5.163   3.492
 9663SOL    HW129888   0.553   5.069   3.504
 9663SOL    HW229889   0.562   5.203   3.411
 9664SOL     OW29890   4.878   3.653   3.048
 9664SOL    HW129891   4.881   3.698   3.137
 9664SOL    HW229892   4.860   3.721   2.977
 9665SOL     OW29893   5.756   5.898   6.609
 9665SOL    HW129894   5.783   5.890   6.705
 9665SOL    HW229895   5.712   5.987   6.594
 9666SOL     OW29896   5.339   3.399   0.034
 9666SOL    HW129897   5.251   3.393   7.013
 9666SOL    HW229898   5.333   3.354   0.123
 9667SOL     OW29899   6.277   6.366   6.352
 9667SOL    HW129900   6.208   6.437   6.369
 9667SOL    HW229901   6.233   6.285   6.313
 9668SOL     OW29902   0.243   0.136   5.833
 9668SOL    HW129903   0.220   0.042   5.856
 9668SOL    HW229904   0.290   0.138   5.744
 9669SOL     OW29905   4.080   0.184   0.211
 9669SOL    HW129906   4.160   0.197   0.269
 9669SOL    HW229907   4.004   0.147   0.265
 9670SOL     OW29908   0.206   6.733   6.605
 9670SOL    HW129909   0.165   6.772   6.687
 9670SOL    HW229910   0.220   6.805   6.537
 9671SOL     OW29911   1.596   5.577   6.662
 9671SOL    HW129912   1.620   5.579   6.759
 9671SOL    HW229913   1.498   5.559   6.653
 9672SOL     OW29914   0.903   3.429   4.556
 9672SOL    HW129915   0.888   3.331   4.543
 9672SOL    HW229916   0.848   3.460   4.634
 9673SOL     OW29917   2.450   3.938   0.932
 9673SOL    HW129918   2.517   4.013   0.935
 9673SOL    HW229919   2.378   3.956   0.999
 9674SOL     OW29920   2.575   6.066   4.364
 9674SOL    HW129921   2.604   5.983   4.412
 9674SOL    HW229922   2.622   6.072   4.276
 9675SOL     OW29923   4.629   3.940   1.189
 9675SOL    HW129924   4.720   3.971   1.217
 9675SOL    HW229925   4.607   3.979   1.100
 9676SOL     OW29926   0.857   2.903   6.371
 9676SOL    HW129927   0.831   2.862   6.458
 9676SOL    HW229928   0.907   2.836   6.316
 9677SOL     OW29929   6.602   5.386   0.683
 9677SOL    HW129930   6.566   5.300   0.720
 9677SOL    HW229931   6.560   5.404   0.594
 9678SOL     OW29932   3.707   3.277   4.940
 9678SOL    HW129933   3.705   3.372   4.969
 9678SOL    HW229934   3.799   3.240   4.950
 9679SOL     OW29935   2.289   1.514   4.910
 9679SOL    HW129936   2.259   1.467   4.993
 9679SOL    HW229937   2.371   1.567   4.930
 9680SOL     OW29938   4.576   5.653   2.893
 9680SOL    HW129939   4.674   5.637   2.882
 9680SOL    HW229940   4.561   5.722   2.964
 9681SOL     OW29941   1.623   1.791   2.443
 9681SOL    HW129942   1.592   1.827   2.530
 9681SOL    HW229943   1.554   1.808   2.373
 9682SOL     OW29944   5.204   5.379   5.016
 9682SOL    HW129945   5.260   5.389   5.098
 9682SOL    HW229946   5.135   5.451   5.014
 9683SOL     OW29947   2.615   5.948   1.834
 9683SOL    HW129948   2.585   5.926   1.741
 9683SOL    HW229949   2.561   6.024   1.869
 9684SOL     OW29950   1.060   4.027   5.752
 9684SOL    HW129951   1.118   3.949   5.728
 9684SOL    HW229952   0.967   3.995   5.771
 9685SOL     OW29953   3.945   4.692   1.469
 9685SOL    HW129954   3.993   4.608   1.442
 9685SOL    HW229955   3.991   4.733   1.548
 9686SOL     OW29956   0.105   1.886   5.921
 9686SOL    HW129957   0.138   1.792   5.921
 9686SOL    HW229958   0.015   1.890   5.877
 9687SOL     OW29959   5.516   0.860   1.923
 9687SOL    HW129960   5.476   0.771   1.903
 9687SOL    HW229961   5.604   0.869   1.876
 9688SOL     OW29962   0.331   4.433   1.441
 9688SOL    HW129963   0.314   4.526   1.476
 9688SOL    HW229964   0.387   4.383   1.507
 9689SOL     OW29965   1.374   6.506   0.826
 9689SOL    HW129966   1.305   6.578   0.830
 9689SOL    HW229967   1.458   6.542   0.786
 9690SOL     OW29968   6.162   5.330   5.344
 9690SOL    HW129969   6.199   5.255   5.290
 9690SOL    HW229970   6.151   5.411   5.286
 9691SOL     OW29971   3.085   3.881   1.531
 9691SOL    HW129972   2.992   3.845   1.528
 9691SOL    HW229973   3.081   3.979   1.551
 9692SOL     OW29974   5.233   4.845   0.659
 9692SOL    HW129975   5.289   4.771   0.620
 9692SOL    HW229976   5.198   4.817   0.748
 9693SOL     OW29977   5.233   3.918   4.215
 9693SOL    HW129978   5.302   3.923   4.143
 9693SOL    HW229979   5.161   3.985   4.199
 9694SOL     OW29980   3.792   6.622   2.550
 9694SOL    HW129981   3.695   6.640   2.529
 9694SOL    HW229982   3.850   6.672   2.485
 9695SOL     OW29983   0.816   2.701   3.443
 9695SOL    HW129984   0.796   2.678   3.348
 9695SOL    HW229985   0.798   2.622   3.501
 9696SOL     OW29986   5.811   1.886   2.440
 9696SOL    HW129987   5.776   1.924   2.526
 9696SOL    HW229988   5.897   1.837   2.458
 9697SOL     OW29989   0.711   6.234   0.611
 9697SOL    HW129990   0.731   6.170   0.537
 9697SOL    HW229991   0.679   6.320   0.573
 9698SOL     OW29992   5.790   3.256   0.285
 9698SOL    HW129993   5.814   3.353   0.292
 9698SOL    HW229994   5.697   3.247   0.250
 9699SOL     OW29995   1.227   5.473   1.276
 9699SOL    HW129996   1.219   5.487   1.177
 9699SOL    HW229997   1.188   5.385   1.301
 9700SOL     OW29998   5.593   0.087   5.151
 9700SOL    HW129999   5.507   0.134   5.136
 9700SOL    HW230000   5.663   0.123   5.089
 9701SOL     OW30001   4.439   3.283   6.212
 9701SOL    HW130002   4.457   3.372   6.170
 9701SOL    HW230003   4.344   3.257   6.194
 9702SOL     OW30004   3.856   2.804   1.148
 9702SOL    HW130005   3.787   2.868   1.114
 9702SOL    HW230006   3.811   2.724   1.187
 9703SOL     OW30007   6.600   3.988   4.972
 9703SOL    HW130008   6.653   3.975   5.056
 9703SOL    HW230009   6.659   4.024   4.900
 9704SOL     OW30010   2.286   4.177   2.898
 9704SOL    HW130011   2.381   4.202   2.879
 9704SOL    HW230012   2.272   4.080   2.879
 9705SOL     OW30013   6.462   3.254   5.517
 9705SOL    HW130014   6.408   3.336   5.537
 9705SOL    HW230015   6.400   3.178   5.496
 9706SOL     OW30016   1.442   1.826   2.236
 9706SOL    HW130017   1.401   1.917   2.238
 9706SOL    HW230018   1.446   1.794   2.141
 9707SOL     OW30019   6.497   5.031   2.607
 9707SOL    HW130020   6.491   4.944   2.657
 9707SOL    HW230021   6.592   5.062   2.606
 9708SOL     OW30022   2.223   0.391   2.339
 9708SOL    HW130023   2.319   0.413   2.351
 9708SOL    HW230024   2.168   0.474   2.343
 9709SOL     OW30025   5.703   2.121   2.232
 9709SOL    HW130026   5.801   2.108   2.219
 9709SOL    HW230027   5.673   2.067   2.311
 9710SOL     OW30028   6.157   5.864   4.323
 9710SOL    HW130029   6.166   5.811   4.239
 9710SOL    HW230030   6.225   5.938   4.323
 9711SOL     OW30031   3.950   0.067   7.010
 9711SOL    HW130032   3.931   6.997   0.004
 9711SOL    HW230033   4.012   0.103   0.054
 9712SOL     OW30034   5.534   2.035   6.825
 9712SOL    HW130035   5.563   2.131   6.819
 9712SOL    HW230036   5.446   2.030   6.872
 9713SOL     OW30037   1.133   6.642   3.597
 9713SOL    HW130038   1.214   6.601   3.556
 9713SOL    HW230039   1.056   6.579   3.589
 9714SOL     OW30040   2.791   4.766   4.867
 9714SOL    HW130041   2.700   4.735   4.838
 9714SOL    HW230042   2.823   4.710   4.943
 9715SOL     OW30043   6.244   3.839   0.295
 9715SOL    HW130044   6.326   3.815   0.345
 9715SOL    HW230045   6.266   3.904   0.222
 9716SOL     OW30046   2.949   5.136   0.098
 9716SOL    HW130047   2.922   5.186   0.015
 9716SOL    HW230048   2.921   5.041   0.090
 9717SOL     OW30049   4.344   1.034   5.178
 9717SOL    HW130050   4.254   1.044   5.221
 9717SOL    HW230051   4.348   1.089   5.095
 9718SOL     OW30052   2.936   2.266   0.306
 9718SOL    HW130053   2.906   2.349   0.259
 9718SOL    HW230054   2.869   2.241   0.376
 9719SOL     OW30055   4.520   6.201   5.020
 9719SOL    HW130056   4.508   6.192   4.921
 9719SOL    HW230057   4.602   6.254   5.039
 9720SOL     OW30058   2.047   3.861   3.064
 9720SOL    HW130059   1.954   3.823   3.054
 9720SOL    HW230060   2.088   3.871   2.974
 9721SOL     OW30061   0.956   1.659   0.647
 9721SOL    HW130062   0.944   1.604   0.730
 9721SOL    HW230063   0.883   1.637   0.582
 9722SOL     OW30064   3.971   3.161   4.960
 9722SOL    HW130065   3.936   3.095   4.894
 9722SOL    HW230066   3.956   3.127   5.053
 9723SOL     OW30067   6.219   5.700   4.111
 9723SOL    HW130068   6.240   5.604   4.130
 9723SOL    HW230069   6.173   5.707   4.023
 9724SOL     OW30070   0.950   5.294   0.121
 9724SOL    HW130071   1.043   5.260   0.112
 9724SOL    HW230072   0.941   5.380   0.071
 9725SOL     OW30073   3.295   5.486   5.620
 9725SOL    HW130074   3.222   5.418   5.622
 9725SOL    HW230075   3.350   5.478   5.703
 9726SOL     OW30076   6.102   1.132   4.153
 9726SOL    HW130077   6.062   1.043   4.177
 9726SOL    HW230078   6.121   1.183   4.237
 9727SOL     OW30079   1.109   1.238   6.869
 9727SOL    HW130080   1.103   1.337   6.856
 9727SOL    HW230081   1.141   1.218   6.961
 9728SOL     OW30082   5.275   0.356   6.023
 9728SOL    HW130083   5.282   0.339   6.121
 9728SOL    HW230084   5.309   0.276   5.973
 9729SOL     OW30085   0.295   5.384   3.242
 9729SOL    HW130086   0.263   5.478   3.244
 9729SOL    HW230087   0.276   5.341   3.330
 9730SOL     OW30088   0.078   4.501   3.598
 9730SOL    HW130089   0.148   4.468   3.536
 9730SOL    HW230090   0.101   4.593   3.630
 9731SOL     OW30091   5.139   3.839   2.268
 9731SOL    HW130092   5.212   3.800   2.325
 9731SOL    HW230093   5.109   3.769   2.202
 9732SOL     OW30094   1.197   3.039   2.233
 9732SOL    HW130095   1.271   3.096   2.270
 9732SOL    HW230096   1.196   3.047   2.134
 9733SOL     OW30097   6.462   5.313   2.733
 9733SOL    HW130098   6.553   5.282   2.706
 9733SOL    HW230099   6.468   5.406   2.770
 9734SOL     OW30100   5.895   6.700   5.490
 9734SOL    HW130101   5.898   6.655   5.580
 9734SOL    HW230102   5.800   6.719   5.465
 9735SOL     OW30103   1.727   2.383   2.159
 9735SOL    HW130104   1.697   2.290   2.176
 9735SOL    HW230105   1.794   2.384   2.085
 9736SOL     OW30106   4.836   2.288   5.225
 9736SOL    HW130107   4.798   2.302   5.134
 9736SOL    HW230108   4.934   2.272   5.218
 9737SOL     OW30109   5.903   2.056   2.656
 9737SOL    HW130110   5.839   2.118   2.702
 9737SOL    HW230111   5.996   2.087   2.673
 9738SOL     OW30112   1.557   5.957   2.498
 9738SOL    HW130113   1.509   5.891   2.557
 9738SOL    HW230114   1.495   6.033   2.476
 9739SOL     OW30115   5.825   0.067   0.091
 9739SOL    HW130116   5.815   6.993   0.094
 9739SOL    HW230117   5.878   0.093   0.011
 9740SOL     OW30118   0.156   1.136   1.931
 9740SOL    HW130119   0.244   1.164   1.893
 9740SOL    HW230120   0.152   1.036   1.934
 9741SOL     OW30121   3.024   1.311   4.769
 9741SOL    HW130122   3.060   1.298   4.862
 9741SOL    HW230123   2.933   1.271   4.763
 9742SOL     OW30124   3.789   2.521   5.802
 9742SOL    HW130125   3.759   2.461   5.876
 9742SOL    HW230126   3.871   2.482   5.760
 9743SOL     OW30127   6.127   3.434   4.117
 9743SOL    HW130128   6.074   3.363   4.070
 9743SOL    HW230129   6.214   3.395   4.148
 9744SOL     OW30130   2.008   0.248   3.858
 9744SOL    HW130131   1.952   0.308   3.801
 9744SOL    HW230132   1.973   0.249   3.952
 9745SOL     OW30133   6.524   0.598   5.529
 9745SOL    HW130134   6.584   0.599   5.450
 9745SOL    HW230135   6.495   0.504   5.548
 9746SOL     OW30136   4.357   5.198   6.116
 9746SOL    HW130137   4.264   5.183   6.150
 9746SOL    HW230138   4.420   5.133   6.161
 9747SOL     OW30139   2.401   2.812   3.071
 9747SOL    HW130140   2.473   2.742   3.074
 9747SOL    HW230141   2.386   2.849   3.162
 9748SOL     OW30142   1.110   0.618   3.322
 9748SOL    HW130143   1.096   0.609   3.223
 9748SOL    HW230144   1.022   0.637   3.366
 9749SOL     OW30145   6.492   1.468   1.982
 9749SOL    HW130146   6.517   1.371   1.988
 9749SOL    HW230147   6.542   1.512   1.908
 9750SOL     OW30148   6.521   4.635   3.884
 9750SOL    HW130149   6.523   4.607   3.788
 9750SOL    HW230150   6.532   4.555   3.943
 9751SOL     OW30151   2.440   1.022   1.875
 9751SOL    HW130152   2.443   1.034   1.775
 9751SOL    HW230153   2.379   1.091   1.914
 9752SOL     OW30154   3.788   3.249   0.030
 9752SOL    HW130155   3.756   3.178   6.993
 9752SOL    HW230156   3.877   3.283   7.026
 9753SOL     OW30157   6.542   5.807   4.821
 9753SOL    HW130158   6.542   5.800   4.721
 9753SOL    HW230159   6.595   5.887   4.848
 9754SOL     OW30160   3.805   1.022   1.534
 9754SOL    HW130161   3.762   1.092   1.477
 9754SOL    HW230162   3.899   1.049   1.555
 9755SOL     OW30163   3.464   4.293   6.438
 9755SOL    HW130164   3.411   4.237   6.374
 9755SOL    HW230165   3.420   4.290   6.528
 9756SOL     OW30166   5.949   0.940   6.385
 9756SOL    HW130167   5.851   0.941   6.366
 9756SOL    HW230168   5.997   0.996   6.318
 9757SOL     OW30169   4.899   3.870   4.041
 9757SOL    HW130170   4.987   3.856   3.996
 9757SOL    HW230171   4.895   3.963   4.078
 9758SOL     OW30172   1.667   0.443   0.789
 9758SOL    HW130173   1.612   0.503   0.847
 9758SOL    HW230174   1.700   0.494   0.710
 9759SOL     OW30175   1.038   1.221   0.379
 9759SOL    HW130176   1.085   1.148   0.329
 9759SOL    HW230177   1.054   1.308   0.333
 9760SOL     OW30178   4.649   2.270   0.309
 9760SOL    HW130179   4.582   2.197   0.325
 9760SOL    HW230180   4.723   2.262   0.375
 9761SOL     OW30181   1.542   1.932   1.567
 9761SOL    HW130182   1.498   2.016   1.537
 9761SOL    HW230183   1.630   1.953   1.609
 9762SOL     OW30184   2.432   1.577   5.678
 9762SOL    HW130185   2.447   1.531   5.590
 9762SOL    HW230186   2.347   1.630   5.674
 9763SOL     OW30187   6.269   1.722   0.881
 9763SOL    HW130188   6.347   1.739   0.942
 9763SOL    HW230189   6.282   1.634   0.834
 9764SOL     OW30190   5.439   1.872   2.251
 9764SOL    HW130191   5.393   1.941   2.195
 9764SOL    HW230192   5.377   1.795   2.266
 9765SOL     OW30193   6.566   1.087   1.311
 9765SOL    HW130194   6.515   1.146   1.374
 9765SOL    HW230195   6.664   1.103   1.322
 9766SOL     OW30196   2.110   1.121   4.586
 9766SOL    HW130197   2.095   1.056   4.511
 9766SOL    HW230198   2.153   1.074   4.663
 9767SOL     OW30199   2.197   3.410   5.677
 9767SOL    HW130200   2.201   3.310   5.675
 9767SOL    HW230201   2.102   3.440   5.687
 9768SOL     OW30202   6.305   2.397   0.681
 9768SOL    HW130203   6.374   2.418   0.751
 9768SOL    HW230204   6.214   2.423   0.715
 9769SOL     OW30205   2.822   1.991   4.927
 9769SOL    HW130206   2.883   2.068   4.909
 9769SOL    HW230207   2.784   1.999   5.019
 9770SOL     OW30208   3.087   2.528   6.617
 9770SOL    HW130209   3.078   2.429   6.610
 9770SOL    HW230210   3.061   2.571   6.530
 9771SOL     OW30211   2.924   6.278   3.098
 9771SOL    HW130212   2.937   6.183   3.127
 9771SOL    HW230213   3.011   6.327   3.103
 9772SOL     OW30214   1.082   6.452   1.557
 9772SOL    HW130215   1.009   6.438   1.624
 9772SOL    HW230216   1.144   6.374   1.558
 9773SOL     OW30217   4.739   5.590   1.854
 9773SOL    HW130218   4.831   5.587   1.893
 9773SOL    HW230219   4.683   5.518   1.895
 9774SOL     OW30220   0.565   5.566   4.641
 9774SOL    HW130221   0.541   5.520   4.727
 9774SOL    HW230222   0.660   5.545   4.618
 9775SOL     OW30223   2.304   0.661   4.042
 9775SOL    HW130224   2.227   0.633   3.985
 9775SOL    HW230225   2.386   0.669   3.985
 9776SOL     OW30226   1.590   6.037   6.547
 9776SOL    HW130227   1.606   6.005   6.453
 9776SOL    HW230228   1.499   6.011   6.576
 9777SOL     OW30229   4.984   0.403   6.125
 9777SOL    HW130230   4.935   0.458   6.192
 9777SOL    HW230231   5.071   0.372   6.164
 9778SOL     OW30232   0.331   2.577   4.179
 9778SOL    HW130233   0.386   2.559   4.098
 9778SOL    HW230234   0.377   2.644   4.237
 9779SOL     OW30235   1.463   1.536   3.893
 9779SOL    HW130236   1.559   1.507   3.893
 9779SOL    HW230237   1.443   1.586   3.808
 9780SOL     OW30238   2.197   2.288   1.191
 9780SOL    HW130239   2.287   2.298   1.233
 9780SOL    HW230240   2.161   2.197   1.212
 9781SOL     OW30241   1.783   3.144   3.994
 9781SOL    HW130242   1.726   3.214   4.037
 9781SOL    HW230243   1.878   3.155   4.024
 9782SOL     OW30244   0.176   2.171   1.367
 9782SOL    HW130245   0.259   2.153   1.421
 9782SOL    HW230246   0.175   2.266   1.338
 9783SOL     OW30247   3.440   1.443   3.097
 9783SOL    HW130248   3.383   1.399   3.166
 9783SOL    HW230249   3.476   1.529   3.134
 9784SOL     OW30250   1.831   1.534   0.543
 9784SOL    HW130251   1.877   1.522   0.455
 9784SOL    HW230252   1.810   1.444   0.581
 9785SOL     OW30253   7.000   2.126   4.484
 9785SOL    HW130254   7.026   2.030   4.495
 9785SOL    HW230255   7.007   2.151   4.388
 9786SOL     OW30256   2.371   4.866   1.402
 9786SOL    HW130257   2.310   4.854   1.324
 9786SOL    HW230258   2.428   4.785   1.413
 9787SOL     OW30259   3.392   2.902   2.981
 9787SOL    HW130260   3.349   2.913   3.070
 9787SOL    HW230261   3.432   2.989   2.952
 9788SOL     OW30262   6.768   6.298   1.408
 9788SOL    HW130263   6.775   6.389   1.368
 9788SOL    HW230264   6.675   6.283   1.440
 9789SOL     OW30265   3.591   0.323   6.671
 9789SOL    HW130266   3.522   0.253   6.653
 9789SOL    HW230267   3.647   0.295   6.749
 9790SOL     OW30268   7.026   4.429   4.743
 9790SOL    HW130269   0.097   4.453   4.754
 9790SOL    HW230270   6.977   4.506   4.700
 9791SOL     OW30271   0.949   6.227   0.999
 9791SOL    HW130272   0.944   6.201   1.095
 9791SOL    HW230273   1.042   6.211   0.965
 9792SOL     OW30274   4.074   5.657   1.244
 9792SOL    HW130275   4.057   5.660   1.145
 9792SOL    HW230276   4.019   5.727   1.289
 9793SOL     OW30277   4.654   1.453   2.412
 9793SOL    HW130278   4.574   1.439   2.471
 9793SOL    HW230279   4.624   1.458   2.316
 9794SOL     OW30280   4.753   4.519   5.068
 9794SOL    HW130281   4.837   4.474   5.098
 9794SOL    HW230282   4.692   4.451   5.027
 9795SOL     OW30283   1.049   3.732   3.374
 9795SOL    HW130284   1.008   3.778   3.452
 9795SOL    HW230285   1.149   3.744   3.376
 9796SOL     OW30286   3.247   3.693   3.564
 9796SOL    HW130287   3.313   3.655   3.629
 9796SOL    HW230288   3.156   3.691   3.604
 9797SOL     OW30289   2.865   6.516   6.613
 9797SOL    HW130290   2.780   6.561   6.640
 9797SOL    HW230291   2.872   6.514   6.513
 9798SOL     OW30292   1.312   3.296   0.372
 9798SOL    HW130293   1.408   3.265   0.371
 9798SOL    HW230294   1.260   3.237   0.434
 9799SOL     OW30295   2.876   6.871   6.228
 9799SOL    HW130296   2.964   6.875   6.181
 9799SOL    HW230297   2.887   6.911   6.320
 9800SOL     OW30298   6.098   3.400   4.704
 9800SOL    HW130299   6.007   3.440   4.692
 9800SOL    HW230300   6.161   3.469   4.737
 9801SOL     OW30301   5.871   5.419   6.148
 9801SOL    HW130302   5.938   5.347   6.170
 9801SOL    HW230303   5.783   5.396   6.189
 9802SOL     OW30304   4.530   4.954   1.229
 9802SOL    HW130305   4.574   5.042   1.212
 9802SOL    HW230306   4.591   4.880   1.199
 9803SOL     OW30307   0.819   4.106   6.290
 9803SOL    HW130308   0.726   4.140   6.279
 9803SOL    HW230309   0.835   4.082   6.386
 9804SOL     OW30310   6.484   5.831   2.552
 9804SOL    HW130311   6.569   5.788   2.523
 9804SOL    HW230312   6.485   5.843   2.652
 9805SOL     OW30313   0.387   6.775   3.848
 9805SOL    HW130314   0.315   6.710   3.872
 9805SOL    HW230315   0.361   6.866   3.879
 9806SOL     OW30316   3.089   2.397   6.314
 9806SOL    HW130317   3.150   2.409   6.236
 9806SOL    HW230318   3.064   2.487   6.351
 9807SOL     OW30319   2.938   3.599   1.817
 9807SOL    HW130320   2.943   3.501   1.839
 9807SOL    HW230321   2.849   3.618   1.774
 9808SOL     OW30322   4.662   6.660   3.492
 9808SOL    HW130323   4.648   6.727   3.419
 9808SOL    HW230324   4.638   6.701   3.580
 9809SOL     OW30325   0.127   2.709   0.778
 9809SOL    HW130326   0.037   2.667   0.785
 9809SOL    HW230327   0.196   2.646   0.815
 9810SOL     OW30328   2.029   1.610   6.527
 9810SOL    HW130329   2.087   1.649   6.456
 9810SOL    HW230330   2.059   1.642   6.617
 9811SOL     OW30331   6.281   4.038   3.975
 9811SOL    HW130332   6.227   4.051   3.891
 9811SOL    HW230333   6.281   4.123   4.027
 9812SOL     OW30334   2.373   6.562   4.702
 9812SOL    HW130335   2.471   6.565   4.721
 9812SOL    HW230336   2.358   6.534   4.607
 9813SOL     OW30337   4.975   2.185   1.105
 9813SOL    HW130338   5.040   2.258   1.129
 9813SOL    HW230339   4.882   2.221   1.111
 9814SOL     OW30340   5.903   1.771   0.219
 9814SOL    HW130341   5.831   1.769   0.150
 9814SOL    HW230342   5.914   1.680   0.258
 9815SOL     OW30343   4.560   2.482   4.389
 9815SOL    HW130344   4.533   2.456   4.482
 9815SOL    HW230345   4.566   2.400   4.332
 9816SOL     OW30346   1.400   0.637   0.754
 9816SOL    HW130347   1.396   0.694   0.672
 9816SOL    HW230348   1.344   0.555   0.741
 9817SOL     OW30349   0.531   0.034   3.518
 9817SOL    HW130350   0.614   0.064   3.566
 9817SOL    HW230351   0.450   0.064   3.569
 9818SOL     OW30352   6.298   2.259   4.764
 9818SOL    HW130353   6.382   2.289   4.808
 9818SOL    HW230354   6.251   2.339   4.726
 9819SOL     OW30355   3.760   1.833   3.597
 9819SOL    HW130356   3.822   1.856   3.671
 9819SOL    HW230357   3.810   1.787   3.524
 9820SOL     OW30358   3.831   4.273   6.075
 9820SOL    HW130359   3.894   4.212   6.123
 9820SOL    HW230360   3.876   4.311   5.994
 9821SOL     OW30361   5.043   5.879   6.892
 9821SOL    HW130362   5.128   5.904   6.845
 9821SOL    HW230363   5.034   5.780   6.892
 9822SOL     OW30364   0.707   6.955   2.605
 9822SOL    HW130365   0.746   0.003   2.550
 9822SOL    HW230366   0.774   6.926   2.674
 9823SOL     OW30367   3.340   1.099   2.451
 9823SOL    HW130368   3.368   1.123   2.544
 9823SOL    HW230369   3.272   1.026   2.455
 9824SOL     OW30370   1.253   4.254   5.178
 9824SOL    HW130371   1.212   4.333   5.132
 9824SOL    HW230372   1.196   4.228   5.256
 9825SOL     OW30373   3.733   5.005   5.739
 9825SOL    HW130374   3.654   5.035   5.793
 9825SOL    HW230375   3.726   5.042   5.646
 9826SOL     OW30376   4.533   6.619   6.106
 9826SOL    HW130377   4.479   6.632   6.023
 9826SOL    HW230378   4.494   6.675   6.180
 9827SOL     OW30379   1.768   4.244   5.001
 9827SOL    HW130380   1.845   4.308   4.991
 9827SOL    HW230381   1.735   4.246   5.095
 9828SOL     OW30382   4.097   2.264   0.070
 9828SOL    HW130383   4.174   2.204   0.093
 9828SOL    HW230384   4.131   2.340   0.015
 9829SOL     OW30385   3.039   6.317   0.329
 9829SOL    HW130386   3.130   6.358   0.340
 9829SOL    HW230387   2.971   6.374   0.374
 9830SOL     OW30388   5.378   1.274   0.699
 9830SOL    HW130389   5.336   1.283   0.609
 9830SOL    HW230390   5.473   1.245   0.690
 9831SOL     OW30391   1.157   6.205   1.470
 9831SOL    HW130392   1.237   6.213   1.412
 9831SOL    HW230393   1.159   6.117   1.518
 9832SOL     OW30394   4.533   5.431   2.001
 9832SOL    HW130395   4.573   5.431   2.092
 9832SOL    HW230396   4.474   5.511   1.990
 9833SOL     OW30397   3.624   3.889   4.995
 9833SOL    HW130398   3.547   3.949   4.974
 9833SOL    HW230399   3.592   3.794   4.997
 9834SOL     OW30400   2.301   4.159   5.660
 9834SOL    HW130401   2.257   4.076   5.624
 9834SOL    HW230402   2.358   4.201   5.589
 9835SOL     OW30403   4.987   1.687   4.532
 9835SOL    HW130404   5.008   1.679   4.435
 9835SOL    HW230405   5.034   1.614   4.582
 9836SOL     OW30406   5.741   3.644   3.198
 9836SOL    HW130407   5.652   3.600   3.191
 9836SOL    HW230408   5.730   3.743   3.199
 9837SOL     OW30409   2.201   0.079   4.214
 9837SOL    HW130410   2.104   0.101   4.221
 9837SOL    HW230411   2.237   0.058   4.306
 9838SOL     OW30412   0.998   6.437   5.926
 9838SOL    HW130413   1.008   6.342   5.954
 9838SOL    HW230414   1.082   6.468   5.880
 9839SOL     OW30415   6.673   1.591   1.812
 9839SOL    HW130416   6.731   1.617   1.889
 9839SOL    HW230417   6.687   1.655   1.737
 9840SOL     OW30418   0.118   0.708   0.909
 9840SOL    HW130419   0.144   0.697   0.813
 9840SOL    HW230420   0.026   0.749   0.913
 9841SOL     OW30421   1.311   3.711   4.717
 9841SOL    HW130422   1.348   3.780   4.655
 9841SOL    HW230423   1.386   3.664   4.763
 9842SOL     OW30424   3.485   3.161   3.280
 9842SOL    HW130425   3.505   3.247   3.327
 9842SOL    HW230426   3.547   3.152   3.201
 9843SOL     OW30427   6.324   1.997   1.132
 9843SOL    HW130428   6.317   2.013   1.033
 9843SOL    HW230429   6.242   2.034   1.177
 9844SOL     OW30430   4.310   6.723   2.832
 9844SOL    HW130431   4.237   6.759   2.890
 9844SOL    HW230432   4.270   6.681   2.750
 9845SOL     OW30433   2.658   1.864   4.743
 9845SOL    HW130434   2.700   1.913   4.820
 9845SOL    HW230435   2.704   1.776   4.730
 9846SOL     OW30436   3.127   4.006   3.203
 9846SOL    HW130437   3.075   4.019   3.119
 9846SOL    HW230438   3.065   3.995   3.280
 9847SOL     OW30439   2.904   3.197   6.369
 9847SOL    HW130440   2.846   3.272   6.401
 9847SOL    HW230441   2.864   3.109   6.396
 9848SOL     OW30442   4.613   2.677   6.501
 9848SOL    HW130443   4.590   2.643   6.410
 9848SOL    HW230444   4.666   2.608   6.550
 9849SOL     OW30445   6.351   0.704   6.896
 9849SOL    HW130446   6.355   0.740   6.989
 9849SOL    HW230447   6.309   0.772   6.835
 9850SOL     OW30448   4.158   6.155   2.772
 9850SOL    HW130449   4.194   6.079   2.717
 9850SOL    HW230450   4.085   6.201   2.722
 9851SOL     OW30451   4.491   1.951   5.287
 9851SOL    HW130452   4.556   2.006   5.341
 9851SOL    HW230453   4.494   1.857   5.319
 9852SOL     OW30454   4.544   1.932   3.588
 9852SOL    HW130455   4.601   1.851   3.605
 9852SOL    HW230456   4.450   1.903   3.572
 9853SOL     OW30457   5.389   4.151   2.196
 9853SOL    HW130458   5.326   4.193   2.131
 9853SOL    HW230459   5.336   4.101   2.265
 9854SOL     OW30460   5.909   5.301   4.961
 9854SOL    HW130461   6.003   5.334   4.946
 9854SOL    HW230462   5.897   5.213   4.916
 9855SOL     OW30463   0.920   4.518   1.440
 9855SOL    HW130464   0.827   4.493   1.413
 9855SOL    HW230465   0.927   4.518   1.540
 9856SOL     OW30466   3.937   4.169   0.711
 9856SOL    HW130467   3.840   4.147   0.697
 9856SOL    HW230468   3.990   4.132   0.635
 9857SOL     OW30469   5.253   1.820   2.735
 9857SOL    HW130470   5.241   1.740   2.794
 9857SOL    HW230471   5.345   1.858   2.749
 9858SOL     OW30472   5.124   0.708   1.903
 9858SOL    HW130473   5.122   0.705   2.003
 9858SOL    HW230474   5.032   0.729   1.869
 9859SOL     OW30475   6.211   0.359   1.306
 9859SOL    HW130476   6.164   0.274   1.327
 9859SOL    HW230477   6.149   0.421   1.258
 9860SOL     OW30478   0.183   0.945   1.607
 9860SOL    HW130479   0.225   0.899   1.529
 9860SOL    HW230480   0.164   0.878   1.679
 9861SOL     OW30481   3.344   6.221   4.596
 9861SOL    HW130482   3.385   6.277   4.524
 9861SOL    HW230483   3.249   6.249   4.610
 9862SOL     OW30484   2.515   3.392   1.139
 9862SOL    HW130485   2.433   3.422   1.090
 9862SOL    HW230486   2.492   3.375   1.235
 9863SOL     OW30487   3.134   6.877   2.878
 9863SOL    HW130488   3.084   6.849   2.796
 9863SOL    HW230489   3.137   6.977   2.883
 9864SOL     OW30490   4.395   5.564   3.679
 9864SOL    HW130491   4.346   5.626   3.618
 9864SOL    HW230492   4.469   5.520   3.629
 9865SOL     OW30493   0.535   0.533   3.437
 9865SOL    HW130494   0.554   0.435   3.428
 9865SOL    HW230495   0.467   0.560   3.369
 9866SOL     OW30496   5.035   4.346   4.547
 9866SOL    HW130497   5.043   4.272   4.614
 9866SOL    HW230498   5.052   4.434   4.593
 9867SOL     OW30499   4.002   0.795   0.427
 9867SOL    HW130500   3.956   0.717   0.385
 9867SOL    HW230501   4.100   0.790   0.408
 9868SOL     OW30502   0.776   4.427   7.014
 9868SOL    HW130503   0.874   4.413   6.997
 9868SOL    HW230504   0.724   4.400   6.933
 9869SOL     OW30505   1.772   4.027   3.495
 9869SOL    HW130506   1.836   4.052   3.423
 9869SOL    HW230507   1.811   3.956   3.552
 9870SOL     OW30508   4.768   5.749   2.540
 9870SOL    HW130509   4.842   5.681   2.545
 9870SOL    HW230510   4.805   5.835   2.505
 9871SOL     OW30511   1.544   0.145   5.998
 9871SOL    HW130512   1.624   0.160   6.056
 9871SOL    HW230513   1.506   0.233   5.970
 9872SOL     OW30514   2.503   5.269   3.042
 9872SOL    HW130515   2.535   5.329   2.969
 9872SOL    HW230516   2.481   5.179   3.005
 9873SOL     OW30517   2.355   2.976   0.891
 9873SOL    HW130518   2.389   3.056   0.940
 9873SOL    HW230519   2.295   3.005   0.817
 9874SOL     OW30520   0.817   2.172   4.084
 9874SOL    HW130521   0.754   2.233   4.037
 9874SOL    HW230522   0.779   2.080   4.088
 9875SOL     OW30523   0.947   0.652   1.888
 9875SOL    HW130524   1.031   0.616   1.927
 9875SOL    HW230525   0.876   0.655   1.958
 9876SOL     OW30526   6.970   0.782   2.299
 9876SOL    HW130527   6.882   0.737   2.314
 9876SOL    HW230528   6.961   0.848   2.224
 9877SOL     OW30529   2.460   6.444   2.879
 9877SOL    HW130530   2.558   6.426   2.885
 9877SOL    HW230531   2.443   6.508   2.804
 9878SOL     OW30532   2.161   5.804   6.156
 9878SOL    HW130533   2.099   5.744   6.208
 9878SOL    HW230534   2.166   5.771   6.061
 9879SOL     OW30535   5.231   5.276   4.342
 9879SOL    HW130536   5.253   5.257   4.438
 9879SOL    HW230537   5.231   5.374   4.327
 9880SOL     OW30538   1.773   2.969   5.244
 9880SOL    HW130539   1.761   3.056   5.196
 9880SOL    HW230540   1.865   2.934   5.228
 9881SOL     OW30541   1.435   2.579   5.077
 9881SOL    HW130542   1.500   2.650   5.103
 9881SOL    HW230543   1.410   2.525   5.157
 9882SOL     OW30544   1.195   2.098   3.731
 9882SOL    HW130545   1.269   2.154   3.694
 9882SOL    HW230546   1.122   2.158   3.765
 9883SOL     OW30547   0.877   5.944   0.981
 9883SOL    HW130548   0.882   6.036   1.020
 9883SOL    HW230549   0.969   5.912   0.960
 9884SOL     OW30550   4.156   1.590   3.343
 9884SOL    HW130551   4.227   1.648   3.303
 9884SOL    HW230552   4.173   1.581   3.441
 9885SOL     OW30553   7.003   3.975   5.424
 9885SOL    HW130554   0.054   3.987   5.488
 9885SOL    HW230555   6.917   3.978   5.475
 9886SOL     OW30556   0.710   5.210   2.721
 9886SOL    HW130557   0.612   5.197   2.731
 9886SOL    HW230558   0.728   5.297   2.676
 9887SOL     OW30559   3.927   1.359   6.521
 9887SOL    HW130560   3.988   1.438   6.530
 9887SOL    HW230561   3.841   1.378   6.567
 9888SOL     OW30562   0.262   4.442   0.859
 9888SOL    HW130563   0.344   4.456   0.915
 9888SOL    HW230564   0.232   4.347   0.866
 9889SOL     OW30565   6.609   4.982   0.839
 9889SOL    HW130566   6.556   5.062   0.808
 9889SOL    HW230567   6.664   4.948   0.763
 9890SOL     OW30568   1.992   2.146   0.370
 9890SOL    HW130569   1.977   2.178   0.277
 9890SOL    HW230570   2.085   2.110   0.379
 9891SOL     OW30571   6.385   2.744   0.268
 9891SOL    HW130572   6.480   2.742   0.301
 9891SOL    HW230573   6.334   2.814   0.317
 9892SOL     OW30574   6.566   5.827   0.063
 9892SOL    HW130575   6.599   5.901   0.122
 9892SOL    HW230576   6.488   5.860   0.009
 9893SOL     OW30577   1.687   0.231   0.955
 9893SOL    HW130578   1.691   0.313   0.899
 9893SOL    HW230579   1.780   0.203   0.980
 9894SOL     OW30580   2.326   2.420   1.554
 9894SOL    HW130581   2.227   2.417   1.561
 9894SOL    HW230582   2.354   2.393   1.461
 9895SOL     OW30583   5.261   3.358   5.117
 9895SOL    HW130584   5.356   3.353   5.085
 9895SOL    HW230585   5.237   3.454   5.134
 9896SOL     OW30586   6.148   6.996   6.459
 9896SOL    HW130587   6.217   6.932   6.426
 9896SOL    HW230588   6.192   0.039   6.518
 9897SOL     OW30589   5.402   5.706   2.887
 9897SOL    HW130590   5.401   5.779   2.956
 9897SOL    HW230591   5.457   5.629   2.921
 9898SOL     OW30592   2.270   6.219   6.581
 9898SOL    HW130593   2.343   6.261   6.527
 9898SOL    HW230594   2.182   6.239   6.538
 9899SOL     OW30595   6.803   5.680   0.397
 9899SOL    HW130596   6.838   5.764   0.355
 9899SOL    HW230597   6.788   5.696   0.495
 9900SOL     OW30598   1.597   3.733   3.630
 9900SOL    HW130599   1.696   3.745   3.619
 9900SOL    HW230600   1.577   3.706   3.725
 9901SOL     OW30601   2.995   1.967   5.902
 9901SOL    HW130602   2.907   1.921   5.893
 9901SOL    HW230603   3.055   1.912   5.960
 9902SOL     OW30604   2.668   5.090   0.214
 9902SOL    HW130605   2.642   5.147   0.136
 9902SOL    HW230606   2.739   5.025   0.186
 9903SOL     OW30607   5.146   1.435   2.079
 9903SOL    HW130608   5.106   1.452   1.988
 9903SOL    HW230609   5.224   1.373   2.069
 9904SOL     OW30610   1.405   2.985   6.768
 9904SOL    HW130611   1.501   3.006   6.787
 9904SOL    HW230612   1.397   2.951   6.674
 9905SOL     OW30613   3.482   0.556   6.723
 9905SOL    HW130614   3.517   0.468   6.692
 9905SOL    HW230615   3.549   0.600   6.782
 9906SOL     OW30616   3.478   2.993   1.860
 9906SOL    HW130617   3.501   3.090   1.863
 9906SOL    HW230618   3.395   2.976   1.913
 9907SOL     OW30619   6.604   1.067   0.507
 9907SOL    HW130620   6.544   0.989   0.491
 9907SOL    HW230621   6.591   1.101   0.600
 9908SOL     OW30622   5.310   1.505   3.413
 9908SOL    HW130623   5.363   1.437   3.464
 9908SOL    HW230624   5.332   1.597   3.446
 9909SOL     OW30625   3.796   0.026   4.120
 9909SOL    HW130626   3.825   0.116   4.152
 9909SOL    HW230627   3.721   0.037   4.054
 9910SOL     OW30628   0.713   3.568   1.889
 9910SOL    HW130629   0.755   3.608   1.808
 9910SOL    HW230630   0.672   3.641   1.944
 9911SOL     OW30631   3.270   6.746   2.247
 9911SOL    HW130632   3.292   6.841   2.224
 9911SOL    HW230633   3.354   6.693   2.251
 9912SOL     OW30634   3.731   1.645   1.594
 9912SOL    HW130635   3.672   1.668   1.671
 9912SOL    HW230636   3.827   1.654   1.622
 9913SOL     OW30637   6.417   4.150   0.369
 9913SOL    HW130638   6.330   4.127   0.412
 9913SOL    HW230639   6.402   4.220   0.300
 9914SOL     OW30640   6.472   3.101   4.634
 9914SOL    HW130641   6.564   3.103   4.671
 9914SOL    HW230642   6.408   3.138   4.702
 9915SOL     OW30643   4.495   0.388   3.411
 9915SOL    HW130644   4.453   0.478   3.409
 9915SOL    HW230645   4.588   0.393   3.373
 9916SOL     OW30646   2.140   3.164   3.395
 9916SOL    HW130647   2.041   3.156   3.407
 9916SOL    HW230648   2.187   3.119   3.471
 9917SOL     OW30649   5.974   3.283   6.884
 9917SOL    HW130650   5.922   3.356   6.928
 9917SOL    HW230651   6.060   3.269   6.933
 9918SOL     OW30652   3.259   1.284   2.890
 9918SOL    HW130653   3.166   1.254   2.913
 9918SOL    HW230654   3.279   1.370   2.936
 9919SOL     OW30655   5.338   5.604   1.163
 9919SOL    HW130656   5.291   5.642   1.083
 9919SOL    HW230657   5.367   5.679   1.222
 9920SOL     OW30658   4.467   1.675   1.796
 9920SOL    HW130659   4.520   1.748   1.752
 9920SOL    HW230660   4.372   1.705   1.807
 9921SOL     OW30661   4.386   5.737   6.072
 9921SOL    HW130662   4.422   5.771   6.159
 9921SOL    HW230663   4.462   5.703   6.017
 9922SOL     OW30664   1.493   5.051   0.144
 9922SOL    HW130665   1.478   4.960   0.105
 9922SOL    HW230666   1.423   5.070   0.213
 9923SOL     OW30667   5.097   4.603   6.260
 9923SOL    HW130668   5.112   4.572   6.354
 9923SOL    HW230669   5.006   4.575   6.229
 9924SOL     OW30670   6.962   2.172   4.806
 9924SOL    HW130671   7.015   2.189   4.723
 9924SOL    HW230672   7.017   2.198   4.886
 9925SOL     OW30673   6.846   4.122   4.251
 9925SOL    HW130674   6.864   4.177   4.333
 9925SOL    HW230675   6.923   4.061   4.234
 9926SOL     OW30676   2.697   3.165   0.699
 9926SOL    HW130677   2.656   3.199   0.614
 9926SOL    HW230678   2.673   3.226   0.774
 9927SOL     OW30679   6.764   6.791   1.302
 9927SOL    HW130680   6.734   6.881   1.271
 9927SOL    HW230681   6.848   6.800   1.356
 9928SOL     OW30682   4.688   5.863   1.782
 9928SOL    HW130683   4.629   5.897   1.855
 9928SOL    HW230684   4.666   5.768   1.762
 9929SOL     OW30685   2.045   5.478   5.738
 9929SOL    HW130686   2.123   5.436   5.784
 9929SOL    HW230687   1.989   5.527   5.804
 9930SOL     OW30688   6.049   0.324   5.057
 9930SOL    HW130689   6.096   0.389   5.117
 9930SOL    HW230690   6.110   0.247   5.037
 9931SOL     OW30691   1.292   4.506   4.751
 9931SOL    HW130692   1.278   4.461   4.664
 9931SOL    HW230693   1.210   4.496   4.808
 9932SOL     OW30694   2.182   5.385   0.027
 9932SOL    HW130695   2.205   5.293   0.059
 9932SOL    HW230696   2.118   5.428   0.091
 9933SOL     OW30697   1.531   4.812   2.989
 9933SOL    HW130698   1.559   4.814   2.893
 9933SOL    HW230699   1.585   4.743   3.038
 9934SOL     OW30700   6.216   1.525   5.498
 9934SOL    HW130701   6.153   1.451   5.522
 9934SOL    HW230702   6.166   1.596   5.448
 9935SOL     OW30703   3.238   0.505   0.363
 9935SOL    HW130704   3.157   0.462   0.401
 9935SOL    HW230705   3.268   0.579   0.422
 9936SOL     OW30706   6.607   5.195   5.322
 9936SOL    HW130707   6.639   5.113   5.371
 9936SOL    HW230708   6.645   5.195   5.230
 9937SOL     OW30709   6.633   2.221   5.765
 9937SOL    HW130710   6.585   2.281   5.829
 9937SOL    HW230711   6.728   2.211   5.794
 9938SOL     OW30712   6.670   5.639   3.530
 9938SOL    HW130713   6.615   5.568   3.484
 9938SOL    HW230714   6.632   5.729   3.510
 9939SOL     OW30715   3.488   2.296   0.422
 9939SOL    HW130716   3.390   2.276   0.417
 9939SOL    HW230717   3.529   2.278   0.333
 9940SOL     OW30718   0.699   0.779   1.131
 9940SOL    HW130719   0.702   0.827   1.219
 9940SOL    HW230720   0.717   0.844   1.057
 9941SOL     OW30721   3.272   3.867   5.201
 9941SOL    HW130722   3.194   3.831   5.149
 9941SOL    HW230723   3.330   3.920   5.140
 9942SOL     OW30724   1.841   5.163   2.580
 9942SOL    HW130725   1.838   5.229   2.655
 9942SOL    HW230726   1.925   5.110   2.586
 9943SOL     OW30727   0.152   5.866   5.310
 9943SOL    HW130728   0.204   5.782   5.325
 9943SOL    HW230729   0.143   5.916   5.397
 9944SOL     OW30730   2.143   4.436   6.638
 9944SOL    HW130731   2.151   4.509   6.706
 9944SOL    HW230732   2.223   4.376   6.644
 9945SOL     OW30733   6.333   5.537   0.103
 9945SOL    HW130734   6.291   5.450   0.078
 9945SOL    HW230735   6.414   5.519   0.159
 9946SOL     OW30736   5.166   1.226   4.538
 9946SOL    HW130737   5.073   1.201   4.564
 9946SOL    HW230738   5.231   1.187   4.604
 9947SOL     OW30739   0.944   3.716   6.050
 9947SOL    HW130740   0.890   3.643   6.009
 9947SOL    HW230741   1.035   3.718   6.009
 9948SOL     OW30742   4.758   4.453   4.073
 9948SOL    HW130743   4.736   4.431   4.168
 9948SOL    HW230744   4.854   4.433   4.055
 9949SOL     OW30745   5.078   5.021   3.075
 9949SOL    HW130746   5.113   4.928   3.086
 9949SOL    HW230747   5.072   5.043   2.978
 9950SOL     OW30748   6.106   6.045   5.317
 9950SOL    HW130749   6.103   6.133   5.271
 9950SOL    HW230750   6.200   6.022   5.339
 9951SOL     OW30751   6.265   1.792   3.968
 9951SOL    HW130752   6.233   1.697   3.966
 9951SOL    HW230753   6.273   1.823   4.062
 9952SOL     OW30754   6.693   3.739   1.037
 9952SOL    HW130755   6.743   3.656   1.062
 9952SOL    HW230756   6.615   3.715   0.979
 9953SOL     OW30757   6.305   2.717   3.866
 9953SOL    HW130758   6.207   2.738   3.873
 9953SOL    HW230759   6.342   2.702   3.958
 9954SOL     OW30760   5.828   6.488   5.720
 9954SOL    HW130761   5.805   6.410   5.662
 9954SOL    HW230762   5.882   6.457   5.798
 9955SOL     OW30763   6.402   3.774   4.643
 9955SOL    HW130764   6.368   3.743   4.555
 9955SOL    HW230765   6.470   3.846   4.629
 9956SOL     OW30766   2.436   6.955   1.868
 9956SOL    HW130767   2.445   6.856   1.861
 9956SOL    HW230768   2.500   6.990   1.937
 9957SOL     OW30769   5.532   5.398   2.641
 9957SOL    HW130770   5.591   5.349   2.577
 9957SOL    HW230771   5.437   5.391   2.610
 9958SOL     OW30772   2.977   5.260   0.510
 9958SOL    HW130773   3.043   5.190   0.538
 9958SOL    HW230774   3.015   5.351   0.527
 9959SOL     OW30775   4.175   3.747   5.860
 9959SOL    HW130776   4.262   3.773   5.903
 9959SOL    HW230777   4.190   3.727   5.764
 9960SOL     OW30778   6.963   0.049   1.749
 9960SOL    HW130779   6.889   0.117   1.743
 9960SOL    HW230780   6.989   0.038   1.845
 9961SOL     OW30781   1.817   6.585   4.510
 9961SOL    HW130782   1.837   6.501   4.561
 9961SOL    HW230783   1.749   6.639   4.559
 9962SOL     OW30784   6.653   6.810   3.369
 9962SOL    HW130785   6.571   6.772   3.411
 9962SOL    HW230786   6.706   6.860   3.438
 9963SOL     OW30787   2.814   2.976   6.760
 9963SOL    HW130788   2.760   2.982   6.676
 9963SOL    HW230789   2.877   3.053   6.765
 9964SOL     OW30790   4.342   5.332   4.372
 9964SOL    HW130791   4.333   5.257   4.306
 9964SOL    HW230792   4.393   5.300   4.452
 9965SOL     OW30793   4.356   6.389   6.592
 9965SOL    HW130794   4.387   6.298   6.562
 9965SOL    HW230795   4.330   6.385   6.689
 9966SOL     OW30796   1.215   4.996   1.819
 9966SOL    HW130797   1.259   4.917   1.775
 9966SOL    HW230798   1.197   5.066   1.750
 9967SOL     OW30799   0.083   5.351   2.702
 9967SOL    HW130800   0.135   5.330   2.785
 9967SOL    HW230801   7.016   5.379   2.726
 9968SOL     OW30802   3.407   3.824   1.919
 9968SOL    HW130803   3.319   3.797   1.880
 9968SOL    HW230804   3.465   3.743   1.929
 9969SOL     OW30805   1.967   3.814   2.620
 9969SOL    HW130806   1.867   3.825   2.628
 9969SOL    HW230807   1.987   3.725   2.579
 9970SOL     OW30808   5.491   4.226   1.734
 9970SOL    HW130809   5.484   4.202   1.637
 9970SOL    HW230810   5.435   4.306   1.753
 9971SOL     OW30811   1.673   5.019   0.880
 9971SOL    HW130812   1.705   4.925   0.893
 9971SOL    HW230813   1.607   5.042   0.952
 9972SOL     OW30814   6.084   4.636   1.588
 9972SOL    HW130815   6.115   4.560   1.644
 9972SOL    HW230816   6.078   4.718   1.644
 9973SOL     OW30817   5.869   2.156   3.692
 9973SOL    HW130818   5.867   2.089   3.618
 9973SOL    HW230819   5.926   2.122   3.766
 9974SOL     OW30820   0.829   1.864   2.682
 9974SOL    HW130821   0.801   1.931   2.614
 9974SOL    HW230822   0.776   1.878   2.766
 9975SOL     OW30823   6.640   2.916   0.273
 9975SOL    HW130824   6.688   2.836   0.307
 9975SOL    HW230825   6.566   2.940   0.336
 9976SOL     OW30826   1.439   6.008   5.343
 9976SOL    HW130827   1.349   6.048   5.358
 9976SOL    HW230828   1.467   6.021   5.248
 9977SOL     OW30829   5.746   5.571   5.677
 9977SOL    HW130830   5.803   5.526   5.745
 9977SOL    HW230831   5.801   5.590   5.595
 9978SOL     OW30832   0.791   2.703   5.134
 9978SOL    HW130833   0.768   2.690   5.038
 9978SOL    HW230834   0.744   2.634   5.189
 9979SOL     OW30835   6.149   4.559   5.078
 9979SOL    HW130836   6.069   4.581   5.023
 9979SOL    HW230837   6.129   4.481   5.137
 9980SOL     OW30838   2.747   0.005   0.207
 9980SOL    HW130839   2.754   0.080   0.141
 9980SOL    HW230840   2.794   6.951   0.171
 9981SOL     OW30841   2.633   1.541   3.025
 9981SOL    HW130842   2.639   1.546   2.926
 9981SOL    HW230843   2.541   1.565   3.055
 9982SOL     OW30844   6.440   5.451   3.478
 9982SOL    HW130845   6.448   5.370   3.536
 9982SOL    HW230846   6.495   5.438   3.395
 9983SOL     OW30847   6.919   1.633   2.842
 9983SOL    HW130848   6.914   1.677   2.753
 9983SOL    HW230849   6.829   1.595   2.865
 9984SOL     OW30850   2.439   2.338   6.948
 9984SOL    HW130851   2.513   2.371   7.006
 9984SOL    HW230852   2.477   2.302   6.862
 9985SOL     OW30853   2.202   0.601   1.615
 9985SOL    HW130854   2.193   0.523   1.677
 9985SOL    HW230855   2.119   0.611   1.560
 9986SOL     OW30856   5.837   4.542   5.491
 9986SOL    HW130857   5.744   4.577   5.506
 9986SOL    HW230858   5.879   4.592   5.415
 9987SOL     OW30859   5.891   3.177   5.996
 9987SOL    HW130860   5.877   3.119   6.077
 9987SOL    HW230861   5.844   3.137   5.918
 9988SOL     OW30862   6.986   0.058   5.071
 9988SOL    HW130863   0.024   7.011   5.100
 9988SOL    HW230864   7.025   0.147   5.095
 9989SOL     OW30865   6.957   3.366   3.759
 9989SOL    HW130866   6.862   3.364   3.791
 9989SOL    HW230867   6.985   3.273   3.735
 9990SOL     OW30868   1.672   5.242   3.561
 9990SOL    HW130869   1.694   5.298   3.641
 9990SOL    HW230870   1.722   5.155   3.568
 9991SOL     OW30871   2.974   2.232   4.829
 9991SOL    HW130872   3.045   2.240   4.898
 9991SOL    HW230873   3.017   2.222   4.739
 9992SOL     OW30874   6.052   4.985   6.560
 9992SOL    HW130875   6.127   4.957   6.498
 9992SOL    HW230876   6.040   5.084   6.554
 9993SOL     OW30877   2.625   1.228   1.349
 9993SOL    HW130878   2.653   1.297   1.283
 9993SOL    HW230879   2.697   1.214   1.416
 9994SOL     OW30880   6.049   4.531   3.190
 9994SOL    HW130881   6.124   4.467   3.208
 9994SOL    HW230882   6.084   4.608   3.136
 9995SOL     OW30883   4.692   1.738   3.882
 9995SOL    HW130884   4.758   1.666   3.903
 9995SOL    HW230885   4.655   1.723   3.790
 9996SOL     OW30886   2.616   4.095   0.064
 9996SOL    HW130887   2.553   4.116   0.140
 9996SOL    HW230888   2.652   4.180   0.026
 9997SOL     OW30889   3.163   1.877   6.100
 9997SOL    HW130890   3.125   1.807   6.161
 9997SOL    HW230891   3.238   1.924   6.147
 9998SOL     OW30892   6.221   5.497   4.898
 9998SOL    HW130893   6.191   5.578   4.849
 9998SOL    HW230894   6.228   5.420   4.834
 9999SOL     OW30895   6.078   2.663   5.687
 9999SOL    HW130896   6.147   2.709   5.743
 9999SOL    HW230897   6.079   2.701   5.594
10000SOL     OW30898   0.052   2.754   0.236
10000SOL    HW130899   0.086   2.670   0.278
10000SOL    HW230900   0.096   2.833   0.278
10001SOL     OW30901   4.542   1.068   2.431
10001SOL    HW130902   4.494   1.035   2.349
10001SOL    HW230903   4.503   1.155   2.461
10002SOL     OW30904   1.234   6.265   2.222
10002SOL    HW130905   1.300   6.214   2.277
10002SOL    HW230906   1.208   6.211   2.142
10003SOL     OW30907   3.354   2.158   3.811
10003SOL    HW130908   3.410   2.141   3.730
10003SOL    HW230909   3.355   2.256   3.831
10004SOL     OW30910   6.659   2.227   3.372
10004SOL    HW130911   6.743   2.200   3.419
10004SOL    HW230912   6.625   2.312   3.411
10005SOL     OW30913   5.292   0.512   2.974
10005SOL    HW130914   5.277   0.508   3.073
10005SOL    HW230915   5.203   0.513   2.927
10006SOL     OW30916   3.861   0.221   4.294
10006SOL    HW130917   3.826   0.255   4.381
10006SOL    HW230918   3.961   0.223   4.294
10007SOL     OW30919   0.563   3.680   5.160
10007SOL    HW130920   0.523   3.694   5.251
10007SOL    HW230921   0.508   3.729   5.092
10008SOL     OW30922   3.648   0.355   4.144
10008SOL    HW130923   3.671   0.438   4.094
10008SOL    HW230924   3.728   0.324   4.195
10009SOL     OW30925   1.907   4.072   1.795
10009SOL    HW130926   1.878   4.163   1.767
10009SOL    HW230927   1.861   4.047   1.881
10010SOL     OW30928   2.383   0.971   6.890
10010SOL    HW130929   2.301   0.926   6.855
10010SOL    HW230930   2.377   0.981   6.989
10011SOL     OW30931   6.847   0.409   5.079
10011SOL    HW130932   6.851   0.335   5.145
10011SOL    HW230933   6.786   0.384   5.004
10012SOL     OW30934   6.073   1.245   3.324
10012SOL    HW130935   6.093   1.274   3.418
10012SOL    HW230936   6.037   1.323   3.272
10013SOL     OW30937   0.212   0.740   2.830
10013SOL    HW130938   0.240   0.660   2.882
10013SOL    HW230939   0.143   0.713   2.763
10014SOL     OW30940   1.287   4.218   6.439
10014SOL    HW130941   1.285   4.318   6.441
10014SOL    HW230942   1.251   4.182   6.525
10015SOL     OW30943   1.769   5.076   0.215
10015SOL    HW130944   1.760   5.144   0.287
10015SOL    HW230945   1.680   5.034   0.198
10016SOL     OW30946   1.871   1.199   6.812
10016SOL    HW130947   1.897   1.209   6.908
10016SOL    HW230948   1.932   1.253   6.755
10017SOL     OW30949   2.699   1.971   4.496
10017SOL    HW130950   2.670   1.969   4.592
10017SOL    HW230951   2.795   1.944   4.490
10018SOL     OW30952   5.580   0.317   6.177
10018SOL    HW130953   5.524   0.392   6.143
10018SOL    HW230954   5.562   0.304   6.275
10019SOL     OW30955   1.205   1.290   2.820
10019SOL    HW130956   1.225   1.208   2.767
10019SOL    HW230957   1.278   1.357   2.807
10020SOL     OW30958   1.461   2.693   1.639
10020SOL    HW130959   1.447   2.659   1.732
10020SOL    HW230960   1.515   2.777   1.642
10021SOL     OW30961   0.096   3.428   0.621
10021SOL    HW130962   0.157   3.471   0.555
10021SOL    HW230963   0.021   3.490   0.643
10022SOL     OW30964   1.828   1.191   6.331
10022SOL    HW130965   1.907   1.186   6.393
10022SOL    HW230966   1.747   1.219   6.381
10023SOL     OW30967   6.288   3.974   0.695
10023SOL    HW130968   6.276   3.882   0.733
10023SOL    HW230969   6.386   3.994   0.687
10024SOL     OW30970   1.451   5.123   3.677
10024SOL    HW130971   1.530   5.167   3.634
10024SOL    HW230972   1.397   5.075   3.608
10025SOL     OW30973   2.130   0.476   1.256
10025SOL    HW130974   2.211   0.451   1.202
10025SOL    HW230975   2.119   0.575   1.255
10026SOL     OW30976   5.793   0.510   3.460
10026SOL    HW130977   5.752   0.453   3.389
10026SOL    HW230978   5.856   0.575   3.418
10027SOL     OW30979   5.868   3.389   4.476
10027SOL    HW130980   5.897   3.466   4.419
10027SOL    HW230981   5.771   3.370   4.459
10028SOL     OW30982   2.084   0.891   0.632
10028SOL    HW130983   1.994   0.895   0.675
10028SOL    HW230984   2.150   0.852   0.697
10029SOL     OW30985   5.723   1.775   3.389
10029SOL    HW130986   5.752   1.863   3.427
10029SOL    HW230987   5.747   1.702   3.453
10030SOL     OW30988   2.083   0.499   3.965
10030SOL    HW130989   2.105   0.402   3.967
10030SOL    HW230990   1.989   0.512   3.933
10031SOL     OW30991   5.235   4.777   3.079
10031SOL    HW130992   5.275   4.737   2.997
10031SOL    HW230993   5.301   4.838   3.122
10032SOL     OW30994   2.606   1.733   5.383
10032SOL    HW130995   2.677   1.727   5.314
10032SOL    HW230996   2.647   1.750   5.472
10033SOL     OW30997   5.799   2.847   4.562
10033SOL    HW130998   5.759   2.932   4.527
10033SOL    HW230999   5.751   2.769   4.523
10034SOL     OW31000   3.993   0.216   5.453
10034SOL    HW131001   3.898   0.219   5.485
10034SOL    HW231002   3.995   0.188   5.357
10035SOL     OW31003   0.071   4.968   1.343
10035SOL    HW131004   0.052   4.873   1.369
10035SOL    HW231005   0.047   4.982   1.247
10036SOL     OW31006   6.879   1.824   0.067
10036SOL    HW131007   6.931   1.909   0.079
10036SOL    HW231008   6.940   1.751   0.038
10037SOL     OW31009   0.154   0.490   6.474
10037SOL    HW131010   0.141   0.499   6.376
10037SOL    HW231011   0.240   0.442   6.492
10038SOL     OW31012   6.468   6.535   0.999
10038SOL    HW131013   6.491   6.618   1.050
10038SOL    HW231014   6.473   6.553   0.901
10039SOL     OW31015   2.946   0.785   3.976
10039SOL    HW131016   2.899   0.753   3.893
10039SOL    HW231017   3.019   0.722   3.999
10040SOL     OW31018   6.875   3.183   0.905
10040SOL    HW131019   6.891   3.177   1.003
10040SOL    HW231020   6.962   3.173   0.856
10041SOL     OW31021   3.273   6.918   0.275
10041SOL    HW131022   3.310   6.826   0.285
10041SOL    HW231023   3.249   6.955   0.364
10042SOL     OW31024   6.982   2.215   2.736
10042SOL    HW131025   6.963   2.187   2.642
10042SOL    HW231026   0.053   2.241   2.744
10043SOL     OW31027   0.103   1.571   5.691
10043SOL    HW131028   0.129   1.480   5.659
10043SOL    HW231029   0.004   1.575   5.704
10044SOL     OW31030   2.969   2.309   5.600
10044SOL    HW131031   2.987   2.236   5.665
10044SOL    HW231032   2.893   2.365   5.632
10045SOL     OW31033   3.942   1.136   0.107
10045SOL    HW131034   3.898   1.089   0.183
10045SOL    HW231035   3.984   1.069   0.046
10046SOL     OW31036   1.502   5.388   1.681
10046SOL    HW131037   1.451   5.465   1.720
10046SOL    HW231038   1.549   5.338   1.754
10047SOL     OW31039   0.567   2.997   0.150
10047SOL    HW131040   0.475   3.001   0.109
10047SOL    HW231041   0.603   2.904   0.140
10048SOL     OW31042   5.836   6.500   2.419
10048SOL    HW131043   5.769   6.574   2.425
10048SOL    HW231044   5.898   6.517   2.342
10049SOL     OW31045   0.124   1.518   5.262
10049SOL    HW131046   0.085   1.582   5.196
10049SOL    HW231047   0.223   1.525   5.261
10050SOL     OW31048   5.795   3.248   5.454
10050SOL    HW131049   5.811   3.159   5.412
10050SOL    HW231050   5.862   3.264   5.527
10051SOL     OW31051   0.768   4.328   4.004
10051SOL    HW131052   0.834   4.295   3.936
10051SOL    HW231053   0.793   4.420   4.034
10052SOL     OW31054   1.459   0.275   3.297
10052SOL    HW131055   1.502   0.366   3.297
10052SOL    HW231056   1.422   0.256   3.388
10053SOL     OW31057   4.737   5.682   4.664
10053SOL    HW131058   4.826   5.639   4.650
10053SOL    HW231059   4.668   5.636   4.609
10054SOL     OW31060   5.936   4.189   4.563
10054SOL    HW131061   5.999   4.112   4.571
10054SOL    HW231062   5.873   4.190   4.641
10055SOL     OW31063   0.158   1.660   6.741
10055SOL    HW131064   0.172   1.596   6.665
10055SOL    HW231065   0.148   1.753   6.705
10056SOL     OW31066   6.210   2.988   3.545
10056SOL    HW131067   6.124   2.975   3.596
10056SOL    HW231068   6.204   2.941   3.457
10057SOL     OW31069   5.673   4.668   6.234
10057SOL    HW131070   5.594   4.616   6.266
10057SOL    HW231071   5.699   4.636   6.143
10058SOL     OW31072   6.629   3.880   5.436
10058SOL    HW131073   6.584   3.929   5.510
10058SOL    HW231074   6.680   3.802   5.472
10059SOL     OW31075   0.355   0.911   6.683
10059SOL    HW131076   0.351   0.830   6.623
10059SOL    HW231077   0.341   0.883   6.778
10060SOL     OW31078   2.420   2.176   2.748
10060SOL    HW131079   2.451   2.269   2.728
10060SOL    HW231080   2.497   2.113   2.745
10061SOL     OW31081   3.889   0.072   3.067
10061SOL    HW131082   3.825   7.021   3.075
10061SOL    HW231083   3.869   0.139   3.139
10062SOL     OW31084   6.443   0.378   4.194
10062SOL    HW131085   6.359   0.331   4.166
10062SOL    HW231086   6.424   0.475   4.206
10063SOL     OW31087   1.753   3.200   5.101
10063SOL    HW131088   1.768   3.286   5.151
10063SOL    HW231089   1.819   3.193   5.027
10064SOL     OW31090   2.928   6.481   0.687
10064SOL    HW131091   2.881   6.561   0.725
10064SOL    HW231092   2.911   6.476   0.588
10065SOL     OW31093   0.929   1.444   1.842
10065SOL    HW131094   0.838   1.456   1.803
10065SOL    HW231095   0.980   1.376   1.790
10066SOL     OW31096   6.420   3.818   3.859
10066SOL    HW131097   6.384   3.738   3.906
10066SOL    HW231098   6.364   3.898   3.880
10067SOL     OW31099   6.482   2.038   4.683
10067SOL    HW131100   6.413   2.107   4.703
10067SOL    HW231101   6.566   2.083   4.652
10068SOL     OW31102   1.949   2.623   2.562
10068SOL    HW131103   1.911   2.685   2.631
10068SOL    HW231104   1.972   2.675   2.480
10069SOL     OW31105   2.451   5.416   1.489
10069SOL    HW131106   2.363   5.434   1.445
10069SOL    HW231107   2.458   5.319   1.513
10070SOL     OW31108   3.778   5.703   5.338
10070SOL    HW131109   3.787   5.750   5.250
10070SOL    HW231110   3.687   5.661   5.344
10071SOL     OW31111   5.970   0.389   3.160
10071SOL    HW131112   6.056   0.388   3.108
10071SOL    HW231113   5.894   0.363   3.100
10072SOL     OW31114   6.519   1.870   1.804
10072SOL    HW131115   6.589   1.896   1.871
10072SOL    HW231116   6.453   1.944   1.794
10073SOL     OW31117   6.559   4.268   4.749
10073SOL    HW131118   6.520   4.217   4.826
10073SOL    HW231119   6.646   4.228   4.723
10074SOL     OW31120   1.175   4.650   0.509
10074SOL    HW131121   1.236   4.589   0.459
10074SOL    HW231122   1.205   4.745   0.496
10075SOL     OW31123   1.550   3.341   1.707
10075SOL    HW131124   1.490   3.421   1.717
10075SOL    HW231125   1.525   3.273   1.776
10076SOL     OW31126   5.110   5.483   4.015
10076SOL    HW131127   5.140   5.500   3.921
10076SOL    HW231128   5.018   5.520   4.028
10077SOL     OW31129   5.992   3.164   6.294
10077SOL    HW131130   6.048   3.203   6.221
10077SOL    HW231131   5.991   3.227   6.372
10078SOL     OW31132   6.498   6.394   4.933
10078SOL    HW131133   6.480   6.311   4.880
10078SOL    HW231134   6.537   6.464   4.874
10079SOL     OW31135   4.937   2.477   3.130
10079SOL    HW131136   4.865   2.427   3.179
10079SOL    HW231137   4.932   2.455   3.033
10080SOL     OW31138   5.144   0.561   6.410
10080SOL    HW131139   5.134   0.603   6.500
10080SOL    HW231140   5.225   0.598   6.364
10081SOL     OW31141   2.148   3.074   1.322
10081SOL    HW131142   2.246   3.077   1.302
10081SOL    HW231143   2.117   2.979   1.325
10082SOL     OW31144   1.117   4.213   1.043
10082SOL    HW131145   1.203   4.175   1.009
10082SOL    HW231146   1.095   4.296   0.991
10083SOL     OW31147   3.277   4.938   3.763
10083SOL    HW131148   3.233   5.002   3.700
10083SOL    HW231149   3.256   4.964   3.857
10084SOL     OW31150   1.114   0.682   4.425
10084SOL    HW131151   1.180   0.755   4.406
10084SOL    HW231152   1.062   0.661   4.342
10085SOL     OW31153   4.794   6.884   0.298
10085SOL    HW131154   4.722   6.951   0.317
10085SOL    HW231155   4.879   6.931   0.273
10086SOL     OW31156   0.143   6.437   2.586
10086SOL    HW131157   0.089   6.370   2.636
10086SOL    HW231158   0.083   6.490   2.526
10087SOL     OW31159   1.659   6.633   5.205
10087SOL    HW131160   1.707   6.700   5.263
10087SOL    HW231161   1.566   6.665   5.187
10088SOL     OW31162   0.374   2.506   6.885
10088SOL    HW131163   0.334   2.552   6.965
10088SOL    HW231164   0.468   2.536   6.873
10089SOL     OW31165   3.883   1.818   1.915
10089SOL    HW131166   3.827   1.848   1.838
10089SOL    HW231167   3.839   1.741   1.961
10090SOL     OW31168   2.666   6.092   2.756
10090SOL    HW131169   2.622   6.018   2.807
10090SOL    HW231170   2.693   6.165   2.818
10091SOL     OW31171   6.726   3.979   5.217
10091SOL    HW131172   6.675   3.970   5.303
10091SOL    HW231173   6.816   3.938   5.227
10092SOL     OW31174   0.625   2.048   4.263
10092SOL    HW131175   0.638   2.003   4.352
10092SOL    HW231176   0.583   2.137   4.278
10093SOL     OW31177   5.352   4.753   5.654
10093SOL    HW131178   5.290   4.675   5.666
10093SOL    HW231179   5.311   4.835   5.693
10094SOL     OW31180   3.487   1.205   0.748
10094SOL    HW131181   3.562   1.176   0.688
10094SOL    HW231182   3.522   1.224   0.839
10095SOL     OW31183   4.802   2.870   5.311
10095SOL    HW131184   4.703   2.866   5.300
10095SOL    HW231185   4.842   2.781   5.289
10096SOL     OW31186   5.516   1.964   2.754
10096SOL    HW131187   5.468   2.043   2.789
10096SOL    HW231188   5.528   1.973   2.655
10097SOL     OW31189   1.166   1.920   6.614
10097SOL    HW131190   1.109   1.857   6.562
10097SOL    HW231191   1.262   1.902   6.594
10098SOL     OW31192   3.232   5.334   3.872
10098SOL    HW131193   3.253   5.260   3.936
10098SOL    HW231194   3.210   5.417   3.922
10099SOL     OW31195   6.942   4.679   1.299
10099SOL    HW131196   6.967   4.611   1.231
10099SOL    HW231197   6.863   4.731   1.266
10100SOL     OW31198   4.671   5.496   4.227
10100SOL    HW131199   4.660   5.404   4.190
10100SOL    HW231200   4.757   5.535   4.195
10101SOL     OW31201   0.820   2.049   1.658
10101SOL    HW131202   0.888   2.000   1.712
10101SOL    HW231203   0.740   1.991   1.645
10102SOL     OW31204   6.686   6.101   2.999
10102SOL    HW131205   6.606   6.105   3.058
10102SOL    HW231206   6.674   6.164   2.922
10103SOL     OW31207   6.575   6.242   6.087
10103SOL    HW131208   6.494   6.285   6.047
10103SOL    HW231209   6.595   6.157   6.039
10104SOL     OW31210   2.552   0.104   4.200
10104SOL    HW131211   2.490   0.175   4.166
10104SOL    HW231212   2.577   0.125   4.295
10105SOL     OW31213   3.014   0.835   6.191
10105SOL    HW131214   3.087   0.886   6.237
10105SOL    HW231215   2.926   0.869   6.221
10106SOL     OW31216   5.063   5.358   1.341
10106SOL    HW131217   5.072   5.458   1.345
10106SOL    HW231218   5.018   5.333   1.255
10107SOL     OW31219   5.080   4.437   6.500
10107SOL    HW131220   5.036   4.371   6.439
10107SOL    HW231221   5.174   4.410   6.516
10108SOL     OW31222   1.858   2.865   0.102
10108SOL    HW131223   1.844   2.775   0.059
10108SOL    HW231224   1.875   2.934   0.031
10109SOL     OW31225   1.504   2.190   1.153
10109SOL    HW131226   1.417   2.237   1.173
10109SOL    HW231227   1.497   2.144   1.064
10110SOL     OW31228   4.804   6.275   2.619
10110SOL    HW131229   4.869   6.256   2.545
10110SOL    HW231230   4.844   6.342   2.682
10111SOL     OW31231   1.404   2.442   2.114
10111SOL    HW131232   1.485   2.389   2.138
10111SOL    HW231233   1.419   2.489   2.027
10112SOL     OW31234   0.002   2.206   3.207
10112SOL    HW131235   7.010   2.242   3.299
10112SOL    HW231236   6.947   2.219   3.150
10113SOL     OW31237   6.738   0.772   5.729
10113SOL    HW131238   6.754   0.870   5.728
10113SOL    HW231239   6.804   0.727   5.668
10114SOL     OW31240   4.689   1.764   1.588
10114SOL    HW131241   4.638   1.681   1.566
10114SOL    HW231242   4.776   1.764   1.539
10115SOL     OW31243   3.632   2.878   6.501
10115SOL    HW131244   3.586   2.940   6.563
10115SOL    HW231245   3.731   2.893   6.505
10116SOL     OW31246   6.728   0.999   4.339
10116SOL    HW131247   6.786   0.963   4.266
10116SOL    HW231248   6.785   1.019   4.420
10117SOL     OW31249   6.062   4.359   3.764
10117SOL    HW131250   6.062   4.374   3.665
10117SOL    HW231251   6.114   4.431   3.809
10118SOL     OW31252   4.624   6.349   4.160
10118SOL    HW131253   4.571   6.425   4.122
10118SOL    HW231254   4.702   6.385   4.211
10119SOL     OW31255   6.985   5.372   5.612
10119SOL    HW131256   6.897   5.348   5.652
10119SOL    HW231257   0.005   5.289   5.579
10120SOL     OW31258   2.152   3.194   2.396
10120SOL    HW131259   2.156   3.268   2.329
10120SOL    HW231260   2.182   3.228   2.485
10121SOL     OW31261   5.899   4.106   1.198
10121SOL    HW131262   5.836   4.182   1.217
10121SOL    HW231263   5.993   4.141   1.196
10122SOL     OW31264   1.111   0.139   4.010
10122SOL    HW131265   1.123   0.221   3.953
10122SOL    HW231266   1.088   0.061   3.952
10123SOL     OW31267   6.457   5.391   6.804
10123SOL    HW131268   6.435   5.438   6.719
10123SOL    HW231269   6.505   5.454   6.866
10124SOL     OW31270   1.547   5.307   2.742
10124SOL    HW131271   1.634   5.304   2.791
10124SOL    HW231272   1.551   5.380   2.673
10125SOL     OW31273   2.118   1.358   5.139
10125SOL    HW131274   2.046   1.296   5.107
10125SOL    HW231275   2.077   1.432   5.192
10126SOL     OW31276   6.674   6.487   6.531
10126SOL    HW131277   6.761   6.531   6.507
10126SOL    HW231278   6.621   6.472   6.448
10127SOL     OW31279   2.444   6.669   6.199
10127SOL    HW131280   2.401   6.739   6.255
10127SOL    HW231281   2.374   6.613   6.154
10128SOL     OW31282   2.734   1.960   6.831
10128SOL    HW131283   2.777   2.038   6.786
10128SOL    HW231284   2.784   1.877   6.809
10129SOL     OW31285   6.057   1.700   4.882
10129SOL    HW131286   5.990   1.682   4.953
10129SOL    HW231287   6.012   1.738   4.801
10130SOL     OW31288   1.356   1.511   2.806
10130SOL    HW131289   1.289   1.551   2.744
10130SOL    HW231290   1.413   1.584   2.846
10131SOL     OW31291   1.210   6.504   4.020
10131SOL    HW131292   1.281   6.448   3.977
10131SOL    HW231293   1.234   6.601   4.010
10132SOL     OW31294   6.705   0.651   1.622
10132SOL    HW131295   6.732   0.747   1.618
10132SOL    HW231296   6.618   0.643   1.671
10133SOL     OW31297   5.613   6.479   0.095
10133SOL    HW131298   5.608   6.416   0.172
10133SOL    HW231299   5.523   6.486   0.052
10134SOL     OW31300   6.503   6.941   1.937
10134SOL    HW131301   6.551   6.943   1.850
10134SOL    HW231302   6.465   6.850   1.952
10135SOL     OW31303   6.353   6.984   2.521
10135SOL    HW131304   6.355   0.047   2.567
10135SOL    HW231305   6.444   6.960   2.489
10136SOL     OW31306   4.929   1.829   2.279
10136SOL    HW131307   4.956   1.733   2.271
10136SOL    HW231308   4.915   1.867   2.187
10137SOL     OW31309   6.253   5.645   5.406
10137SOL    HW131310   6.218   5.599   5.324
10137SOL    HW231311   6.351   5.657   5.398
10138SOL     OW31312   0.927   2.153   0.277
10138SOL    HW131313   1.013   2.153   0.226
10138SOL    HW231314   0.946   2.154   0.375
10139SOL     OW31315   3.420   2.985   6.652
10139SOL    HW131316   3.344   2.925   6.678
10139SOL    HW231317   3.393   3.080   6.663
10140SOL     OW31318   0.767   6.500   5.385
10140SOL    HW131319   0.831   6.460   5.450
10140SOL    HW231320   0.783   6.461   5.294
10141SOL     OW31321   2.067   2.985   4.525
10141SOL    HW131322   2.125   2.955   4.450
10141SOL    HW231323   2.033   2.906   4.575
10142SOL     OW31324   3.867   6.540   3.698
10142SOL    HW131325   3.937   6.606   3.725
10142SOL    HW231326   3.897   6.448   3.723
10143SOL     OW31327   4.743   3.275   6.890
10143SOL    HW131328   4.714   3.363   6.852
10143SOL    HW231329   4.705   3.264   6.982
10144SOL     OW31330   4.194   6.852   6.449
10144SOL    HW131331   4.190   6.752   6.445
10144SOL    HW231332   4.139   6.885   6.525
10145SOL     OW31333   5.624   6.420   6.236
10145SOL    HW131334   5.573   6.478   6.172
10145SOL    HW231335   5.579   6.331   6.242
10146SOL     OW31336   0.213   2.798   4.430
10146SOL    HW131337   0.297   2.800   4.376
10146SOL    HW231338   0.233   2.820   4.525
10147SOL     OW31339   4.870   5.240   5.680
10147SOL    HW131340   4.780   5.236   5.725
10147SOL    HW231341   4.893   5.335   5.661
10148SOL     OW31342   1.004   4.356   0.844
10148SOL    HW131343   0.992   4.433   0.781
10148SOL    HW231344   0.946   4.370   0.924
10149SOL     OW31345   3.469   4.635   0.255
10149SOL    HW131346   3.448   4.689   0.173
10149SOL    HW231347   3.523   4.555   0.229
10150SOL     OW31348   4.139   4.463   1.068
10150SOL    HW131349   4.095   4.383   1.026
10150SOL    HW231350   4.152   4.534   1.000
10151SOL     OW31351   5.971   6.866   5.776
10151SOL    HW131352   6.028   6.865   5.694
10151SOL    HW231353   5.938   6.959   5.793
10152SOL     OW31354   4.227   6.638   2.594
10152SOL    HW131355   4.158   6.590   2.540
10152SOL    HW231356   4.245   6.727   2.553
10153SOL     OW31357   4.548   4.435   2.506
10153SOL    HW131358   4.505   4.345   2.495
10153SOL    HW231359   4.593   4.461   2.420
10154SOL     OW31360   5.040   5.560   5.570
10154SOL    HW131361   5.021   5.629   5.639
10154SOL    HW231362   4.959   5.546   5.513
10155SOL     OW31363   4.294   1.741   4.923
10155SOL    HW131364   4.327   1.676   4.855
10155SOL    HW231365   4.294   1.697   5.013
10156SOL     OW31366   5.130   2.396   0.429
10156SOL    HW131367   5.118   2.429   0.522
10156SOL    HW231368   5.207   2.442   0.386
10157SOL     OW31369   0.334   3.539   1.421
10157SOL    HW131370   0.258   3.489   1.464
10157SOL    HW231371   0.311   3.636   1.417
10158SOL     OW31372   6.211   4.850   0.114
10158SOL    HW131373   6.128   4.882   0.067
10158SOL    HW231374   6.237   4.916   0.185
10159SOL     OW31375   3.328   2.839   2.121
10159SOL    HW131376   3.249   2.853   2.061
10159SOL    HW231377   3.297   2.802   2.209
10160SOL     OW31378   1.116   4.996   2.871
10160SOL    HW131379   1.105   4.941   2.788
10160SOL    HW231380   1.164   4.942   2.940
10161SOL     OW31381   5.208   3.224   5.382
10161SOL    HW131382   5.247   3.269   5.302
10161SOL    HW231383   5.176   3.293   5.446
10162SOL     OW31384   1.724   3.151   2.393
10162SOL    HW131385   1.726   3.113   2.300
10162SOL    HW231386   1.702   3.079   2.458
10163SOL     OW31387   2.124   6.301   5.578
10163SOL    HW131388   2.200   6.248   5.538
10163SOL    HW231389   2.140   6.313   5.676
10164SOL     OW31390   1.410   2.716   3.332
10164SOL    HW131391   1.504   2.681   3.325
10164SOL    HW231392   1.353   2.675   3.262
10165SOL     OW31393   7.008   3.791   4.195
10165SOL    HW131394   6.988   3.721   4.263
10165SOL    HW231395   0.041   3.862   4.235
10166SOL     OW31396   2.650   0.807   1.551
10166SOL    HW131397   2.614   0.898   1.574
10166SOL    HW231398   2.591   0.737   1.591
10167SOL     OW31399   2.579   1.052   6.538
10167SOL    HW131400   2.617   0.985   6.602
10167SOL    HW231401   2.483   1.030   6.519
10168SOL     OW31402   6.478   0.723   6.535
10168SOL    HW131403   6.433   0.781   6.602
10168SOL    HW231404   6.565   0.765   6.508
10169SOL     OW31405   5.675   3.130   3.706
10169SOL    HW131406   5.749   3.194   3.687
10169SOL    HW231407   5.633   3.152   3.794
10170SOL     OW31408   5.777   5.558   6.895
10170SOL    HW131409   5.842   5.507   6.951
10170SOL    HW231410   5.683   5.537   6.924
10171SOL     OW31411   2.524   3.609   6.219
10171SOL    HW131412   2.601   3.586   6.160
10171SOL    HW231413   2.474   3.686   6.180
10172SOL     OW31414   5.913   0.664   3.196
10172SOL    HW131415   5.955   0.573   3.193
10172SOL    HW231416   5.984   0.733   3.204
10173SOL     OW31417   3.433   4.095   4.982
10173SOL    HW131418   3.421   4.149   5.065
10173SOL    HW231419   3.481   4.151   4.913
10174SOL     OW31420   4.156   5.246   2.880
10174SOL    HW131421   4.191   5.169   2.933
10174SOL    HW231422   4.057   5.239   2.873
10175SOL     OW31423   0.475   1.022   3.167
10175SOL    HW131424   0.382   1.005   3.201
10175SOL    HW231425   0.498   0.952   3.099
10176SOL     OW31426   6.496   1.122   5.834
10176SOL    HW131427   6.472   1.201   5.779
10176SOL    HW231428   6.541   1.054   5.777
10177SOL     OW31429   2.656   0.805   3.641
10177SOL    HW131430   2.752   0.785   3.660
10177SOL    HW231431   2.648   0.899   3.607
10178SOL     OW31432   0.943   2.190   0.580
10178SOL    HW131433   0.997   2.112   0.611
10178SOL    HW231434   0.845   2.169   0.588
10179SOL     OW31435   0.119   4.711   0.925
10179SOL    HW131436   0.174   4.776   0.872
10179SOL    HW231437   0.144   4.618   0.899
10180SOL     OW31438   4.478   6.780   5.450
10180SOL    HW131439   4.442   6.845   5.383
10180SOL    HW231440   4.454   6.687   5.421
10181SOL     OW31441   5.945   3.471   2.640
10181SOL    HW131442   5.966   3.561   2.604
10181SOL    HW231443   5.875   3.480   2.712
10182SOL     OW31444   5.021   2.060   0.658
10182SOL    HW131445   4.991   2.014   0.741
10182SOL    HW231446   5.112   2.098   0.672
10183SOL     OW31447   5.874   1.621   6.426
10183SOL    HW131448   5.924   1.707   6.443
10183SOL    HW231449   5.831   1.591   6.511
10184SOL     OW31450   5.743   1.805   5.556
10184SOL    HW131451   5.762   1.837   5.649
10184SOL    HW231452   5.652   1.763   5.553
10185SOL     OW31453   3.752   5.605   2.138
10185SOL    HW131454   3.722   5.625   2.231
10185SOL    HW231455   3.765   5.506   2.128
10186SOL     OW31456   3.433   3.500   5.720
10186SOL    HW131457   3.388   3.422   5.764
10186SOL    HW231458   3.364   3.563   5.685
10187SOL     OW31459   2.023   4.477   6.398
10187SOL    HW131460   1.956   4.402   6.399
10187SOL    HW231461   2.075   4.477   6.483
10188SOL     OW31462   3.512   0.652   6.372
10188SOL    HW131463   3.428   0.636   6.424
10188SOL    HW231464   3.522   0.582   6.302
10189SOL     OW31465   1.265   1.922   6.263
10189SOL    HW131466   1.300   1.903   6.171
10189SOL    HW231467   1.302   2.009   6.296
10190SOL     OW31468   4.224   5.721   1.644
10190SOL    HW131469   4.173   5.778   1.580
10190SOL    HW231470   4.254   5.638   1.598
10191SOL     OW31471   5.705   6.714   6.428
10191SOL    HW131472   5.786   6.679   6.381
10191SOL    HW231473   5.729   6.795   6.480
10192SOL     OW31474   1.836   1.878   4.236
10192SOL    HW131475   1.888   1.863   4.153
10192SOL    HW231476   1.898   1.892   4.313
10193SOL     OW31477   3.390   3.519   3.756
10193SOL    HW131478   3.399   3.424   3.724
10193SOL    HW231479   3.388   3.520   3.856
10194SOL     OW31480   2.858   0.369   3.555
10194SOL    HW131481   2.891   0.411   3.639
10194SOL    HW231482   2.929   0.373   3.485
10195SOL     OW31483   3.880   6.326   2.426
10195SOL    HW131484   3.918   6.233   2.433
10195SOL    HW231485   3.803   6.325   2.363
10196SOL     OW31486   6.091   2.085   3.869
10196SOL    HW131487   6.087   2.020   3.945
10196SOL    HW231488   6.126   2.172   3.902
10197SOL     OW31489   5.663   0.178   1.589
10197SOL    HW131490   5.687   0.081   1.591
10197SOL    HW231491   5.565   0.189   1.606
10198SOL     OW31492   2.267   6.971   0.850
10198SOL    HW131493   2.272   6.971   0.750
10198SOL    HW231494   2.337   0.008   0.886
10199SOL     OW31495   1.258   1.062   0.557
10199SOL    HW131496   1.297   1.033   0.644
10199SOL    HW231497   1.176   1.116   0.573
10200SOL     OW31498   5.291   4.078   4.548
10200SOL    HW131499   5.217   4.106   4.486
10200SOL    HW231500   5.257   4.008   4.610
10201SOL     OW31501   1.622   5.035   2.657
10201SOL    HW131502   1.712   5.072   2.633
10201SOL    HW231503   1.558   5.110   2.672
10202SOL     OW31504   0.726   3.383   2.084
10202SOL    HW131505   0.730   3.472   2.038
10202SOL    HW231506   0.817   3.359   2.117
10203SOL     OW31507   1.726   3.635   2.337
10203SOL    HW131508   1.769   3.633   2.246
10203SOL    HW231509   1.759   3.558   2.391
10204SOL     OW31510   3.119   4.865   5.192
10204SOL    HW131511   3.218   4.871   5.205
10204SOL    HW231512   3.082   4.791   5.247
10205SOL     OW31513   4.650   1.495   3.336
10205SOL    HW131514   4.681   1.590   3.334
10205SOL    HW231515   4.727   1.435   3.356
10206SOL     OW31516   5.155   0.027   6.735
10206SOL    HW131517   5.205   0.043   6.820
10206SOL    HW231518   5.218   7.024   6.663
10207SOL     OW31519   4.548   1.187   3.035
10207SOL    HW131520   4.609   1.168   2.958
10207SOL    HW231521   4.456   1.205   3.000
10208SOL     OW31522   5.888   4.263   5.129
10208SOL    HW131523   5.839   4.196   5.184
10208SOL    HW231524   5.950   4.216   5.067
10209SOL     OW31525   5.917   0.384   6.462
10209SOL    HW131526   5.964   0.470   6.483
10209SOL    HW231527   5.859   0.397   6.382
10210SOL     OW31528   4.814   5.870   1.530
10210SOL    HW131529   4.816   5.955   1.581
10210SOL    HW231530   4.724   5.827   1.538
10211SOL     OW31531   4.186   5.482   5.391
10211SOL    HW131532   4.146   5.455   5.479
10211SOL    HW231533   4.271   5.432   5.376
10212SOL     OW31534   6.712   0.569   5.313
10212SOL    HW131535   6.777   0.606   5.380
10212SOL    HW231536   6.758   0.501   5.257
10213SOL     OW31537   6.204   1.163   2.856
10213SOL    HW131538   6.279   1.151   2.791
10213SOL    HW231539   6.241   1.194   2.944
10214SOL     OW31540   6.858   0.471   1.887
10214SOL    HW131541   6.895   0.545   1.830
10214SOL    HW231542   6.916   0.460   1.968
10215SOL     OW31543   4.172   4.041   6.965
10215SOL    HW131544   4.198   4.049   0.035
10215SOL    HW231545   4.087   3.990   6.957
10216SOL     OW31546   5.125   0.032   1.680
10216SOL    HW131547   5.096   0.089   1.757
10216SOL    HW231548   5.127   0.087   1.596
10217SOL     OW31549   2.486   2.082   5.252
10217SOL    HW131550   2.468   2.068   5.349
10217SOL    HW231551   2.577   2.048   5.230
10218SOL     OW31552   2.334   1.751   0.546
10218SOL    HW131553   2.305   1.827   0.488
10218SOL    HW231554   2.285   1.668   0.520
10219SOL     OW31555   1.067   3.655   0.329
10219SOL    HW131556   1.020   3.585   0.275
10219SOL    HW231557   1.163   3.628   0.342
10220SOL     OW31558   4.338   1.967   1.078
10220SOL    HW131559   4.390   1.890   1.114
10220SOL    HW231560   4.275   2.001   1.147
10221SOL     OW31561   2.696   0.273   5.338
10221SOL    HW131562   2.604   0.307   5.317
10221SOL    HW231563   2.718   0.197   5.277
10222SOL     OW31564   1.608   5.492   5.982
10222SOL    HW131565   1.590   5.583   6.019
10222SOL    HW231566   1.560   5.423   6.036
10223SOL     OW31567   0.352   4.867   0.789
10223SOL    HW131568   0.380   4.822   0.874
10223SOL    HW231569   0.402   4.827   0.713
10224SOL     OW31570   1.684   0.098   4.083
10224SOL    HW131571   1.609   0.136   4.029
10224SOL    HW231572   1.647   0.059   4.167
10225SOL     OW31573   6.296   6.090   4.290
10225SOL    HW131574   6.266   6.181   4.259
10225SOL    HW231575   6.353   6.100   4.371
10226SOL     OW31576   1.490   1.427   0.668
10226SOL    HW131577   1.422   1.453   0.599
10226SOL    HW231578   1.515   1.331   0.655
10227SOL     OW31579   5.633   4.744   6.658
10227SOL    HW131580   5.659   4.737   6.754
10227SOL    HW231581   5.554   4.685   6.641
10228SOL     OW31582   1.056   5.810   3.359
10228SOL    HW131583   1.135   5.799   3.419
10228SOL    HW231584   1.083   5.791   3.265
10229SOL     OW31585   1.330   7.022   2.766
10229SOL    HW131586   1.399   0.010   2.696
10229SOL    HW231587   1.366   0.026   2.855
10230SOL     OW31588   6.597   0.757   3.226
10230SOL    HW131589   6.594   0.692   3.150
10230SOL    HW231590   6.669   0.731   3.290
10231SOL     OW31591   4.952   0.057   4.928
10231SOL    HW131592   5.046   0.085   4.946
10231SOL    HW231593   4.950   6.985   4.906
10232SOL     OW31594   3.369   2.070   5.023
10232SOL    HW131595   3.356   2.024   4.936
10232SOL    HW231596   3.303   2.144   5.032
10233SOL     OW31597   4.535   1.514   5.859
10233SOL    HW131598   4.584   1.576   5.799
10233SOL    HW231599   4.577   1.423   5.855
10234SOL     OW31600   4.763   6.239   1.817
10234SOL    HW131601   4.838   6.299   1.844
10234SOL    HW231602   4.680   6.293   1.804
10235SOL     OW31603   5.810   1.347   6.769
10235SOL    HW131604   5.872   1.324   6.694
10235SOL    HW231605   5.791   1.445   6.768
10236SOL     OW31606   2.229   5.521   2.118
10236SOL    HW131607   2.166   5.531   2.041
10236SOL    HW231608   2.321   5.502   2.084
10237SOL     OW31609   6.342   2.981   2.661
10237SOL    HW131610   6.394   2.907   2.619
10237SOL    HW231611   6.255   2.945   2.696
10238SOL     OW31612   4.905   4.846   4.756
10238SOL    HW131613   4.831   4.914   4.756
10238SOL    HW231614   4.920   4.813   4.849
10239SOL     OW31615   0.137   4.296   4.237
10239SOL    HW131616   0.224   4.342   4.253
10239SOL    HW231617   0.080   4.352   4.177
10240SOL     OW31618   6.988   4.367   4.044
10240SOL    HW131619   6.905   4.423   4.042
10240SOL    HW231620   6.968   4.276   4.008
10241SOL     OW31621   2.160   0.834   2.164
10241SOL    HW131622   2.174   0.924   2.204
10241SOL    HW231623   2.237   0.774   2.189
10242SOL     OW31624   6.868   0.162   5.983
10242SOL    HW131625   6.914   0.089   6.034
10242SOL    HW231626   6.814   0.218   6.046
10243SOL     OW31627   1.312   5.577   1.765
10243SOL    HW131628   1.294   5.589   1.667
10243SOL    HW231629   1.349   5.662   1.802
10244SOL     OW31630   2.555   6.375   0.300
10244SOL    HW131631   2.602   6.449   0.348
10244SOL    HW231632   2.474   6.348   0.352
10245SOL     OW31633   2.291   2.222   0.099
10245SOL    HW131634   2.352   2.248   0.024
10245SOL    HW231635   2.293   2.292   0.170
10246SOL     OW31636   3.289   4.146   4.367
10246SOL    HW131637   3.387   4.150   4.348
10246SOL    HW231638   3.274   4.146   4.466
10247SOL     OW31639   1.037   4.451   5.181
10247SOL    HW131640   1.053   4.497   5.268
10247SOL    HW231641   0.968   4.379   5.193
10248SOL     OW31642   3.835   0.007   1.923
10248SOL    HW131643   3.901   6.976   1.972
10248SOL    HW231644   3.878   0.047   1.842
10249SOL     OW31645   4.819   1.098   6.482
10249SOL    HW131646   4.785   1.042   6.558
10249SOL    HW231647   4.902   1.056   6.445
10250SOL     OW31648   6.402   0.816   0.122
10250SOL    HW131649   6.415   0.772   0.211
10250SOL    HW231650   6.490   0.826   0.077
10251SOL     OW31651   2.479   3.747   0.292
10251SOL    HW131652   2.405   3.686   0.267
10251SOL    HW231653   2.561   3.724   0.239
10252SOL     OW31654   6.687   5.106   2.151
10252SOL    HW131655   6.727   5.021   2.185
10252SOL    HW231656   6.739   5.184   2.187
10253SOL     OW31657   3.870   5.412   6.846
10253SOL    HW131658   3.901   5.334   6.790
10253SOL    HW231659   3.842   5.486   6.785
10254SOL     OW31660   2.241   2.528   5.201
10254SOL    HW131661   2.288   2.615   5.211
10254SOL    HW231662   2.300   2.463   5.152
10255SOL     OW31663   3.039   5.691   2.334
10255SOL    HW131664   3.000   5.781   2.315
10255SOL    HW231665   3.115   5.701   2.399
10256SOL     OW31666   6.181   0.239   6.604
10256SOL    HW131667   6.151   0.333   6.587
10256SOL    HW231668   6.102   0.179   6.605
10257SOL     OW31669   1.144   6.166   5.902
10257SOL    HW131670   1.086   6.201   5.829
10257SOL    HW231671   1.221   6.116   5.863
10258SOL     OW31672   3.897   0.551   3.074
10258SOL    HW131673   3.855   0.626   3.023
10258SOL    HW231674   3.856   0.545   3.166
10259SOL     OW31675   6.985   4.139   3.082
10259SOL    HW131676   6.908   4.195   3.113
10259SOL    HW231677   6.969   4.043   3.107
10260SOL     OW31678   1.191   6.888   1.834
10260SOL    HW131679   1.249   6.822   1.882
10260SOL    HW231680   1.096   6.874   1.861
10261SOL     OW31681   1.190   5.773   2.678
10261SOL    HW131682   1.216   5.730   2.764
10261SOL    HW231683   1.211   5.871   2.682
10262SOL     OW31684   1.509   4.469   4.922
10262SOL    HW131685   1.495   4.388   4.979
10262SOL    HW231686   1.432   4.480   4.859
10263SOL     OW31687   6.184   1.783   5.888
10263SOL    HW131688   6.227   1.778   5.978
10263SOL    HW231689   6.089   1.813   5.898
10264SOL     OW31690   0.319   0.670   5.958
10264SOL    HW131691   0.359   0.588   5.917
10264SOL    HW231692   0.351   0.679   6.052
10265SOL     OW31693   4.016   1.529   2.345
10265SOL    HW131694   4.019   1.586   2.263
10265SOL    HW231695   3.929   1.542   2.392
10266SOL     OW31696   2.920   4.425   6.572
10266SOL    HW131697   2.906   4.333   6.610
10266SOL    HW231698   3.009   4.459   6.601
10267SOL     OW31699   6.674   2.270   6.063
10267SOL    HW131700   6.707   2.191   6.010
10267SOL    HW231701   6.747   2.338   6.068
10268SOL     OW31702   5.867   5.659   1.599
10268SOL    HW131703   5.780   5.628   1.560
10268SOL    HW231704   5.866   5.758   1.610
10269SOL     OW31705   2.709   2.742   6.323
10269SOL    HW131706   2.632   2.713   6.379
10269SOL    HW231707   2.746   2.828   6.358
10270SOL     OW31708   1.750   5.842   0.759
10270SOL    HW131709   1.663   5.794   0.746
10270SOL    HW231710   1.752   5.882   0.850
10271SOL     OW31711   4.442   4.411   1.400
10271SOL    HW131712   4.420   4.435   1.306
10271SOL    HW231713   4.401   4.478   1.462
10272SOL     OW31714   0.778   0.804   5.804
10272SOL    HW131715   0.692   0.853   5.791
10272SOL    HW231716   0.758   0.709   5.828
10273SOL     OW31717   3.780   5.766   4.431
10273SOL    HW131718   3.794   5.736   4.525
10273SOL    HW231719   3.804   5.691   4.369
10274SOL     OW31720   1.228   5.538   5.971
10274SOL    HW131721   1.200   5.575   6.060
10274SOL    HW231722   1.216   5.607   5.901
10275SOL     OW31723   1.340   6.499   2.608
10275SOL    HW131724   1.292   6.476   2.693
10275SOL    HW231725   1.303   6.586   2.573
10276SOL     OW31726   6.283   5.598   6.147
10276SOL    HW131727   6.249   5.535   6.217
10276SOL    HW231728   6.245   5.689   6.164
10277SOL     OW31729   2.236   6.226   4.658
10277SOL    HW131730   2.320   6.264   4.699
10277SOL    HW231731   2.205   6.149   4.713
10278SOL     OW31732   5.985   0.406   5.444
10278SOL    HW131733   6.009   0.321   5.490
10278SOL    HW231734   5.991   0.482   5.508
10279SOL     OW31735   3.341   6.761   4.103
10279SOL    HW131736   3.354   6.777   4.005
10279SOL    HW231737   3.393   6.828   4.155
10280SOL     OW31738   1.895   3.914   6.969
10280SOL    HW131739   1.872   3.888   0.037
10280SOL    HW231740   1.866   4.008   6.952
10281SOL     OW31741   4.295   0.646   3.590
10281SOL    HW131742   4.269   0.705   3.666
10281SOL    HW231743   4.226   0.575   3.577
10282SOL     OW31744   1.073   1.726   4.261
10282SOL    HW131745   1.124   1.743   4.177
10282SOL    HW231746   1.021   1.808   4.286
10283SOL     OW31747   1.240   3.806   7.019
10283SOL    HW131748   1.259   3.852   0.080
10283SOL    HW231749   1.161   3.849   6.975
10284SOL     OW31750   5.797   3.045   5.272
10284SOL    HW131751   5.846   2.979   5.214
10284SOL    HW231752   5.709   3.068   5.230
10285SOL     OW31753   5.820   0.017   0.767
10285SOL    HW131754   5.730   0.062   0.763
10285SOL    HW231755   5.820   6.962   0.708
10286SOL     OW31756   3.889   0.485   3.647
10286SOL    HW131757   3.802   0.460   3.605
10286SOL    HW231758   3.963   0.474   3.581
10287SOL     OW31759   2.100   6.378   1.558
10287SOL    HW131760   2.085   6.305   1.492
10287SOL    HW231761   2.018   6.390   1.614
10288SOL     OW31762   6.114   6.373   3.865
10288SOL    HW131763   6.089   6.296   3.925
10288SOL    HW231764   6.035   6.400   3.810
10289SOL     OW31765   3.365   0.924   1.920
10289SOL    HW131766   3.411   1.011   1.901
10289SOL    HW231767   3.359   0.910   2.018
10290SOL     OW31768   4.096   3.419   2.515
10290SOL    HW131769   3.998   3.435   2.508
10290SOL    HW231770   4.115   3.322   2.507
10291SOL     OW31771   3.356   0.650   5.206
10291SOL    HW131772   3.404   0.737   5.219
10291SOL    HW231773   3.259   0.667   5.190
10292SOL     OW31774   0.309   1.095   4.415
10292SOL    HW131775   0.374   1.077   4.489
10292SOL    HW231776   0.343   1.053   4.330
10293SOL     OW31777   1.914   5.796   3.335
10293SOL    HW131778   1.909   5.892   3.362
10293SOL    HW231779   2.008   5.763   3.344
10294SOL     OW31780   5.705   1.453   3.248
10294SOL    HW131781   5.645   1.490   3.177
10294SOL    HW231782   5.676   1.360   3.271
10295SOL     OW31783   0.513   5.583   6.297
10295SOL    HW131784   0.440   5.586   6.229
10295SOL    HW231785   0.553   5.491   6.299
10296SOL     OW31786   6.852   2.729   0.534
10296SOL    HW131787   6.889   2.819   0.555
10296SOL    HW231788   6.762   2.739   0.491
10297SOL     OW31789   1.641   5.422   5.098
10297SOL    HW131790   1.714   5.428   5.166
10297SOL    HW231791   1.571   5.491   5.118
10298SOL     OW31792   5.200   3.353   3.938
10298SOL    HW131793   5.211   3.254   3.943
10298SOL    HW231794   5.260   3.390   3.867
10299SOL     OW31795   5.151   4.296   3.190
10299SOL    HW131796   5.192   4.277   3.279
10299SOL    HW231797   5.106   4.385   3.192
10300SOL     OW31798   1.072   4.878   2.646
10300SOL    HW131799   1.021   4.957   2.613
10300SOL    HW231800   1.130   4.843   2.572
10301SOL     OW31801   5.081   1.537   1.255
10301SOL    HW131802   5.073   1.511   1.159
10301SOL    HW231803   5.178   1.548   1.279
10302SOL     OW31804   1.540   5.958   3.386
10302SOL    HW131805   1.602   6.030   3.355
10302SOL    HW231806   1.536   5.957   3.486
10303SOL     OW31807   3.456   3.405   1.456
10303SOL    HW131808   3.483   3.436   1.548
10303SOL    HW231809   3.537   3.394   1.399
10304SOL     OW31810   0.021   6.884   2.571
10304SOL    HW131811   0.010   6.796   2.524
10304SOL    HW231812   6.984   6.951   2.531
10305SOL     OW31813   1.511   5.505   1.236
10305SOL    HW131814   1.543   5.450   1.313
10305SOL    HW231815   1.412   5.491   1.224
10306SOL     OW31816   4.126   5.971   0.124
10306SOL    HW131817   4.159   5.891   0.074
10306SOL    HW231818   4.191   6.046   0.112
10307SOL     OW31819   2.056   1.667   5.818
10307SOL    HW131820   2.092   1.612   5.742
10307SOL    HW231821   2.076   1.621   5.904
10308SOL     OW31822   3.159   5.829   3.404
10308SOL    HW131823   3.103   5.782   3.337
10308SOL    HW231824   3.235   5.770   3.432
10309SOL     OW31825   0.168   6.264   3.240
10309SOL    HW131826   0.096   6.246   3.173
10309SOL    HW231827   0.164   6.360   3.269
10310SOL     OW31828   3.558   3.992   3.361
10310SOL    HW131829   3.562   3.919   3.292
10310SOL    HW231830   3.560   3.950   3.452
10311SOL     OW31831   6.679   5.244   0.378
10311SOL    HW131832   6.583   5.231   0.403
10311SOL    HW231833   6.708   5.169   0.319
10312SOL     OW31834   2.213   4.453   0.982
10312SOL    HW131835   2.130   4.415   1.022
10312SOL    HW231836   2.287   4.448   1.049
10313SOL     OW31837   5.299   0.196   3.174
10313SOL    HW131838   5.358   0.116   3.180
10313SOL    HW231839   5.251   0.196   3.087
10314SOL     OW31840   6.521   6.079   0.914
10314SOL    HW131841   6.547   6.001   0.857
10314SOL    HW231842   6.559   6.163   0.875
10315SOL     OW31843   6.168   5.110   4.558
10315SOL    HW131844   6.089   5.056   4.528
10315SOL    HW231845   6.252   5.073   4.517
10316SOL     OW31846   6.840   4.541   3.608
10316SOL    HW131847   6.818   4.614   3.544
10316SOL    HW231848   6.939   4.532   3.616
10317SOL     OW31849   4.013   4.876   0.279
10317SOL    HW131850   3.979   4.970   0.271
10317SOL    HW231851   4.077   4.857   0.204
10318SOL     OW31852   6.000   5.093   2.076
10318SOL    HW131853   5.943   5.172   2.051
10318SOL    HW231854   6.067   5.121   2.145
10319SOL     OW31855   5.870   6.371   3.038
10319SOL    HW131856   5.871   6.409   2.945
10319SOL    HW231857   5.835   6.440   3.102
10320SOL     OW31858   6.516   6.327   1.258
10320SOL    HW131859   6.581   6.251   1.254
10320SOL    HW231860   6.441   6.312   1.194
10321SOL     OW31861   4.308   5.688   3.914
10321SOL    HW131862   4.324   5.640   4.000
10321SOL    HW231863   4.347   5.636   3.838
10322SOL     OW31864   6.129   3.283   0.203
10322SOL    HW131865   6.178   3.203   0.167
10322SOL    HW231866   6.036   3.257   0.227
10323SOL     OW31867   5.083   2.970   5.457
10323SOL    HW131868   5.060   3.066   5.444
10323SOL    HW231869   5.000   2.915   5.446
10324SOL     OW31870   3.149   3.073   3.477
10324SOL    HW131871   3.109   3.038   3.562
10324SOL    HW231872   3.135   3.172   3.473
10325SOL     OW31873   0.114   3.206   3.087
10325SOL    HW131874   0.031   3.151   3.098
10325SOL    HW231875   0.169   3.201   3.171
10326SOL     OW31876   5.535   1.988   0.632
10326SOL    HW131877   5.536   1.895   0.593
10326SOL    HW231878   5.593   2.048   0.576
10327SOL     OW31879   6.967   0.849   3.150
10327SOL    HW131880   6.982   0.929   3.091
10327SOL    HW231881   6.879   0.859   3.197
10328SOL     OW31882   6.237   2.486   1.708
10328SOL    HW131883   6.246   2.398   1.661
10328SOL    HW231884   6.323   2.509   1.752
10329SOL     OW31885   3.351   6.742   2.914
10329SOL    HW131886   3.354   6.669   2.845
10329SOL    HW231887   3.263   6.791   2.906
10330SOL     OW31888   3.950   5.088   1.393
10330SOL    HW131889   3.961   4.988   1.389
10330SOL    HW231890   4.040   5.131   1.395
10331SOL     OW31891   6.048   0.821   3.382
10331SOL    HW131892   6.136   0.864   3.402
10331SOL    HW231893   5.999   0.803   3.467
10332SOL     OW31894   0.217   2.772   6.069
10332SOL    HW131895   0.164   2.731   6.144
10332SOL    HW231896   0.289   2.830   6.108
10333SOL     OW31897   4.919   4.596   4.662
10333SOL    HW131898   4.835   4.544   4.675
10333SOL    HW231899   4.911   4.685   4.707
10334SOL     OW31900   1.723   4.809   4.369
10334SOL    HW131901   1.812   4.812   4.416
10334SOL    HW231902   1.690   4.902   4.355
10335SOL     OW31903   1.836   5.300   1.665
10335SOL    HW131904   1.834   5.264   1.758
10335SOL    HW231905   1.918   5.356   1.653
10336SOL     OW31906   3.883   6.772   2.796
10336SOL    HW131907   3.794   6.786   2.840
10336SOL    HW231908   3.874   6.703   2.724
10337SOL     OW31909   0.814   4.979   5.125
10337SOL    HW131910   0.826   4.880   5.129
10337SOL    HW231911   0.837   5.019   5.214
10338SOL     OW31912   3.022   6.011   3.164
10338SOL    HW131913   2.997   5.957   3.084
10338SOL    HW231914   3.122   6.016   3.171
10339SOL     OW31915   2.984   5.782   1.293
10339SOL    HW131916   3.005   5.880   1.298
10339SOL    HW231917   3.058   5.730   1.337
10340SOL     OW31918   2.190   0.447   0.407
10340SOL    HW131919   2.121   0.446   0.335
10340SOL    HW231920   2.213   0.541   0.430
10341SOL     OW31921   1.791   1.388   2.346
10341SOL    HW131922   1.847   1.305   2.343
10341SOL    HW231923   1.851   1.469   2.346
10342SOL     OW31924   2.150   6.591   5.263
10342SOL    HW131925   2.112   6.635   5.344
10342SOL    HW231926   2.124   6.642   5.181
10343SOL     OW31927   2.229   3.341   5.211
10343SOL    HW131928   2.165   3.418   5.206
10343SOL    HW231929   2.233   3.295   5.123
10344SOL     OW31930   3.686   4.961   5.419
10344SOL    HW131931   3.599   4.967   5.370
10344SOL    HW231932   3.751   5.025   5.378
10345SOL     OW31933   2.202   1.124   6.680
10345SOL    HW131934   2.224   1.140   6.777
10345SOL    HW231935   2.286   1.103   6.630
10346SOL     OW31936   5.113   6.001   0.095
10346SOL    HW131937   5.055   5.981   0.016
10346SOL    HW231938   5.180   6.072   0.070
10347SOL     OW31939   5.607   1.855   1.885
10347SOL    HW131940   5.680   1.792   1.858
10347SOL    HW231941   5.528   1.803   1.918
10348SOL     OW31942   0.624   6.122   5.632
10348SOL    HW131943   0.574   6.203   5.664
10348SOL    HW231944   0.616   6.116   5.533
10349SOL     OW31945   0.191   1.973   0.606
10349SOL    HW131946   0.096   1.995   0.628
10349SOL    HW231947   0.200   1.960   0.507
10350SOL     OW31948   2.171   4.589   5.069
10350SOL    HW131949   2.113   4.565   5.146
10350SOL    HW231950   2.265   4.564   5.088
10351SOL     OW31951   5.067   4.447   4.862
10351SOL    HW131952   5.021   4.520   4.813
10351SOL    HW231953   5.164   4.446   4.839
10352SOL     OW31954   5.397   1.896   0.368
10352SOL    HW131955   5.301   1.908   0.393
10352SOL    HW231956   5.443   1.839   0.436
10353SOL     OW31957   6.838   2.910   3.795
10353SOL    HW131958   6.767   2.978   3.780
10353SOL    HW231959   6.864   2.870   3.707
10354SOL     OW31960   0.431   3.408   0.786
10354SOL    HW131961   0.454   3.354   0.705
10354SOL    HW231962   0.389   3.494   0.758
10355SOL     OW31963   1.079   1.585   1.108
10355SOL    HW131964   1.133   1.509   1.072
10355SOL    HW231965   1.051   1.645   1.033
10356SOL     OW31966   6.388   3.570   6.085
10356SOL    HW131967   6.350   3.522   6.006
10356SOL    HW231968   6.470   3.521   6.117
10357SOL     OW31969   1.144   2.808   5.887
10357SOL    HW131970   1.236   2.771   5.877
10357SOL    HW231971   1.077   2.733   5.881
10358SOL     OW31972   0.755   2.378   2.671
10358SOL    HW131973   0.724   2.397   2.764
10358SOL    HW231974   0.715   2.291   2.641
10359SOL     OW31975   6.189   1.677   2.463
10359SOL    HW131976   6.283   1.647   2.450
10359SOL    HW231977   6.141   1.679   2.375
10360SOL     OW31978   5.954   4.061   1.556
10360SOL    HW131979   5.979   4.133   1.491
10360SOL    HW231980   5.887   4.000   1.514
10361SOL     OW31981   0.626   1.661   2.002
10361SOL    HW131982   0.606   1.588   1.936
10361SOL    HW231983   0.691   1.725   1.961
10362SOL     OW31984   0.996   5.114   2.027
10362SOL    HW131985   0.951   5.149   1.946
10362SOL    HW231986   1.074   5.172   2.051
10363SOL     OW31987   5.121   4.665   6.637
10363SOL    HW131988   5.108   4.567   6.620
10363SOL    HW231989   5.032   4.710   6.644
10364SOL     OW31990   6.023   4.371   2.309
10364SOL    HW131991   6.070   4.310   2.244
10364SOL    HW231992   6.009   4.460   2.266
10365SOL     OW31993   5.680   5.989   0.315
10365SOL    HW131994   5.757   5.930   0.290
10365SOL    HW231995   5.669   6.060   0.245
10366SOL     OW31996   2.322   6.087   3.584
10366SOL    HW131997   2.403   6.141   3.562
10366SOL    HW231998   2.247   6.149   3.609
10367SOL     OW31999   5.739   1.370   1.356
10367SOL    HW132000   5.810   1.406   1.294
10367SOL    HW232001   5.650   1.403   1.327
10368SOL     OW32002   2.166   5.993   2.349
10368SOL    HW132003   2.213   5.913   2.312
10368SOL    HW232004   2.141   6.055   2.274
10369SOL     OW32005   3.357   0.240   6.330
10369SOL    HW132006   3.263   0.256   6.362
10369SOL    HW232007   3.409   0.194   6.402
10370SOL     OW32008   1.217   0.760   5.431
10370SOL    HW132009   1.214   0.660   5.438
10370SOL    HW232010   1.147   0.800   5.490
10371SOL     OW32011   3.695   5.560   2.771
10371SOL    HW132012   3.712   5.656   2.792
10371SOL    HW232013   3.770   5.524   2.716
10372SOL     OW32014   2.859   6.833   1.873
10372SOL    HW132015   2.816   6.757   1.824
10372SOL    HW232016   2.938   6.866   1.820
10373SOL     OW32017   0.730   1.929   5.794
10373SOL    HW132018   0.798   2.001   5.807
10373SOL    HW232019   0.776   1.841   5.783
10374SOL     OW32020   3.507   5.754   4.415
10374SOL    HW132021   3.605   5.758   4.435
10374SOL    HW232022   3.456   5.805   4.484
10375SOL     OW32023   2.315   3.761   6.866
10375SOL    HW132024   2.396   3.795   6.915
10375SOL    HW232025   2.290   3.826   6.794
10376SOL     OW32026   1.959   4.660   3.052
10376SOL    HW132027   1.900   4.593   3.007
10376SOL    HW232028   1.921   4.685   3.141
10377SOL     OW32029   1.410   0.583   2.882
10377SOL    HW132030   1.361   0.500   2.855
10377SOL    HW232031   1.459   0.567   2.968
10378SOL     OW32032   6.928   4.655   3.911
10378SOL    HW132033   7.019   4.618   3.889
10378SOL    HW232034   6.867   4.642   3.833
10379SOL     OW32035   1.815   6.092   4.844
10379SOL    HW132036   1.787   6.027   4.915
10379SOL    HW232037   1.762   6.075   4.761
10380SOL     OW32038   2.302   2.855   4.718
10380SOL    HW132039   2.335   2.761   4.708
10380SOL    HW232040   2.339   2.911   4.643
10381SOL     OW32041   4.693   4.747   2.041
10381SOL    HW132042   4.731   4.823   1.989
10381SOL    HW232043   4.765   4.705   2.096
10382SOL     OW32044   3.568   5.240   1.658
10382SOL    HW132045   3.495   5.295   1.699
10382SOL    HW232046   3.545   5.143   1.667
10383SOL     OW32047   2.473   4.272   0.576
10383SOL    HW132048   2.540   4.346   0.570
10383SOL    HW232049   2.407   4.281   0.502
10384SOL     OW32050   6.123   6.609   1.408
10384SOL    HW132051   6.042   6.575   1.456
10384SOL    HW232052   6.191   6.536   1.399
10385SOL     OW32053   4.595   4.555   6.622
10385SOL    HW132054   4.554   4.513   6.704
10385SOL    HW232055   4.524   4.574   6.555
10386SOL     OW32056   6.987   1.592   0.389
10386SOL    HW132057   6.991   1.683   0.431
10386SOL    HW232058   6.892   1.563   0.381
10387SOL     OW32059   4.901   3.069   2.262
10387SOL    HW132060   4.850   3.086   2.177
10387SOL    HW232061   4.848   3.010   2.322
10388SOL     OW32062   3.046   0.642   6.007
10388SOL    HW132063   3.127   0.682   5.966
10388SOL    HW232064   3.027   0.685   6.095
10389SOL     OW32065   1.029   3.349   0.625
10389SOL    HW132066   0.964   3.416   0.662
10389SOL    HW232067   1.009   3.333   0.529
10390SOL     OW32068   3.182   2.435   1.393
10390SOL    HW132069   3.117   2.510   1.382
10390SOL    HW232070   3.206   2.425   1.490
10391SOL     OW32071   5.686   6.703   4.666
10391SOL    HW132072   5.737   6.781   4.631
10391SOL    HW232073   5.641   6.728   4.752
10392SOL     OW32074   6.743   4.987   3.979
10392SOL    HW132075   6.828   4.934   3.979
10392SOL    HW232076   6.670   4.933   4.022
10393SOL     OW32077   1.840   4.282   3.718
10393SOL    HW132078   1.787   4.226   3.655
10393SOL    HW232079   1.926   4.310   3.675
10394SOL     OW32080   2.549   5.722   4.432
10394SOL    HW132081   2.609   5.792   4.470
10394SOL    HW232082   2.500   5.676   4.506
10395SOL     OW32083   0.121   6.921   0.418
10395SOL    HW132084   0.140   6.968   0.505
10395SOL    HW232085   0.199   6.932   0.357
10396SOL     OW32086   2.850   1.649   4.995
10396SOL    HW132087   2.836   1.656   4.897
10396SOL    HW232088   2.848   1.552   5.022
10397SOL     OW32089   3.235   2.119   2.249
10397SOL    HW132090   3.148   2.168   2.248
10397SOL    HW232091   3.271   2.113   2.157
10398SOL     OW32092   0.049   2.726   2.101
10398SOL    HW132093   0.137   2.687   2.074
10398SOL    HW232094   7.021   2.747   2.020
10399SOL     OW32095   6.403   2.896   1.821
10399SOL    HW132096   6.477   2.957   1.850
10399SOL    HW232097   6.353   2.862   1.901
10400SOL     OW32098   4.246   6.822   0.511
10400SOL    HW132099   4.278   6.727   0.508
10400SOL    HW232100   4.185   6.839   0.434
10401SOL     OW32101   6.461   0.978   4.364
10401SOL    HW132102   6.432   0.886   4.391
10401SOL    HW232103   6.561   0.985   4.373
10402SOL     OW32104   6.483   2.534   4.454
10402SOL    HW132105   6.497   2.498   4.546
10402SOL    HW232106   6.450   2.628   4.460
10403SOL     OW32107   2.882   0.675   3.735
10403SOL    HW132108   2.967   0.696   3.687
10403SOL    HW232109   2.870   0.576   3.741
10404SOL     OW32110   0.126   6.928   5.925
10404SOL    HW132111   0.118   6.830   5.939
10404SOL    HW232112   0.049   6.975   5.968
10405SOL     OW32113   0.848   1.282   5.459
10405SOL    HW132114   0.764   1.228   5.455
10405SOL    HW232115   0.900   1.269   5.374
10406SOL     OW32116   3.210   4.989   1.545
10406SOL    HW132117   3.203   4.945   1.634
10406SOL    HW232118   3.124   5.034   1.523
10407SOL     OW32119   3.517   6.509   6.358
10407SOL    HW132120   3.467   6.442   6.413
10407SOL    HW232121   3.459   6.541   6.284
10408SOL     OW32122   5.008   1.097   0.016
10408SOL    HW132123   5.047   1.019   6.991
10408SOL    HW232124   4.947   1.062   0.088
10409SOL     OW32125   6.443   4.652   0.648
10409SOL    HW132126   6.470   4.613   0.561
10409SOL    HW232127   6.363   4.603   0.684
10410SOL     OW32128   5.486   1.743   0.040
10410SOL    HW132129   5.394   1.764   0.008
10410SOL    HW232130   5.482   1.675   0.113
10411SOL     OW32131   3.001   5.568   2.969
10411SOL    HW132132   2.967   5.583   2.876
10411SOL    HW232133   3.070   5.495   2.968
10412SOL     OW32134   6.048   1.191   0.574
10412SOL    HW132135   6.137   1.165   0.535
10412SOL    HW232136   6.048   1.172   0.672
10413SOL     OW32137   0.347   1.814   1.375
10413SOL    HW132138   0.427   1.757   1.390
10413SOL    HW232139   0.352   1.857   1.284
10414SOL     OW32140   4.926   3.547   5.651
10414SOL    HW132141   4.863   3.499   5.712
10414SOL    HW232142   4.883   3.558   5.561
10415SOL     OW32143   0.729   5.768   6.214
10415SOL    HW132144   0.639   5.773   6.256
10415SOL    HW232145   0.724   5.806   6.121
10416SOL     OW32146   6.083   2.875   4.053
10416SOL    HW132147   6.120   2.798   4.106
10416SOL    HW232148   5.984   2.875   4.059
10417SOL     OW32149   3.196   5.016   4.424
10417SOL    HW132150   3.098   5.022   4.406
10417SOL    HW232151   3.211   4.987   4.518
10418SOL     OW32152   0.272   4.372   5.844
10418SOL    HW132153   0.338   4.348   5.915
10418SOL    HW232154   0.284   4.468   5.819
10419SOL     OW32155   0.789   0.462   0.135
10419SOL    HW132156   0.718   0.442   0.068
10419SOL    HW232157   0.772   0.409   0.218
10420SOL     OW32158   0.273   3.247   2.598
10420SOL    HW132159   0.357   3.269   2.648
10420SOL    HW232160   0.285   3.270   2.501
10421SOL     OW32161   1.687   1.217   3.328
10421SOL    HW132162   1.619   1.145   3.313
10421SOL    HW232163   1.676   1.287   3.257
10422SOL     OW32164   6.668   2.469   5.667
10422SOL    HW132165   6.741   2.510   5.613
10422SOL    HW232166   6.663   2.371   5.647
10423SOL     OW32167   4.792   4.935   4.397
10423SOL    HW132168   4.788   4.835   4.387
10423SOL    HW232169   4.874   4.970   4.351
10424SOL     OW32170   5.112   1.918   6.550
10424SOL    HW132171   5.088   1.906   6.453
10424SOL    HW232172   5.211   1.905   6.561
10425SOL     OW32173   1.726   0.179   2.712
10425SOL    HW132174   1.652   0.207   2.774
10425SOL    HW232175   1.814   0.191   2.758
10426SOL     OW32176   6.554   4.048   0.598
10426SOL    HW132177   6.497   4.072   0.519
10426SOL    HW232178   6.589   4.131   0.641
10427SOL     OW32179   4.125   2.021   0.379
10427SOL    HW132180   4.172   2.075   0.448
10427SOL    HW232181   4.026   2.028   0.393
10428SOL     OW32182   3.605   0.505   4.418
10428SOL    HW132183   3.575   0.503   4.322
10428SOL    HW232184   3.566   0.585   4.463
10429SOL     OW32185   6.752   5.610   1.459
10429SOL    HW132186   6.831   5.576   1.408
10429SOL    HW232187   6.783   5.679   1.525
10430SOL     OW32188   4.570   6.945   3.010
10430SOL    HW132189   4.626   6.865   2.986
10430SOL    HW232190   4.487   6.915   3.056
10431SOL     OW32191   3.081   0.162   5.320
10431SOL    HW132192   3.040   0.246   5.356
10431SOL    HW232193   3.026   0.084   5.349
10432SOL     OW32194   6.508   0.814   3.894
10432SOL    HW132195   6.605   0.792   3.881
10432SOL    HW232196   6.484   0.892   3.837
10433SOL     OW32197   2.042   6.679   1.640
10433SOL    HW132198   2.082   6.771   1.632
10433SOL    HW232199   2.116   6.611   1.636
10434SOL     OW32200   3.427   0.085   3.433
10434SOL    HW132201   3.523   0.067   3.453
10434SOL    HW232202   3.404   0.051   3.342
10435SOL     OW32203   6.349   6.359   5.184
10435SOL    HW132204   6.399   6.399   5.107
10435SOL    HW232205   6.258   6.401   5.190
10436SOL     OW32206   0.693   4.864   4.468
10436SOL    HW132207   0.740   4.778   4.445
10436SOL    HW232208   0.716   4.890   4.562
10437SOL     OW32209   6.285   5.157   5.755
10437SOL    HW132210   6.206   5.177   5.813
10437SOL    HW232211   6.293   5.058   5.743
10438SOL     OW32212   5.214   6.588   0.333
10438SOL    HW132213   5.228   6.660   0.265
10438SOL    HW232214   5.125   6.601   0.376
10439SOL     OW32215   3.730   0.407   5.511
10439SOL    HW132216   3.776   0.494   5.526
10439SOL    HW232217   3.679   0.410   5.426
10440SOL     OW32218   0.773   6.837   1.150
10440SOL    HW132219   0.698   6.819   1.086
10440SOL    HW232220   0.816   6.750   1.175
10441SOL     OW32221   5.175   1.137   6.430
10441SOL    HW132222   5.255   1.163   6.376
10441SOL    HW232223   5.115   1.216   6.441
10442SOL     OW32224   3.449   5.442   5.876
10442SOL    HW132225   3.510   5.520   5.864
10442SOL    HW232226   3.500   5.357   5.862
10443SOL     OW32227   5.723   4.046   4.778
10443SOL    HW132228   5.803   3.994   4.807
10443SOL    HW232229   5.668   3.990   4.715
10444SOL     OW32230   3.558   5.565   4.899
10444SOL    HW132231   3.467   5.550   4.938
10444SOL    HW232232   3.587   5.483   4.850
10445SOL     OW32233   6.900   5.162   4.764
10445SOL    HW132234   6.917   5.238   4.827
10445SOL    HW232235   6.874   5.198   4.674
10446SOL     OW32236   0.547   4.136   6.632
10446SOL    HW132237   0.579   4.201   6.563
10446SOL    HW232238   0.482   4.181   6.693
10447SOL     OW32239   6.732   1.727   1.138
10447SOL    HW132240   6.793   1.649   1.147
10447SOL    HW232241   6.766   1.803   1.194
10448SOL     OW32242   3.852   3.385   1.062
10448SOL    HW132243   3.943   3.352   1.037
10448SOL    HW232244   3.854   3.485   1.071
10449SOL     OW32245   2.549   5.400   4.686
10449SOL    HW132246   2.583   5.478   4.633
10449SOL    HW232247   2.568   5.316   4.636
10450SOL     OW32248   6.947   2.692   6.847
10450SOL    HW132249   6.936   2.652   6.938
10450SOL    HW232250   7.014   2.766   6.850
10451SOL     OW32251   2.659   4.689   2.932
10451SOL    HW132252   2.679   4.731   3.021
10451SOL    HW232253   2.622   4.597   2.945
10452SOL     OW32254   0.602   3.642   3.873
10452SOL    HW132255   0.673   3.684   3.816
10452SOL    HW232256   0.583   3.550   3.840
10453SOL     OW32257   5.859   5.957   1.555
10453SOL    HW132258   5.832   6.043   1.514
10453SOL    HW232259   5.842   5.960   1.654
10454SOL     OW32260   5.122   2.862   1.717
10454SOL    HW132261   5.149   2.768   1.700
10454SOL    HW232262   5.048   2.864   1.785
10455SOL     OW32263   0.580   5.402   3.912
10455SOL    HW132264   0.590   5.370   3.818
10455SOL    HW232265   0.579   5.323   3.974
10456SOL     OW32266   3.319   5.902   1.310
10456SOL    HW132267   3.418   5.904   1.323
10456SOL    HW232268   3.298   5.864   1.221
10457SOL     OW32269   3.670   4.098   3.731
10457SOL    HW132270   3.574   4.117   3.708
10457SOL    HW232271   3.730   4.153   3.673
10458SOL     OW32272   0.802   6.941   0.618
10458SOL    HW132273   0.736   7.016   0.613
10458SOL    HW232274   0.881   6.970   0.673
10459SOL     OW32275   5.527   5.678   1.865
10459SOL    HW132276   5.567   5.727   1.788
10459SOL    HW232277   5.514   5.582   1.841
10460SOL     OW32278   2.676   5.723   1.970
10460SOL    HW132279   2.660   5.811   1.926
10460SOL    HW232280   2.768   5.721   2.008
10461SOL     OW32281   2.096   6.883   6.770
10461SOL    HW132282   2.133   6.793   6.751
10461SOL    HW232283   2.015   6.899   6.714
10462SOL     OW32284   5.759   0.531   0.540
10462SOL    HW132285   5.737   0.436   0.561
10462SOL    HW232286   5.836   0.560   0.597
10463SOL     OW32287   2.931   4.464   6.911
10463SOL    HW132288   2.949   4.392   6.844
10463SOL    HW232289   2.847   4.512   6.886
10464SOL     OW32290   4.602   0.399   1.365
10464SOL    HW132291   4.581   0.346   1.283
10464SOL    HW232292   4.534   0.380   1.435
10465SOL     OW32293   0.254   5.594   5.875
10465SOL    HW132294   0.290   5.624   5.787
10465SOL    HW232295   0.327   5.554   5.929
10466SOL     OW32296   4.932   5.548   4.937
10466SOL    HW132297   4.943   5.535   4.838
10466SOL    HW232298   4.836   5.567   4.958
10467SOL     OW32299   2.337   1.662   5.320
10467SOL    HW132300   2.416   1.683   5.377
10467SOL    HW232301   2.268   1.733   5.331
10468SOL     OW32302   3.445   6.295   4.243
10468SOL    HW132303   3.348   6.274   4.230
10468SOL    HW232304   3.459   6.394   4.237
10469SOL     OW32305   2.111   4.195   0.660
10469SOL    HW132306   2.202   4.153   0.653
10469SOL    HW232307   2.055   4.166   0.582
10470SOL     OW32308   2.212   1.812   3.783
10470SOL    HW132309   2.234   1.873   3.707
10470SOL    HW232310   2.117   1.782   3.775
10471SOL     OW32311   2.822   3.813   1.456
10471SOL    HW132312   2.823   3.774   1.364
10471SOL    HW232313   2.776   3.901   1.455
10472SOL     OW32314   3.958   6.967   2.263
10472SOL    HW132315   3.944   0.040   2.271
10472SOL    HW232316   4.006   6.946   2.178
10473SOL     OW32317   5.709   6.092   6.849
10473SOL    HW132318   5.802   6.129   6.850
10473SOL    HW232319   5.712   5.993   6.864
10474SOL     OW32320   3.884   0.934   4.232
10474SOL    HW132321   3.956   1.001   4.250
10474SOL    HW232322   3.838   0.956   4.146
10475SOL     OW32323   4.114   6.871   1.341
10475SOL    HW132324   4.143   6.884   1.436
10475SOL    HW232325   4.194   6.877   1.281
10476SOL     OW32326   6.331   5.053   6.080
10476SOL    HW132327   6.379   4.986   6.023
10476SOL    HW232328   6.372   5.056   6.171
10477SOL     OW32329   5.721   4.290   4.922
10477SOL    HW132330   5.759   4.280   5.014
10477SOL    HW232331   5.670   4.207   4.899
10478SOL     OW32332   0.329   6.279   1.054
10478SOL    HW132333   0.325   6.270   0.954
10478SOL    HW232334   0.416   6.242   1.086
10479SOL     OW32335   2.008   3.725   2.275
10479SOL    HW132336   1.999   3.657   2.203
10479SOL    HW232337   1.992   3.682   2.364
10480SOL     OW32338   5.195   0.007   2.444
10480SOL    HW132339   5.206   0.097   2.487
10480SOL    HW232340   5.283   7.003   2.406
10481SOL     OW32341   2.125   0.849   5.411
10481SOL    HW132342   2.106   0.941   5.378
10481SOL    HW232343   2.126   0.849   5.511
10482SOL     OW32344   0.808   6.042   4.819
10482SOL    HW132345   0.853   6.122   4.778
10482SOL    HW232346   0.765   5.988   4.747
10483SOL     OW32347   6.419   5.771   6.433
10483SOL    HW132348   6.450   5.773   6.338
10483SOL    HW232349   6.360   5.850   6.451
10484SOL     OW32350   0.669   0.813   1.588
10484SOL    HW132351   0.656   0.717   1.565
10484SOL    HW232352   0.704   0.820   1.681
10485SOL     OW32353   3.292   3.814   3.282
10485SOL    HW132354   3.222   3.876   3.248
10485SOL    HW232355   3.270   3.787   3.375
10486SOL     OW32356   6.550   6.247   5.307
10486SOL    HW132357   6.474   6.294   5.262
10486SOL    HW232358   6.534   6.244   5.406
10487SOL     OW32359   4.605   2.186   1.904
10487SOL    HW132360   4.646   2.100   1.872
10487SOL    HW232361   4.674   2.258   1.905
10488SOL     OW32362   0.222   2.209   5.382
10488SOL    HW132363   0.136   2.170   5.415
10488SOL    HW232364   0.299   2.152   5.410
10489SOL     OW32365   5.695   4.570   3.915
10489SOL    HW132366   5.746   4.526   3.989
10489SOL    HW232367   5.746   4.561   3.829
10490SOL     OW32368   5.967   6.661   6.833
10490SOL    HW132369   6.024   6.715   6.895
10490SOL    HW232370   5.980   6.693   6.739
10491SOL     OW32371   1.085   2.791   6.522
10491SOL    HW132372   0.994   2.799   6.563
10491SOL    HW232373   1.109   2.877   6.476
10492SOL     OW32374   4.448   0.716   0.793
10492SOL    HW132375   4.404   0.713   0.704
10492SOL    HW232376   4.504   0.634   0.806
10493SOL     OW32377   3.976   5.532   0.689
10493SOL    HW132378   4.065   5.577   0.679
10493SOL    HW232379   3.903   5.596   0.663
10494SOL     OW32380   0.834   4.163   6.006
10494SOL    HW132381   0.859   4.136   6.099
10494SOL    HW232382   0.907   4.218   5.966
10495SOL     OW32383   0.793   6.213   6.373
10495SOL    HW132384   0.831   6.305   6.374
10495SOL    HW232385   0.822   6.164   6.455
10496SOL     OW32386   0.130   3.511   5.482
10496SOL    HW132387   0.078   3.439   5.436
10496SOL    HW232388   0.101   3.600   5.447
10497SOL     OW32389   2.418   7.002   1.414
10497SOL    HW132390   2.369   6.919   1.441
10497SOL    HW232391   2.352   0.048   1.393
10498SOL     OW32392   4.178   5.836   0.579
10498SOL    HW132393   4.176   5.771   0.655
10498SOL    HW232394   4.177   5.787   0.492
10499SOL     OW32395   5.818   4.846   1.993
10499SOL    HW132396   5.818   4.943   1.967
10499SOL    HW232397   5.764   4.794   1.928
10500SOL     OW32398   6.352   4.309   5.865
10500SOL    HW132399   6.447   4.329   5.843
10500SOL    HW232400   6.293   4.378   5.825
10501SOL     OW32401   2.526   5.431   2.781
10501SOL    HW132402   2.497   5.348   2.732
10501SOL    HW232403   2.624   5.446   2.768
10502SOL     OW32404   3.070   3.967   2.231
10502SOL    HW132405   3.001   3.907   2.191
10502SOL    HW232406   3.148   3.975   2.169
10503SOL     OW32407   6.173   2.863   6.407
10503SOL    HW132408   6.084   2.827   6.380
10503SOL    HW232409   6.245   2.818   6.353
10504SOL     OW32410   1.543   2.542   6.226
10504SOL    HW132411   1.614   2.606   6.257
10504SOL    HW232412   1.549   2.458   6.279
10505SOL     OW32413   6.139   6.204   1.585
10505SOL    HW132414   6.180   6.114   1.567
10505SOL    HW232415   6.053   6.212   1.535
10506SOL     OW32416   1.079   2.437   0.552
10506SOL    HW132417   1.042   2.485   0.472
10506SOL    HW232418   1.038   2.346   0.558
10507SOL     OW32419   1.545   4.836   6.411
10507SOL    HW132420   1.532   4.738   6.420
10507SOL    HW232421   1.642   4.858   6.418
10508SOL     OW32422   1.067   5.412   4.980
10508SOL    HW132423   0.979   5.459   4.972
10508SOL    HW232424   1.079   5.350   4.902
10509SOL     OW32425   5.413   2.950   3.385
10509SOL    HW132426   5.337   2.889   3.361
10509SOL    HW232427   5.487   2.939   3.320
10510SOL     OW32428   4.578   5.527   4.490
10510SOL    HW132429   4.647   5.544   4.420
10510SOL    HW232430   4.498   5.484   4.449
10511SOL     OW32431   3.769   1.932   2.245
10511SOL    HW132432   3.703   1.964   2.313
10511SOL    HW232433   3.729   1.942   2.153
10512SOL     OW32434   4.467   1.100   4.709
10512SOL    HW132435   4.411   1.044   4.648
10512SOL    HW232436   4.562   1.070   4.703
10513SOL     OW32437   5.196   3.059   1.490
10513SOL    HW132438   5.173   3.015   1.577
10513SOL    HW232439   5.291   3.039   1.467
10514SOL     OW32440   1.042   2.864   1.666
10514SOL    HW132441   1.011   2.898   1.755
10514SOL    HW232442   1.014   2.769   1.655
10515SOL     OW32443   2.155   2.818   4.953
10515SOL    HW132444   2.227   2.836   5.020
10515SOL    HW232445   2.190   2.836   4.861
10516SOL     OW32446   3.308   2.303   0.960
10516SOL    HW132447   3.228   2.252   0.990
10516SOL    HW232448   3.316   2.388   1.013
10517SOL     OW32449   1.008   3.343   3.520
10517SOL    HW132450   0.985   3.428   3.566
10517SOL    HW232451   1.105   3.322   3.535
10518SOL     OW32452   0.781   5.393   2.524
10518SOL    HW132453   0.806   5.488   2.545
10518SOL    HW232454   0.749   5.388   2.429
10519SOL     OW32455   2.649   6.177   1.042
10519SOL    HW132456   2.656   6.179   0.942
10519SOL    HW232457   2.642   6.082   1.073
10520SOL     OW32458   0.069   1.835   5.518
10520SOL    HW132459   0.134   1.841   5.443
10520SOL    HW232460   0.099   1.763   5.582
10521SOL     OW32461   6.500   3.129   1.000
10521SOL    HW132462   6.486   3.047   1.055
10521SOL    HW232463   6.534   3.203   1.058
10522SOL     OW32464   5.016   2.569   3.554
10522SOL    HW132465   5.063   2.540   3.637
10522SOL    HW232466   5.049   2.514   3.477
10523SOL     OW32467   6.922   4.865   3.594
10523SOL    HW132468   6.895   4.957   3.622
10523SOL    HW232469   7.009   4.841   3.638
10524SOL     OW32470   6.256   6.808   4.184
10524SOL    HW132471   6.200   6.726   4.176
10524SOL    HW232472   6.351   6.785   4.159
10525SOL     OW32473   4.630   1.487   5.041
10525SOL    HW132474   4.645   1.449   4.949
10525SOL    HW232475   4.656   1.584   5.041
10526SOL     OW32476   1.008   5.216   0.703
10526SOL    HW132477   1.104   5.236   0.724
10526SOL    HW232478   0.968   5.293   0.654
10527SOL     OW32479   0.937   0.683   4.701
10527SOL    HW132480   0.910   0.587   4.706
10527SOL    HW232481   1.006   0.695   4.629
10528SOL     OW32482   1.106   4.114   6.232
10528SOL    HW132483   1.008   4.106   6.253
10528SOL    HW232484   1.152   4.160   6.308
10529SOL     OW32485   1.024   6.376   0.144
10529SOL    HW132486   1.043   6.397   0.048
10529SOL    HW232487   1.084   6.301   0.174
10530SOL     OW32488   0.491   6.474   0.703
10530SOL    HW132489   0.432   6.551   0.676
10530SOL    HW232490   0.562   6.507   0.766
10531SOL     OW32491   2.964   2.937   5.400
10531SOL    HW132492   2.997   2.870   5.467
10531SOL    HW232493   2.864   2.938   5.399
10532SOL     OW32494   5.578   6.153   6.456
10532SOL    HW132495   5.536   6.195   6.536
10532SOL    HW232496   5.676   6.172   6.455
10533SOL     OW32497   2.906   5.325   3.469
10533SOL    HW132498   2.936   5.305   3.562
10533SOL    HW232499   2.983   5.360   3.415
10534SOL     OW32500   1.276   6.044   2.721
10534SOL    HW132501   1.253   6.117   2.657
10534SOL    HW232502   1.213   6.046   2.798
10535SOL     OW32503   3.031   2.107   2.977
10535SOL    HW132504   3.027   2.134   2.881
10535SOL    HW232505   3.122   2.123   3.013
10536SOL     OW32506   5.517   1.785   4.041
10536SOL    HW132507   5.444   1.783   4.109
10536SOL    HW232508   5.590   1.847   4.072
10537SOL     OW32509   4.689   6.842   3.289
10537SOL    HW132510   4.728   6.778   3.223
10537SOL    HW232511   4.752   6.919   3.303
10538SOL     OW32512   6.432   2.772   2.540
10538SOL    HW132513   6.482   2.729   2.615
10538SOL    HW232514   6.440   2.715   2.458
10539SOL     OW32515   6.646   0.238   2.999
10539SOL    HW132516   6.693   0.179   3.064
10539SOL    HW232517   6.561   0.195   2.970
10540SOL     OW32518   2.632   3.709   5.940
10540SOL    HW132519   2.563   3.739   5.875
10540SOL    HW232520   2.692   3.642   5.897
10541SOL     OW32521   2.956   3.248   4.951
10541SOL    HW132522   2.977   3.177   5.019
10541SOL    HW232523   2.862   3.236   4.919
10542SOL     OW32524   5.418   6.915   4.359
10542SOL    HW132525   5.461   6.950   4.276
10542SOL    HW232526   5.471   6.838   4.394
10543SOL     OW32527   7.002   3.191   5.129
10543SOL    HW132528   0.017   3.100   5.118
10543SOL    HW232529   0.049   3.260   5.128
10544SOL     OW32530   1.420   0.686   3.683
10544SOL    HW132531   1.379   0.629   3.611
10544SOL    HW232532   1.355   0.757   3.710
10545SOL     OW32533   1.804   2.128   2.969
10545SOL    HW132534   1.734   2.175   2.916
10545SOL    HW232535   1.869   2.084   2.907
10546SOL     OW32536   3.082   6.691   0.891
10546SOL    HW132537   3.105   6.778   0.936
10546SOL    HW232538   2.997   6.702   0.840
10547SOL     OW32539   4.148   0.013   4.865
10547SOL    HW132540   4.078   0.056   4.922
10547SOL    HW232541   4.130   0.035   4.769
10548SOL     OW32542   1.043   4.733   4.258
10548SOL    HW132543   1.070   4.815   4.207
10548SOL    HW232544   1.125   4.687   4.294
10549SOL     OW32545   0.140   1.299   1.188
10549SOL    HW132546   0.207   1.347   1.131
10549SOL    HW232547   0.162   1.201   1.190
10550SOL     OW32548   3.619   6.132   3.451
10550SOL    HW132549   3.702   6.176   3.418
10550SOL    HW232550   3.552   6.201   3.477
10551SOL     OW32551   2.949   2.123   6.136
10551SOL    HW132552   2.970   2.220   6.121
10551SOL    HW232553   3.003   2.067   6.073
10552SOL     OW32554   3.359   0.449   4.547
10552SOL    HW132555   3.363   0.539   4.592
10552SOL    HW232556   3.451   0.409   4.543
10553SOL     OW32557   0.195   5.215   0.394
10553SOL    HW132558   0.232   5.273   0.466
10553SOL    HW232559   0.112   5.256   0.356
10554SOL     OW32560   5.900   4.916   2.750
10554SOL    HW132561   5.837   4.885   2.821
10554SOL    HW232562   5.865   4.890   2.660
10555SOL     OW32563   3.451   2.542   0.638
10555SOL    HW132564   3.455   2.443   0.624
10555SOL    HW232565   3.536   2.584   0.606
10556SOL     OW32566   1.934   2.018   3.181
10556SOL    HW132567   1.888   2.054   3.100
10556SOL    HW232568   2.000   2.085   3.214
10557SOL     OW32569   2.338   4.317   3.779
10557SOL    HW132570   2.399   4.356   3.848
10557SOL    HW232571   2.379   4.327   3.689
10558SOL     OW32572   2.640   5.765   6.163
10558SOL    HW132573   2.560   5.818   6.192
10558SOL    HW232574   2.618   5.668   6.166
10559SOL     OW32575   4.168   6.813   6.125
10559SOL    HW132576   4.177   6.728   6.074
10559SOL    HW232577   4.119   6.795   6.211
10560SOL     OW32578   4.982   6.467   1.862
10560SOL    HW132579   4.938   6.485   1.950
10560SOL    HW232580   5.081   6.457   1.876
10561SOL     OW32581   6.008   4.451   0.303
10561SOL    HW132582   6.029   4.549   0.307
10561SOL    HW232583   5.952   4.432   0.223
10562SOL     OW32584   3.238   6.212   2.080
10562SOL    HW132585   3.143   6.189   2.100
10562SOL    HW232586   3.248   6.312   2.077
10563SOL     OW32587   0.386   0.551   0.803
10563SOL    HW132588   0.470   0.605   0.809
10563SOL    HW232589   0.329   0.586   0.728
10564SOL     OW32590   5.612   5.625   3.964
10564SOL    HW132591   5.620   5.668   3.874
10564SOL    HW232592   5.645   5.688   4.034
10565SOL     OW32593   7.005   6.754   5.333
10565SOL    HW132594   0.038   6.820   5.379
10565SOL    HW232595   6.995   6.673   5.390
10566SOL     OW32596   2.774   2.631   0.211
10566SOL    HW132597   2.806   2.722   0.186
10566SOL    HW232598   2.707   2.638   0.284
10567SOL     OW32599   1.081   2.364   6.335
10567SOL    HW132600   1.159   2.403   6.384
10567SOL    HW232601   0.996   2.391   6.380
10568SOL     OW32602   5.336   2.443   5.745
10568SOL    HW132603   5.260   2.381   5.764
10568SOL    HW232604   5.310   2.508   5.673
10569SOL     OW32605   5.498   6.707   1.259
10569SOL    HW132606   5.518   6.630   1.198
10569SOL    HW232607   5.399   6.717   1.268
10570SOL     OW32608   0.696   5.033   4.259
10570SOL    HW132609   0.791   5.062   4.252
10570SOL    HW232610   0.685   4.976   4.341
10571SOL     OW32611   0.336   4.031   6.293
10571SOL    HW132612   0.273   4.001   6.221
10571SOL    HW232613   0.359   3.953   6.351
10572SOL     OW32614   6.178   4.127   1.213
10572SOL    HW132615   6.261   4.087   1.175
10572SOL    HW232616   6.165   4.093   1.306
10573SOL     OW32617   5.422   1.301   3.493
10573SOL    HW132618   5.473   1.237   3.436
10573SOL    HW232619   5.369   1.250   3.561
10574SOL     OW32620   0.583   1.924   3.847
10574SOL    HW132621   0.496   1.899   3.803
10574SOL    HW232622   0.573   1.919   3.946
10575SOL     OW32623   6.104   0.797   1.476
10575SOL    HW132624   6.173   0.733   1.444
10575SOL    HW232625   6.033   0.808   1.407
10576SOL     OW32626   2.657   4.633   3.805
10576SOL    HW132627   2.597   4.712   3.790
10576SOL    HW232628   2.713   4.649   3.886
10577SOL     OW32629   4.239   6.103   0.530
10577SOL    HW132630   4.327   6.140   0.502
10577SOL    HW232631   4.246   6.003   0.540
10578SOL     OW32632   6.992   2.788   3.988
10578SOL    HW132633   6.949   2.839   3.914
10578SOL    HW232634   6.943   2.806   4.073
10579SOL     OW32635   1.763   3.670   0.867
10579SOL    HW132636   1.701   3.660   0.789
10579SOL    HW232637   1.825   3.592   0.871
10580SOL     OW32638   6.642   6.727   6.259
10580SOL    HW132639   6.597   6.640   6.280
10580SOL    HW232640   6.730   6.708   6.215
10581SOL     OW32641   5.546   0.155   2.665
10581SOL    HW132642   5.524   0.214   2.742
10581SOL    HW232643   5.585   0.209   2.591
10582SOL     OW32644   5.583   4.216   6.472
10582SOL    HW132645   5.496   4.242   6.515
10582SOL    HW232646   5.637   4.299   6.456
10583SOL     OW32647   2.673   0.918   4.965
10583SOL    HW132648   2.644   0.890   5.057
10583SOL    HW232649   2.679   0.837   4.906
10584SOL     OW32650   0.013   0.053   5.656
10584SOL    HW132651   6.959   0.104   5.622
10584SOL    HW232652   0.069   0.113   5.713
10585SOL     OW32653   0.683   0.527   5.500
10585SOL    HW132654   0.753   0.567   5.441
10585SOL    HW232655   0.618   0.597   5.527
10586SOL     OW32656   4.363   4.576   5.398
10586SOL    HW132657   4.409   4.536   5.477
10586SOL    HW232658   4.298   4.511   5.360
10587SOL     OW32659   1.341   5.884   5.589
10587SOL    HW132660   1.367   5.943   5.513
10587SOL    HW232661   1.307   5.797   5.553
10588SOL     OW32662   1.300   4.652   4.369
10588SOL    HW132663   1.292   4.633   4.467
10588SOL    HW232664   1.322   4.748   4.356
10589SOL     OW32665   5.588   6.049   3.787
10589SOL    HW132666   5.549   6.022   3.875
10589SOL    HW232667   5.601   5.968   3.730
10590SOL     OW32668   0.586   5.535   2.853
10590SOL    HW132669   0.673   5.490   2.875
10590SOL    HW232670   0.587   5.628   2.890
10591SOL     OW32671   1.202   1.978   1.880
10591SOL    HW132672   1.190   2.035   1.960
10591SOL    HW232673   1.300   1.971   1.858
10592SOL     OW32674   5.950   2.229   5.512
10592SOL    HW132675   5.858   2.235   5.551
10592SOL    HW232676   5.946   2.178   5.426
10593SOL     OW32677   2.911   5.983   1.927
10593SOL    HW132678   2.939   5.887   1.931
10593SOL    HW232679   2.817   5.989   1.893
10594SOL     OW32680   3.111   0.180   3.848
10594SOL    HW132681   3.028   0.126   3.863
10594SOL    HW232682   3.154   0.150   3.762
10595SOL     OW32683   6.173   6.691   0.786
10595SOL    HW132684   6.121   6.702   0.871
10595SOL    HW232685   6.267   6.722   0.802
10596SOL     OW32686   5.157   2.311   6.665
10596SOL    HW132687   5.122   2.218   6.653
10596SOL    HW232688   5.233   2.310   6.730
10597SOL     OW32689   2.390   0.487   6.098
10597SOL    HW132690   2.427   0.397   6.117
10597SOL    HW232691   2.298   0.478   6.060
10598SOL     OW32692   2.445   2.018   6.230
10598SOL    HW132693   2.517   2.087   6.232
10598SOL    HW232694   2.403   2.011   6.321
10599SOL     OW32695   6.720   3.646   6.119
10599SOL    HW132696   6.805   3.624   6.169
10599SOL    HW232697   6.731   3.622   6.023
10600SOL     OW32698   3.042   1.821   1.286
10600SOL    HW132699   3.063   1.753   1.356
10600SOL    HW232700   2.971   1.882   1.320
10601SOL     OW32701   0.183   6.343   5.764
10601SOL    HW132702   0.140   6.420   5.715
10601SOL    HW232703   0.116   6.270   5.774
10602SOL     OW32704   0.353   0.305   0.921
10602SOL    HW132705   0.269   0.304   0.975
10602SOL    HW232706   0.368   0.397   0.884
10603SOL     OW32707   4.983   0.103   2.275
10603SOL    HW132708   5.044   0.132   2.201
10603SOL    HW232709   5.038   0.071   2.353
10604SOL     OW32710   6.063   6.958   4.632
10604SOL    HW132711   6.113   6.895   4.692
10604SOL    HW232712   6.115   6.975   4.549
10605SOL     OW32713   2.457   1.438   1.218
10605SOL    HW132714   2.500   1.525   1.192
10605SOL    HW232715   2.460   1.428   1.317
10606SOL     OW32716   6.486   0.848   0.948
10606SOL    HW132717   6.449   0.863   1.040
10606SOL    HW232718   6.524   0.755   0.943
10607SOL     OW32719   3.882   4.153   6.383
10607SOL    HW132720   3.839   4.069   6.417
10607SOL    HW232721   3.851   4.230   6.439
10608SOL     OW32722   6.084   3.601   2.940
10608SOL    HW132723   6.139   3.552   2.872
10608SOL    HW232724   6.022   3.537   2.985
10609SOL     OW32725   4.551   1.544   6.767
10609SOL    HW132726   4.570   1.520   6.672
10609SOL    HW232727   4.535   1.460   6.820
10610SOL     OW32728   0.946   0.943   4.287
10610SOL    HW132729   0.931   1.018   4.223
10610SOL    HW232730   1.017   0.883   4.252
10611SOL     OW32731   3.216   5.249   5.001
10611SOL    HW132732   3.196   5.345   4.983
10611SOL    HW232733   3.157   5.216   5.075
10612SOL     OW32734   5.773   1.543   3.532
10612SOL    HW132735   5.774   1.464   3.594
10612SOL    HW232736   5.762   1.512   3.438
10613SOL     OW32737   5.979   0.091   4.188
10613SOL    HW132738   5.943   0.146   4.263
10613SOL    HW232739   5.973   7.020   4.212
10614SOL     OW32740   4.678   0.589   6.416
10614SOL    HW132741   4.598   0.601   6.358
10614SOL    HW232742   4.760   0.617   6.366
10615SOL     OW32743   1.903   2.192   6.451
10615SOL    HW132744   1.893   2.245   6.367
10615SOL    HW232745   1.905   2.254   6.529
10616SOL     OW32746   2.671   6.593   6.814
10616SOL    HW132747   2.666   6.677   6.866
10616SOL    HW232748   2.705   6.519   6.872
10617SOL     OW32749   2.703   3.092   1.405
10617SOL    HW132750   2.642   3.013   1.413
10617SOL    HW232751   2.656   3.173   1.439
10618SOL     OW32752   0.556   5.318   5.308
10618SOL    HW132753   0.617   5.379   5.359
10618SOL    HW232754   0.543   5.354   5.215
10619SOL     OW32755   0.935   2.276   3.262
10619SOL    HW132756   0.948   2.374   3.273
10619SOL    HW232757   0.991   2.227   3.330
10620SOL     OW32758   2.882   0.536   6.986
10620SOL    HW132759   2.803   0.528   6.924
10620SOL    HW232760   2.959   0.486   6.948
10621SOL     OW32761   1.015   3.766   3.104
10621SOL    HW132762   1.032   3.773   3.202
10621SOL    HW232763   1.080   3.702   3.063
10622SOL     OW32764   4.431   3.407   0.272
10622SOL    HW132765   4.511   3.466   0.257
10622SOL    HW232766   4.418   3.393   0.370
10623SOL     OW32767   5.565   6.302   6.733
10623SOL    HW132768   5.618   6.235   6.784
10623SOL    HW232769   5.604   6.393   6.747
10624SOL     OW32770   0.232   2.445   5.087
10624SOL    HW132771   0.195   2.475   5.174
10624SOL    HW232772   0.332   2.441   5.093
10625SOL     OW32773   6.534   4.618   6.640
10625SOL    HW132774   6.525   4.714   6.665
10625SOL    HW232775   6.550   4.563   6.722
10626SOL     OW32776   4.848   3.559   1.115
10626SOL    HW132777   4.803   3.618   1.048
10626SOL    HW232778   4.941   3.593   1.131
10627SOL     OW32779   5.228   6.368   6.303
10627SOL    HW132780   5.206   6.305   6.377
10627SOL    HW232781   5.302   6.331   6.248
10628SOL     OW32782   4.920   0.694   1.077
10628SOL    HW132783   4.838   0.739   1.041
10628SOL    HW232784   4.993   0.762   1.088
10629SOL     OW32785   2.912   5.254   4.653
10629SOL    HW132786   2.858   5.197   4.590
10629SOL    HW232787   2.891   5.229   4.747
10630SOL     OW32788   4.259   0.219   2.870
10630SOL    HW132789   4.165   0.238   2.841
10630SOL    HW232790   4.273   0.253   2.963
10631SOL     OW32791   4.379   6.083   6.842
10631SOL    HW132792   4.446   6.143   6.799
10631SOL    HW232793   4.374   5.997   6.791
10632SOL     OW32794   4.882   5.375   3.251
10632SOL    HW132795   4.932   5.358   3.166
10632SOL    HW232796   4.889   5.472   3.275
10633SOL     OW32797   1.763   2.798   1.927
10633SOL    HW132798   1.736   2.803   2.023
10633SOL    HW232799   1.725   2.877   1.878
10634SOL     OW32800   6.973   4.255   6.825
10634SOL    HW132801   6.924   4.247   6.739
10634SOL    HW232802   6.928   4.322   6.884
10635SOL     OW32803   2.529   3.875   6.975
10635SOL    HW132804   2.549   3.959   7.025
10635SOL    HW232805   2.568   3.797   7.025
10636SOL     OW32806   6.494   2.315   6.305
10636SOL    HW132807   6.559   2.325   6.381
10636SOL    HW232808   6.543   2.322   6.218
10637SOL     OW32809   3.096   0.155   0.041
10637SOL    HW132810   3.104   0.058   0.066
10637SOL    HW232811   3.131   0.212   0.115
10638SOL     OW32812   6.964   5.134   1.946
10638SOL    HW132813   6.875   5.177   1.935
10638SOL    HW232814   7.023   5.191   2.004
10639SOL     OW32815   2.025   4.331   1.132
10639SOL    HW132816   2.064   4.259   1.075
10639SOL    HW232817   2.043   4.310   1.229
10640SOL     OW32818   4.271   0.047   3.158
10640SOL    HW132819   4.228   0.137   3.164
10640SOL    HW232820   4.207   7.007   3.118
10641SOL     OW32821   0.780   0.138   3.603
10641SOL    HW132822   0.836   0.097   3.531
10641SOL    HW232823   0.820   0.225   3.631
10642SOL     OW32824   5.386   2.196   6.421
10642SOL    HW132825   5.476   2.238   6.431
10642SOL    HW232826   5.316   2.255   6.462
10643SOL     OW32827   1.720   5.085   5.905
10643SOL    HW132828   1.780   5.012   5.873
10643SOL    HW232829   1.754   5.120   5.992
10644SOL     OW32830   0.580   2.460   2.859
10644SOL    HW132831   0.622   2.424   2.942
10644SOL    HW232832   0.521   2.537   2.882
10645SOL     OW32833   2.243   2.997   3.597
10645SOL    HW132834   2.231   2.907   3.639
10645SOL    HW232835   2.309   2.991   3.523
10646SOL     OW32836   5.396   1.082   3.918
10646SOL    HW132837   5.486   1.039   3.902
10646SOL    HW232838   5.350   1.034   3.992
10647SOL     OW32839   3.732   5.190   5.048
10647SOL    HW132840   3.698   5.139   4.969
10647SOL    HW232841   3.797   5.260   5.017
10648SOL     OW32842   5.986   5.763   4.946
10648SOL    HW132843   6.006   5.849   4.899
10648SOL    HW232844   5.890   5.739   4.933
10649SOL     OW32845   0.041   3.502   3.045
10649SOL    HW132846   6.986   3.561   3.040
10649SOL    HW232847   0.020   3.421   3.099
10650SOL     OW32848   0.049   0.838   4.220
10650SOL    HW132849   7.014   0.760   4.235
10650SOL    HW232850   0.004   0.904   4.158
10651SOL     OW32851   4.562   5.727   5.864
10651SOL    HW132852   4.576   5.798   5.795
10651SOL    HW232853   4.596   5.640   5.831
10652SOL     OW32854   1.913   6.932   6.555
10652SOL    HW132855   1.817   6.955   6.566
10652SOL    HW232856   1.928   6.890   6.465
10653SOL     OW32857   3.636   6.123   4.339
10653SOL    HW132858   3.569   6.195   4.322
10653SOL    HW232859   3.695   6.114   4.259
10654SOL     OW32860   5.658   1.137   4.627
10654SOL    HW132861   5.597   1.213   4.649
10654SOL    HW232862   5.723   1.124   4.702
10655SOL     OW32863   1.265   4.783   1.579
10655SOL    HW132864   1.308   4.873   1.569
10655SOL    HW232865   1.231   4.752   1.490
10656SOL     OW32866   6.528   1.199   1.661
10656SOL    HW132867   6.440   1.241   1.684
10656SOL    HW232868   6.598   1.270   1.654
10657SOL     OW32869   5.779   0.607   3.947
10657SOL    HW132870   5.772   0.618   3.848
10657SOL    HW232871   5.689   0.585   3.984
10658SOL     OW32872   6.352   3.805   4.994
10658SOL    HW132873   6.444   3.809   4.955
10658SOL    HW232874   6.357   3.817   5.093
10659SOL     OW32875   1.064   5.216   1.310
10659SOL    HW132876   1.059   5.116   1.316
10659SOL    HW232877   0.977   5.252   1.275
10660SOL     OW32878   6.642   3.458   5.392
10660SOL    HW132879   6.661   3.370   5.347
10660SOL    HW232880   6.548   3.486   5.373
10661SOL     OW32881   1.617   4.040   0.069
10661SOL    HW132882   1.523   4.073   0.072
10661SOL    HW232883   1.620   3.945   0.097
10662SOL     OW32884   2.632   1.359   3.441
10662SOL    HW132885   2.686   1.420   3.383
10662SOL    HW232886   2.677   1.350   3.530
10663SOL     OW32887   1.658   1.706   4.122
10663SOL    HW132888   1.638   1.641   4.195
10663SOL    HW232889   1.702   1.787   4.161
10664SOL     OW32890   1.294   5.227   4.291
10664SOL    HW132891   1.302   5.193   4.385
10664SOL    HW232892   1.241   5.311   4.290
10665SOL     OW32893   1.708   2.872   6.136
10665SOL    HW132894   1.730   2.793   6.079
10665SOL    HW232895   1.627   2.917   6.100
10666SOL     OW32896   3.773   3.440   2.461
10666SOL    HW132897   3.799   3.488   2.377
10666SOL    HW232898   3.770   3.342   2.443
10667SOL     OW32899   5.702   2.093   3.025
10667SOL    HW132900   5.728   1.997   3.019
10667SOL    HW232901   5.746   2.135   3.105
10668SOL     OW32902   3.198   2.146   5.355
10668SOL    HW132903   3.108   2.105   5.368
10668SOL    HW232904   3.189   2.227   5.297
10669SOL     OW32905   5.569   1.049   1.164
10669SOL    HW132906   5.631   1.071   1.088
10669SOL    HW232907   5.608   1.080   1.250
10670SOL     OW32908   5.344   3.684   4.002
10670SOL    HW132909   5.280   3.746   4.049
10670SOL    HW232910   5.300   3.648   3.920
10671SOL     OW32911   1.141   2.123   4.306
10671SOL    HW132912   1.226   2.072   4.293
10671SOL    HW232913   1.067   2.059   4.329
10672SOL     OW32914   6.020   3.573   1.959
10672SOL    HW132915   6.077   3.627   1.896
10672SOL    HW232916   5.964   3.510   1.906
10673SOL     OW32917   1.922   0.989   1.394
10673SOL    HW132918   1.915   0.913   1.457
10673SOL    HW232919   1.990   1.054   1.428
10674SOL     OW32920   3.829   2.971   4.539
10674SOL    HW132921   3.887   2.923   4.605
10674SOL    HW232922   3.883   3.041   4.492
10675SOL     OW32923   3.834   0.018   5.736
10675SOL    HW132924   3.736   0.028   5.757
10675SOL    HW232925   3.881   0.103   5.756
10676SOL     OW32926   1.144   6.398   5.395
10676SOL    HW132927   1.079   6.421   5.467
10676SOL    HW232928   1.222   6.462   5.398
10677SOL     OW32929   0.689   2.081   0.602
10677SOL    HW132930   0.602   2.130   0.611
10677SOL    HW232931   0.670   1.984   0.585
10678SOL     OW32932   3.969   5.344   3.702
10678SOL    HW132933   4.001   5.412   3.767
10678SOL    HW232934   3.967   5.383   3.610
10679SOL     OW32935   4.576   4.507   0.065
10679SOL    HW132936   4.551   4.603   0.078
10679SOL    HW232937   4.654   4.485   0.122
10680SOL     OW32938   3.616   1.682   4.238
10680SOL    HW132939   3.691   1.741   4.268
10680SOL    HW232940   3.599   1.697   4.140
10681SOL     OW32941   6.582   3.389   6.166
10681SOL    HW132942   6.642   3.393   6.086
10681SOL    HW232943   6.561   3.294   6.188
10682SOL     OW32944   6.270   3.083   5.445
10682SOL    HW132945   6.258   2.990   5.411
10682SOL    HW232946   6.214   3.146   5.391
10683SOL     OW32947   4.128   0.400   3.523
10683SOL    HW132948   4.172   0.315   3.554
10683SOL    HW232949   4.147   0.413   3.426
10684SOL     OW32950   5.324   4.612   1.055
10684SOL    HW132951   5.295   4.692   1.107
10684SOL    HW232952   5.311   4.629   0.958
10685SOL     OW32953   0.192   5.226   2.163
10685SOL    HW132954   0.101   5.216   2.204
10685SOL    HW232955   0.255   5.261   2.232
10686SOL     OW32956   2.337   4.273   0.327
10686SOL    HW132957   2.280   4.231   0.257
10686SOL    HW232958   2.351   4.370   0.305
10687SOL     OW32959   6.620   4.515   3.001
10687SOL    HW132960   6.688   4.570   3.050
10687SOL    HW232961   6.666   4.459   2.932
10688SOL     OW32962   5.475   1.149   1.961
10688SOL    HW132963   5.481   1.051   1.941
10688SOL    HW232964   5.521   1.168   2.048
10689SOL     OW32965   0.271   7.023   1.810
10689SOL    HW132966   0.220   0.040   1.736
10689SOL    HW232967   0.316   0.068   1.865
10690SOL     OW32968   6.494   5.906   3.542
10690SOL    HW132969   6.481   5.946   3.451
10690SOL    HW232970   6.404   5.885   3.582
10691SOL     OW32971   3.058   1.899   2.058
10691SOL    HW132972   3.090   1.915   1.965
10691SOL    HW232973   3.058   1.985   2.109
10692SOL     OW32974   2.714   0.552   5.115
10692SOL    HW132975   2.651   0.628   5.100
10692SOL    HW232976   2.676   0.468   5.075
10693SOL     OW32977   0.877   5.701   1.500
10693SOL    HW132978   0.894   5.797   1.519
10693SOL    HW232979   0.910   5.679   1.408
10694SOL     OW32980   4.794   6.067   6.090
10694SOL    HW132981   4.822   5.974   6.111
10694SOL    HW232982   4.796   6.082   5.991
10695SOL     OW32983   1.008   3.204   0.879
10695SOL    HW132984   1.006   3.228   0.781
10695SOL    HW232985   1.095   3.235   0.918
10696SOL     OW32986   6.407   4.165   5.122
10696SOL    HW132987   6.319   4.171   5.075
10696SOL    HW232988   6.464   4.096   5.078
10697SOL     OW32989   0.694   6.210   5.171
10697SOL    HW132990   0.724   6.159   5.090
10697SOL    HW232991   0.735   6.301   5.169
10698SOL     OW32992   4.822   4.349   6.833
10698SOL    HW132993   4.726   4.364   6.856
10698SOL    HW232994   4.827   4.303   6.744
10699SOL     OW32995   3.665   4.293   0.827
10699SOL    HW132996   3.630   4.371   0.879
10699SOL    HW232997   3.674   4.214   0.888
10700SOL     OW32998   5.925   6.897   0.382
10700SOL    HW132999   5.955   6.811   0.423
10700SOL    HW233000   5.859   6.879   0.309
10701SOL     OW33001   2.935   0.051   6.440
10701SOL    HW133002   2.927   0.116   6.516
10701SOL    HW233003   3.000   0.086   6.373
10702SOL     OW33004   5.152   3.096   2.721
10702SOL    HW133005   5.128   3.125   2.629
10702SOL    HW233006   5.097   3.148   2.787
10703SOL     OW33007   2.192   2.550   5.784
10703SOL    HW133008   2.127   2.619   5.751
10703SOL    HW233009   2.202   2.559   5.883
10704SOL     OW33010   6.646   5.518   2.460
10704SOL    HW133011   6.702   5.599   2.444
10704SOL    HW233012   6.605   5.523   2.551
10705SOL     OW33013   5.880   4.480   1.076
10705SOL    HW133014   5.820   4.465   1.154
10705SOL    HW233015   5.833   4.453   0.992
10706SOL     OW33016   4.475   0.061   1.952
10706SOL    HW133017   4.472   0.007   1.868
10706SOL    HW233018   4.515   0.150   1.932
10707SOL     OW33019   6.438   0.022   4.447
10707SOL    HW133020   6.495   0.065   4.377
10707SOL    HW233021   6.478   6.960   4.474
10708SOL     OW33022   4.977   1.537   2.263
10708SOL    HW133023   4.887   1.495   2.273
10708SOL    HW233024   5.024   1.499   2.183
10709SOL     OW33025   5.808   5.476   3.766
10709SOL    HW133026   5.868   5.485   3.846
10709SOL    HW233027   5.763   5.387   3.768
10710SOL     OW33028   5.618   0.733   3.449
10710SOL    HW133029   5.660   0.773   3.369
10710SOL    HW233030   5.641   0.635   3.453
10711SOL     OW33031   2.315   6.934   3.678
10711SOL    HW133032   2.279   6.935   3.771
10711SOL    HW233033   2.292   6.847   3.634
10712SOL     OW33034   4.414   0.393   3.092
10712SOL    HW133035   4.470   0.319   3.129
10712SOL    HW233036   4.448   0.418   3.002
10713SOL     OW33037   1.534   2.718   0.350
10713SOL    HW133038   1.450   2.733   0.297
10713SOL    HW233039   1.535   2.777   0.430
10714SOL     OW33040   4.359   3.100   5.343
10714SOL    HW133041   4.289   3.069   5.407
10714SOL    HW233042   4.323   3.175   5.288
10715SOL     OW33043   4.803   0.255   2.417
10715SOL    HW133044   4.749   0.295   2.343
10715SOL    HW233045   4.874   0.196   2.379
10716SOL     OW33046   6.620   2.584   3.197
10716SOL    HW133047   6.566   2.668   3.195
10716SOL    HW233048   6.583   2.522   3.266
10717SOL     OW33049   1.839   2.889   0.748
10717SOL    HW133050   1.755   2.863   0.797
10717SOL    HW233051   1.843   2.842   0.660
10718SOL     OW33052   1.230   4.513   6.658
10718SOL    HW133053   1.252   4.495   6.562
10718SOL    HW233054   1.137   4.482   6.678
10719SOL     OW33055   5.851   6.074   3.264
10719SOL    HW133056   5.847   6.106   3.169
10719SOL    HW233057   5.760   6.078   3.305
10720SOL     OW33058   5.730   5.189   4.225
10720SOL    HW133059   5.632   5.170   4.230
10720SOL    HW233060   5.745   5.287   4.219
10721SOL     OW33061   5.242   3.979   5.322
10721SOL    HW133062   5.340   3.977   5.343
10721SOL    HW233063   5.206   4.071   5.337
10722SOL     OW33064   6.265   4.002   0.091
10722SOL    HW133065   6.314   4.089   0.098
10722SOL    HW233066   6.171   4.019   0.062
10723SOL     OW33067   0.009   1.978   6.282
10723SOL    HW133068   0.075   1.903   6.272
10723SOL    HW233069   0.006   2.031   6.197
10724SOL     OW33070   0.318   6.622   6.236
10724SOL    HW133071   0.309   6.541   6.178
10724SOL    HW233072   0.414   6.653   6.235
10725SOL     OW33073   2.226   5.885   5.459
10725SOL    HW133074   2.239   5.977   5.422
10725SOL    HW233075   2.259   5.818   5.392
10726SOL     OW33076   4.356   0.369   4.198
10726SOL    HW133077   4.358   0.394   4.295
10726SOL    HW233078   4.264   0.339   4.173
10727SOL     OW33079   0.858   5.475   6.200
10727SOL    HW133080   0.801   5.430   6.131
10727SOL    HW233081   0.812   5.557   6.234
10728SOL     OW33082   0.969   4.767   0.024
10728SOL    HW133083   0.963   4.772   6.950
10728SOL    HW233084   0.877   4.773   0.063
10729SOL     OW33085   6.232   1.569   1.874
10729SOL    HW133086   6.162   1.630   1.912
10729SOL    HW233087   6.302   1.551   1.944
10730SOL     OW33088   3.393   6.907   0.830
10730SOL    HW133089   3.313   6.882   0.885
10730SOL    HW233090   3.467   6.841   0.847
10731SOL     OW33091   3.746   0.535   0.898
10731SOL    HW133092   3.716   0.570   0.809
10731SOL    HW233093   3.792   0.608   0.948
10732SOL     OW33094   0.771   4.686   5.729
10732SOL    HW133095   0.814   4.691   5.820
10732SOL    HW233096   0.793   4.768   5.677
10733SOL     OW33097   6.159   1.430   6.672
10733SOL    HW133098   6.087   1.367   6.644
10733SOL    HW233099   6.243   1.409   6.622
10734SOL     OW33100   1.689   1.477   0.848
10734SOL    HW133101   1.704   1.573   0.868
10734SOL    HW233102   1.600   1.465   0.804
10735SOL     OW33103   0.365   3.018   2.417
10735SOL    HW133104   0.350   3.050   2.510
10735SOL    HW233105   0.424   2.938   2.418
10736SOL     OW33106   2.179   0.382   3.302
10736SOL    HW133107   2.118   0.461   3.306
10736SOL    HW233108   2.151   0.323   3.226
10737SOL     OW33109   0.821   1.904   1.117
10737SOL    HW133110   0.793   2.000   1.120
10737SOL    HW233111   0.843   1.878   1.023
10738SOL     OW33112   3.168   5.961   2.681
10738SOL    HW133113   3.120   5.979   2.767
10738SOL    HW233114   3.163   6.043   2.623
10739SOL     OW33115   2.033   1.636   1.328
10739SOL    HW133116   2.097   1.657   1.401
10739SOL    HW233117   1.943   1.673   1.351
10740SOL     OW33118   6.795   4.695   5.813
10740SOL    HW133119   6.861   4.770   5.814
10740SOL    HW233120   6.804   4.642   5.898
10741SOL     OW33121   4.145   0.623   1.519
10741SOL    HW133122   4.079   0.698   1.523
10741SOL    HW233123   4.237   0.659   1.534
10742SOL     OW33124   6.417   6.799   0.864
10742SOL    HW133125   6.448   6.891   0.837
10742SOL    HW233126   6.448   6.780   0.957
10743SOL     OW33127   1.573   1.928   5.612
10743SOL    HW133128   1.612   1.912   5.521
10743SOL    HW233129   1.609   1.861   5.676
10744SOL     OW33130   3.656   1.712   0.573
10744SOL    HW133131   3.708   1.788   0.612
10744SOL    HW233132   3.631   1.649   0.647
10745SOL     OW33133   6.992   5.666   5.847
10745SOL    HW133134   6.957   5.629   5.933
10745SOL    HW233135   0.066   5.671   5.850
10746SOL     OW33136   1.018   4.101   0.442
10746SOL    HW133137   1.105   4.142   0.468
10746SOL    HW233138   1.015   4.006   0.473
10747SOL     OW33139   3.593   1.063   4.805
10747SOL    HW133140   3.667   1.002   4.833
10747SOL    HW233141   3.591   1.143   4.864
10748SOL     OW33142   5.370   0.461   1.499
10748SOL    HW133143   5.302   0.532   1.518
10748SOL    HW233144   5.455   0.504   1.468
10749SOL     OW33145   6.977   6.042   4.336
10749SOL    HW133146   0.033   6.086   4.300
10749SOL    HW233147   6.914   6.111   4.371
10750SOL     OW33148   3.589   6.856   4.980
10750SOL    HW133149   3.654   6.801   5.033
10750SOL    HW233150   3.605   6.842   4.883
10751SOL     OW33151   2.016   4.422   3.967
10751SOL    HW133152   2.097   4.481   3.978
10751SOL    HW233153   1.969   4.447   3.882
10752SOL     OW33154   6.205   4.670   5.349
10752SOL    HW133155   6.196   4.665   5.250
10752SOL    HW233156   6.185   4.581   5.390
10753SOL     OW33157   6.532   4.420   4.052
10753SOL    HW133158   6.528   4.326   4.085
10753SOL    HW233159   6.621   4.459   4.074
10754SOL     OW33160   1.052   0.031   3.406
10754SOL    HW133161   1.061   0.092   3.328
10754SOL    HW233162   1.005   6.972   3.378
10755SOL     OW33163   6.826   0.333   0.784
10755SOL    HW133164   6.861   0.299   0.696
10755SOL    HW233165   6.896   0.321   0.855
10756SOL     OW33166   6.670   5.385   5.631
10756SOL    HW133167   6.696   5.471   5.674
10756SOL    HW233168   6.593   5.345   5.679
10757SOL     OW33169   2.061   2.095   0.090
10757SOL    HW133170   2.159   2.108   0.107
10757SOL    HW233171   2.027   2.171   0.035
10758SOL     OW33172   0.704   6.152   4.165
10758SOL    HW133173   0.641   6.085   4.205
10758SOL    HW233174   0.770   6.105   4.107
10759SOL     OW33175   1.925   3.459   0.854
10759SOL    HW133176   1.994   3.441   0.924
10759SOL    HW233177   1.970   3.484   0.768
10760SOL     OW33178   6.002   1.029   3.204
10760SOL    HW133179   6.000   0.960   3.275
10760SOL    HW233180   6.014   1.120   3.245
10761SOL     OW33181   0.739   5.878   5.723
10761SOL    HW133182   0.805   5.916   5.788
10761SOL    HW233183   0.707   5.949   5.662
10762SOL     OW33184   2.890   1.114   4.996
10762SOL    HW133185   2.953   1.068   4.934
10762SOL    HW233186   2.798   1.077   4.983
10763SOL     OW33187   3.964   6.420   2.672
10763SOL    HW133188   3.947   6.353   2.600
10763SOL    HW233189   3.931   6.509   2.644
10764SOL     OW33190   5.205   2.047   5.052
10764SOL    HW133191   5.253   2.040   4.964
10764SOL    HW233192   5.227   2.134   5.095
10765SOL     OW33193   4.649   3.187   0.874
10765SOL    HW133194   4.605   3.112   0.923
10765SOL    HW233195   4.612   3.274   0.907
10766SOL     OW33196   4.212   4.827   0.483
10766SOL    HW133197   4.203   4.799   0.579
10766SOL    HW233198   4.120   4.845   0.446
10767SOL     OW33199   2.710   0.655   1.330
10767SOL    HW133200   2.693   0.729   1.395
10767SOL    HW233201   2.765   0.584   1.375
10768SOL     OW33202   5.601   5.176   1.464
10768SOL    HW133203   5.694   5.176   1.427
10768SOL    HW233204   5.538   5.212   1.396
10769SOL     OW33205   1.927   3.817   5.769
10769SOL    HW133206   1.883   3.853   5.686
10769SOL    HW233207   2.001   3.877   5.797
10770SOL     OW33208   4.913   6.348   4.016
10770SOL    HW133209   4.886   6.256   4.044
10770SOL    HW233210   4.994   6.343   3.957
10771SOL     OW33211   3.981   0.270   3.826
10771SOL    HW133212   4.075   0.270   3.860
10771SOL    HW233213   3.970   0.342   3.757
10772SOL     OW33214   5.927   6.413   4.966
10772SOL    HW133215   5.950   6.510   4.957
10772SOL    HW233216   5.906   6.376   4.875
10773SOL     OW33217   5.897   4.635   6.360
10773SOL    HW133218   5.947   4.722   6.363
10773SOL    HW233219   5.813   4.646   6.307
10774SOL     OW33220   1.899   1.203   5.151
10774SOL    HW133221   1.941   1.176   5.238
10774SOL    HW233222   1.885   1.122   5.095
10775SOL     OW33223   0.511   4.783   2.596
10775SOL    HW133224   0.597   4.809   2.640
10775SOL    HW233225   0.489   4.688   2.620
10776SOL     OW33226   0.859   0.794   6.808
10776SOL    HW133227   0.838   0.892   6.799
10776SOL    HW233228   0.776   0.741   6.792
10777SOL     OW33229   3.708   5.388   1.083
10777SOL    HW133230   3.673   5.361   0.994
10777SOL    HW233231   3.635   5.431   1.136
10778SOL     OW33232   4.886   0.211   4.249
10778SOL    HW133233   4.807   0.218   4.187
10778SOL    HW233234   4.955   0.152   4.207
10779SOL     OW33235   6.014   2.970   3.328
10779SOL    HW133236   6.072   3.007   3.256
10779SOL    HW233237   5.986   3.044   3.390
10780SOL     OW33238   1.645   0.876   4.458
10780SOL    HW133239   1.691   0.866   4.547
10780SOL    HW233240   1.704   0.839   4.386
10781SOL     OW33241   3.885   1.122   3.308
10781SOL    HW133242   3.958   1.176   3.267
10781SOL    HW233243   3.844   1.173   3.384
10782SOL     OW33244   0.045   0.906   3.419
10782SOL    HW133245   0.122   0.842   3.421
10782SOL    HW233246   7.008   0.880   3.346
10783SOL     OW33247   0.300   2.913   3.001
10783SOL    HW133248   0.292   2.897   3.100
10783SOL    HW233249   0.319   3.010   2.985
10784SOL     OW33250   3.162   1.012   4.208
10784SOL    HW133251   3.083   1.040   4.154
10784SOL    HW233252   3.201   1.092   4.254
10785SOL     OW33253   0.990   3.836   0.496
10785SOL    HW133254   1.010   3.754   0.442
10785SOL    HW233255   1.064   3.852   0.561
10786SOL     OW33256   6.180   5.254   2.561
10786SOL    HW133257   6.221   5.334   2.517
10786SOL    HW233258   6.112   5.214   2.500
10787SOL     OW33259   0.679   0.413   5.750
10787SOL    HW133260   0.765   0.368   5.774
10787SOL    HW233261   0.683   0.445   5.656
10788SOL     OW33262   0.746   3.761   0.641
10788SOL    HW133263   0.716   3.668   0.623
10788SOL    HW233264   0.832   3.779   0.592
10789SOL     OW33265   6.603   2.930   6.424
10789SOL    HW133266   6.686   2.875   6.419
10789SOL    HW233267   6.591   2.965   6.517
10790SOL     OW33268   0.704   6.657   1.677
10790SOL    HW133269   0.612   6.635   1.709
10790SOL    HW233270   0.708   6.754   1.652
10791SOL     OW33271   6.818   5.862   2.181
10791SOL    HW133272   6.860   5.877   2.091
10791SOL    HW233273   6.721   5.885   2.177
10792SOL     OW33274   3.009   3.105   5.168
10792SOL    HW133275   3.106   3.112   5.190
10792SOL    HW233276   2.961   3.057   5.241
10793SOL     OW33277   5.943   4.104   5.839
10793SOL    HW133278   5.941   4.184   5.780
10793SOL    HW233279   6.036   4.067   5.843
10794SOL     OW33280   4.029   3.764   4.447
10794SOL    HW133281   4.038   3.670   4.481
10794SOL    HW233282   4.040   3.764   4.347
10795SOL     OW33283   0.193   5.387   3.003
10795SOL    HW133284   0.221   5.391   3.099
10795SOL    HW233285   0.225   5.469   2.956
10796SOL     OW33286   6.546   0.064   5.336
10796SOL    HW133287   6.449   0.084   5.347
10796SOL    HW233288   6.580   0.016   5.418
10797SOL     OW33289   3.742   3.080   1.490
10797SOL    HW133290   3.759   3.091   1.392
10797SOL    HW233291   3.649   3.046   1.504
10798SOL     OW33292   2.732   1.498   0.393
10798SOL    HW133293   2.751   1.423   0.330
10798SOL    HW233294   2.655   1.473   0.452
10799SOL     OW33295   4.177   0.693   2.527
10799SOL    HW133296   4.223   0.780   2.544
10799SOL    HW233297   4.116   0.702   2.449
10800SOL     OW33298   0.847   6.241   6.102
10800SOL    HW133299   0.780   6.284   6.042
10800SOL    HW233300   0.809   6.232   6.194
10801SOL     OW33301   0.735   6.947   0.310
10801SOL    HW133302   0.811   6.919   0.250
10801SOL    HW233303   0.762   6.933   0.405
10802SOL     OW33304   0.285   6.890   2.721
10802SOL    HW133305   0.201   6.843   2.696
10802SOL    HW233306   0.276   6.930   2.812
10803SOL     OW33307   1.797   5.549   6.504
10803SOL    HW133308   1.716   5.563   6.561
10803SOL    HW233309   1.818   5.452   6.499
10804SOL     OW33310   6.813   2.592   3.379
10804SOL    HW133311   6.889   2.585   3.314
10804SOL    HW233312   6.727   2.587   3.329
10805SOL     OW33313   5.676   0.682   5.466
10805SOL    HW133314   5.595   0.735   5.442
10805SOL    HW233315   5.657   0.628   5.548
10806SOL     OW33316   3.936   4.974   6.733
10806SOL    HW133317   3.870   4.939   6.800
10806SOL    HW233318   3.960   4.901   6.668
10807SOL     OW33319   0.755   5.752   3.915
10807SOL    HW133320   0.794   5.806   3.989
10807SOL    HW233321   0.749   5.656   3.943
10808SOL     OW33322   0.463   2.918   6.173
10808SOL    HW133323   0.508   2.831   6.156
10808SOL    HW233324   0.451   2.932   6.271
10809SOL     OW33325   1.936   4.225   4.358
10809SOL    HW133326   2.012   4.182   4.407
10809SOL    HW233327   1.964   4.316   4.327
10810SOL     OW33328   6.794   0.378   3.594
10810SOL    HW133329   6.694   0.377   3.593
10810SOL    HW233330   6.827   0.464   3.554
10811SOL     OW33331   4.677   4.954   4.825
10811SOL    HW133332   4.654   4.908   4.740
10811SOL    HW233333   4.593   4.980   4.873
10812SOL     OW33334   6.868   3.545   6.551
10812SOL    HW133335   6.939   3.552   6.482
10812SOL    HW233336   6.779   3.535   6.507
10813SOL     OW33337   0.562   3.503   6.035
10813SOL    HW133338   0.538   3.429   5.973
10813SOL    HW233339   0.652   3.485   6.076
10814SOL     OW33340   2.368   0.024   0.614
10814SOL    HW133341   2.342   6.981   0.546
10814SOL    HW233342   2.452   0.069   0.587
10815SOL     OW33343   5.229   1.783   3.077
10815SOL    HW133344   5.225   1.726   2.995
10815SOL    HW233345   5.309   1.843   3.072
10816SOL     OW33346   3.145   3.035   2.921
10816SOL    HW133347   3.132   2.936   2.923
10816SOL    HW233348   3.186   3.066   3.007
10817SOL     OW33349   3.070   0.689   3.543
10817SOL    HW133350   3.157   0.656   3.578
10817SOL    HW233351   3.086   0.754   3.469
10818SOL     OW33352   4.861   4.713   5.551
10818SOL    HW133353   4.811   4.677   5.472
10818SOL    HW233354   4.882   4.810   5.535
10819SOL     OW33355   5.899   5.480   5.888
10819SOL    HW133356   5.859   5.465   5.979
10819SOL    HW233357   5.971   5.549   5.895
10820SOL     OW33358   0.194   5.638   4.583
10820SOL    HW133359   0.292   5.641   4.599
10820SOL    HW233360   0.173   5.564   4.519
10821SOL     OW33361   4.074   6.047   3.013
10821SOL    HW133362   3.990   6.095   3.039
10821SOL    HW233363   4.106   6.081   2.925
10822SOL     OW33364   5.452   1.777   1.060
10822SOL    HW133365   5.525   1.792   0.993
10822SOL    HW233366   5.458   1.683   1.094
10823SOL     OW33367   0.492   0.629   3.705
10823SOL    HW133368   0.509   0.612   3.608
10823SOL    HW233369   0.515   0.724   3.727
10824SOL     OW33370   1.049   1.886   2.507
10824SOL    HW133371   1.110   1.818   2.466
10824SOL    HW233372   0.988   1.840   2.572
10825SOL     OW33373   1.434   2.163   0.594
10825SOL    HW133374   1.464   2.101   0.521
10825SOL    HW233375   1.497   2.155   0.671
10826SOL     OW33376   1.013   2.343   2.606
10826SOL    HW133377   0.917   2.356   2.628
10826SOL    HW233378   1.066   2.330   2.690
10827SOL     OW33379   6.447   2.822   4.767
10827SOL    HW133380   6.531   2.771   4.785
10827SOL    HW233381   6.466   2.897   4.704
10828SOL     OW33382   6.751   3.855   7.007
10828SOL    HW133383   6.740   3.789   6.933
10828SOL    HW233384   6.840   3.841   0.025
10829SOL     OW33385   4.720   3.873   0.374
10829SOL    HW133386   4.701   3.778   0.399
10829SOL    HW233387   4.698   3.933   0.451
10830SOL     OW33388   5.234   1.632   3.806
10830SOL    HW133389   5.151   1.580   3.790
10830SOL    HW233390   5.306   1.601   3.743
10831SOL     OW33391   3.845   0.363   2.100
10831SOL    HW133392   3.825   0.275   2.058
10831SOL    HW233393   3.916   0.352   2.169
10832SOL     OW33394   6.553   3.331   6.536
10832SOL    HW133395   6.551   3.424   6.500
10832SOL    HW233396   6.552   3.266   6.460
10833SOL     OW33397   0.186   2.610   1.127
10833SOL    HW133398   0.088   2.599   1.111
10833SOL    HW233399   0.237   2.587   1.044
10834SOL     OW33400   6.336   0.976   0.733
10834SOL    HW133401   6.374   0.911   0.798
10834SOL    HW233402   6.357   0.946   0.640
10835SOL     OW33403   5.006   3.512   0.302
10835SOL    HW133404   5.004   3.417   0.333
10835SOL    HW233405   4.994   3.515   0.203
10836SOL     OW33406   1.291   1.011   2.750
10836SOL    HW133407   1.262   0.918   2.726
10836SOL    HW233408   1.318   1.060   2.667
10837SOL     OW33409   5.987   4.589   2.170
10837SOL    HW133410   6.006   4.685   2.190
10837SOL    HW233411   5.959   4.581   2.074
10838SOL     OW33412   5.468   6.378   3.559
10838SOL    HW133413   5.442   6.475   3.556
10838SOL    HW233414   5.460   6.345   3.653
10839SOL     OW33415   4.744   3.484   0.761
10839SOL    HW133416   4.710   3.393   0.735
10839SOL    HW233417   4.812   3.514   0.695
10840SOL     OW33418   3.400   0.551   2.351
10840SOL    HW133419   3.332   0.538   2.422
10840SOL    HW233420   3.452   0.467   2.338
10841SOL     OW33421   6.317   4.981   4.977
10841SOL    HW133422   6.411   5.003   4.951
10841SOL    HW233423   6.292   4.892   4.940
10842SOL     OW33424   4.355   2.930   1.582
10842SOL    HW133425   4.382   2.908   1.489
10842SOL    HW233426   4.269   2.885   1.604
10843SOL     OW33427   2.081   1.908   0.872
10843SOL    HW133428   2.055   1.822   0.829
10843SOL    HW233429   2.052   1.908   0.967
10844SOL     OW33430   6.917   5.377   4.087
10844SOL    HW133431   6.938   5.319   4.166
10844SOL    HW233432   6.944   5.471   4.107
10845SOL     OW33433   4.298   6.132   4.488
10845SOL    HW133434   4.332   6.040   4.507
10845SOL    HW233435   4.213   6.147   4.538
10846SOL     OW33436   5.724   6.525   6.877
10846SOL    HW133437   5.696   6.517   6.973
10846SOL    HW233438   5.813   6.570   6.872
10847SOL     OW33439   2.581   1.998   0.005
10847SOL    HW133440   2.635   1.983   6.947
10847SOL    HW233441   2.627   2.067   0.061
10848SOL     OW33442   0.710   3.951   1.078
10848SOL    HW133443   0.672   3.919   1.165
10848SOL    HW233444   0.729   3.873   1.019
10849SOL     OW33445   2.933   4.964   4.458
10849SOL    HW133446   2.864   5.027   4.421
10849SOL    HW233447   2.888   4.892   4.510
10850SOL     OW33448   3.846   6.112   6.914
10850SOL    HW133449   3.771   6.069   6.864
10850SOL    HW233450   3.932   6.097   6.864
10851SOL     OW33451   3.004   4.202   1.420
10851SOL    HW133452   2.983   4.293   1.384
10851SOL    HW233453   3.007   4.207   1.520
10852SOL     OW33454   2.348   1.479   0.024
10852SOL    HW133455   2.424   1.421   7.020
10852SOL    HW233456   2.380   1.542   0.095
10853SOL     OW33457   2.717   3.389   6.187
10853SOL    HW133458   2.710   3.291   6.168
10853SOL    HW233459   2.730   3.404   6.285
10854SOL     OW33460   4.866   5.326   5.097
10854SOL    HW133461   4.897   5.421   5.107
10854SOL    HW233462   4.796   5.321   5.026
10855SOL     OW33463   4.073   0.618   0.757
10855SOL    HW133464   4.027   0.592   0.842
10855SOL    HW233465   4.024   0.695   0.715
10856SOL     OW33466   6.946   0.726   6.527
10856SOL    HW133467   6.928   0.781   6.608
10856SOL    HW233468   7.001   0.647   6.552
10857SOL     OW33469   0.500   1.753   2.586
10857SOL    HW133470   0.460   1.813   2.517
10857SOL    HW233471   0.525   1.807   2.667
10858SOL     OW33472   1.750   6.482   1.236
10858SOL    HW133473   1.780   6.572   1.268
10858SOL    HW233474   1.661   6.491   1.192
10859SOL     OW33475   6.921   4.698   4.714
10859SOL    HW133476   6.823   4.710   4.701
10859SOL    HW233477   6.968   4.784   4.693
10860SOL     OW33478   6.979   3.866   3.646
10860SOL    HW133479   6.938   3.953   3.618
10860SOL    HW233480   0.051   3.878   3.658
10861SOL     OW33481   2.892   3.614   3.529
10861SOL    HW133482   2.849   3.545   3.588
10861SOL    HW233483   2.886   3.585   3.434
10862SOL     OW33484   1.980   1.009   6.033
10862SOL    HW133485   1.936   1.041   6.117
10862SOL    HW233486   2.077   1.032   6.034
10863SOL     OW33487   2.246   0.164   4.540
10863SOL    HW133488   2.211   0.080   4.499
10863SOL    HW233489   2.261   0.149   4.638
10864SOL     OW33490   2.875   6.416   1.668
10864SOL    HW133491   2.887   6.374   1.758
10864SOL    HW233492   2.840   6.509   1.679
10865SOL     OW33493   6.476   1.448   0.116
10865SOL    HW133494   6.524   1.476   0.034
10865SOL    HW233495   6.382   1.484   0.114
10866SOL     OW33496   5.260   4.748   0.064
10866SOL    HW133497   5.211   4.817   0.011
10866SOL    HW233498   5.197   4.673   0.087
10867SOL     OW33499   2.983   4.311   0.512
10867SOL    HW133500   2.999   4.257   0.595
10867SOL    HW233501   2.999   4.407   0.532
10868SOL     OW33502   5.169   2.009   3.508
10868SOL    HW133503   5.074   2.038   3.503
10868SOL    HW233504   5.222   2.075   3.562
10869NA      NA33505   6.403   2.515   5.420
10870NA      NA33506   4.399   4.696   5.169
10871NA      NA33507   1.676   3.323   1.488
10872NA      NA33508   5.096   3.784   5.300
10873NA      NA33509   4.197   2.211   4.975
10874NA      NA33510   3.766   4.651   1.611
10875NA      NA33511   6.577   5.412   5.406
10876NA      NA33512   3.361   3.331   4.536
10877NA      NA33513   4.850   6.316   6.850
10878NA      NA33514   3.351   6.580   5.510
10879NA      NA33515   6.303   5.121   2.762
10880NA      NA33516   2.481   0.385   3.827
10881NA      NA33517   3.836   5.212   1.231
10882NA      NA33518   3.650   3.495   2.645
   7.02563   7.02563   7.02563
