Generated by trjconv : CNT in water t=  15.00000
33518
    1C        C    1   2.845   2.773   4.748
    1C        C    2   2.895   2.719   4.869
    1C        C    3   2.845   2.778   4.985
    1C        C    4   2.849   2.777   4.263
    1C        C    5   2.900   2.726   4.384
    1C        C    6   2.842   2.771   4.505
    1C        C    7   3.009   2.638   4.625
    1C        C    8   2.893   2.720   4.626
    1C        C    9   3.075   2.603   4.745
    1C        C   10   3.005   2.630   4.864
    1C        C   11   3.182   2.504   4.980
    1C        C   12   3.055   2.561   4.975
    1C        C   13   2.853   2.775   3.773
    1C        C   14   2.903   2.727   3.896
    1C        C   15   2.850   2.774   4.019
    1C        C   16   3.021   2.650   4.138
    1C        C   17   2.903   2.727   4.142
    1C        C   18   3.082   2.617   4.261
    1C        C   19   3.019   2.650   4.383
    1C        C   20   3.205   2.550   4.504
    1C        C   21   3.076   2.607   4.505
    1C        C   22   3.278   2.536   4.625
    1C        C   23   3.208   2.552   4.746
    1C        C   24   3.411   2.483   4.866
    1C        C   25   3.270   2.511   4.867
    1C        C   26   3.488   2.475   4.982
    1C        C   27   2.851   2.771   3.284
    1C        C   28   2.905   2.727   3.407
    1C        C   29   2.852   2.775   3.530
    1C        C   30   3.022   2.645   3.653
    1C        C   31   2.906   2.727   3.651
    1C        C   32   3.077   2.605   3.776
    1C        C   33   3.012   2.637   3.898
    1C        C   34   3.212   2.558   4.016
    1C        C   35   3.078   2.603   4.018
    1C        C   36   3.276   2.542   4.141
    1C        C   37   3.211   2.560   4.265
    1C        C   38   3.419   2.512   4.381
    1C        C   39   3.279   2.531   4.386
    1C        C   40   3.486   2.505   4.506
    1C        C   41   3.416   2.505   4.629
    1C        C   42   3.630   2.487   4.745
    1C        C   43   3.488   2.479   4.747
    1C        C   44   3.707   2.488   4.863
    1C        C   45   3.627   2.489   4.978
    1C        C   46   2.835   2.751   2.797
    1C        C   47   2.892   2.708   2.919
    1C        C   48   2.843   2.761   3.040
    1C        C   49   3.018   2.640   3.165
    1C        C   50   2.903   2.722   3.162
    1C        C   51   3.080   2.606   3.287
    1C        C   52   3.017   2.642   3.409
    1C        C   53   3.207   2.546   3.530
    1C        C   54   3.077   2.602   3.530
    1C        C   55   3.277   2.530   3.651
    1C        C   56   3.205   2.547   3.772
    1C        C   57   3.415   2.508   3.898
    1C        C   58   3.276   2.530   3.893
    1C        C   59   3.488   2.507   4.019
    1C        C   60   3.414   2.512   4.139
    1C        C   61   3.630   2.502   4.265
    1C        C   62   3.489   2.507   4.259
    1C        C   63   3.703   2.507   4.386
    1C        C   64   3.627   2.503   4.505
    1C        C   65   3.837   2.547   4.624
    1C        C   66   3.700   2.513   4.625
    1C        C   67   3.908   2.562   4.745
    1C        C   68   3.843   2.525   4.864
    1C        C   69   4.055   2.583   4.978
    1C        C   70   3.927   2.527   4.977
    1C        C   71   2.824   2.735   2.311
    1C        C   72   2.882   2.691   2.432
    1C        C   73   2.825   2.739   2.552
    1C        C   74   3.005   2.627   2.676
    1C        C   75   2.884   2.700   2.674
    1C        C   76   3.071   2.595   2.797
    1C        C   77   3.010   2.630   2.919
    1C        C   78   3.201   2.539   3.040
    1C        C   79   3.071   2.596   3.042
    1C        C   80   3.275   2.528   3.159
    1C        C   81   3.211   2.552   3.283
    1C        C   82   3.413   2.505   3.402
    1C        C   83   3.273   2.527   3.407
    1C        C   84   3.484   2.503   3.525
    1C        C   85   3.416   2.506   3.649
    1C        C   86   3.622   2.500   3.770
    1C        C   87   3.481   2.495   3.774
    1C        C   88   3.695   2.511   3.891
    1C        C   89   3.629   2.504   4.016
    1C        C   90   3.832   2.544   4.134
    1C        C   91   3.697   2.504   4.140
    1C        C   92   3.900   2.573   4.255
    1C        C   93   3.837   2.550   4.379
    1C        C   94   4.031   2.635   4.500
    1C        C   95   3.904   2.573   4.502
    1C        C   96   4.093   2.671   4.621
    1C        C   97   4.031   2.634   4.742
    1C        C   98   4.192   2.767   4.864
    1C        C   99   4.103   2.654   4.864
    1C        C  100   4.215   2.844   4.979
    1C        C  101   2.826   2.735   2.070
    1C        C  102   2.990   2.595   2.189
    1C        C  103   2.877   2.682   2.190
    1C        C  104   3.064   2.580   2.310
    1C        C  105   3.003   2.619   2.431
    1C        C  106   3.198   2.540   2.553
    1C        C  107   3.067   2.593   2.554
    1C        C  108   3.269   2.525   2.674
    1C        C  109   3.201   2.539   2.797
    1C        C  110   3.409   2.494   2.914
    1C        C  111   3.270   2.518   2.918
    1C        C  112   3.481   2.488   3.035
    1C        C  113   3.413   2.500   3.159
    1C        C  114   3.626   2.492   3.282
    1C        C  115   3.484   2.493   3.281
    1C        C  116   3.695   2.504   3.404
    1C        C  117   3.625   2.502   3.527
    1C        C  118   3.833   2.543   3.646
    1C        C  119   3.695   2.512   3.650
    1C        C  120   3.897   2.572   3.768
    1C        C  121   3.829   2.555   3.891
    1C        C  122   4.026   2.634   4.011
    1C        C  123   3.898   2.573   4.013
    1C        C  124   4.086   2.674   4.133
    1C        C  125   4.024   2.640   4.255
    1C        C  126   4.193   2.769   4.376
    1C        C  127   4.084   2.680   4.377
    1C        C  128   4.243   2.819   4.499
    1C        C  129   4.199   2.765   4.621
    1C        C  130   4.329   2.934   4.742
    1C        C  131   4.246   2.818   4.744
    1C        C  132   4.359   3.002   4.862
    1C        C  133   4.287   2.963   4.975
    1C        C  134   3.171   2.467   2.080
    1C        C  135   3.039   2.512   2.083
    1C        C  136   3.255   2.477   2.193
    1C        C  137   3.193   2.520   2.312
    1C        C  138   3.404   2.481   2.431
    1C        C  139   3.264   2.503   2.433
    1C        C  140   3.478   2.483   2.551
    1C        C  141   3.407   2.494   2.672
    1C        C  142   3.622   2.502   2.792
    1C        C  143   3.481   2.488   2.792
    1C        C  144   3.692   2.508   2.914
    1C        C  145   3.622   2.493   3.036
    1C        C  146   3.830   2.538   3.157
    1C        C  147   3.693   2.501   3.158
    1C        C  148   3.897   2.566   3.278
    1C        C  149   3.831   2.542   3.401
    1C        C  150   4.028   2.620   3.522
    1C        C  151   3.899   2.564   3.522
    1C        C  152   4.085   2.665   3.643
    1C        C  153   4.024   2.634   3.766
    1C        C  154   4.194   2.762   3.886
    1C        C  155   4.083   2.675   3.888
    1C        C  156   4.242   2.812   4.009
    1C        C  157   4.195   2.763   4.132
    1C        C  158   4.338   2.921   4.253
    1C        C  159   4.250   2.811   4.254
    1C        C  160   4.376   2.982   4.375
    1C        C  161   4.332   2.930   4.498
    1C        C  162   4.435   3.117   4.617
    1C        C  163   4.370   2.991   4.619
    1C        C  164   4.464   3.186   4.736
    1C        C  165   4.432   3.123   4.858
    1C        C  166   4.510   3.325   4.972
    1C        C  167   4.480   3.189   4.972
    1C        C  168   3.476   2.446   2.076
    1C        C  169   3.395   2.462   2.190
    1C        C  170   3.614   2.469   2.309
    1C        C  171   3.472   2.468   2.308
    1C        C  172   3.690   2.486   2.427
    1C        C  173   3.619   2.496   2.549
    1C        C  174   3.830   2.535   2.666
    1C        C  175   3.692   2.504   2.670
    1C        C  176   3.896   2.555   2.789
    1C        C  177   3.830   2.540   2.913
    1C        C  178   4.025   2.623   3.031
    1C        C  179   3.896   2.564   3.035
    1C        C  180   4.083   2.662   3.154
    1C        C  181   4.022   2.631   3.278
    1C        C  182   4.194   2.752   3.398
    1C        C  183   4.087   2.659   3.400
    1C        C  184   4.247   2.804   3.519
    1C        C  185   4.192   2.758   3.640
    1C        C  186   4.337   2.915   3.764
    1C        C  187   4.245   2.807   3.762
    1C        C  188   4.376   2.974   3.886
    1C        C  189   4.335   2.919   4.010
    1C        C  190   4.448   3.101   4.127
    1C        C  191   4.380   2.977   4.130
    1C        C  192   4.471   3.168   4.249
    1C        C  193   4.442   3.107   4.373
    1C        C  194   4.510   3.312   4.492
    1C        C  195   4.466   3.178   4.493
    1C        C  196   4.526   3.388   4.610
    1C        C  197   4.507   3.322   4.733
    1C        C  198   4.558   3.536   4.851
    1C        C  199   4.530   3.396   4.853
    1C        C  200   4.586   3.623   4.962
    1C        C  201   3.614   2.423   2.076
    1C        C  202   3.823   2.518   2.183
    1C        C  203   3.690   2.466   2.189
    1C        C  204   3.894   2.552   2.301
    1C        C  205   3.826   2.523   2.422
    1C        C  206   4.020   2.617   2.542
    1C        C  207   3.895   2.552   2.541
    1C        C  208   4.083   2.656   2.663
    1C        C  209   4.021   2.621   2.785
    1C        C  210   4.193   2.745   2.909
    1C        C  211   4.082   2.658   2.906
    1C        C  212   4.247   2.799   3.028
    1C        C  213   4.195   2.748   3.149
    1C        C  214   4.329   2.908   3.273
    1C        C  215   4.242   2.796   3.273
    1C        C  216   4.369   2.971   3.393
    1C        C  217   4.339   2.911   3.517
    1C        C  218   4.436   3.098   3.641
    1C        C  219   4.377   2.969   3.640
    1C        C  220   4.465   3.167   3.760
    1C        C  221   4.437   3.101   3.882
    1C        C  222   4.500   3.304   4.007
    1C        C  223   4.468   3.167   4.004
    1C        C  224   4.514   3.378   4.126
    1C        C  225   4.504   3.306   4.247
    1C        C  226   4.516   3.520   4.367
    1C        C  227   4.516   3.379   4.368
    1C        C  228   4.517   3.597   4.485
    1C        C  229   4.532   3.529   4.608
    1C        C  230   4.502   3.741   4.726
    1C        C  231   4.540   3.604   4.728
    1C        C  232   4.493   3.818   4.844
    1C        C  233   4.544   3.756   4.959
    1C        C  234   4.021   2.603   2.062
    1C        C  235   3.895   2.543   2.065
    1C        C  236   4.086   2.647   2.178
    1C        C  237   4.025   2.608   2.298
    1C        C  238   4.195   2.737   2.420
    1C        C  239   4.084   2.648   2.420
    1C        C  240   4.248   2.788   2.541
    1C        C  241   4.193   2.745   2.664
    1C        C  242   4.333   2.905   2.781
    1C        C  243   4.241   2.797   2.786
    1C        C  244   4.373   2.961   2.904
    1C        C  245   4.335   2.909   3.030
    1C        C  246   4.440   3.092   3.150
    1C        C  247   4.371   2.969   3.153
    1C        C  248   4.455   3.162   3.272
    1C        C  249   4.426   3.101   3.395
    1C        C  250   4.501   3.298   3.515
    1C        C  251   4.455   3.165   3.518
    1C        C  252   4.514   3.369   3.637
    1C        C  253   4.501   3.303   3.761
    1C        C  254   4.525   3.513   3.881
    1C        C  255   4.517   3.371   3.884
    1C        C  256   4.514   3.590   3.999
    1C        C  257   4.517   3.520   4.122
    1C        C  258   4.493   3.729   4.243
    1C        C  259   4.519   3.590   4.244
    1C        C  260   4.472   3.804   4.361
    1C        C  261   4.487   3.735   4.483
    1C        C  262   4.416   3.936   4.603
    1C        C  263   4.469   3.805   4.604
    1C        C  264   4.394   4.007   4.723
    1C        C  265   4.435   3.946   4.844
    1C        C  266   4.317   4.128   4.958
    1C        C  267   4.391   4.010   4.960
    1C        C  268   4.263   2.774   2.063
    1C        C  269   4.199   2.732   2.181
    1C        C  270   4.344   2.893   2.299
    1C        C  271   4.250   2.787   2.300
    1C        C  272   4.387   2.953   2.420
    1C        C  273   4.343   2.892   2.540
    1C        C  274   4.444   3.084   2.662
    1C        C  275   4.378   2.959   2.659
    1C        C  276   4.474   3.150   2.784
    1C        C  277   4.443   3.083   2.904
    1C        C  278   4.501   3.290   3.027
    1C        C  279   4.470   3.152   3.025
    1C        C  280   4.508   3.364   3.147
    1C        C  281   4.492   3.299   3.271
    1C        C  282   4.513   3.510   3.392
    1C        C  283   4.510   3.369   3.393
    1C        C  284   4.510   3.579   3.515
    1C        C  285   4.514   3.511   3.639
    1C        C  286   4.487   3.722   3.755
    1C        C  287   4.515   3.584   3.760
    1C        C  288   4.475   3.794   3.876
    1C        C  289   4.494   3.730   4.000
    1C        C  290   4.428   3.932   4.116
    1C        C  291   4.476   3.799   4.122
    1C        C  292   4.401   4.000   4.237
    1C        C  293   4.430   3.939   4.361
    1C        C  294   4.321   4.125   4.477
    1C        C  295   4.393   4.003   4.481
    1C        C  296   4.279   4.184   4.598
    1C        C  297   4.319   4.128   4.721
    1C        C  298   4.199   4.313   4.840
    1C        C  299   4.275   4.192   4.841
    1C        C  300   4.171   4.401   4.949
    1C        C  301   4.353   2.880   2.063
    1C        C  302   4.471   3.070   2.176
    1C        C  303   4.395   2.948   2.178
    1C        C  304   4.479   3.144   2.297
    1C        C  305   4.454   3.077   2.419
    1C        C  306   4.510   3.283   2.537
    1C        C  307   4.479   3.145   2.540
    1C        C  308   4.516   3.355   2.658
    1C        C  309   4.506   3.288   2.782
    1C        C  310   4.519   3.499   2.902
    1C        C  311   4.517   3.358   2.904
    1C        C  312   4.515   3.573   3.023
    1C        C  313   4.514   3.505   3.147
    1C        C  314   4.486   3.717   3.266
    1C        C  315   4.510   3.578   3.268
    1C        C  316   4.474   3.786   3.389
    1C        C  317   4.493   3.720   3.512
    1C        C  318   4.420   3.923   3.628
    1C        C  319   4.468   3.790   3.632
    1C        C  320   4.394   3.988   3.750
    1C        C  321   4.426   3.927   3.873
    1C        C  322   4.321   4.114   3.991
    1C        C  323   4.394   3.994   3.994
    1C        C  324   4.276   4.169   4.113
    1C        C  325   4.321   4.117   4.236
    1C        C  326   4.187   4.287   4.352
    1C        C  327   4.283   4.183   4.354
    1C        C  328   4.141   4.343   4.474
    1C        C  329   4.194   4.297   4.596
    1C        C  330   4.027   4.434   4.713
    1C        C  331   4.145   4.354   4.715
    1C        C  332   3.970   4.493   4.828
    1C        C  333   4.055   4.480   4.938
    1C        C  334   4.546   3.272   2.060
    1C        C  335   4.536   3.132   2.065
    1C        C  336   4.543   3.352   2.175
    1C        C  337   4.515   3.282   2.294
    1C        C  338   4.522   3.496   2.413
    1C        C  339   4.520   3.354   2.415
    1C        C  340   4.518   3.567   2.535
    1C        C  341   4.515   3.496   2.657
    1C        C  342   4.492   3.707   2.775
    1C        C  343   4.510   3.567   2.779
    1C        C  344   4.472   3.778   2.896
    1C        C  345   4.493   3.712   3.019
    1C        C  346   4.415   3.910   3.140
    1C        C  347   4.468   3.779   3.141
    1C        C  348   4.386   3.978   3.260
    1C        C  349   4.423   3.918   3.383
    1C        C  350   4.319   4.104   3.503
    1C        C  351   4.395   3.986   3.504
    1C        C  352   4.277   4.167   3.623
    1C        C  353   4.321   4.109   3.744
    1C        C  354   4.182   4.269   3.865
    1C        C  355   4.277   4.164   3.866
    1C        C  356   4.128   4.320   3.985
    1C        C  357   4.179   4.272   4.107
    1C        C  358   4.014   4.407   4.228
    1C        C  359   4.130   4.326   4.229
    1C        C  360   3.955   4.445   4.350
    1C        C  361   4.022   4.419   4.471
    1C        C  362   3.829   4.515   4.590
    1C        C  363   3.959   4.459   4.591
    1C        C  364   3.762   4.549   4.710
    1C        C  365   3.839   4.544   4.829
    1C        C  366   3.630   4.593   4.949
    1C        C  367   3.767   4.573   4.946
    1C        C  368   4.510   3.565   2.053
    1C        C  369   4.532   3.493   2.171
    1C        C  370   4.508   3.707   2.288
    1C        C  371   4.519   3.566   2.291
    1C        C  372   4.486   3.776   2.410
    1C        C  373   4.499   3.707   2.532
    1C        C  374   4.426   3.908   2.651
    1C        C  375   4.479   3.777   2.653
    1C        C  376   4.395   3.974   2.772
    1C        C  377   4.423   3.911   2.895
    1C        C  378   4.321   4.098   3.012
    1C        C  379   4.390   3.974   3.017
    1C        C  380   4.276   4.156   3.133
    1C        C  381   4.311   4.097   3.257
    1C        C  382   4.172   4.255   3.374
    1C        C  383   4.272   4.155   3.380
    1C        C  384   4.124   4.308   3.496
    1C        C  385   4.177   4.267   3.620
    1C        C  386   4.006   4.390   3.743
    1C        C  387   4.125   4.313   3.743
    1C        C  388   3.946   4.433   3.863
    1C        C  389   4.009   4.397   3.984
    1C        C  390   3.820   4.490   4.109
    1C        C  391   3.952   4.442   4.106
    1C        C  392   3.753   4.520   4.229
    1C        C  393   3.826   4.504   4.349
    1C        C  394   3.617   4.546   4.475
    1C        C  395   3.757   4.526   4.470
    1C        C  396   3.546   4.566   4.595
    1C        C  397   3.622   4.563   4.714
    1C        C  398   3.410   4.554   4.840
    1C        C  399   3.550   4.572   4.835
    1C        C  400   3.342   4.519   4.957
    1C        C  401   4.500   3.704   2.049
    1C        C  402   4.451   3.913   2.167
    1C        C  403   4.496   3.779   2.168
    1C        C  404   4.413   3.977   2.287
    1C        C  405   4.432   3.907   2.408
    1C        C  406   4.322   4.091   2.526
    1C        C  407   4.400   3.973   2.528
    1C        C  408   4.276   4.147   2.647
    1C        C  409   4.319   4.093   2.771
    1C        C  410   4.172   4.250   2.888
    1C        C  411   4.274   4.153   2.891
    1C        C  412   4.120   4.298   3.011
    1C        C  413   4.176   4.255   3.133
    1C        C  414   3.997   4.377   3.253
    1C        C  415   4.115   4.299   3.253
    1C        C  416   3.944   4.419   3.377
    1C        C  417   4.009   4.390   3.499
    1C        C  418   3.816   4.482   3.618
    1C        C  419   3.946   4.426   3.620
    1C        C  420   3.749   4.507   3.739
    1C        C  421   3.816   4.489   3.863
    1C        C  422   3.612   4.534   3.986
    1C        C  423   3.751   4.506   3.987
    1C        C  424   3.542   4.535   4.108
    1C        C  425   3.613   4.538   4.230
    1C        C  426   3.403   4.547   4.357
    1C        C  427   3.545   4.550   4.353
    1C        C  428   3.331   4.544   4.478
    1C        C  429   3.405   4.559   4.598
    1C        C  430   3.195   4.522   4.720
    1C        C  431   3.335   4.547   4.720
    1C        C  432   3.124   4.494   4.840
    1C        C  433   3.204   4.500   4.955
    1C        C  434   4.384   4.122   2.054
    1C        C  435   4.447   3.996   2.055
    1C        C  436   4.302   4.161   2.164
    1C        C  437   4.336   4.097   2.286
    1C        C  438   4.181   4.250   2.401
    1C        C  439   4.279   4.148   2.405
    1C        C  440   4.127   4.297   2.523
    1C        C  441   4.180   4.250   2.645
    1C        C  442   4.008   4.381   2.762
    1C        C  443   4.122   4.297   2.765
    1C        C  444   3.945   4.412   2.884
    1C        C  445   4.004   4.379   3.008
    1C        C  446   3.816   4.480   3.129
    1C        C  447   3.942   4.416   3.129
    1C        C  448   3.751   4.501   3.253
    1C        C  449   3.817   4.481   3.377
    1C        C  450   3.608   4.533   3.493
    1C        C  451   3.747   4.508   3.497
    1C        C  452   3.545   4.539   3.619
    1C        C  453   3.611   4.537   3.743
    1C        C  454   3.398   4.546   3.862
    1C        C  455   3.539   4.542   3.865
    1C        C  456   3.335   4.535   3.988
    1C        C  457   3.401   4.536   4.113
    1C        C  458   3.193   4.506   4.232
    1C        C  459   3.331   4.533   4.236
    1C        C  460   3.130   4.487   4.357
    1C        C  461   3.194   4.512   4.481
    1C        C  462   2.994   4.437   4.601
    1C        C  463   3.123   4.494   4.602
    1C        C  464   2.925   4.404   4.720
    1C        C  465   2.990   4.444   4.840
    1C        C  466   2.801   4.343   4.960
    1C        C  467   2.910   4.432   4.957
    1C        C  468   4.124   4.287   2.044
    1C        C  469   4.191   4.252   2.161
    1C        C  470   4.005   4.371   2.279
    1C        C  471   4.128   4.300   2.279
    1C        C  472   3.943   4.407   2.400
    1C        C  473   4.009   4.374   2.521
    1C        C  474   3.812   4.464   2.643
    1C        C  475   3.945   4.415   2.640
    1C        C  476   3.746   4.488   2.765
    1C        C  477   3.813   4.463   2.887
    1C        C  478   3.608   4.522   3.009
    1C        C  479   3.746   4.494   3.007
    1C        C  480   3.536   4.523   3.131
    1C        C  481   3.612   4.524   3.251
    1C        C  482   3.397   4.534   3.377
    1C        C  483   3.538   4.541   3.370
    1C        C  484   3.328   4.526   3.500
    1C        C  485   3.403   4.538   3.619
    1C        C  486   3.192   4.504   3.746
    1C        C  487   3.329   4.539   3.739
    1C        C  488   3.129   4.475   3.869
    1C        C  489   3.199   4.497   3.990
    1C        C  490   3.001   4.416   4.116
    1C        C  491   3.126   4.483   4.110
    1C        C  492   2.942   4.383   4.240
    1C        C  493   3.003   4.426   4.360
    1C        C  494   2.828   4.300   4.485
    1C        C  495   2.937   4.390   4.480
    1C        C  496   2.775   4.252   4.607
    1C        C  497   2.817   4.312   4.728
    1C        C  498   2.665   4.164   4.844
    1C        C  499   2.751   4.276   4.848
    1C        C  500   2.593   4.117   4.955
    1C        C  501   4.005   4.360   2.041
    1C        C  502   3.817   4.470   2.157
    1C        C  503   3.942   4.406   2.157
    1C        C  504   3.746   4.486   2.278
    1C        C  505   3.810   4.454   2.399
    1C        C  506   3.604   4.503   2.520
    1C        C  507   3.744   4.485   2.521
    1C        C  508   3.534   4.513   2.643
    1C        C  509   3.607   4.514   2.764
    1C        C  510   3.397   4.526   2.885
    1C        C  511   3.538   4.528   2.887
    1C        C  512   3.325   4.520   3.007
    1C        C  513   3.395   4.522   3.129
    1C        C  514   3.190   4.497   3.256
    1C        C  515   3.329   4.520   3.254
    1C        C  516   3.122   4.475   3.377
    1C        C  517   3.189   4.498   3.499
    1C        C  518   3.000   4.415   3.625
    1C        C  519   3.125   4.480   3.624
    1C        C  520   2.941   4.374   3.746
    1C        C  521   3.005   4.409   3.868
    1C        C  522   2.840   4.283   3.995
    1C        C  523   2.946   4.377   3.992
    1C        C  524   2.790   4.237   4.119
    1C        C  525   2.832   4.294   4.240
    1C        C  526   2.691   4.139   4.363
    1C        C  527   2.779   4.249   4.363
    1C        C  528   2.650   4.078   4.484
    1C        C  529   2.685   4.144   4.604
    1C        C  530   2.581   3.960   4.729
    1C        C  531   2.640   4.090   4.727
    1C        C  532   2.536   3.901   4.850
    1C        C  533   2.528   3.993   4.960
    1C        C  534   3.615   4.553   2.040
    1C        C  535   3.749   4.512   2.042
    1C        C  536   3.534   4.535   2.157
    1C        C  537   3.606   4.508   2.277
    1C        C  538   3.392   4.515   2.400
    1C        C  539   3.533   4.510   2.399
    1C        C  540   3.321   4.511   2.522
    1C        C  541   3.393   4.516   2.643
    1C        C  542   3.184   4.491   2.769
    1C        C  543   3.323   4.517   2.765
    1C        C  544   3.115   4.471   2.891
    1C        C  545   3.188   4.488   3.011
    1C        C  546   2.997   4.404   3.138
    1C        C  547   3.121   4.471   3.135
    1C        C  548   2.934   4.369   3.259
    1C        C  549   2.996   4.410   3.379
    1C        C  550   2.836   4.278   3.506
    1C        C  551   2.941   4.372   3.504
    1C        C  552   2.784   4.229   3.628
    1C        C  553   2.837   4.278   3.749
    1C        C  554   2.701   4.122   3.877
    1C        C  555   2.790   4.231   3.874
    1C        C  556   2.664   4.061   3.999
    1C        C  557   2.699   4.128   4.118
    1C        C  558   2.596   3.946   4.246
    1C        C  559   2.659   4.073   4.242
    1C        C  560   2.562   3.882   4.367
    1C        C  561   2.591   3.950   4.487
    1C        C  562   2.536   3.748   4.615
    1C        C  563   2.566   3.886   4.610
    1C        C  564   2.520   3.680   4.738
    1C        C  565   2.525   3.758   4.856
    1C        C  566   2.534   3.544   4.977
    1C        C  567   2.525   3.683   4.974
    1C        C  568   3.324   4.482   2.040
    1C        C  569   3.394   4.514   2.157
    1C        C  570   3.183   4.475   2.279
    1C        C  571   3.319   4.514   2.278
    1C        C  572   3.115   4.458   2.401
    1C        C  573   3.182   4.486   2.523
    1C        C  574   2.991   4.405   2.649
    1C        C  575   3.117   4.468   2.647
    1C        C  576   2.932   4.362   2.770
    1C        C  577   2.992   4.401   2.892
    1C        C  578   2.828   4.274   3.015
    1C        C  579   2.939   4.361   3.016
    1C        C  580   2.777   4.226   3.137
    1C        C  581   2.831   4.272   3.259
    1C        C  582   2.696   4.117   3.386
    1C        C  583   2.784   4.227   3.384
    1C        C  584   2.656   4.057   3.508
    1C        C  585   2.697   4.118   3.630
    1C        C  586   2.597   3.937   3.754
    1C        C  587   2.658   4.065   3.755
    1C        C  588   2.578   3.870   3.877
    1C        C  589   2.602   3.934   4.001
    1C        C  590   2.536   3.739   4.127
    1C        C  591   2.571   3.876   4.126
    1C        C  592   2.524   3.673   4.251
    1C        C  593   2.534   3.744   4.373
    1C        C  594   2.509   3.534   4.498
    1C        C  595   2.517   3.675   4.495
    1C        C  596   2.519   3.462   4.619
    1C        C  597   2.518   3.538   4.738
    1C        C  598   2.530   3.326   4.863
    1C        C  599   2.525   3.467   4.860
    1C        C  600   2.533   3.249   4.980
    1C        C  601   3.192   4.441   2.038
    1C        C  602   2.982   4.394   2.158
    1C        C  603   3.119   4.436   2.158
    1C        C  604   2.925   4.361   2.284
    1C        C  605   2.985   4.402   2.406
    1C        C  606   2.822   4.271   2.529
    1C        C  607   2.927   4.366   2.529
    1C        C  608   2.777   4.216   2.651
    1C        C  609   2.828   4.267   2.773
    1C        C  610   2.692   4.105   2.893
    1C        C  611   2.776   4.218   2.895
    1C        C  612   2.656   4.052   3.019
    1C        C  613   2.692   4.113   3.142
    1C        C  614   2.594   3.929   3.265
    1C        C  615   2.653   4.057   3.265
    1C        C  616   2.576   3.864   3.389
    1C        C  617   2.597   3.929   3.513
    1C        C  618   2.533   3.729   3.637
    1C        C  619   2.572   3.864   3.636
    1C        C  620   2.526   3.663   3.762
    1C        C  621   2.538   3.735   3.883
    1C        C  622   2.507   3.527   4.009
    1C        C  623   2.520   3.668   4.006
    1C        C  624   2.517   3.458   4.133
    1C        C  625   2.514   3.533   4.253
    1C        C  626   2.537   3.324   4.379
    1C        C  627   2.513   3.463   4.376
    1C        C  628   2.552   3.252   4.500
    1C        C  629   2.537   3.322   4.622
    1C        C  630   2.589   3.117   4.746
    1C        C  631   2.545   3.252   4.744
    1C        C  632   2.613   3.051   4.870
    1C        C  633   2.567   3.114   4.990
    1C        C  634   2.780   4.309   2.053
    1C        C  635   2.889   4.396   2.050
    1C        C  636   2.750   4.231   2.166
    1C        C  637   2.812   4.275   2.285
    1C        C  638   2.685   4.108   2.411
    1C        C  639   2.768   4.222   2.408
    1C        C  640   2.642   4.047   2.531
    1C        C  641   2.688   4.108   2.650
    1C        C  642   2.586   3.921   2.776
    1C        C  643   2.648   4.048   2.772
    1C        C  644   2.559   3.859   2.900
    1C        C  645   2.588   3.928   3.020
    1C        C  646   2.527   3.727   3.147
    1C        C  647   2.564   3.864   3.143
    1C        C  648   2.521   3.658   3.270
    1C        C  649   2.537   3.728   3.391
    1C        C  650   2.504   3.521   3.517
    1C        C  651   2.516   3.661   3.514
    1C        C  652   2.511   3.452   3.640
    1C        C  653   2.511   3.522   3.763
    1C        C  654   2.531   3.317   3.887
    1C        C  655   2.508   3.456   3.887
    1C        C  656   2.553   3.251   4.010
    1C        C  657   2.541   3.319   4.133
    1C        C  658   2.605   3.122   4.259
    1C        C  659   2.557   3.254   4.257
    1C        C  660   2.634   3.057   4.381
    1C        C  661   2.600   3.120   4.503
    1C        C  662   2.710   2.939   4.627
    1C        C  663   2.628   3.054   4.625
    1C        C  664   2.754   2.882   4.748
    1C        C  665   2.695   2.933   4.867
    1C        C  666   2.742   2.872   4.983
    1C        C  667   2.684   4.023   2.056
    1C        C  668   2.689   4.104   2.170
    1C        C  669   2.588   3.915   2.290
    1C        C  670   2.645   4.045   2.291
    1C        C  671   2.557   3.851   2.412
    1C        C  672   2.582   3.919   2.533
    1C        C  673   2.519   3.717   2.658
    1C        C  674   2.562   3.851   2.655
    1C        C  675   2.514   3.648   2.781
    1C        C  676   2.523   3.723   2.901
    1C        C  677   2.506   3.515   3.028
    1C        C  678   2.515   3.656   3.026
    1C        C  679   2.510   3.445   3.151
    1C        C  680   2.511   3.517   3.273
    1C        C  681   2.535   3.310   3.399
    1C        C  682   2.505   3.448   3.396
    1C        C  683   2.555   3.245   3.523
    1C        C  684   2.536   3.313   3.645
    1C        C  685   2.603   3.113   3.771
    1C        C  686   2.547   3.243   3.768
    1C        C  687   2.635   3.054   3.896
    1C        C  688   2.603   3.118   4.017
    1C        C  689   2.710   2.935   4.139
    1C        C  690   2.636   3.055   4.139
    1C        C  691   2.753   2.881   4.262
    1C        C  692   2.707   2.936   4.384
    1C        C  693   2.751   2.879   4.506
    1C        C  694   2.630   3.894   2.054
    1C        C  695   2.528   3.707   2.175
    1C        C  696   2.573   3.841   2.171
    1C        C  697   2.501   3.640   2.296
    1C        C  698   2.516   3.716   2.414
    1C        C  699   2.487   3.506   2.541
    1C        C  700   2.501   3.647   2.536
    1C        C  701   2.502   3.434   2.662
    1C        C  702   2.511   3.507   2.782
    1C        C  703   2.530   3.302   2.911
    1C        C  704   2.510   3.442   2.908
    1C        C  705   2.549   3.232   3.032
    1C        C  706   2.533   3.306   3.151
    1C        C  707   2.602   3.111   3.282
    1C        C  708   2.553   3.244   3.276
    1C        C  709   2.634   3.045   3.403
    1C        C  710   2.601   3.111   3.523
    1C        C  711   2.708   2.933   3.653
    1C        C  712   2.630   3.050   3.647
    1C        C  713   2.759   2.880   3.774
    1C        C  714   2.714   2.936   3.896
    1C        C  715   2.756   2.879   4.017
    1C        C  716   2.447   3.502   2.063
    1C        C  717   2.487   3.637   2.061
    1C        C  718   2.467   3.423   2.181
    1C        C  719   2.479   3.499   2.301
    1C        C  720   2.512   3.290   2.424
    1C        C  721   2.487   3.429   2.423
    1C        C  722   2.534   3.222   2.546
    1C        C  723   2.526   3.295   2.667
    1C        C  724   2.596   3.098   2.789
    1C        C  725   2.545   3.229   2.790
    1C        C  726   2.626   3.039   2.914
    1C        C  727   2.598   3.100   3.038
    1C        C  728   2.710   2.924   3.159
    1C        C  729   2.630   3.041   3.163
    1C        C  730   2.755   2.875   3.284
    1C        C  731   2.714   2.929   3.408
    1C        C  732   2.752   2.874   3.532
    1C        C  733   2.487   3.197   2.072
    1C        C  734   2.490   3.282   2.184
    1C        C  735   2.586   3.087   2.308
    1C        C  736   2.524   3.216   2.305
    1C        C  737   2.612   3.020   2.429
    1C        C  738   2.584   3.090   2.549
    1C        C  739   2.698   2.908   2.671
    1C        C  740   2.624   3.028   2.670
    1C        C  741   2.741   2.857   2.795
    1C        C  742   2.702   2.919   2.915
    1C        C  743   2.747   2.864   3.037
    1C        C  744   2.544   3.070   2.074
    1C        C  745   2.687   2.901   2.186
    1C        C  746   2.609   3.019   2.187
    1C        C  747   2.728   2.840   2.306
    1C        C  748   2.686   2.900   2.427
    1C        C  749   2.733   2.846   2.548
    1C        C  750   2.736   2.841   2.069
    1C        C  751   3.645   2.302   1.996
    1C        O  752   3.728   2.218   2.040
    1C        O  753   3.644   2.300   1.856
    1C        C  754   4.654   3.059   2.013
    1C        O  755   4.678   3.022   1.895
    1C        O  756   4.774   3.069   2.085
    1C        C  757   4.456   4.222   1.972
    1C        O  758   4.569   4.262   2.013
    1C        O  759   4.427   4.262   1.842
    1C        C  760   3.592   4.656   1.936
    1C        O  761   3.628   4.776   1.942
    1C        O  762   3.568   4.616   1.803
    1C        C  763   2.889   4.503   1.948
    1C        O  764   2.922   4.475   1.829
    1C        O  765   2.877   4.637   1.987
    1C        C  766   2.352   3.459   1.959
    1C        O  767   2.381   3.476   1.837
    1C        O  768   2.213   3.462   1.977
    1C        C  769   4.687   3.601   5.067
    1C        O  770   4.673   3.543   5.179
    1C        O  771   4.822   3.586   5.030
    1C        C  772   4.279   4.453   5.036
    1C        O  773   4.284   4.423   5.158
    1C        O  774   4.340   4.568   4.983
    1C        C  775   4.135   2.528   5.090
    1C        O  776   4.209   2.433   5.053
    1C        O  777   4.197   2.601   5.192
    1C        C  778   2.884   4.549   5.044
    1C        O  779   2.848   4.662   5.001
    1C        O  780   2.885   4.547   5.184
    1C        C  781   2.491   3.042   5.094
    1C        O  782   2.397   2.970   5.052
    1C        O  783   2.492   3.078   5.228
    1C        C  784   2.421   3.976   5.061
    1C        O  785   2.309   4.021   5.027
    1C        O  786   2.442   3.994   5.199
    1C        C  787   2.945   2.418   2.016
    1C        O  788   2.954   2.395   1.893
    1C        O  789   2.901   2.310   2.091
    1C        C  790   3.179   2.372   5.047
    1C        O  791   3.182   2.258   4.994
    1C        O  792   3.204   2.369   5.185
    1C        H  793   4.322   3.008   5.066
    1C        H  794   4.184   2.807   5.074
    1C        H  795   4.510   3.135   5.059
    1C        H  796   4.536   3.371   5.065
    1C        H  797   4.521   3.799   5.055
    1C        H  798   4.427   3.973   5.054
    1C        H  799   4.244   4.137   5.036
    1C        H  800   4.048   4.561   5.008
    1C        H  801   3.826   4.609   5.028
    1C        H  802   3.596   4.650   5.033
    1C        H  803   3.395   4.456   5.026
    1C        H  804   3.157   4.499   5.051
    1C        H  805   3.918   2.442   5.040
    1C        H  806   3.678   2.519   5.067
    1C        H  807   2.995   2.557   5.064
    1C        H  808   3.458   2.404   5.057
    1C        H  809   2.861   2.725   5.077
    1C        H  810   2.745   2.933   5.071
    1C        H  811   2.531   3.301   5.074
    1C        H  812   2.589   3.502   5.059
    1C        H  813   2.510   3.745   5.060
    1C        H  814   2.614   4.159   5.051
    1C        H  815   2.761   4.321   5.057
    1C        H  816   2.685   2.858   1.976
    1C        H  817   2.852   2.682   1.981
    1C        H  818   3.190   2.389   2.009
    1C        H  819   3.423   2.438   1.984
    1C        H  820   3.868   2.475   1.987
    1C        H  821   4.033   2.662   1.973
    1C        H  822   4.228   2.751   1.965
    1C        H  823   4.345   2.942   1.977
    1C        H  824   4.568   3.319   1.967
    1C        H  825   4.539   3.514   1.964
    1C        H  826   4.485   3.751   1.955
    1C        H  827   3.803   4.535   1.952
    1C        H  828   3.982   4.404   1.946
    1C        H  829   4.165   4.254   1.950
    1C        H  830   4.523   3.984   1.980
    1C        H  831   2.592   3.866   1.958
    1C        H  832   2.727   4.058   1.965
    1C        H  833   2.729   4.295   1.960
    1C        H  834   3.374   4.500   1.947
    1C        H  835   3.136   4.464   1.950
    1C        H  836   2.505   3.001   2.002
    1C        H  837   2.489   3.250   1.979
    1C        H  838   2.485   3.687   1.966
    2V3OU   H29  839   2.812   3.560   0.728
    2V3OU   C27  840   2.782   3.508   0.823
    2V3OU   H27  841   2.725   3.573   0.894
    2V3OU   H28  842   2.726   3.413   0.801
    2V3OU   O11  843   2.906   3.470   0.883
    2V3OU   C15  844   2.918   3.395   0.999
    2V3OU   C13  845   3.052   3.375   1.040
    2V3OU   C14  846   3.075   3.269   1.128
    2V3OU   C16  847   2.970   3.189   1.173
    2V3OU    H6  848   2.992   3.100   1.233
    2V3OU   C12  849   3.213   3.235   1.170
    2V3OU    O2  850   3.235   3.132   1.236
    2V3OU   C10  851   3.324   3.313   1.113
    2V3OU    C8  852   3.456   3.277   1.134
    2V3OU   O10  853   3.484   3.153   1.183
    2V3OU   H26  854   3.402   3.116   1.221
    2V3OU    C6  855   3.568   3.355   1.091
    2V3OU    C5  856   3.537   3.470   1.019
    2V3OU    C4  857   3.704   3.295   1.090
    2V3OU    H4  858   3.725   3.224   1.176
    2V3OU    H5  859   3.711   3.223   1.004
    2V3OU    C2  860   3.820   3.395   1.079
    2V3OU    O6  861   3.809   3.473   1.198
    2V3OU   H21  862   3.764   3.556   1.174
    2V3OU    C3  863   3.783   3.495   0.969
    2V3OU    H2  864   3.859   3.577   0.967
    2V3OU    H3  865   3.786   3.441   0.870
    2V3OU   C25  866   3.954   3.324   1.059
    2V3OU    O7  867   4.002   3.296   0.950
    2V3OU   C26  868   4.029   3.286   1.186
    2V3OU   H22  869   4.066   3.386   1.219
    2V3OU   H23  870   4.116   3.220   1.162
    2V3OU    O8  871   3.969   3.209   1.288
    2V3OU   H24  872   3.924   3.262   1.355
    2V3OU    C1  873   3.649   3.565   0.989
    2V3OU    H1  874   3.626   3.618   0.892
    2V3OU    O3  875   3.655   3.656   1.099
    2V3OU   C19  876   3.619   3.793   1.084
    2V3OU    H9  877   3.519   3.794   1.032
    2V3OU    O4  878   3.706   3.852   0.990
    2V3OU   C20  879   3.838   3.874   1.040
    2V3OU   H10  880   3.884   3.771   1.028
    2V3OU   C24  881   3.611   3.853   1.225
    2V3OU   H16  882   3.539   3.796   1.290
    2V3OU   H17  883   3.566   3.955   1.218
    2V3OU   C23  884   3.754   3.873   1.275
    2V3OU   H15  885   3.797   3.771   1.301
    2V3OU    N1  886   3.740   3.954   1.395
    2V3OU   H19  887   3.809   3.929   1.462
    2V3OU   H20  888   3.653   3.929   1.438
    2V3OU   C21  889   3.847   3.947   1.174
    2V3OU   H11  890   3.955   3.935   1.206
    2V3OU    O5  891   3.819   4.086   1.174
    2V3OU   H18  892   3.781   4.106   1.261
    2V3OU   C22  893   3.912   3.952   0.933
    2V3OU   H12  894   3.863   4.050   0.912
    2V3OU   H13  895   3.918   3.891   0.839
    2V3OU   H14  896   4.019   3.969   0.964
    2V3OU   C11  897   3.158   3.471   1.006
    2V3OU    O1  898   3.134   3.588   0.968
    2V3OU    C9  899   3.296   3.434   1.043
    2V3OU    C7  900   3.402   3.512   0.998
    2V3OU    O9  901   3.389   3.618   0.911
    2V3OU   H25  902   3.292   3.627   0.902
    2V3OU   C17  903   2.815   3.314   1.051
    2V3OU    H7  904   2.714   3.340   1.022
    2V3OU   C18  905   2.837   3.208   1.139
    2V3OU    H8  906   2.754   3.150   1.181
    3SOL     OW  907   0.614   4.592   1.153
    3SOL    HW1  908   0.585   4.506   1.110
    3SOL    HW2  909   0.640   4.574   1.248
    4SOL     OW  910   5.968   1.183   2.068
    4SOL    HW1  911   5.874   1.213   2.086
    4SOL    HW2  912   5.973   1.142   1.977
    5SOL     OW  913   3.692   2.918   1.041
    5SOL    HW1  914   3.598   2.947   1.024
    5SOL    HW2  915   3.706   2.905   1.139
    6SOL     OW  916   3.030   2.378   0.269
    6SOL    HW1  917   2.962   2.342   0.206
    6SOL    HW2  918   3.088   2.304   0.302
    7SOL     OW  919   5.421   1.029   1.808
    7SOL    HW1  920   5.425   1.017   1.709
    7SOL    HW2  921   5.368   1.112   1.829
    8SOL     OW  922   3.184   2.059   3.390
    8SOL    HW1  923   3.140   2.118   3.323
    8SOL    HW2  924   3.283   2.058   3.374
    9SOL     OW  925   6.355   4.321   6.434
    9SOL    HW1  926   6.393   4.386   6.369
    9SOL    HW2  927   6.365   4.358   6.527
   10SOL     OW  928   0.075   4.358   1.542
   10SOL    HW1  929   0.028   4.420   1.604
   10SOL    HW2  930   0.147   4.407   1.494
   11SOL     OW  931   3.864   6.628   6.748
   11SOL    HW1  932   3.932   6.554   6.743
   11SOL    HW2  933   3.797   6.607   6.819
   12SOL     OW  934   5.627   6.843   2.241
   12SOL    HW1  935   5.718   6.871   2.272
   12SOL    HW2  936   5.570   6.924   2.230
   13SOL     OW  937   2.064   6.818   2.610
   13SOL    HW1  938   1.982   6.864   2.575
   13SOL    HW2  939   2.125   6.797   2.534
   14SOL     OW  940   2.830   0.269   3.154
   14SOL    HW1  941   2.798   0.339   3.218
   14SOL    HW2  942   2.926   0.249   3.171
   15SOL     OW  943   2.600   6.599   5.995
   15SOL    HW1  944   2.658   6.529   6.036
   15SOL    HW2  945   2.609   6.596   5.896
   16SOL     OW  946   6.539   2.529   0.501
   16SOL    HW1  947   6.503   2.560   0.414
   16SOL    HW2  948   6.466   2.528   0.569
   17SOL     OW  949   3.897   5.523   3.282
   17SOL    HW1  950   3.973   5.564   3.231
   17SOL    HW2  951   3.823   5.590   3.292
   18SOL     OW  952   1.644   0.485   6.763
   18SOL    HW1  953   1.710   0.534   6.819
   18SOL    HW2  954   1.560   0.469   6.815
   19SOL     OW  955   0.884   0.025   1.230
   19SOL    HW1  956   0.838   0.001   1.144
   19SOL    HW2  957   0.969   0.073   1.209
   20SOL     OW  958   3.524   0.444   4.465
   20SOL    HW1  959   3.509   0.476   4.371
   20SOL    HW2  960   3.619   0.415   4.475
   21SOL     OW  961   2.838   3.097   1.502
   21SOL    HW1  962   2.825   3.071   1.598
   21SOL    HW2  963   2.933   3.078   1.475
   22SOL     OW  964   1.321   1.163   5.284
   22SOL    HW1  965   1.233   1.193   5.320
   22SOL    HW2  966   1.306   1.106   5.203
   23SOL     OW  967   2.605   6.450   4.779
   23SOL    HW1  968   2.554   6.405   4.852
   23SOL    HW2  969   2.703   6.442   4.796
   24SOL     OW  970   4.640   1.407   5.084
   24SOL    HW1  971   4.642   1.476   5.012
   24SOL    HW2  972   4.553   1.357   5.079
   25SOL     OW  973   2.565   6.104   1.006
   25SOL    HW1  974   2.497   6.177   1.005
   25SOL    HW2  975   2.522   6.019   0.976
   26SOL     OW  976   5.526   0.732   2.885
   26SOL    HW1  977   5.565   0.822   2.867
   26SOL    HW2  978   5.597   0.670   2.916
   27SOL     OW  979   5.822   0.363   2.614
   27SOL    HW1  980   5.881   0.331   2.688
   27SOL    HW2  981   5.874   0.423   2.553
   28SOL     OW  982   2.617   1.164   0.401
   28SOL    HW1  983   2.653   1.228   0.333
   28SOL    HW2  984   2.518   1.173   0.406
   29SOL     OW  985   4.792   2.982   1.654
   29SOL    HW1  986   4.754   3.003   1.744
   29SOL    HW2  987   4.853   2.903   1.661
   30SOL     OW  988   4.104   1.575   6.227
   30SOL    HW1  989   4.095   1.622   6.139
   30SOL    HW2  990   4.169   1.625   6.285
   31SOL     OW  991   0.747   1.733   5.195
   31SOL    HW1  992   0.833   1.723   5.145
   31SOL    HW2  993   0.671   1.735   5.131
   32SOL     OW  994   6.395   1.859   2.138
   32SOL    HW1  995   6.418   1.921   2.064
   32SOL    HW2  996   6.324   1.900   2.196
   33SOL     OW  997   1.607   0.957   4.980
   33SOL    HW1  998   1.585   1.052   4.956
   33SOL    HW2  999   1.656   0.955   5.067
   34SOL     OW 1000   0.831   0.814   5.102
   34SOL    HW1 1001   0.772   0.895   5.108
   34SOL    HW2 1002   0.899   0.816   5.175
   35SOL     OW 1003   4.864   2.150   6.190
   35SOL    HW1 1004   4.873   2.184   6.283
   35SOL    HW2 1005   4.770   2.120   6.174
   36SOL     OW 1006   1.065   2.398   5.948
   36SOL    HW1 1007   1.096   2.490   5.923
   36SOL    HW2 1008   0.993   2.369   5.884
   37SOL     OW 1009   3.355   6.765   1.922
   37SOL    HW1 1010   3.280   6.710   1.958
   37SOL    HW2 1011   3.319   6.847   1.877
   38SOL     OW 1012   6.765   5.598   1.903
   38SOL    HW1 1013   6.704   5.631   1.830
   38SOL    HW2 1014   6.860   5.606   1.872
   39SOL     OW 1015   6.977   2.502   6.568
   39SOL    HW1 1016   6.929   2.586   6.543
   39SOL    HW2 1017   0.019   2.520   6.641
   40SOL     OW 1018   0.232   1.591   1.839
   40SOL    HW1 1019   0.193   1.590   1.931
   40SOL    HW2 1020   0.269   1.501   1.817
   41SOL     OW 1021   0.842   0.987   6.199
   41SOL    HW1 1022   0.933   1.018   6.171
   41SOL    HW2 1023   0.787   1.066   6.225
   42SOL     OW 1024   3.969   6.966   0.534
   42SOL    HW1 1025   4.068   6.976   0.527
   42SOL    HW2 1026   3.925   7.018   0.461
   43SOL     OW 1027   4.739   5.625   5.174
   43SOL    HW1 1028   4.743   5.722   5.200
   43SOL    HW2 1029   4.821   5.579   5.209
   44SOL     OW 1030   0.895   3.948   0.025
   44SOL    HW1 1031   0.882   3.922   6.953
   44SOL    HW2 1032   0.837   4.027   0.047
   45SOL     OW 1033   2.316   0.090   1.339
   45SOL    HW1 1034   2.305   7.015   1.356
   45SOL    HW2 1035   2.332   0.105   1.242
   46SOL     OW 1036   0.710   5.546   3.655
   46SOL    HW1 1037   0.778   5.619   3.657
   46SOL    HW2 1038   0.726   5.488   3.575
   47SOL     OW 1039   6.406   4.381   2.643
   47SOL    HW1 1040   6.308   4.399   2.634
   47SOL    HW2 1041   6.457   4.441   2.582
   48SOL     OW 1042   0.650   1.477   5.235
   48SOL    HW1 1043   0.697   1.565   5.222
   48SOL    HW2 1044   0.702   1.405   5.189
   49SOL     OW 1045   5.748   3.220   0.126
   49SOL    HW1 1046   5.749   3.122   0.109
   49SOL    HW2 1047   5.830   3.245   0.179
   50SOL     OW 1048   0.446   4.068   4.420
   50SOL    HW1 1049   0.525   4.099   4.472
   50SOL    HW2 1050   0.457   3.971   4.397
   51SOL     OW 1051   3.020   5.614   1.974
   51SOL    HW1 1052   2.974   5.686   1.922
   51SOL    HW2 1053   2.989   5.524   1.941
   52SOL     OW 1054   0.345   2.301   1.898
   52SOL    HW1 1055   0.336   2.352   1.984
   52SOL    HW2 1056   0.396   2.356   1.832
   53SOL     OW 1057   4.535   6.669   3.963
   53SOL    HW1 1058   4.558   6.602   3.892
   53SOL    HW2 1059   4.513   6.621   4.048
   54SOL     OW 1060   4.414   4.511   5.429
   54SOL    HW1 1061   4.442   4.542   5.520
   54SOL    HW2 1062   4.494   4.480   5.378
   55SOL     OW 1063   3.739   2.463   1.179
   55SOL    HW1 1064   3.805   2.538   1.181
   55SOL    HW2 1065   3.691   2.459   1.267
   56SOL     OW 1066   0.484   0.531   1.984
   56SOL    HW1 1067   0.525   0.516   2.074
   56SOL    HW2 1068   0.495   0.627   1.958
   57SOL     OW 1069   5.213   0.729   0.440
   57SOL    HW1 1070   5.213   0.827   0.460
   57SOL    HW2 1071   5.295   0.687   0.479
   58SOL     OW 1072   6.606   0.500   0.073
   58SOL    HW1 1073   6.703   0.513   0.049
   58SOL    HW2 1074   6.557   0.587   0.065
   59SOL     OW 1075   0.193   7.003   5.599
   59SOL    HW1 1076   0.115   6.979   5.542
   59SOL    HW2 1077   0.216   6.927   5.660
   60SOL     OW 1078   4.861   6.945   5.153
   60SOL    HW1 1079   4.773   6.918   5.114
   60SOL    HW2 1080   4.931   6.941   5.082
   61SOL     OW 1081   3.517   6.931   5.512
   61SOL    HW1 1082   3.430   6.960   5.473
   61SOL    HW2 1083   3.568   6.880   5.443
   62SOL     OW 1084   2.711   0.237   4.670
   62SOL    HW1 1085   2.747   0.192   4.752
   62SOL    HW2 1086   2.626   0.193   4.642
   63SOL     OW 1087   6.695   3.001   3.929
   63SOL    HW1 1088   6.786   3.008   3.889
   63SOL    HW2 1089   6.701   3.005   4.029
   64SOL     OW 1090   6.960   2.401   5.366
   64SOL    HW1 1091   6.864   2.416   5.344
   64SOL    HW2 1092   6.994   2.477   5.421
   65SOL     OW 1093   1.360   4.074   5.564
   65SOL    HW1 1094   1.272   4.084   5.516
   65SOL    HW2 1095   1.430   4.044   5.499
   66SOL     OW 1096   2.439   0.938   1.327
   66SOL    HW1 1097   2.408   1.013   1.268
   66SOL    HW2 1098   2.531   0.959   1.361
   67SOL     OW 1099   4.353   5.095   4.109
   67SOL    HW1 1100   4.256   5.091   4.087
   67SOL    HW2 1101   4.370   5.048   4.196
   68SOL     OW 1102   5.241   3.012   6.784
   68SOL    HW1 1103   5.152   2.971   6.809
   68SOL    HW2 1104   5.241   3.034   6.687
   69SOL     OW 1105   2.559   2.758   5.556
   69SOL    HW1 1106   2.490   2.800   5.497
   69SOL    HW2 1107   2.641   2.815   5.557
   70SOL     OW 1108   5.581   0.588   2.317
   70SOL    HW1 1109   5.488   0.568   2.287
   70SOL    HW2 1110   5.583   0.594   2.417
   71SOL     OW 1111   1.878   4.305   1.996
   71SOL    HW1 1112   1.949   4.275   2.060
   71SOL    HW2 1113   1.915   4.306   1.903
   72SOL     OW 1114   4.033   5.449   3.682
   72SOL    HW1 1115   3.962   5.477   3.746
   72SOL    HW2 1116   4.108   5.407   3.731
   73SOL     OW 1117   3.032   3.102   6.885
   73SOL    HW1 1118   3.050   3.049   6.968
   73SOL    HW2 1119   2.946   3.073   6.844
   74SOL     OW 1120   4.996   0.212   5.837
   74SOL    HW1 1121   5.004   0.209   5.737
   74SOL    HW2 1122   5.085   0.187   5.878
   75SOL     OW 1123   3.935   5.421   5.631
   75SOL    HW1 1124   3.889   5.332   5.628
   75SOL    HW2 1125   4.024   5.411   5.676
   76SOL     OW 1126   2.652   2.873   0.917
   76SOL    HW1 1127   2.706   2.796   0.951
   76SOL    HW2 1128   2.572   2.887   0.976
   77SOL     OW 1129   5.752   4.110   6.500
   77SOL    HW1 1130   5.833   4.096   6.557
   77SOL    HW2 1131   5.761   4.055   6.416
   78SOL     OW 1132   6.124   0.105   5.694
   78SOL    HW1 1133   6.112   0.023   5.638
   78SOL    HW2 1134   6.043   0.119   5.752
   79SOL     OW 1135   3.250   6.672   1.025
   79SOL    HW1 1136   3.321   6.645   1.091
   79SOL    HW2 1137   3.223   6.766   1.043
   80SOL     OW 1138   0.391   0.999   4.043
   80SOL    HW1 1139   0.369   0.954   4.129
   80SOL    HW2 1140   0.313   1.056   4.014
   81SOL     OW 1141   1.604   6.007   2.753
   81SOL    HW1 1142   1.568   5.982   2.843
   81SOL    HW2 1143   1.531   6.047   2.698
   82SOL     OW 1144   6.391   4.622   5.708
   82SOL    HW1 1145   6.458   4.623   5.634
   82SOL    HW2 1146   6.322   4.692   5.693
   83SOL     OW 1147   5.768   6.769   5.636
   83SOL    HW1 1148   5.757   6.811   5.546
   83SOL    HW2 1149   5.780   6.670   5.625
   84SOL     OW 1150   6.810   3.177   2.046
   84SOL    HW1 1151   6.901   3.181   2.004
   84SOL    HW2 1152   6.746   3.232   1.993
   85SOL     OW 1153   1.173   1.337   5.041
   85SOL    HW1 1154   1.222   1.318   4.956
   85SOL    HW2 1155   1.220   1.291   5.117
   86SOL     OW 1156   2.100   1.050   4.555
   86SOL    HW1 1157   2.197   1.076   4.555
   86SOL    HW2 1158   2.076   1.011   4.644
   87SOL     OW 1159   4.718   6.713   1.921
   87SOL    HW1 1160   4.816   6.719   1.904
   87SOL    HW2 1161   4.703   6.675   2.013
   88SOL     OW 1162   5.927   0.760   1.785
   88SOL    HW1 1163   5.846   0.771   1.727
   88SOL    HW2 1164   5.913   0.806   1.872
   89SOL     OW 1165   2.275   1.867   5.010
   89SOL    HW1 1166   2.237   1.795   4.952
   89SOL    HW2 1167   2.301   1.828   5.099
   90SOL     OW 1168   5.976   6.182   3.695
   90SOL    HW1 1169   5.884   6.194   3.658
   90SOL    HW2 1170   6.043   6.223   3.632
   91SOL     OW 1171   4.949   5.030   4.466
   91SOL    HW1 1172   4.994   5.116   4.445
   91SOL    HW2 1173   4.857   5.047   4.501
   92SOL     OW 1174   3.659   5.988   1.160
   92SOL    HW1 1175   3.603   5.905   1.152
   92SOL    HW2 1176   3.676   6.026   1.069
   93SOL     OW 1177   2.964   5.122   5.897
   93SOL    HW1 1178   2.973   5.127   5.997
   93SOL    HW2 1179   2.868   5.131   5.872
   94SOL     OW 1180   1.712   6.855   1.868
   94SOL    HW1 1181   1.773   6.884   1.941
   94SOL    HW2 1182   1.753   6.777   1.820
   95SOL     OW 1183   6.967   7.020   4.796
   95SOL    HW1 1184   7.021   6.959   4.739
   95SOL    HW2 1185   7.016   0.015   4.882
   96SOL     OW 1186   1.580   6.428   4.631
   96SOL    HW1 1187   1.561   6.525   4.644
   96SOL    HW2 1188   1.660   6.418   4.571
   97SOL     OW 1189   6.419   2.403   4.201
   97SOL    HW1 1190   6.462   2.314   4.212
   97SOL    HW2 1191   6.442   2.440   4.111
   98SOL     OW 1192   4.428   0.814   5.515
   98SOL    HW1 1193   4.505   0.845   5.460
   98SOL    HW2 1194   4.425   0.714   5.516
   99SOL     OW 1195   4.809   0.947   0.602
   99SOL    HW1 1196   4.727   0.948   0.659
   99SOL    HW2 1197   4.852   0.856   0.608
  100SOL     OW 1198   6.705   5.583   0.243
  100SOL    HW1 1199   6.672   5.532   0.164
  100SOL    HW2 1200   6.633   5.588   0.312
  101SOL     OW 1201   1.621   7.017   3.890
  101SOL    HW1 1202   1.567   0.060   3.839
  101SOL    HW2 1203   1.623   0.019   3.987
  102SOL     OW 1204   4.469   0.679   2.727
  102SOL    HW1 1205   4.504   0.611   2.791
  102SOL    HW2 1206   4.542   0.745   2.706
  103SOL     OW 1207   3.921   1.671   1.914
  103SOL    HW1 1208   3.927   1.739   1.988
  103SOL    HW2 1209   4.012   1.634   1.895
  104SOL     OW 1210   6.159   6.197   2.300
  104SOL    HW1 1211   6.060   6.202   2.316
  104SOL    HW2 1212   6.188   6.101   2.301
  105SOL     OW 1213   5.857   0.947   6.203
  105SOL    HW1 1214   5.937   0.935   6.144
  105SOL    HW2 1215   5.780   0.898   6.163
  106SOL     OW 1216   3.643   6.873   1.149
  106SOL    HW1 1217   3.743   6.863   1.155
  106SOL    HW2 1218   3.619   6.970   1.159
  107SOL     OW 1219   2.453   3.435   0.071
  107SOL    HW1 1220   2.502   3.358   0.112
  107SOL    HW2 1221   2.360   3.437   0.106
  108SOL     OW 1222   4.740   4.060   5.295
  108SOL    HW1 1223   4.782   3.976   5.260
  108SOL    HW2 1224   4.702   4.043   5.386
  109SOL     OW 1225   6.103   0.855   2.070
  109SOL    HW1 1226   6.019   0.908   2.057
  109SOL    HW2 1227   6.123   0.848   2.168
  110SOL     OW 1228   3.440   6.476   4.316
  110SOL    HW1 1229   3.510   6.545   4.332
  110SOL    HW2 1230   3.425   6.466   4.218
  111SOL     OW 1231   2.835   1.321   3.116
  111SOL    HW1 1232   2.892   1.240   3.104
  111SOL    HW2 1233   2.750   1.295   3.162
  112SOL     OW 1234   0.170   1.716   6.456
  112SOL    HW1 1235   0.131   1.670   6.376
  112SOL    HW2 1236   0.097   1.740   6.520
  113SOL     OW 1237   6.876   6.714   3.764
  113SOL    HW1 1238   6.855   6.630   3.814
  113SOL    HW2 1239   6.959   6.701   3.711
  114SOL     OW 1240   1.116   6.337   0.464
  114SOL    HW1 1241   1.083   6.347   0.370
  114SOL    HW2 1242   1.185   6.264   0.467
  115SOL     OW 1243   5.286   1.207   5.544
  115SOL    HW1 1244   5.210   1.174   5.601
  115SOL    HW2 1245   5.294   1.151   5.462
  116SOL     OW 1246   6.236   4.176   2.995
  116SOL    HW1 1247   6.159   4.157   3.055
  116SOL    HW2 1248   6.218   4.137   2.904
  117SOL     OW 1249   0.400   6.649   6.336
  117SOL    HW1 1250   0.404   6.745   6.364
  117SOL    HW2 1251   0.408   6.643   6.237
  118SOL     OW 1252   2.182   0.945   3.209
  118SOL    HW1 1253   2.280   0.965   3.200
  118SOL    HW2 1254   2.156   0.950   3.306
  119SOL     OW 1255   6.776   2.217   6.518
  119SOL    HW1 1256   6.712   2.180   6.451
  119SOL    HW2 1257   6.847   2.269   6.470
  120SOL     OW 1258   4.850   5.926   1.590
  120SOL    HW1 1259   4.921   5.879   1.642
  120SOL    HW2 1260   4.774   5.864   1.574
  121SOL     OW 1261   2.599   3.044   5.918
  121SOL    HW1 1262   2.590   3.114   5.847
  121SOL    HW2 1263   2.566   2.956   5.882
  122SOL     OW 1264   1.468   3.528   4.967
  122SOL    HW1 1265   1.531   3.466   4.920
  122SOL    HW2 1266   1.421   3.585   4.899
  123SOL     OW 1267   6.778   1.619   2.028
  123SOL    HW1 1268   6.704   1.553   2.014
  123SOL    HW2 1269   6.810   1.652   1.939
  124SOL     OW 1270   4.996   3.699   1.171
  124SOL    HW1 1271   4.977   3.601   1.159
  124SOL    HW2 1272   4.996   3.722   1.268
  125SOL     OW 1273   2.577   3.576   1.690
  125SOL    HW1 1274   2.554   3.672   1.674
  125SOL    HW2 1275   2.505   3.533   1.743
  126SOL     OW 1276   4.014   4.360   0.320
  126SOL    HW1 1277   4.019   4.342   0.222
  126SOL    HW2 1278   3.920   4.383   0.346
  127SOL     OW 1279   0.672   5.731   5.786
  127SOL    HW1 1280   0.639   5.637   5.801
  127SOL    HW2 1281   0.627   5.769   5.705
  128SOL     OW 1282   4.859   2.346   0.532
  128SOL    HW1 1283   4.784   2.302   0.582
  128SOL    HW2 1284   4.823   2.390   0.450
  129SOL     OW 1285   2.627   3.711   0.079
  129SOL    HW1 1286   2.719   3.747   0.094
  129SOL    HW2 1287   2.574   3.718   0.163
  130SOL     OW 1288   1.677   2.120   4.677
  130SOL    HW1 1289   1.725   2.105   4.763
  130SOL    HW2 1290   1.593   2.066   4.676
  131SOL     OW 1291   5.852   0.890   2.402
  131SOL    HW1 1292   5.775   0.902   2.340
  131SOL    HW2 1293   5.860   0.793   2.427
  132SOL     OW 1294   0.728   2.028   1.914
  132SOL    HW1 1295   0.705   2.069   2.002
  132SOL    HW2 1296   0.778   1.942   1.930
  133SOL     OW 1297   0.011   5.912   2.974
  133SOL    HW1 1298   6.967   5.866   3.032
  133SOL    HW2 1299   0.041   5.996   3.019
  134SOL     OW 1300   1.155   3.382   3.176
  134SOL    HW1 1301   1.138   3.283   3.175
  134SOL    HW2 1302   1.181   3.413   3.085
  135SOL     OW 1303   4.464   0.872   4.266
  135SOL    HW1 1304   4.515   0.865   4.180
  135SOL    HW2 1305   4.518   0.832   4.340
  136SOL     OW 1306   5.107   4.744   6.434
  136SOL    HW1 1307   5.076   4.650   6.428
  136SOL    HW2 1308   5.127   4.779   6.342
  137SOL     OW 1309   3.849   0.799   5.448
  137SOL    HW1 1310   3.861   0.855   5.366
  137SOL    HW2 1311   3.844   0.858   5.528
  138SOL     OW 1312   5.636   4.356   5.516
  138SOL    HW1 1313   5.582   4.411   5.579
  138SOL    HW2 1314   5.604   4.262   5.518
  139SOL     OW 1315   3.522   5.972   5.648
  139SOL    HW1 1316   3.457   5.959   5.573
  139SOL    HW2 1317   3.516   5.894   5.711
  140SOL     OW 1318   6.291   3.929   4.768
  140SOL    HW1 1319   6.295   4.028   4.754
  140SOL    HW2 1320   6.246   3.885   4.690
  141SOL     OW 1321   1.298   2.075   2.526
  141SOL    HW1 1322   1.360   2.020   2.469
  141SOL    HW2 1323   1.244   2.135   2.467
  142SOL     OW 1324   1.079   5.301   1.181
  142SOL    HW1 1325   1.177   5.321   1.179
  142SOL    HW2 1326   1.045   5.314   1.274
  143SOL     OW 1327   5.044   4.525   2.055
  143SOL    HW1 1328   5.117   4.555   1.994
  143SOL    HW2 1329   5.082   4.510   2.146
  144SOL     OW 1330   2.930   6.919   1.030
  144SOL    HW1 1331   2.932   6.879   0.938
  144SOL    HW2 1332   3.023   6.923   1.066
  145SOL     OW 1333   6.527   5.376   0.793
  145SOL    HW1 1334   6.452   5.436   0.763
  145SOL    HW2 1335   6.593   5.366   0.719
  146SOL     OW 1336   0.205   4.714   0.726
  146SOL    HW1 1337   0.164   4.625   0.709
  146SOL    HW2 1338   0.168   4.781   0.661
  147SOL     OW 1339   5.636   2.612   0.775
  147SOL    HW1 1340   5.589   2.526   0.796
  147SOL    HW2 1341   5.660   2.658   0.861
  148SOL     OW 1342   0.872   5.724   5.257
  148SOL    HW1 1343   0.840   5.661   5.328
  148SOL    HW2 1344   0.932   5.793   5.298
  149SOL     OW 1345   3.119   0.897   6.089
  149SOL    HW1 1346   3.042   0.950   6.126
  149SOL    HW2 1347   3.190   0.960   6.057
  150SOL     OW 1348   0.052   6.006   5.143
  150SOL    HW1 1349   0.001   5.920   5.147
  150SOL    HW2 1350   0.022   6.066   5.217
  151SOL     OW 1351   4.592   0.581   2.314
  151SOL    HW1 1352   4.577   0.523   2.234
  151SOL    HW2 1353   4.634   0.527   2.387
  152SOL     OW 1354   2.908   0.653   4.465
  152SOL    HW1 1355   2.955   0.725   4.414
  152SOL    HW2 1356   2.950   0.565   4.444
  153SOL     OW 1357   1.059   0.347   2.610
  153SOL    HW1 1358   1.155   0.329   2.590
  153SOL    HW2 1359   1.028   0.285   2.683
  154SOL     OW 1360   0.404   1.786   3.085
  154SOL    HW1 1361   0.497   1.758   3.111
  154SOL    HW2 1362   0.391   1.883   3.106
  155SOL     OW 1363   0.574   1.113   3.288
  155SOL    HW1 1364   0.615   1.026   3.260
  155SOL    HW2 1365   0.509   1.143   3.219
  156SOL     OW 1366   6.948   2.375   1.254
  156SOL    HW1 1367   6.940   2.445   1.326
  156SOL    HW2 1368   6.966   2.286   1.295
  157SOL     OW 1369   0.352   2.373   2.548
  157SOL    HW1 1370   0.346   2.295   2.611
  157SOL    HW2 1371   0.260   2.397   2.518
  158SOL     OW 1372   2.190   1.560   3.594
  158SOL    HW1 1373   2.154   1.582   3.504
  158SOL    HW2 1374   2.115   1.540   3.657
  159SOL     OW 1375   5.057   3.590   1.802
  159SOL    HW1 1376   4.997   3.512   1.816
  159SOL    HW2 1377   5.010   3.674   1.831
  160SOL     OW 1378   5.901   4.618   6.395
  160SOL    HW1 1379   5.817   4.566   6.409
  160SOL    HW2 1380   5.949   4.583   6.314
  161SOL     OW 1381   2.778   4.527   5.430
  161SOL    HW1 1382   2.813   4.549   5.339
  161SOL    HW2 1383   2.853   4.497   5.489
  162SOL     OW 1384   4.677   5.703   2.553
  162SOL    HW1 1385   4.734   5.687   2.633
  162SOL    HW2 1386   4.686   5.799   2.524
  163SOL     OW 1387   6.156   0.449   1.621
  163SOL    HW1 1388   6.060   0.475   1.610
  163SOL    HW2 1389   6.203   0.461   1.534
  164SOL     OW 1390   6.409   3.135   1.383
  164SOL    HW1 1391   6.500   3.104   1.407
  164SOL    HW2 1392   6.380   3.207   1.447
  165SOL     OW 1393   6.346   3.548   6.781
  165SOL    HW1 1394   6.255   3.514   6.756
  165SOL    HW2 1395   6.385   3.490   6.853
  166SOL     OW 1396   1.509   0.066   0.370
  166SOL    HW1 1397   1.420   0.098   0.401
  166SOL    HW2 1398   1.564   0.144   0.338
  167SOL     OW 1399   6.356   2.778   1.414
  167SOL    HW1 1400   6.454   2.794   1.401
  167SOL    HW2 1401   6.341   2.733   1.502
  168SOL     OW 1402   2.489   5.174   1.472
  168SOL    HW1 1403   2.539   5.181   1.559
  168SOL    HW2 1404   2.465   5.266   1.440
  169SOL     OW 1405   0.993   0.327   1.376
  169SOL    HW1 1406   1.041   0.406   1.414
  169SOL    HW2 1407   0.977   0.342   1.278
  170SOL     OW 1408   0.316   1.743   3.461
  170SOL    HW1 1409   0.235   1.691   3.434
  170SOL    HW2 1410   0.397   1.684   3.456
  171SOL     OW 1411   3.377   3.922   0.595
  171SOL    HW1 1412   3.464   3.905   0.642
  171SOL    HW2 1413   3.381   4.009   0.548
  172SOL     OW 1414   0.203   2.953   2.108
  172SOL    HW1 1415   0.253   3.025   2.060
  172SOL    HW2 1416   0.138   2.994   2.172
  173SOL     OW 1417   6.800   6.888   5.843
  173SOL    HW1 1418   6.780   6.855   5.935
  173SOL    HW2 1419   6.715   6.891   5.790
  174SOL     OW 1420   2.475   5.917   3.745
  174SOL    HW1 1421   2.475   6.010   3.710
  174SOL    HW2 1422   2.442   5.917   3.839
  175SOL     OW 1423   0.307   5.100   3.773
  175SOL    HW1 1424   0.287   5.053   3.687
  175SOL    HW2 1425   0.404   5.089   3.795
  176SOL     OW 1426   2.867   5.369   0.106
  176SOL    HW1 1427   2.904   5.439   0.167
  176SOL    HW2 1428   2.913   5.375   0.017
  177SOL     OW 1429   4.528   1.553   2.916
  177SOL    HW1 1430   4.445   1.545   2.861
  177SOL    HW2 1431   4.555   1.463   2.949
  178SOL     OW 1432   5.560   3.929   6.331
  178SOL    HW1 1433   5.545   3.866   6.407
  178SOL    HW2 1434   5.507   3.899   6.252
  179SOL     OW 1435   2.914   6.755   6.931
  179SOL    HW1 1436   3.001   6.705   6.929
  179SOL    HW2 1437   2.880   6.766   6.837
  180SOL     OW 1438   1.153   2.395   7.001
  180SOL    HW1 1439   1.080   2.375   0.042
  180SOL    HW2 1440   1.179   2.312   6.953
  181SOL     OW 1441   2.978   3.433   3.920
  181SOL    HW1 1442   2.975   3.471   3.827
  181SOL    HW2 1443   2.964   3.334   3.915
  182SOL     OW 1444   5.613   2.501   5.096
  182SOL    HW1 1445   5.675   2.456   5.160
  182SOL    HW2 1446   5.585   2.436   5.025
  183SOL     OW 1447   6.132   1.432   2.751
  183SOL    HW1 1448   6.059   1.479   2.801
  183SOL    HW2 1449   6.115   1.333   2.752
  184SOL     OW 1450   0.463   5.193   2.472
  184SOL    HW1 1451   0.477   5.231   2.380
  184SOL    HW2 1452   0.452   5.094   2.465
  185SOL     OW 1453   3.082   3.840   6.123
  185SOL    HW1 1454   2.987   3.857   6.095
  185SOL    HW2 1455   3.143   3.899   6.072
  186SOL     OW 1456   6.146   6.832   3.428
  186SOL    HW1 1457   6.075   6.886   3.473
  186SOL    HW2 1458   6.120   6.814   3.333
  187SOL     OW 1459   5.771   0.043   4.324
  187SOL    HW1 1460   5.797   0.032   4.228
  187SOL    HW2 1461   5.835   0.105   4.369
  188SOL     OW 1462   5.986   2.031   5.056
  188SOL    HW1 1463   6.053   2.105   5.056
  188SOL    HW2 1464   6.015   1.959   5.119
  189SOL     OW 1465   1.964   4.644   3.880
  189SOL    HW1 1466   2.031   4.612   3.813
  189SOL    HW2 1467   1.872   4.633   3.843
  190SOL     OW 1468   3.559   1.469   6.841
  190SOL    HW1 1469   3.604   1.383   6.817
  190SOL    HW2 1470   3.542   1.471   6.940
  191SOL     OW 1471   5.489   6.010   6.290
  191SOL    HW1 1472   5.532   6.055   6.369
  191SOL    HW2 1473   5.395   5.986   6.313
  192SOL     OW 1474   6.321   0.493   6.894
  192SOL    HW1 1475   6.417   0.522   6.903
  192SOL    HW2 1476   6.307   0.407   6.941
  193SOL     OW 1477   5.979   3.939   6.912
  193SOL    HW1 1478   6.036   3.949   6.993
  193SOL    HW2 1479   6.022   3.875   6.848
  194SOL     OW 1480   4.258   0.143   4.910
  194SOL    HW1 1481   4.284   0.140   4.813
  194SOL    HW2 1482   4.314   0.079   4.962
  195SOL     OW 1483   0.152   5.855   3.364
  195SOL    HW1 1484   0.191   5.764   3.379
  195SOL    HW2 1485   0.152   5.905   3.451
  196SOL     OW 1486   0.514   1.229   0.975
  196SOL    HW1 1487   0.425   1.187   0.994
  196SOL    HW2 1488   0.562   1.175   0.906
  197SOL     OW 1489   2.077   0.944   0.852
  197SOL    HW1 1490   2.055   0.848   0.865
  197SOL    HW2 1491   2.039   0.975   0.765
  198SOL     OW 1492   2.928   1.312   4.585
  198SOL    HW1 1493   2.901   1.264   4.501
  198SOL    HW2 1494   2.959   1.246   4.653
  199SOL     OW 1495   1.707   1.196   4.296
  199SOL    HW1 1496   1.731   1.141   4.377
  199SOL    HW2 1497   1.685   1.289   4.324
  200SOL     OW 1498   6.071   2.187   0.611
  200SOL    HW1 1499   6.043   2.091   0.612
  200SOL    HW2 1500   6.170   2.192   0.596
  201SOL     OW 1501   0.463   1.663   5.900
  201SOL    HW1 1502   0.471   1.638   5.803
  201SOL    HW2 1503   0.373   1.704   5.916
  202SOL     OW 1504   5.441   0.061   0.588
  202SOL    HW1 1505   5.427   0.156   0.558
  202SOL    HW2 1506   5.383   0.042   0.667
  203SOL     OW 1507   6.470   3.888   0.094
  203SOL    HW1 1508   6.543   3.918   0.155
  203SOL    HW2 1509   6.480   3.931   0.005
  204SOL     OW 1510   6.583   1.132   5.432
  204SOL    HW1 1511   6.552   1.115   5.338
  204SOL    HW2 1512   6.623   1.048   5.469
  205SOL     OW 1513   2.168   4.573   3.493
  205SOL    HW1 1514   2.249   4.533   3.450
  205SOL    HW2 1515   2.166   4.547   3.590
  206SOL     OW 1516   0.689   4.104   1.236
  206SOL    HW1 1517   0.710   4.177   1.171
  206SOL    HW2 1518   0.609   4.054   1.205
  207SOL     OW 1519   0.044   2.579   4.376
  207SOL    HW1 1520   0.004   2.590   4.285
  207SOL    HW2 1521   0.086   2.665   4.405
  208SOL     OW 1522   1.445   3.042   4.934
  208SOL    HW1 1523   1.454   3.127   4.882
  208SOL    HW2 1524   1.536   3.007   4.957
  209SOL     OW 1525   5.982   3.810   2.601
  209SOL    HW1 1526   5.904   3.750   2.580
  209SOL    HW2 1527   6.063   3.755   2.618
  210SOL     OW 1528   4.819   3.730   0.947
  210SOL    HW1 1529   4.883   3.728   1.023
  210SOL    HW2 1530   4.730   3.695   0.977
  211SOL     OW 1531   1.486   1.577   1.478
  211SOL    HW1 1532   1.567   1.605   1.529
  211SOL    HW2 1533   1.459   1.485   1.506
  212SOL     OW 1534   2.390   3.795   1.696
  212SOL    HW1 1535   2.305   3.817   1.744
  212SOL    HW2 1536   2.373   3.725   1.628
  213SOL     OW 1537   0.785   5.216   1.339
  213SOL    HW1 1538   0.800   5.122   1.307
  213SOL    HW2 1539   0.702   5.252   1.298
  214SOL     OW 1540   5.787   6.679   2.433
  214SOL    HW1 1541   5.850   6.654   2.360
  214SOL    HW2 1542   5.693   6.672   2.401
  215SOL     OW 1543   2.304   4.675   2.574
  215SOL    HW1 1544   2.227   4.617   2.550
  215SOL    HW2 1545   2.291   4.767   2.537
  216SOL     OW 1546   1.495   5.950   2.988
  216SOL    HW1 1547   1.537   5.942   3.079
  216SOL    HW2 1548   1.456   5.862   2.962
  217SOL     OW 1549   0.001   4.906   4.946
  217SOL    HW1 1550   0.009   4.973   4.872
  217SOL    HW2 1551   0.014   4.952   5.034
  218SOL     OW 1552   3.036   2.438   5.662
  218SOL    HW1 1553   3.004   2.344   5.663
  218SOL    HW2 1554   3.136   2.439   5.659
  219SOL     OW 1555   5.303   2.352   1.333
  219SOL    HW1 1556   5.218   2.332   1.285
  219SOL    HW2 1557   5.371   2.282   1.311
  220SOL     OW 1558   2.570   6.614   0.581
  220SOL    HW1 1559   2.509   6.612   0.502
  220SOL    HW2 1560   2.662   6.587   0.553
  221SOL     OW 1561   4.813   4.608   2.294
  221SOL    HW1 1562   4.897   4.567   2.329
  221SOL    HW2 1563   4.744   4.536   2.282
  222SOL     OW 1564   1.498   3.934   6.656
  222SOL    HW1 1565   1.561   4.009   6.639
  222SOL    HW2 1566   1.405   3.969   6.667
  223SOL     OW 1567   6.614   2.038   4.801
  223SOL    HW1 1568   6.521   2.070   4.817
  223SOL    HW2 1569   6.671   2.115   4.772
  224SOL     OW 1570   3.536   2.601   5.858
  224SOL    HW1 1571   3.614   2.545   5.884
  224SOL    HW2 1572   3.528   2.604   5.758
  225SOL     OW 1573   4.296   5.985   6.343
  225SOL    HW1 1574   4.357   6.043   6.289
  225SOL    HW2 1575   4.208   6.030   6.354
  226SOL     OW 1576   1.877   2.423   0.268
  226SOL    HW1 1577   1.893   2.517   0.297
  226SOL    HW2 1578   1.807   2.382   0.326
  227SOL     OW 1579   1.458   3.683   0.912
  227SOL    HW1 1580   1.397   3.761   0.929
  227SOL    HW2 1581   1.535   3.687   0.976
  228SOL     OW 1582   0.905   0.371   2.389
  228SOL    HW1 1583   0.955   0.365   2.302
  228SOL    HW2 1584   0.969   0.357   2.465
  229SOL     OW 1585   4.066   0.652   6.182
  229SOL    HW1 1586   4.007   0.674   6.260
  229SOL    HW2 1587   4.009   0.618   6.107
  230SOL     OW 1588   5.735   4.116   5.894
  230SOL    HW1 1589   5.830   4.134   5.868
  230SOL    HW2 1590   5.714   4.165   5.979
  231SOL     OW 1591   5.179   0.987   0.200
  231SOL    HW1 1592   5.132   1.041   0.130
  231SOL    HW2 1593   5.223   1.048   0.266
  232SOL     OW 1594   1.153   2.631   5.114
  232SOL    HW1 1595   1.228   2.676   5.064
  232SOL    HW2 1596   1.132   2.683   5.196
  233SOL     OW 1597   3.549   1.637   3.946
  233SOL    HW1 1598   3.540   1.565   3.877
  233SOL    HW2 1599   3.488   1.618   4.023
  234SOL     OW 1600   5.594   0.107   0.266
  234SOL    HW1 1601   5.547   0.114   0.354
  234SOL    HW2 1602   5.555   0.174   0.202
  235SOL     OW 1603   5.212   3.391   2.331
  235SOL    HW1 1604   5.206   3.485   2.297
  235SOL    HW2 1605   5.141   3.335   2.288
  236SOL     OW 1606   3.621   3.053   5.905
  236SOL    HW1 1607   3.702   3.057   5.964
  236SOL    HW2 1608   3.646   3.009   5.818
  237SOL     OW 1609   6.218   3.645   3.061
  237SOL    HW1 1610   6.237   3.678   3.153
  237SOL    HW2 1611   6.198   3.547   3.064
  238SOL     OW 1612   6.298   1.737   0.104
  238SOL    HW1 1613   6.258   1.804   0.166
  238SOL    HW2 1614   6.321   1.781   0.018
  239SOL     OW 1615   1.913   3.302   0.433
  239SOL    HW1 1616   1.876   3.382   0.481
  239SOL    HW2 1617   1.894   3.310   0.335
  240SOL     OW 1618   5.711   3.509   3.866
  240SOL    HW1 1619   5.655   3.458   3.801
  240SOL    HW2 1620   5.674   3.601   3.878
  241SOL     OW 1621   1.990   2.732   4.002
  241SOL    HW1 1622   2.057   2.701   4.070
  241SOL    HW2 1623   1.977   2.660   3.934
  242SOL     OW 1624   3.706   3.287   1.850
  242SOL    HW1 1625   3.658   3.264   1.935
  242SOL    HW2 1626   3.760   3.209   1.820
  243SOL     OW 1627   4.267   2.767   6.408
  243SOL    HW1 1628   4.197   2.775   6.336
  243SOL    HW2 1629   4.341   2.708   6.375
  244SOL     OW 1630   4.959   3.492   4.806
  244SOL    HW1 1631   4.956   3.393   4.793
  244SOL    HW2 1632   4.914   3.516   4.892
  245SOL     OW 1633   3.583   0.932   3.000
  245SOL    HW1 1634   3.602   0.852   2.944
  245SOL    HW2 1635   3.602   1.015   2.947
  246SOL     OW 1636   6.674   1.405   2.498
  246SOL    HW1 1637   6.752   1.391   2.437
  246SOL    HW2 1638   6.589   1.387   2.448
  247SOL     OW 1639   2.571   0.968   2.055
  247SOL    HW1 1640   2.525   1.041   2.105
  247SOL    HW2 1641   2.578   0.887   2.112
  248SOL     OW 1642   3.282   3.661   1.317
  248SOL    HW1 1643   3.240   3.730   1.258
  248SOL    HW2 1644   3.212   3.596   1.346
  249SOL     OW 1645   4.858   6.502   5.536
  249SOL    HW1 1646   4.852   6.589   5.487
  249SOL    HW2 1647   4.905   6.435   5.478
  250SOL     OW 1648   3.999   2.493   6.846
  250SOL    HW1 1649   3.959   2.538   6.926
  250SOL    HW2 1650   3.988   2.552   6.766
  251SOL     OW 1651   4.443   5.192   5.007
  251SOL    HW1 1652   4.389   5.121   4.962
  251SOL    HW2 1653   4.503   5.236   4.941
  252SOL     OW 1654   6.571   6.000   5.049
  252SOL    HW1 1655   6.520   6.027   4.967
  252SOL    HW2 1656   6.578   6.077   5.111
  253SOL     OW 1657   4.237   6.173   5.936
  253SOL    HW1 1658   4.167   6.104   5.953
  253SOL    HW2 1659   4.253   6.181   5.837
  254SOL     OW 1660   6.060   2.279   5.345
  254SOL    HW1 1661   5.992   2.208   5.329
  254SOL    HW2 1662   6.151   2.242   5.328
  255SOL     OW 1663   1.413   4.194   6.889
  255SOL    HW1 1664   1.369   4.125   6.830
  255SOL    HW2 1665   1.386   4.285   6.858
  256SOL     OW 1666   4.786   2.562   5.337
  256SOL    HW1 1667   4.762   2.567   5.240
  256SOL    HW2 1668   4.777   2.653   5.378
  257SOL     OW 1669   4.812   6.302   2.539
  257SOL    HW1 1670   4.744   6.261   2.479
  257SOL    HW2 1671   4.903   6.294   2.498
  258SOL     OW 1672   1.949   3.278   5.890
  258SOL    HW1 1673   1.966   3.252   5.985
  258SOL    HW2 1674   2.015   3.232   5.830
  259SOL     OW 1675   3.382   0.350   4.006
  259SOL    HW1 1676   3.419   0.284   3.941
  259SOL    HW2 1677   3.323   0.415   3.958
  260SOL     OW 1678   3.676   5.682   3.306
  260SOL    HW1 1679   3.594   5.638   3.268
  260SOL    HW2 1680   3.649   5.738   3.384
  261SOL     OW 1681   3.971   4.801   6.932
  261SOL    HW1 1682   3.947   4.872   6.866
  261SOL    HW2 1683   3.986   4.715   6.883
  262SOL     OW 1684   1.182   3.498   6.567
  262SOL    HW1 1685   1.157   3.426   6.503
  262SOL    HW2 1686   1.279   3.488   6.591
  263SOL     OW 1687   1.960   0.185   3.674
  263SOL    HW1 1688   1.955   0.175   3.773
  263SOL    HW2 1689   1.922   0.104   3.630
  264SOL     OW 1690   6.621   3.134   6.473
  264SOL    HW1 1691   6.709   3.165   6.438
  264SOL    HW2 1692   6.611   3.163   6.569
  265SOL     OW 1693   6.965   0.067   3.002
  265SOL    HW1 1694   6.909   0.006   3.058
  265SOL    HW2 1695   0.038   0.047   3.019
  266SOL     OW 1696   3.517   0.773   5.808
  266SOL    HW1 1697   3.594   0.836   5.800
  266SOL    HW2 1698   3.494   0.760   5.904
  267SOL     OW 1699   2.474   6.972   2.589
  267SOL    HW1 1700   2.436   6.996   2.500
  267SOL    HW2 1701   2.447   6.878   2.612
  268SOL     OW 1702   3.638   2.336   0.624
  268SOL    HW1 1703   3.722   2.378   0.659
  268SOL    HW2 1704   3.564   2.350   0.690
  269SOL     OW 1705   5.363   1.762   6.864
  269SOL    HW1 1706   5.413   1.677   6.848
  269SOL    HW2 1707   5.269   1.741   6.891
  270SOL     OW 1708   5.381   1.247   0.569
  270SOL    HW1 1709   5.293   1.199   0.571
  270SOL    HW2 1710   5.371   1.334   0.521
  271SOL     OW 1711   0.353   4.505   6.031
  271SOL    HW1 1712   0.417   4.434   6.061
  271SOL    HW2 1713   0.274   4.462   5.987
  272SOL     OW 1714   3.135   5.980   3.200
  272SOL    HW1 1715   3.221   5.941   3.233
  272SOL    HW2 1716   3.058   5.936   3.246
  273SOL     OW 1717   1.532   5.710   6.017
  273SOL    HW1 1718   1.469   5.769   5.966
  273SOL    HW2 1719   1.499   5.616   6.014
  274SOL     OW 1720   4.440   2.016   3.969
  274SOL    HW1 1721   4.422   2.114   3.956
  274SOL    HW2 1722   4.362   1.964   3.935
  275SOL     OW 1723   5.685   0.300   1.357
  275SOL    HW1 1724   5.620   0.349   1.298
  275SOL    HW2 1725   5.767   0.356   1.369
  276SOL     OW 1726   0.726   6.815   4.550
  276SOL    HW1 1727   0.627   6.803   4.548
  276SOL    HW2 1728   0.769   6.738   4.503
  277SOL     OW 1729   2.391   4.708   1.506
  277SOL    HW1 1730   2.456   4.761   1.451
  277SOL    HW2 1731   2.300   4.749   1.499
  278SOL     OW 1732   0.808   2.373   3.582
  278SOL    HW1 1733   0.732   2.430   3.611
  278SOL    HW2 1734   0.782   2.324   3.498
  279SOL     OW 1735   6.110   1.056   3.277
  279SOL    HW1 1736   6.038   1.012   3.331
  279SOL    HW2 1737   6.197   1.051   3.328
  280SOL     OW 1738   1.745   5.313   2.859
  280SOL    HW1 1739   1.749   5.280   2.954
  280SOL    HW2 1740   1.715   5.408   2.859
  281SOL     OW 1741   2.637   4.212   1.306
  281SOL    HW1 1742   2.562   4.236   1.368
  281SOL    HW2 1743   2.601   4.163   1.227
  282SOL     OW 1744   1.708   1.275   4.989
  282SOL    HW1 1745   1.669   1.363   4.965
  282SOL    HW2 1746   1.783   1.253   4.926
  283SOL     OW 1747   2.860   2.959   6.488
  283SOL    HW1 1748   2.919   3.030   6.450
  283SOL    HW2 1749   2.778   2.950   6.430
  284SOL     OW 1750   0.372   3.876   3.796
  284SOL    HW1 1751   0.448   3.851   3.856
  284SOL    HW2 1752   0.307   3.800   3.792
  285SOL     OW 1753   5.398   3.935   3.768
  285SOL    HW1 1754   5.349   3.915   3.684
  285SOL    HW2 1755   5.372   4.026   3.801
  286SOL     OW 1756   2.884   4.133   1.260
  286SOL    HW1 1757   2.951   4.187   1.311
  286SOL    HW2 1758   2.794   4.174   1.271
  287SOL     OW 1759   0.688   3.114   0.175
  287SOL    HW1 1760   0.758   3.110   0.104
  287SOL    HW2 1761   0.682   3.206   0.212
  288SOL     OW 1762   5.285   3.206   1.750
  288SOL    HW1 1763   5.267   3.300   1.719
  288SOL    HW2 1764   5.340   3.209   1.833
  289SOL     OW 1765   3.779   5.731   6.800
  289SOL    HW1 1766   3.778   5.634   6.824
  289SOL    HW2 1767   3.696   5.755   6.750
  290SOL     OW 1768   1.987   0.948   4.772
  290SOL    HW1 1769   2.061   0.937   4.837
  290SOL    HW2 1770   1.911   0.887   4.797
  291SOL     OW 1771   6.539   1.625   2.833
  291SOL    HW1 1772   6.475   1.702   2.821
  291SOL    HW2 1773   6.535   1.592   2.927
  292SOL     OW 1774   3.400   0.037   4.268
  292SOL    HW1 1775   3.321   0.095   4.244
  292SOL    HW2 1776   3.437   7.020   4.185
  293SOL     OW 1777   3.127   4.833   3.441
  293SOL    HW1 1778   3.222   4.841   3.410
  293SOL    HW2 1779   3.066   4.856   3.365
  294SOL     OW 1780   4.603   0.362   0.670
  294SOL    HW1 1781   4.694   0.345   0.631
  294SOL    HW2 1782   4.555   0.429   0.613
  295SOL     OW 1783   5.671   0.711   4.172
  295SOL    HW1 1784   5.662   0.796   4.120
  295SOL    HW2 1785   5.599   0.648   4.144
  296SOL     OW 1786   2.574   1.944   3.168
  296SOL    HW1 1787   2.598   1.996   3.086
  296SOL    HW2 1788   2.599   1.848   3.154
  297SOL     OW 1789   1.808   4.981   2.049
  297SOL    HW1 1790   1.900   4.945   2.068
  297SOL    HW2 1791   1.803   5.077   2.077
  298SOL     OW 1792   6.886   4.981   0.993
  298SOL    HW1 1793   6.901   4.893   1.039
  298SOL    HW2 1794   6.790   5.008   1.004
  299SOL     OW 1795   5.609   2.380   3.930
  299SOL    HW1 1796   5.529   2.438   3.945
  299SOL    HW2 1797   5.590   2.288   3.964
  300SOL     OW 1798   6.386   6.910   1.436
  300SOL    HW1 1799   6.474   6.936   1.397
  300SOL    HW2 1800   6.395   6.898   1.535
  301SOL     OW 1801   4.908   3.011   5.921
  301SOL    HW1 1802   4.954   2.946   5.861
  301SOL    HW2 1803   4.870   3.086   5.866
  302SOL     OW 1804   1.453   5.626   4.721
  302SOL    HW1 1805   1.447   5.670   4.631
  302SOL    HW2 1806   1.416   5.533   4.715
  303SOL     OW 1807   6.098   0.139   3.770
  303SOL    HW1 1808   6.081   0.178   3.860
  303SOL    HW2 1809   6.092   0.210   3.700
  304SOL     OW 1810   3.684   0.350   4.150
  304SOL    HW1 1811   3.637   0.439   4.153
  304SOL    HW2 1812   3.782   0.363   4.164
  305SOL     OW 1813   1.448   4.827   0.784
  305SOL    HW1 1814   1.364   4.853   0.833
  305SOL    HW2 1815   1.461   4.728   0.791
  306SOL     OW 1816   1.905   1.176   3.140
  306SOL    HW1 1817   1.871   1.092   3.098
  306SOL    HW2 1818   1.939   1.156   3.232
  307SOL     OW 1819   3.388   0.571   1.497
  307SOL    HW1 1820   3.357   0.503   1.430
  307SOL    HW2 1821   3.345   0.552   1.585
  308SOL     OW 1822   0.701   5.011   4.041
  308SOL    HW1 1823   0.633   4.948   4.078
  308SOL    HW2 1824   0.664   5.055   3.959
  309SOL     OW 1825   3.767   4.679   5.427
  309SOL    HW1 1826   3.822   4.596   5.417
  309SOL    HW2 1827   3.769   4.709   5.522
  310SOL     OW 1828   1.512   6.087   6.476
  310SOL    HW1 1829   1.442   6.031   6.433
  310SOL    HW2 1830   1.528   6.054   6.570
  311SOL     OW 1831   0.139   0.895   1.429
  311SOL    HW1 1832   0.064   0.901   1.362
  311SOL    HW2 1833   0.104   0.853   1.513
  312SOL     OW 1834   4.032   1.702   5.963
  312SOL    HW1 1835   3.959   1.746   6.016
  312SOL    HW2 1836   4.019   1.722   5.865
  313SOL     OW 1837   6.901   4.754   1.116
  313SOL    HW1 1838   6.971   4.735   1.185
  313SOL    HW2 1839   6.911   4.689   1.040
  314SOL     OW 1840   3.584   5.775   2.514
  314SOL    HW1 1841   3.493   5.774   2.472
  314SOL    HW2 1842   3.642   5.840   2.466
  315SOL     OW 1843   0.632   3.668   2.942
  315SOL    HW1 1844   0.551   3.642   2.994
  315SOL    HW2 1845   0.655   3.596   2.877
  316SOL     OW 1846   2.081   3.115   4.055
  316SOL    HW1 1847   1.983   3.101   4.067
  316SOL    HW2 1848   2.125   3.116   4.145
  317SOL     OW 1849   6.928   1.969   0.572
  317SOL    HW1 1850   7.005   1.985   0.633
  317SOL    HW2 1851   6.948   1.893   0.511
  318SOL     OW 1852   2.635   4.236   0.860
  318SOL    HW1 1853   2.668   4.330   0.851
  318SOL    HW2 1854   2.664   4.199   0.949
  319SOL     OW 1855   0.314   1.203   6.031
  319SOL    HW1 1856   0.364   1.287   6.008
  319SOL    HW2 1857   0.345   1.169   6.120
  320SOL     OW 1858   5.474   3.059   2.149
  320SOL    HW1 1859   5.511   3.089   2.061
  320SOL    HW2 1860   5.474   3.135   2.214
  321SOL     OW 1861   2.130   1.364   2.093
  321SOL    HW1 1862   2.143   1.380   1.995
  321SOL    HW2 1863   2.193   1.422   2.144
  322SOL     OW 1864   3.641   2.952   5.650
  322SOL    HW1 1865   3.727   2.972   5.603
  322SOL    HW2 1866   3.637   2.855   5.672
  323SOL     OW 1867   1.501   4.183   1.742
  323SOL    HW1 1868   1.562   4.243   1.690
  323SOL    HW2 1869   1.440   4.237   1.798
  324SOL     OW 1870   0.349   2.793   3.971
  324SOL    HW1 1871   0.319   2.741   3.891
  324SOL    HW2 1872   0.384   2.730   4.040
  325SOL     OW 1873   1.898   2.278   2.258
  325SOL    HW1 1874   1.835   2.254   2.331
  325SOL    HW2 1875   1.976   2.328   2.295
  326SOL     OW 1876   1.943   4.356   4.618
  326SOL    HW1 1877   1.907   4.315   4.702
  326SOL    HW2 1878   1.995   4.288   4.567
  327SOL     OW 1879   6.409   3.478   6.160
  327SOL    HW1 1880   6.489   3.515   6.207
  327SOL    HW2 1881   6.433   3.458   6.065
  328SOL     OW 1882   3.401   5.685   3.240
  328SOL    HW1 1883   3.331   5.627   3.197
  328SOL    HW2 1884   3.357   5.746   3.307
  329SOL     OW 1885   3.659   4.037   1.794
  329SOL    HW1 1886   3.595   4.106   1.829
  329SOL    HW2 1887   3.696   3.984   1.870
  330SOL     OW 1888   2.777   2.563   1.534
  330SOL    HW1 1889   2.769   2.499   1.610
  330SOL    HW2 1890   2.868   2.604   1.535
  331SOL     OW 1891   6.583   4.032   5.706
  331SOL    HW1 1892   6.523   4.104   5.673
  331SOL    HW2 1893   6.529   3.958   5.745
  332SOL     OW 1894   3.743   1.848   3.344
  332SOL    HW1 1895   3.731   1.750   3.328
  332SOL    HW2 1896   3.690   1.899   3.277
  333SOL     OW 1897   4.606   6.507   1.149
  333SOL    HW1 1898   4.550   6.585   1.122
  333SOL    HW2 1899   4.699   6.519   1.112
  334SOL     OW 1900   4.885   6.620   2.786
  334SOL    HW1 1901   4.852   6.696   2.840
  334SOL    HW2 1902   4.935   6.556   2.845
  335SOL     OW 1903   3.262   0.518   2.158
  335SOL    HW1 1904   3.322   0.514   2.238
  335SOL    HW2 1905   3.186   0.454   2.172
  336SOL     OW 1906   3.667   1.066   4.613
  336SOL    HW1 1907   3.697   1.003   4.542
  336SOL    HW2 1908   3.731   1.061   4.690
  337SOL     OW 1909   1.301   4.132   2.446
  337SOL    HW1 1910   1.283   4.193   2.523
  337SOL    HW2 1911   1.381   4.164   2.396
  338SOL     OW 1912   2.190   2.602   0.942
  338SOL    HW1 1913   2.171   2.658   1.023
  338SOL    HW2 1914   2.282   2.565   0.948
  339SOL     OW 1915   4.608   0.731   3.139
  339SOL    HW1 1916   4.520   0.760   3.177
  339SOL    HW2 1917   4.670   0.810   3.135
  340SOL     OW 1918   5.339   3.667   4.586
  340SOL    HW1 1919   5.428   3.623   4.600
  340SOL    HW2 1920   5.269   3.617   4.638
  341SOL     OW 1921   4.361   4.386   5.708
  341SOL    HW1 1922   4.301   4.459   5.674
  341SOL    HW2 1923   4.308   4.301   5.716
  342SOL     OW 1924   5.588   3.200   0.770
  342SOL    HW1 1925   5.581   3.209   0.670
  342SOL    HW2 1926   5.536   3.274   0.813
  343SOL     OW 1927   2.390   0.308   2.492
  343SOL    HW1 1928   2.319   0.257   2.539
  343SOL    HW2 1929   2.365   0.320   2.396
  344SOL     OW 1930   3.475   0.123   0.109
  344SOL    HW1 1931   3.396   0.091   0.162
  344SOL    HW2 1932   3.550   0.057   0.117
  345SOL     OW 1933   1.423   0.751   5.366
  345SOL    HW1 1934   1.379   0.677   5.417
  345SOL    HW2 1935   1.371   0.769   5.283
  346SOL     OW 1936   2.434   0.860   5.146
  346SOL    HW1 1937   2.441   0.778   5.203
  346SOL    HW2 1938   2.506   0.857   5.076
  347SOL     OW 1939   5.427   6.117   6.051
  347SOL    HW1 1940   5.443   6.058   5.972
  347SOL    HW2 1941   5.465   6.074   6.132
  348SOL     OW 1942   3.215   6.812   3.368
  348SOL    HW1 1943   3.290   6.756   3.333
  348SOL    HW2 1944   3.150   6.832   3.295
  349SOL     OW 1945   2.213   5.397   2.062
  349SOL    HW1 1946   2.175   5.337   1.993
  349SOL    HW2 1947   2.220   5.348   2.149
  350SOL     OW 1948   5.224   3.475   1.598
  350SOL    HW1 1949   5.175   3.480   1.685
  350SOL    HW2 1950   5.162   3.442   1.527
  351SOL     OW 1951   3.488   1.419   0.423
  351SOL    HW1 1952   3.395   1.455   0.418
  351SOL    HW2 1953   3.552   1.494   0.443
  352SOL     OW 1954   2.539   1.654   6.518
  352SOL    HW1 1955   2.568   1.749   6.505
  352SOL    HW2 1956   2.529   1.609   6.430
  353SOL     OW 1957   2.296   6.861   1.415
  353SOL    HW1 1958   2.225   6.847   1.484
  353SOL    HW2 1959   2.384   6.830   1.452
  354SOL     OW 1960   5.131   0.076   2.324
  354SOL    HW1 1961   5.156   0.160   2.274
  354SOL    HW2 1962   5.057   0.096   2.387
  355SOL     OW 1963   0.986   0.812   2.249
  355SOL    HW1 1964   0.972   0.910   2.259
  355SOL    HW2 1965   0.954   0.765   2.332
  356SOL     OW 1966   3.068   0.183   3.216
  356SOL    HW1 1967   3.119   0.142   3.291
  356SOL    HW2 1968   3.123   0.180   3.132
  357SOL     OW 1969   1.344   5.074   4.448
  357SOL    HW1 1970   1.402   5.149   4.415
  357SOL    HW2 1971   1.348   4.998   4.384
  358SOL     OW 1972   4.975   0.637   3.406
  358SOL    HW1 1973   5.035   0.684   3.471
  358SOL    HW2 1974   4.893   0.606   3.452
  359SOL     OW 1975   0.483   1.487   0.550
  359SOL    HW1 1976   0.430   1.540   0.616
  359SOL    HW2 1977   0.422   1.450   0.480
  360SOL     OW 1978   5.298   0.180   6.975
  360SOL    HW1 1979   5.384   0.211   7.014
  360SOL    HW2 1980   5.316   0.111   6.905
  361SOL     OW 1981   2.705   0.667   2.176
  361SOL    HW1 1982   2.627   0.714   2.217
  361SOL    HW2 1983   2.778   0.659   2.244
  362SOL     OW 1984   3.043   3.694   0.312
  362SOL    HW1 1985   2.974   3.709   0.382
  362SOL    HW2 1986   3.068   3.597   0.311
  363SOL     OW 1987   4.832   4.698   4.194
  363SOL    HW1 1988   4.744   4.659   4.223
  363SOL    HW2 1989   4.823   4.734   4.101
  364SOL     OW 1990   2.868   5.621   6.612
  364SOL    HW1 1991   2.865   5.643   6.710
  364SOL    HW2 1992   2.840   5.700   6.558
  365SOL     OW 1993   5.231   6.390   3.107
  365SOL    HW1 1994   5.228   6.295   3.076
  365SOL    HW2 1995   5.310   6.436   3.065
  366SOL     OW 1996   5.265   1.271   0.289
  366SOL    HW1 1997   5.294   1.293   0.196
  366SOL    HW2 1998   5.255   1.355   0.342
  367SOL     OW 1999   6.555   2.549   2.402
  367SOL    HW1 2000   6.586   2.546   2.307
  367SOL    HW2 2001   6.634   2.564   2.462
  368SOL     OW 2002   0.244   5.434   4.693
  368SOL    HW1 2003   0.166   5.379   4.663
  368SOL    HW2 2004   0.213   5.527   4.713
  369SOL     OW 2005   1.123   4.106   2.022
  369SOL    HW1 2006   1.064   4.137   2.096
  369SOL    HW2 2007   1.127   4.006   2.023
  370SOL     OW 2008   3.753   2.221   6.523
  370SOL    HW1 2009   3.704   2.195   6.440
  370SOL    HW2 2010   3.714   2.305   6.560
  371SOL     OW 2011   3.263   2.553   6.601
  371SOL    HW1 2012   3.331   2.485   6.627
  371SOL    HW2 2013   3.303   2.644   6.606
  372SOL     OW 2014   2.051   5.393   0.402
  372SOL    HW1 2015   1.978   5.349   0.455
  372SOL    HW2 2016   2.014   5.426   0.315
  373SOL     OW 2017   6.251   6.837   6.767
  373SOL    HW1 2018   6.302   6.885   6.838
  373SOL    HW2 2019   6.256   6.739   6.782
  374SOL     OW 2020   5.248   0.951   0.596
  374SOL    HW1 2021   5.308   0.938   0.675
  374SOL    HW2 2022   5.212   1.045   0.597
  375SOL     OW 2023   6.783   3.915   2.059
  375SOL    HW1 2024   6.848   3.855   2.013
  375SOL    HW2 2025   6.710   3.940   1.996
  376SOL     OW 2026   2.442   4.273   5.262
  376SOL    HW1 2027   2.533   4.265   5.304
  376SOL    HW2 2028   2.420   4.188   5.215
  377SOL     OW 2029   4.803   0.864   4.051
  377SOL    HW1 2030   4.717   0.869   4.002
  377SOL    HW2 2031   4.878   0.893   3.991
  378SOL     OW 2032   5.162   2.018   5.568
  378SOL    HW1 2033   5.215   2.102   5.559
  378SOL    HW2 2034   5.065   2.038   5.550
  379SOL     OW 2035   6.186   3.001   0.826
  379SOL    HW1 2036   6.225   2.978   0.915
  379SOL    HW2 2037   6.258   3.003   0.757
  380SOL     OW 2038   0.390   2.398   0.162
  380SOL    HW1 2039   0.454   2.430   0.231
  380SOL    HW2 2040   0.438   2.336   0.099
  381SOL     OW 2041   4.738   4.827   0.297
  381SOL    HW1 2042   4.640   4.811   0.285
  381SOL    HW2 2043   4.769   4.898   0.234
  382SOL     OW 2044   1.862   5.557   6.829
  382SOL    HW1 2045   1.912   5.472   6.840
  382SOL    HW2 2046   1.899   5.607   6.750
  383SOL     OW 2047   6.010   1.674   6.876
  383SOL    HW1 2048   5.956   1.709   6.799
  383SOL    HW2 2049   6.060   1.749   6.919
  384SOL     OW 2050   1.727   5.363   4.508
  384SOL    HW1 2051   1.673   5.425   4.451
  384SOL    HW2 2052   1.672   5.284   4.533
  385SOL     OW 2053   4.626   4.588   0.884
  385SOL    HW1 2054   4.698   4.654   0.861
  385SOL    HW2 2055   4.629   4.569   0.982
  386SOL     OW 2056   2.502   6.074   4.727
  386SOL    HW1 2057   2.554   6.078   4.812
  386SOL    HW2 2058   2.405   6.062   4.748
  387SOL     OW 2059   0.273   0.513   5.383
  387SOL    HW1 2060   0.193   0.574   5.387
  387SOL    HW2 2061   0.302   0.492   5.476
  388SOL     OW 2062   0.179   2.204   4.353
  388SOL    HW1 2063   0.179   2.106   4.332
  388SOL    HW2 2064   0.140   2.254   4.276
  389SOL     OW 2065   4.948   3.648   2.794
  389SOL    HW1 2066   4.927   3.555   2.823
  389SOL    HW2 2067   5.000   3.647   2.709
  390SOL     OW 2068   3.413   2.806   0.243
  390SOL    HW1 2069   3.405   2.790   0.145
  390SOL    HW2 2070   3.480   2.743   0.282
  391SOL     OW 2071   3.810   3.652   3.643
  391SOL    HW1 2072   3.782   3.682   3.551
  391SOL    HW2 2073   3.772   3.561   3.661
  392SOL     OW 2074   1.648   3.018   2.241
  392SOL    HW1 2075   1.600   2.944   2.195
  392SOL    HW2 2076   1.606   3.036   2.330
  393SOL     OW 2077   1.538   6.229   1.142
  393SOL    HW1 2078   1.479   6.234   1.061
  393SOL    HW2 2079   1.543   6.319   1.185
  394SOL     OW 2080   5.915   1.814   5.928
  394SOL    HW1 2081   5.911   1.838   5.831
  394SOL    HW2 2082   5.873   1.887   5.981
  395SOL     OW 2083   6.651   5.266   6.754
  395SOL    HW1 2084   6.663   5.289   6.657
  395SOL    HW2 2085   6.702   5.331   6.810
  396SOL     OW 2086   0.637   0.953   1.339
  396SOL    HW1 2087   0.680   1.037   1.306
  396SOL    HW2 2088   0.591   0.907   1.263
  397SOL     OW 2089   4.672   2.058   5.022
  397SOL    HW1 2090   4.632   2.036   4.933
  397SOL    HW2 2091   4.692   2.156   5.025
  398SOL     OW 2092   6.749   1.163   2.918
  398SOL    HW1 2093   6.733   1.200   2.827
  398SOL    HW2 2094   6.697   1.217   2.985
  399SOL     OW 2095   6.153   5.721   4.583
  399SOL    HW1 2096   6.136   5.634   4.538
  399SOL    HW2 2097   6.239   5.716   4.634
  400SOL     OW 2098   6.524   6.240   3.231
  400SOL    HW1 2099   6.570   6.289   3.306
  400SOL    HW2 2100   6.495   6.150   3.263
  401SOL     OW 2101   1.280   5.949   4.519
  401SOL    HW1 2102   1.184   5.977   4.513
  401SOL    HW2 2103   1.324   5.995   4.596
  402SOL     OW 2104   6.062   1.330   4.382
  402SOL    HW1 2105   5.978   1.378   4.404
  402SOL    HW2 2106   6.042   1.256   4.316
  403SOL     OW 2107   2.526   1.668   5.408
  403SOL    HW1 2108   2.560   1.622   5.490
  403SOL    HW2 2109   2.564   1.760   5.402
  404SOL     OW 2110   3.004   5.692   3.340
  404SOL    HW1 2111   3.080   5.658   3.397
  404SOL    HW2 2112   2.988   5.789   3.360
  405SOL     OW 2113   3.034   4.886   3.890
  405SOL    HW1 2114   2.984   4.843   3.815
  405SOL    HW2 2115   3.131   4.891   3.866
  406SOL     OW 2116   1.257   0.362   0.411
  406SOL    HW1 2117   1.209   0.386   0.326
  406SOL    HW2 2118   1.291   0.446   0.454
  407SOL     OW 2119   2.060   3.827   3.816
  407SOL    HW1 2120   1.963   3.805   3.817
  407SOL    HW2 2121   2.112   3.749   3.779
  408SOL     OW 2122   2.743   2.364   1.719
  408SOL    HW1 2123   2.666   2.303   1.741
  408SOL    HW2 2124   2.810   2.361   1.793
  409SOL     OW 2125   0.072   2.325   1.867
  409SOL    HW1 2126   0.165   2.312   1.901
  409SOL    HW2 2127   0.050   2.253   1.801
  410SOL     OW 2128   1.549   3.385   2.413
  410SOL    HW1 2129   1.568   3.405   2.317
  410SOL    HW2 2130   1.632   3.350   2.457
  411SOL     OW 2131   7.008   1.391   1.812
  411SOL    HW1 2132   0.040   1.317   1.773
  411SOL    HW2 2133   6.979   1.453   1.740
  412SOL     OW 2134   2.409   4.481   3.027
  412SOL    HW1 2135   2.386   4.390   3.062
  412SOL    HW2 2136   2.407   4.480   2.927
  413SOL     OW 2137   6.622   4.866   3.066
  413SOL    HW1 2138   6.607   4.777   3.110
  413SOL    HW2 2139   6.670   4.851   2.979
  414SOL     OW 2140   2.334   6.983   2.336
  414SOL    HW1 2141   2.404   7.006   2.269
  414SOL    HW2 2142   2.308   6.887   2.327
  415SOL     OW 2143   5.846   3.211   1.361
  415SOL    HW1 2144   5.880   3.203   1.267
  415SOL    HW2 2145   5.870   3.128   1.412
  416SOL     OW 2146   6.062   3.637   0.019
  416SOL    HW1 2147   6.006   3.700   0.072
  416SOL    HW2 2148   6.157   3.644   0.049
  417SOL     OW 2149   2.582   2.247   5.818
  417SOL    HW1 2150   2.553   2.168   5.763
  417SOL    HW2 2151   2.535   2.329   5.786
  418SOL     OW 2152   4.624   5.708   6.414
  418SOL    HW1 2153   4.659   5.738   6.325
  418SOL    HW2 2154   4.575   5.784   6.458
  419SOL     OW 2155   5.742   6.945   1.009
  419SOL    HW1 2156   5.812   7.010   1.039
  419SOL    HW2 2157   5.698   6.980   0.926
  420SOL     OW 2158   3.109   6.857   0.718
  420SOL    HW1 2159   3.025   6.816   0.755
  420SOL    HW2 2160   3.114   6.839   0.620
  421SOL     OW 2161   5.347   4.308   3.140
  421SOL    HW1 2162   5.268   4.362   3.111
  421SOL    HW2 2163   5.431   4.348   3.102
  422SOL     OW 2164   4.161   1.290   2.036
  422SOL    HW1 2165   4.203   1.298   2.126
  422SOL    HW2 2166   4.207   1.219   1.983
  423SOL     OW 2167   2.606   1.189   6.177
  423SOL    HW1 2168   2.658   1.265   6.215
  423SOL    HW2 2169   2.625   1.181   6.079
  424SOL     OW 2170   1.648   4.592   4.147
  424SOL    HW1 2171   1.608   4.504   4.173
  424SOL    HW2 2172   1.579   4.647   4.098
  425SOL     OW 2173   3.599   1.827   6.215
  425SOL    HW1 2174   3.631   1.919   6.189
  425SOL    HW2 2175   3.504   1.816   6.189
  426SOL     OW 2176   2.524   2.576   2.936
  426SOL    HW1 2177   2.546   2.652   2.874
  426SOL    HW2 2178   2.434   2.592   2.977
  427SOL     OW 2179   4.486   1.230   4.402
  427SOL    HW1 2180   4.463   1.212   4.498
  427SOL    HW2 2181   4.451   1.155   4.346
  428SOL     OW 2182   2.199   1.802   6.178
  428SOL    HW1 2183   2.172   1.829   6.086
  428SOL    HW2 2184   2.171   1.707   6.194
  429SOL     OW 2185   0.047   0.030   3.351
  429SOL    HW1 2186   0.139   0.010   3.316
  429SOL    HW2 2187   0.039   0.129   3.367
  430SOL     OW 2188   1.702   1.089   3.506
  430SOL    HW1 2189   1.782   1.102   3.447
  430SOL    HW2 2190   1.694   1.165   3.570
  431SOL     OW 2191   2.737   1.109   1.689
  431SOL    HW1 2192   2.694   1.200   1.693
  431SOL    HW2 2193   2.777   1.088   1.778
  432SOL     OW 2194   5.985   1.738   2.144
  432SOL    HW1 2195   5.965   1.750   2.046
  432SOL    HW2 2196   5.901   1.717   2.192
  433SOL     OW 2197   1.792   3.241   6.704
  433SOL    HW1 2198   1.805   3.339   6.691
  433SOL    HW2 2199   1.696   3.218   6.688
  434SOL     OW 2200   3.589   5.654   2.838
  434SOL    HW1 2201   3.585   5.588   2.914
  434SOL    HW2 2202   3.681   5.652   2.798
  435SOL     OW 2203   2.612   2.387   6.312
  435SOL    HW1 2204   2.655   2.440   6.385
  435SOL    HW2 2205   2.650   2.294   6.311
  436SOL     OW 2206   5.398   6.297   2.283
  436SOL    HW1 2207   5.367   6.333   2.371
  436SOL    HW2 2208   5.379   6.364   2.211
  437SOL     OW 2209   6.934   1.430   5.726
  437SOL    HW1 2210   7.011   1.466   5.674
  437SOL    HW2 2211   6.864   1.501   5.736
  438SOL     OW 2212   0.817   3.491   1.695
  438SOL    HW1 2213   0.909   3.513   1.728
  438SOL    HW2 2214   0.794   3.552   1.619
  439SOL     OW 2215   1.016   1.487   6.543
  439SOL    HW1 2216   1.057   1.406   6.502
  439SOL    HW2 2217   0.930   1.508   6.495
  440SOL     OW 2218   3.884   1.620   1.485
  440SOL    HW1 2219   3.867   1.705   1.434
  440SOL    HW2 2220   3.951   1.637   1.557
  441SOL     OW 2221   1.324   4.637   2.871
  441SOL    HW1 2222   1.359   4.638   2.778
  441SOL    HW2 2223   1.376   4.572   2.926
  442SOL     OW 2224   2.969   3.470   4.727
  442SOL    HW1 2225   3.064   3.470   4.696
  442SOL    HW2 2226   2.909   3.478   4.647
  443SOL     OW 2227   5.322   2.670   1.758
  443SOL    HW1 2228   5.342   2.628   1.670
  443SOL    HW2 2229   5.303   2.767   1.744
  444SOL     OW 2230   4.210   2.548   1.117
  444SOL    HW1 2231   4.215   2.595   1.029
  444SOL    HW2 2232   4.205   2.449   1.102
  445SOL     OW 2233   2.142   6.025   4.118
  445SOL    HW1 2234   2.082   6.042   4.040
  445SOL    HW2 2235   2.087   6.000   4.198
  446SOL     OW 2236   0.071   0.219   0.491
  446SOL    HW1 2237   0.005   0.181   0.426
  446SOL    HW2 2238   0.077   0.159   0.570
  447SOL     OW 2239   6.083   3.456   0.296
  447SOL    HW1 2240   6.101   3.362   0.269
  447SOL    HW2 2241   5.995   3.461   0.343
  448SOL     OW 2242   3.529   6.971   4.923
  448SOL    HW1 2243   3.431   6.989   4.935
  448SOL    HW2 2244   3.554   6.987   4.827
  449SOL     OW 2245   0.993   4.367   4.984
  449SOL    HW1 2246   1.056   4.367   4.907
  449SOL    HW2 2247   0.984   4.460   5.020
  450SOL     OW 2248   6.633   3.565   4.028
  450SOL    HW1 2249   6.628   3.474   4.070
  450SOL    HW2 2250   6.683   3.627   4.088
  451SOL     OW 2251   2.806   1.426   6.391
  451SOL    HW1 2252   2.814   1.393   6.485
  451SOL    HW2 2253   2.716   1.467   6.377
  452SOL     OW 2254   4.863   4.815   1.030
  452SOL    HW1 2255   4.819   4.902   1.054
  452SOL    HW2 2256   4.845   4.794   0.934
  453SOL     OW 2257   4.540   0.944   0.429
  453SOL    HW1 2258   4.600   0.869   0.401
  453SOL    HW2 2259   4.507   0.993   0.349
  454SOL     OW 2260   6.953   2.961   3.865
  454SOL    HW1 2261   6.991   2.886   3.919
  454SOL    HW2 2262   7.019   2.991   3.797
  455SOL     OW 2263   5.953   5.861   0.301
  455SOL    HW1 2264   5.902   5.943   0.274
  455SOL    HW2 2265   5.915   5.782   0.253
  456SOL     OW 2266   1.183   0.590   3.051
  456SOL    HW1 2267   1.142   0.631   3.133
  456SOL    HW2 2268   1.137   0.625   2.969
  457SOL     OW 2269   3.263   5.833   0.692
  457SOL    HW1 2270   3.185   5.850   0.752
  457SOL    HW2 2271   3.244   5.870   0.601
  458SOL     OW 2272   3.181   1.356   4.158
  458SOL    HW1 2273   3.081   1.366   4.152
  458SOL    HW2 2274   3.205   1.318   4.246
  459SOL     OW 2275   3.370   1.569   4.118
  459SOL    HW1 2276   3.370   1.610   4.210
  459SOL    HW2 2277   3.337   1.475   4.124
  460SOL     OW 2278   1.108   1.843   6.770
  460SOL    HW1 2279   1.060   1.889   6.696
  460SOL    HW2 2280   1.111   1.744   6.752
  461SOL     OW 2281   1.187   6.639   4.368
  461SOL    HW1 2282   1.159   6.544   4.381
  461SOL    HW2 2283   1.146   6.697   4.439
  462SOL     OW 2284   3.907   4.018   5.377
  462SOL    HW1 2285   3.881   3.925   5.403
  462SOL    HW2 2286   4.006   4.029   5.385
  463SOL     OW 2287   5.941   6.402   3.049
  463SOL    HW1 2288   6.027   6.385   3.098
  463SOL    HW2 2289   5.889   6.317   3.043
  464SOL     OW 2290   4.548   6.085   4.946
  464SOL    HW1 2291   4.629   6.032   4.972
  464SOL    HW2 2292   4.472   6.023   4.930
  465SOL     OW 2293   0.174   5.352   0.807
  465SOL    HW1 2294   0.239   5.333   0.880
  465SOL    HW2 2295   0.098   5.288   0.812
  466SOL     OW 2296   3.703   5.026   3.642
  466SOL    HW1 2297   3.777   4.962   3.618
  466SOL    HW2 2298   3.619   4.997   3.595
  467SOL     OW 2299   6.952   6.910   1.163
  467SOL    HW1 2300   6.886   6.956   1.104
  467SOL    HW2 2301   6.986   6.975   1.231
  468SOL     OW 2302   2.786   7.021   6.763
  468SOL    HW1 2303   2.704   0.033   6.808
  468SOL    HW2 2304   2.859   0.065   6.768
  469SOL     OW 2305   4.300   4.927   5.362
  469SOL    HW1 2306   4.200   4.931   5.359
  469SOL    HW2 2307   4.332   4.850   5.307
  470SOL     OW 2308   3.039   5.093   1.901
  470SOL    HW1 2309   3.049   5.016   1.838
  470SOL    HW2 2310   3.061   5.063   1.994
  471SOL     OW 2311   1.716   2.638   4.382
  471SOL    HW1 2312   1.739   2.559   4.439
  471SOL    HW2 2313   1.689   2.606   4.291
  472SOL     OW 2314   4.571   3.750   6.716
  472SOL    HW1 2315   4.494   3.693   6.746
  472SOL    HW2 2316   4.557   3.844   6.747
  473SOL     OW 2317   5.615   3.512   2.265
  473SOL    HW1 2318   5.555   3.545   2.338
  473SOL    HW2 2319   5.577   3.539   2.176
  474SOL     OW 2320   4.596   4.971   3.712
  474SOL    HW1 2321   4.608   4.956   3.810
  474SOL    HW2 2322   4.668   5.032   3.679
  475SOL     OW 2323   4.525   1.104   0.800
  475SOL    HW1 2324   4.563   1.141   0.715
  475SOL    HW2 2325   4.486   1.177   0.855
  476SOL     OW 2326   1.006   2.879   0.395
  476SOL    HW1 2327   1.062   2.945   0.345
  476SOL    HW2 2328   0.938   2.927   0.450
  477SOL     OW 2329   5.863   6.026   4.290
  477SOL    HW1 2330   5.771   6.067   4.290
  477SOL    HW2 2331   5.855   5.928   4.304
  478SOL     OW 2332   6.644   4.802   1.545
  478SOL    HW1 2333   6.684   4.736   1.608
  478SOL    HW2 2334   6.587   4.867   1.596
  479SOL     OW 2335   3.643   3.595   2.729
  479SOL    HW1 2336   3.618   3.593   2.825
  479SOL    HW2 2337   3.742   3.583   2.719
  480SOL     OW 2338   6.813   0.584   1.532
  480SOL    HW1 2339   6.873   0.571   1.612
  480SOL    HW2 2340   6.719   0.564   1.558
  481SOL     OW 2341   6.174   6.493   1.049
  481SOL    HW1 2342   6.166   6.484   1.148
  481SOL    HW2 2343   6.100   6.552   1.015
  482SOL     OW 2344   3.839   5.186   2.540
  482SOL    HW1 2345   3.854   5.253   2.467
  482SOL    HW2 2346   3.758   5.212   2.593
  483SOL     OW 2347   6.234   2.430   4.887
  483SOL    HW1 2348   6.332   2.438   4.903
  483SOL    HW2 2349   6.218   2.406   4.791
  484SOL     OW 2350   2.587   5.700   4.123
  484SOL    HW1 2351   2.561   5.605   4.105
  484SOL    HW2 2352   2.635   5.738   4.044
  485SOL     OW 2353   4.544   2.413   1.163
  485SOL    HW1 2354   4.508   2.482   1.225
  485SOL    HW2 2355   4.468   2.366   1.118
  486SOL     OW 2356   6.108   6.338   5.541
  486SOL    HW1 2357   6.205   6.336   5.562
  486SOL    HW2 2358   6.095   6.349   5.442
  487SOL     OW 2359   6.494   1.241   7.012
  487SOL    HW1 2360   6.425   1.253   6.939
  487SOL    HW2 2361   6.448   1.217   0.073
  488SOL     OW 2362   1.535   5.970   3.799
  488SOL    HW1 2363   1.535   5.882   3.846
  488SOL    HW2 2364   1.571   6.041   3.861
  489SOL     OW 2365   2.683   4.266   5.373
  489SOL    HW1 2366   2.749   4.235   5.305
  489SOL    HW2 2367   2.707   4.357   5.405
  490SOL     OW 2368   0.871   4.023   4.826
  490SOL    HW1 2369   0.939   4.076   4.776
  490SOL    HW2 2370   0.865   4.058   4.920
  491SOL     OW 2371   6.358   3.366   1.540
  491SOL    HW1 2372   6.329   3.429   1.612
  491SOL    HW2 2373   6.404   3.287   1.581
  492SOL     OW 2374   1.643   2.284   5.956
  492SOL    HW1 2375   1.688   2.359   6.004
  492SOL    HW2 2376   1.676   2.196   5.992
  493SOL     OW 2377   1.586   5.618   4.162
  493SOL    HW1 2378   1.575   5.660   4.073
  493SOL    HW2 2379   1.502   5.570   4.188
  494SOL     OW 2380   2.943   0.262   2.618
  494SOL    HW1 2381   2.979   0.282   2.527
  494SOL    HW2 2382   2.854   0.218   2.610
  495SOL     OW 2383   4.203   4.577   6.574
  495SOL    HW1 2384   4.141   4.578   6.495
  495SOL    HW2 2385   4.258   4.493   6.571
  496SOL     OW 2386   4.891   6.942   2.974
  496SOL    HW1 2387   4.894   7.023   3.033
  496SOL    HW2 2388   4.827   6.876   3.012
  497SOL     OW 2389   4.350   3.115   1.259
  497SOL    HW1 2390   4.365   3.167   1.343
  497SOL    HW2 2391   4.406   3.032   1.260
  498SOL     OW 2392   1.142   6.914   0.875
  498SOL    HW1 2393   1.066   6.881   0.930
  498SOL    HW2 2394   1.111   6.930   0.781
  499SOL     OW 2395   2.834   6.939   6.265
  499SOL    HW1 2396   2.815   0.012   6.280
  499SOL    HW2 2397   2.764   6.900   6.206
  500SOL     OW 2398   6.274   1.445   6.019
  500SOL    HW1 2399   6.257   1.464   6.115
  500SOL    HW2 2400   6.242   1.522   5.963
  501SOL     OW 2401   1.832   2.155   4.439
  501SOL    HW1 2402   1.754   2.140   4.499
  501SOL    HW2 2403   1.803   2.206   4.358
  502SOL     OW 2404   3.111   2.995   0.101
  502SOL    HW1 2405   3.193   3.050   0.088
  502SOL    HW2 2406   3.091   2.987   0.198
  503SOL     OW 2407   3.984   5.709   1.474
  503SOL    HW1 2408   3.993   5.759   1.388
  503SOL    HW2 2409   3.923   5.631   1.461
  504SOL     OW 2410   6.062   0.625   7.015
  504SOL    HW1 2411   6.096   0.615   0.085
  504SOL    HW2 2412   6.138   0.627   6.951
  505SOL     OW 2413   0.439   3.950   5.438
  505SOL    HW1 2414   0.516   3.895   5.472
  505SOL    HW2 2415   0.409   4.013   5.509
  506SOL     OW 2416   2.981   6.004   2.165
  506SOL    HW1 2417   2.950   5.950   2.243
  506SOL    HW2 2418   2.932   5.976   2.082
  507SOL     OW 2419   2.369   7.013   3.709
  507SOL    HW1 2420   2.463   7.005   3.678
  507SOL    HW2 2421   2.351   0.082   3.741
  508SOL     OW 2422   0.787   5.087   2.884
  508SOL    HW1 2423   0.798   5.102   2.982
  508SOL    HW2 2424   0.844   5.153   2.834
  509SOL     OW 2425   4.572   0.452   6.321
  509SOL    HW1 2426   4.547   0.463   6.225
  509SOL    HW2 2427   4.555   0.538   6.370
  510SOL     OW 2428   6.786   4.511   0.377
  510SOL    HW1 2429   6.870   4.565   0.372
  510SOL    HW2 2430   6.753   4.493   0.284
  511SOL     OW 2431   6.916   2.384   0.503
  511SOL    HW1 2432   6.948   2.371   0.597
  511SOL    HW2 2433   6.985   2.351   0.439
  512SOL     OW 2434   1.588   1.498   4.922
  512SOL    HW1 2435   1.628   1.558   4.851
  512SOL    HW2 2436   1.499   1.535   4.949
  513SOL     OW 2437   5.787   5.359   2.505
  513SOL    HW1 2438   5.787   5.459   2.514
  513SOL    HW2 2439   5.701   5.329   2.464
  514SOL     OW 2440   5.252   1.511   4.506
  514SOL    HW1 2441   5.169   1.566   4.511
  514SOL    HW2 2442   5.303   1.521   4.592
  515SOL     OW 2443   2.957   0.742   6.792
  515SOL    HW1 2444   3.040   0.787   6.761
  515SOL    HW2 2445   2.980   0.664   6.850
  516SOL     OW 2446   0.717   5.979   2.980
  516SOL    HW1 2447   0.701   5.989   2.882
  516SOL    HW2 2448   0.811   6.001   3.002
  517SOL     OW 2449   3.370   5.316   0.651
  517SOL    HW1 2450   3.458   5.317   0.699
  517SOL    HW2 2451   3.298   5.292   0.715
  518SOL     OW 2452   1.847   0.448   3.621
  518SOL    HW1 2453   1.798   0.454   3.534
  518SOL    HW2 2454   1.885   0.356   3.631
  519SOL     OW 2455   0.093   6.626   3.060
  519SOL    HW1 2456   0.104   6.646   3.158
  519SOL    HW2 2457   0.182   6.635   3.014
  520SOL     OW 2458   3.849   5.715   0.557
  520SOL    HW1 2459   3.752   5.723   0.535
  520SOL    HW2 2460   3.895   5.663   0.485
  521SOL     OW 2461   0.073   6.925   5.048
  521SOL    HW1 2462   0.045   6.883   5.135
  521SOL    HW2 2463   0.056   6.861   4.973
  522SOL     OW 2464   3.174   5.306   6.275
  522SOL    HW1 2465   3.182   5.399   6.310
  522SOL    HW2 2466   3.266   5.271   6.254
  523SOL     OW 2467   1.577   6.514   6.318
  523SOL    HW1 2468   1.610   6.553   6.404
  523SOL    HW2 2469   1.630   6.433   6.295
  524SOL     OW 2470   6.831   1.817   1.643
  524SOL    HW1 2471   6.878   1.830   1.731
  524SOL    HW2 2472   6.737   1.788   1.659
  525SOL     OW 2473   0.377   3.222   3.373
  525SOL    HW1 2474   0.426   3.308   3.358
  525SOL    HW2 2475   0.359   3.178   3.285
  526SOL     OW 2476   4.174   5.847   4.630
  526SOL    HW1 2477   4.165   5.762   4.578
  526SOL    HW2 2478   4.089   5.901   4.621
  527SOL     OW 2479   6.825   1.580   0.343
  527SOL    HW1 2480   6.885   1.651   0.380
  527SOL    HW2 2481   6.738   1.580   0.392
  528SOL     OW 2482   6.750   1.590   3.676
  528SOL    HW1 2483   6.700   1.508   3.649
  528SOL    HW2 2484   6.787   1.577   3.768
  529SOL     OW 2485   0.764   1.662   5.509
  529SOL    HW1 2486   0.689   1.627   5.564
  529SOL    HW2 2487   0.728   1.723   5.438
  530SOL     OW 2488   3.427   4.435   1.653
  530SOL    HW1 2489   3.491   4.391   1.590
  530SOL    HW2 2490   3.468   4.518   1.689
  531SOL     OW 2491   0.186   1.476   5.683
  531SOL    HW1 2492   0.191   1.461   5.782
  531SOL    HW2 2493   0.168   1.573   5.665
  532SOL     OW 2494   3.635   0.818   6.526
  532SOL    HW1 2495   3.551   0.815   6.579
  532SOL    HW2 2496   3.713   0.830   6.588
  533SOL     OW 2497   3.492   6.805   4.659
  533SOL    HW1 2498   3.497   6.884   4.597
  533SOL    HW2 2499   3.400   6.767   4.658
  534SOL     OW 2500   2.090   4.460   0.817
  534SOL    HW1 2501   2.006   4.472   0.765
  534SOL    HW2 2502   2.124   4.367   0.806
  535SOL     OW 2503   4.938   4.013   3.380
  535SOL    HW1 2504   4.963   4.080   3.309
  535SOL    HW2 2505   4.872   4.054   3.442
  536SOL     OW 2506   6.525   0.666   1.317
  536SOL    HW1 2507   6.480   0.734   1.259
  536SOL    HW2 2508   6.518   0.695   1.413
  537SOL     OW 2509   3.291   2.089   2.432
  537SOL    HW1 2510   3.257   2.067   2.340
  537SOL    HW2 2511   3.390   2.073   2.436
  538SOL     OW 2512   4.053   5.679   6.405
  538SOL    HW1 2513   3.964   5.714   6.375
  538SOL    HW2 2514   4.100   5.638   6.327
  539SOL     OW 2515   3.134   0.103   6.815
  539SOL    HW1 2516   3.202   0.160   6.862
  539SOL    HW2 2517   3.069   0.162   6.767
  540SOL     OW 2518   1.826   1.767   5.334
  540SOL    HW1 2519   1.811   1.858   5.295
  540SOL    HW2 2520   1.793   1.698   5.270
  541SOL     OW 2521   6.082   5.551   1.892
  541SOL    HW1 2522   6.056   5.521   1.984
  541SOL    HW2 2523   6.059   5.648   1.881
  542SOL     OW 2524   4.175   5.872   5.966
  542SOL    HW1 2525   4.111   5.934   5.921
  542SOL    HW2 2526   4.126   5.814   6.031
  543SOL     OW 2527   6.853   1.845   4.863
  543SOL    HW1 2528   6.763   1.824   4.826
  543SOL    HW2 2529   6.881   1.936   4.834
  544SOL     OW 2530   1.262   2.223   1.122
  544SOL    HW1 2531   1.229   2.235   1.216
  544SOL    HW2 2532   1.243   2.306   1.069
  545SOL     OW 2533   0.132   5.185   0.440
  545SOL    HW1 2534   0.169   5.271   0.474
  545SOL    HW2 2535   0.172   5.165   0.351
  546SOL     OW 2536   6.540   6.056   2.473
  546SOL    HW1 2537   6.533   6.061   2.572
  546SOL    HW2 2538   6.626   6.098   2.443
  547SOL     OW 2539   3.506   6.036   6.873
  547SOL    HW1 2540   3.563   6.072   6.947
  547SOL    HW2 2541   3.453   6.111   6.832
  548SOL     OW 2542   4.200   3.107   6.114
  548SOL    HW1 2543   4.103   3.112   6.138
  548SOL    HW2 2544   4.254   3.146   6.189
  549SOL     OW 2545   5.313   2.654   4.231
  549SOL    HW1 2546   5.388   2.638   4.295
  549SOL    HW2 2547   5.341   2.723   4.164
  550SOL     OW 2548   0.147   5.462   4.091
  550SOL    HW1 2549   0.234   5.413   4.095
  550SOL    HW2 2550   0.143   5.514   4.005
  551SOL     OW 2551   5.699   0.925   0.289
  551SOL    HW1 2552   5.661   0.973   0.368
  551SOL    HW2 2553   5.639   0.849   0.265
  552SOL     OW 2554   0.975   0.282   4.250
  552SOL    HW1 2555   0.914   0.353   4.284
  552SOL    HW2 2556   1.050   0.267   4.315
  553SOL     OW 2557   4.464   2.411   5.780
  553SOL    HW1 2558   4.441   2.367   5.693
  553SOL    HW2 2559   4.515   2.347   5.837
  554SOL     OW 2560   0.193   4.833   0.389
  554SOL    HW1 2561   0.158   4.890   0.315
  554SOL    HW2 2562   0.195   4.886   0.474
  555SOL     OW 2563   4.072   5.181   5.958
  555SOL    HW1 2564   4.095   5.248   5.888
  555SOL    HW2 2565   4.022   5.226   6.032
  556SOL     OW 2566   5.458   6.242   3.022
  556SOL    HW1 2567   5.424   6.268   2.931
  556SOL    HW2 2568   5.549   6.202   3.014
  557SOL     OW 2569   6.628   3.687   0.449
  557SOL    HW1 2570   6.607   3.593   0.421
  557SOL    HW2 2571   6.724   3.691   0.479
  558SOL     OW 2572   3.461   3.490   1.722
  558SOL    HW1 2573   3.487   3.418   1.787
  558SOL    HW2 2574   3.431   3.571   1.773
  559SOL     OW 2575   6.090   1.145   6.342
  559SOL    HW1 2576   6.103   1.127   6.245
  559SOL    HW2 2577   6.033   1.073   6.382
  560SOL     OW 2578   2.009   2.416   2.644
  560SOL    HW1 2579   1.970   2.327   2.666
  560SOL    HW2 2580   2.079   2.440   2.712
  561SOL     OW 2581   6.780   4.205   0.762
  561SOL    HW1 2582   6.856   4.185   0.823
  561SOL    HW2 2583   6.767   4.304   0.756
  562SOL     OW 2584   3.037   6.295   3.223
  562SOL    HW1 2585   3.042   6.344   3.136
  562SOL    HW2 2586   2.989   6.209   3.210
  563SOL     OW 2587   0.846   0.862   4.360
  563SOL    HW1 2588   0.882   0.823   4.275
  563SOL    HW2 2589   0.791   0.943   4.338
  564SOL     OW 2590   6.045   2.119   6.025
  564SOL    HW1 2591   6.109   2.127   5.948
  564SOL    HW2 2592   5.953   2.141   5.995
  565SOL     OW 2593   3.446   3.494   3.623
  565SOL    HW1 2594   3.393   3.524   3.703
  565SOL    HW2 2595   3.386   3.444   3.561
  566SOL     OW 2596   1.216   2.612   3.334
  566SOL    HW1 2597   1.187   2.706   3.355
  566SOL    HW2 2598   1.287   2.583   3.398
  567SOL     OW 2599   1.547   3.141   5.231
  567SOL    HW1 2600   1.531   3.055   5.183
  567SOL    HW2 2601   1.582   3.122   5.323
  568SOL     OW 2602   0.849   0.060   6.427
  568SOL    HW1 2603   0.841   0.159   6.444
  568SOL    HW2 2604   0.932   0.043   6.373
  569SOL     OW 2605   5.251   3.487   5.150
  569SOL    HW1 2606   5.235   3.422   5.076
  569SOL    HW2 2607   5.168   3.540   5.167
  570SOL     OW 2608   2.873   0.278   5.509
  570SOL    HW1 2609   2.790   0.326   5.478
  570SOL    HW2 2610   2.928   0.340   5.564
  571SOL     OW 2611   2.360   4.325   2.374
  571SOL    HW1 2612   2.329   4.238   2.413
  571SOL    HW2 2613   2.406   4.379   2.445
  572SOL     OW 2614   2.160   1.453   4.619
  572SOL    HW1 2615   2.252   1.482   4.593
  572SOL    HW2 2616   2.093   1.507   4.568
  573SOL     OW 2617   0.644   0.062   5.864
  573SOL    HW1 2618   0.644   0.136   5.932
  573SOL    HW2 2619   0.639   0.102   5.772
  574SOL     OW 2620   2.380   0.738   5.783
  574SOL    HW1 2621   2.316   0.786   5.843
  574SOL    HW2 2622   2.461   0.794   5.769
  575SOL     OW 2623   3.823   3.898   0.221
  575SOL    HW1 2624   3.811   3.808   0.263
  575SOL    HW2 2625   3.741   3.922   0.170
  576SOL     OW 2626   6.970   0.442   3.731
  576SOL    HW1 2627   0.028   0.408   3.685
  576SOL    HW2 2628   6.901   0.370   3.733
  577SOL     OW 2629   0.074   0.168   2.241
  577SOL    HW1 2630   7.012   0.136   2.282
  577SOL    HW2 2631   0.100   0.106   2.167
  578SOL     OW 2632   3.994   6.619   0.774
  578SOL    HW1 2633   3.965   6.713   0.790
  578SOL    HW2 2634   4.093   6.612   0.788
  579SOL     OW 2635   0.714   3.766   1.905
  579SOL    HW1 2636   0.797   3.816   1.881
  579SOL    HW2 2637   0.733   3.667   1.902
  580SOL     OW 2638   4.712   4.742   4.779
  580SOL    HW1 2639   4.752   4.788   4.858
  580SOL    HW2 2640   4.658   4.664   4.810
  581SOL     OW 2641   2.652   2.414   3.535
  581SOL    HW1 2642   2.571   2.358   3.555
  581SOL    HW2 2643   2.733   2.357   3.536
  582SOL     OW 2644   5.745   4.615   5.102
  582SOL    HW1 2645   5.748   4.712   5.126
  582SOL    HW2 2646   5.754   4.604   5.003
  583SOL     OW 2647   3.032   5.882   5.434
  583SOL    HW1 2648   2.971   5.803   5.434
  583SOL    HW2 2649   3.086   5.884   5.518
  584SOL     OW 2650   3.798   0.608   5.165
  584SOL    HW1 2651   3.847   0.686   5.126
  584SOL    HW2 2652   3.726   0.579   5.103
  585SOL     OW 2653   4.124   6.738   1.859
  585SOL    HW1 2654   4.146   6.809   1.792
  585SOL    HW2 2655   4.189   6.743   1.935
  586SOL     OW 2656   3.658   6.817   0.749
  586SOL    HW1 2657   3.680   6.720   0.756
  586SOL    HW2 2658   3.560   6.831   0.766
  587SOL     OW 2659   5.227   0.560   2.989
  587SOL    HW1 2660   5.324   0.557   3.012
  587SOL    HW2 2661   5.194   0.468   2.969
  588SOL     OW 2662   2.193   4.113   2.471
  588SOL    HW1 2663   2.097   4.140   2.476
  588SOL    HW2 2664   2.239   4.141   2.556
  589SOL     OW 2665   3.580   4.876   5.596
  589SOL    HW1 2666   3.526   4.954   5.627
  589SOL    HW2 2667   3.616   4.894   5.504
  590SOL     OW 2668   2.068   1.542   6.227
  590SOL    HW1 2669   2.026   1.480   6.160
  590SOL    HW2 2670   2.006   1.553   6.305
  591SOL     OW 2671   2.654   0.112   3.856
  591SOL    HW1 2672   2.712   0.189   3.880
  591SOL    HW2 2673   2.561   0.144   3.837
  592SOL     OW 2674   4.521   2.015   4.296
  592SOL    HW1 2675   4.442   1.954   4.297
  592SOL    HW2 2676   4.603   1.962   4.275
  593SOL     OW 2677   1.297   7.006   0.107
  593SOL    HW1 2678   1.273   6.947   0.030
  593SOL    HW2 2679   1.213   0.014   0.152
  594SOL     OW 2680   2.950   1.323   5.104
  594SOL    HW1 2681   2.958   1.422   5.089
  594SOL    HW2 2682   3.032   1.291   5.152
  595SOL     OW 2683   5.820   3.999   2.707
  595SOL    HW1 2684   5.882   3.927   2.676
  595SOL    HW2 2685   5.766   4.031   2.629
  596SOL     OW 2686   6.480   4.893   4.867
  596SOL    HW1 2687   6.579   4.899   4.884
  596SOL    HW2 2688   6.460   4.931   4.776
  597SOL     OW 2689   4.188   1.312   6.608
  597SOL    HW1 2690   4.091   1.328   6.592
  597SOL    HW2 2691   4.241   1.386   6.566
  598SOL     OW 2692   2.999   3.196   2.130
  598SOL    HW1 2693   3.010   3.164   2.224
  598SOL    HW2 2694   2.948   3.282   2.130
  599SOL     OW 2695   1.845   5.240   1.350
  599SOL    HW1 2696   1.827   5.240   1.448
  599SOL    HW2 2697   1.773   5.189   1.303
  600SOL     OW 2698   0.429   3.317   5.539
  600SOL    HW1 2699   0.479   3.268   5.468
  600SOL    HW2 2700   0.463   3.411   5.545
  601SOL     OW 2701   6.880   0.353   5.910
  601SOL    HW1 2702   6.786   0.386   5.907
  601SOL    HW2 2703   6.927   0.393   5.989
  602SOL     OW 2704   0.397   0.330   3.201
  602SOL    HW1 2705   0.408   0.262   3.128
  602SOL    HW2 2706   0.386   0.283   3.289
  603SOL     OW 2707   1.398   1.309   4.026
  603SOL    HW1 2708   1.490   1.286   3.995
  603SOL    HW2 2709   1.334   1.299   3.950
  604SOL     OW 2710   5.688   1.640   1.043
  604SOL    HW1 2711   5.787   1.634   1.027
  604SOL    HW2 2712   5.669   1.716   1.105
  605SOL     OW 2713   5.676   6.530   1.821
  605SOL    HW1 2714   5.712   6.476   1.897
  605SOL    HW2 2715   5.752   6.560   1.763
  606SOL     OW 2716   2.756   6.409   5.565
  606SOL    HW1 2717   2.739   6.393   5.662
  606SOL    HW2 2718   2.816   6.488   5.554
  607SOL     OW 2719   1.781   3.364   6.294
  607SOL    HW1 2720   1.855   3.383   6.359
  607SOL    HW2 2721   1.693   3.379   6.339
  608SOL     OW 2722   2.663   1.292   6.651
  608SOL    HW1 2723   2.609   1.208   6.649
  608SOL    HW2 2724   2.601   1.370   6.664
  609SOL     OW 2725   4.059   3.228   2.464
  609SOL    HW1 2726   4.085   3.135   2.490
  609SOL    HW2 2727   4.083   3.292   2.537
  610SOL     OW 2728   5.634   2.631   2.014
  610SOL    HW1 2729   5.713   2.615   2.072
  610SOL    HW2 2730   5.558   2.663   2.070
  611SOL     OW 2731   3.716   1.318   2.024
  611SOL    HW1 2732   3.745   1.380   1.951
  611SOL    HW2 2733   3.630   1.274   1.998
  612SOL     OW 2734   3.903   5.543   3.888
  612SOL    HW1 2735   3.980   5.598   3.920
  612SOL    HW2 2736   3.851   5.509   3.966
  613SOL     OW 2737   3.594   5.895   6.671
  613SOL    HW1 2738   3.661   5.939   6.612
  613SOL    HW2 2739   3.564   5.959   6.742
  614SOL     OW 2740   3.581   6.172   5.828
  614SOL    HW1 2741   3.590   6.263   5.788
  614SOL    HW2 2742   3.572   6.104   5.756
  615SOL     OW 2743   6.990   5.058   3.719
  615SOL    HW1 2744   6.894   5.070   3.695
  615SOL    HW2 2745   7.005   5.085   3.814
  616SOL     OW 2746   6.266   2.740   3.715
  616SOL    HW1 2747   6.334   2.668   3.706
  616SOL    HW2 2748   6.178   2.700   3.738
  617SOL     OW 2749   2.384   0.503   5.938
  617SOL    HW1 2750   2.393   0.593   5.894
  617SOL    HW2 2751   2.378   0.516   6.037
  618SOL     OW 2752   1.979   0.573   2.551
  618SOL    HW1 2753   1.922   0.581   2.469
  618SOL    HW2 2754   2.026   0.660   2.567
  619SOL     OW 2755   1.283   2.812   0.009
  619SOL    HW1 2756   1.377   2.831   0.036
  619SOL    HW2 2757   1.235   2.898   7.017
  620SOL     OW 2758   5.226   3.719   1.032
  620SOL    HW1 2759   5.210   3.649   0.963
  620SOL    HW2 2760   5.150   3.719   1.098
  621SOL     OW 2761   0.160   5.914   0.645
  621SOL    HW1 2762   0.113   5.873   0.723
  621SOL    HW2 2763   0.103   5.986   0.606
  622SOL     OW 2764   1.151   1.461   6.765
  622SOL    HW1 2765   1.113   1.474   6.674
  622SOL    HW2 2766   1.136   1.366   6.795
  623SOL     OW 2767   6.052   5.707   5.302
  623SOL    HW1 2768   6.038   5.706   5.401
  623SOL    HW2 2769   6.055   5.613   5.267
  624SOL     OW 2770   6.923   1.545   1.594
  624SOL    HW1 2771   6.878   1.634   1.604
  624SOL    HW2 2772   6.883   1.496   1.517
  625SOL     OW 2773   1.653   0.993   1.821
  625SOL    HW1 2774   1.563   1.021   1.787
  625SOL    HW2 2775   1.641   0.932   1.899
  626SOL     OW 2776   4.027   5.450   5.378
  626SOL    HW1 2777   4.041   5.435   5.476
  626SOL    HW2 2778   4.092   5.395   5.326
  627SOL     OW 2779   4.257   5.323   0.295
  627SOL    HW1 2780   4.326   5.260   0.259
  627SOL    HW2 2781   4.180   5.271   0.331
  628SOL     OW 2782   5.006   3.444   3.794
  628SOL    HW1 2783   4.959   3.406   3.874
  628SOL    HW2 2784   4.997   3.380   3.717
  629SOL     OW 2785   1.260   7.002   1.211
  629SOL    HW1 2786   1.221   0.042   1.144
  629SOL    HW2 2787   1.354   0.006   1.231
  630SOL     OW 2788   2.529   1.480   2.013
  630SOL    HW1 2789   2.588   1.559   1.996
  630SOL    HW2 2790   2.574   1.419   2.079
  631SOL     OW 2791   2.591   1.282   4.231
  631SOL    HW1 2792   2.537   1.345   4.287
  631SOL    HW2 2793   2.631   1.331   4.154
  632SOL     OW 2794   3.437   1.076   0.070
  632SOL    HW1 2795   3.401   1.167   0.091
  632SOL    HW2 2796   3.438   1.020   0.153
  633SOL     OW 2797   2.460   0.307   4.401
  633SOL    HW1 2798   2.419   0.276   4.315
  633SOL    HW2 2799   2.545   0.355   4.382
  634SOL     OW 2800   2.983   5.363   1.876
  634SOL    HW1 2801   3.016   5.270   1.893
  634SOL    HW2 2802   2.918   5.363   1.800
  635SOL     OW 2803   3.164   0.679   1.952
  635SOL    HW1 2804   3.222   0.657   1.873
  635SOL    HW2 2805   3.196   0.629   2.032
  636SOL     OW 2806   5.026   4.723   6.707
  636SOL    HW1 2807   5.102   4.688   6.760
  636SOL    HW2 2808   5.047   4.718   6.609
  637SOL     OW 2809   6.048   4.844   6.476
  637SOL    HW1 2810   5.994   4.773   6.430
  637SOL    HW2 2811   6.012   4.859   6.568
  638SOL     OW 2812   5.508   1.489   3.268
  638SOL    HW1 2813   5.544   1.581   3.282
  638SOL    HW2 2814   5.518   1.463   3.172
  639SOL     OW 2815   3.919   3.813   1.634
  639SOL    HW1 2816   3.825   3.777   1.637
  639SOL    HW2 2817   3.944   3.846   1.725
  640SOL     OW 2818   3.110   2.534   5.356
  640SOL    HW1 2819   3.147   2.472   5.288
  640SOL    HW2 2820   3.075   2.482   5.434
  641SOL     OW 2821   0.119   0.152   5.000
  641SOL    HW1 2822   0.099   0.057   5.023
  641SOL    HW2 2823   0.181   0.190   5.069
  642SOL     OW 2824   0.820   5.052   6.009
  642SOL    HW1 2825   0.772   5.067   6.096
  642SOL    HW2 2826   0.886   4.978   6.020
  643SOL     OW 2827   5.320   6.586   4.384
  643SOL    HW1 2828   5.296   6.515   4.318
  643SOL    HW2 2829   5.382   6.548   4.453
  644SOL     OW 2830   3.509   5.925   1.704
  644SOL    HW1 2831   3.483   5.925   1.801
  644SOL    HW2 2832   3.432   5.889   1.650
  645SOL     OW 2833   0.706   2.793   2.755
  645SOL    HW1 2834   0.679   2.823   2.663
  645SOL    HW2 2835   0.785   2.846   2.786
  646SOL     OW 2836   1.913   3.299   4.344
  646SOL    HW1 2837   1.832   3.332   4.393
  646SOL    HW2 2838   1.941   3.211   4.380
  647SOL     OW 2839   5.439   4.847   1.111
  647SOL    HW1 2840   5.375   4.923   1.100
  647SOL    HW2 2841   5.391   4.761   1.095
  648SOL     OW 2842   4.260   2.239   4.150
  648SOL    HW1 2843   4.167   2.202   4.155
  648SOL    HW2 2844   4.281   2.264   4.056
  649SOL     OW 2845   4.193   4.526   1.517
  649SOL    HW1 2846   4.133   4.551   1.593
  649SOL    HW2 2847   4.260   4.458   1.548
  650SOL     OW 2848   5.593   5.540   0.100
  650SOL    HW1 2849   5.513   5.498   0.144
  650SOL    HW2 2850   5.571   5.560   0.004
  651SOL     OW 2851   1.476   5.414   6.396
  651SOL    HW1 2852   1.430   5.441   6.481
  651SOL    HW2 2853   1.518   5.494   6.353
  652SOL     OW 2854   4.810   2.712   1.341
  652SOL    HW1 2855   4.780   2.807   1.336
  652SOL    HW2 2856   4.779   2.671   1.427
  653SOL     OW 2857   3.536   5.432   3.000
  653SOL    HW1 2858   3.486   5.371   3.061
  653SOL    HW2 2859   3.608   5.380   2.954
  654SOL     OW 2860   6.983   4.911   0.202
  654SOL    HW1 2861   6.948   5.002   0.177
  654SOL    HW2 2862   7.011   4.862   0.119
  655SOL     OW 2863   1.826   1.324   0.353
  655SOL    HW1 2864   1.804   1.340   0.449
  655SOL    HW2 2865   1.797   1.404   0.299
  656SOL     OW 2866   1.889   6.181   0.930
  656SOL    HW1 2867   1.800   6.146   0.901
  656SOL    HW2 2868   1.913   6.259   0.873
  657SOL     OW 2869   3.617   0.126   6.629
  657SOL    HW1 2870   3.645   0.205   6.685
  657SOL    HW2 2871   3.545   0.075   6.676
  658SOL     OW 2872   3.981   5.285   0.408
  658SOL    HW1 2873   3.897   5.259   0.361
  658SOL    HW2 2874   4.007   5.378   0.379
  659SOL     OW 2875   3.396   0.746   6.046
  659SOL    HW1 2876   3.340   0.806   6.104
  659SOL    HW2 2877   3.481   0.723   6.093
  660SOL     OW 2878   3.070   6.619   3.794
  660SOL    HW1 2879   3.017   6.679   3.854
  660SOL    HW2 2880   3.041   6.632   3.700
  661SOL     OW 2881   6.916   5.257   2.992
  661SOL    HW1 2882   6.893   5.353   2.976
  661SOL    HW2 2883   6.965   5.248   3.079
  662SOL     OW 2884   4.467   2.129   6.839
  662SOL    HW1 2885   4.555   2.110   6.882
  662SOL    HW2 2886   4.447   2.227   6.847
  663SOL     OW 2887   1.701   4.007   4.515
  663SOL    HW1 2888   1.754   4.027   4.433
  663SOL    HW2 2889   1.754   3.948   4.576
  664SOL     OW 2890   5.738   0.477   5.899
  664SOL    HW1 2891   5.695   0.459   5.988
  664SOL    HW2 2892   5.669   0.507   5.834
  665SOL     OW 2893   1.688   4.188   2.151
  665SOL    HW1 2894   1.746   4.123   2.199
  665SOL    HW2 2895   1.731   4.215   2.065
  666SOL     OW 2896   3.998   0.974   2.588
  666SOL    HW1 2897   4.003   0.952   2.685
  666SOL    HW2 2898   4.066   0.921   2.537
  667SOL     OW 2899   6.880   0.340   1.419
  667SOL    HW1 2900   6.891   0.361   1.322
  667SOL    HW2 2901   6.854   0.424   1.468
  668SOL     OW 2902   4.974   3.347   6.635
  668SOL    HW1 2903   4.975   3.264   6.578
  668SOL    HW2 2904   5.047   3.340   6.703
  669SOL     OW 2905   5.517   0.830   3.496
  669SOL    HW1 2906   5.567   0.897   3.551
  669SOL    HW2 2907   5.575   0.750   3.479
  670SOL     OW 2908   4.113   1.944   1.737
  670SOL    HW1 2909   4.019   1.945   1.770
  670SOL    HW2 2910   4.139   1.850   1.714
  671SOL     OW 2911   1.361   5.671   2.142
  671SOL    HW1 2912   1.306   5.624   2.073
  671SOL    HW2 2913   1.444   5.618   2.161
  672SOL     OW 2914   0.173   0.011   1.296
  672SOL    HW1 2915   0.127   7.011   1.381
  672SOL    HW2 2916   0.240   0.084   1.313
  673SOL     OW 2917   6.315   6.757   6.383
  673SOL    HW1 2918   6.328   6.691   6.457
  673SOL    HW2 2919   6.321   6.850   6.419
  674SOL     OW 2920   4.745   6.992   4.728
  674SOL    HW1 2921   4.652   6.970   4.697
  674SOL    HW2 2922   4.807   6.919   4.699
  675SOL     OW 2923   0.851   5.291   2.710
  675SOL    HW1 2924   0.760   5.333   2.704
  675SOL    HW2 2925   0.914   5.354   2.756
  676SOL     OW 2926   2.170   5.616   6.935
  676SOL    HW1 2927   2.211   5.526   6.925
  676SOL    HW2 2928   2.105   5.632   6.860
  677SOL     OW 2929   5.297   0.796   0.904
  677SOL    HW1 2930   5.267   0.816   0.997
  677SOL    HW2 2931   5.375   0.854   0.880
  678SOL     OW 2932   0.690   5.611   4.211
  678SOL    HW1 2933   0.703   5.557   4.128
  678SOL    HW2 2934   0.720   5.558   4.291
  679SOL     OW 2935   5.211   1.110   6.195
  679SOL    HW1 2936   5.203   1.206   6.169
  679SOL    HW2 2937   5.307   1.087   6.210
  680SOL     OW 2938   6.130   0.203   4.088
  680SOL    HW1 2939   6.213   0.258   4.086
  680SOL    HW2 2940   6.055   0.256   4.127
  681SOL     OW 2941   4.656   4.330   2.977
  681SOL    HW1 2942   4.567   4.317   3.022
  681SOL    HW2 2943   4.646   4.397   2.903
  682SOL     OW 2944   6.171   1.343   3.519
  682SOL    HW1 2945   6.245   1.410   3.507
  682SOL    HW2 2946   6.085   1.384   3.489
  683SOL     OW 2947   3.383   5.336   0.035
  683SOL    HW1 2948   3.475   5.297   0.038
  683SOL    HW2 2949   3.369   5.384   6.972
  684SOL     OW 2950   5.440   2.015   6.129
  684SOL    HW1 2951   5.530   1.993   6.165
  684SOL    HW2 2952   5.426   1.966   6.043
  685SOL     OW 2953   3.289   6.525   3.438
  685SOL    HW1 2954   3.202   6.556   3.476
  685SOL    HW2 2955   3.300   6.560   3.346
  686SOL     OW 2956   3.064   0.406   5.696
  686SOL    HW1 2957   3.020   0.496   5.692
  686SOL    HW2 2958   3.100   0.391   5.788
  687SOL     OW 2959   0.322   0.833   4.278
  687SOL    HW1 2960   0.352   0.737   4.284
  687SOL    HW2 2961   0.349   0.881   4.361
  688SOL     OW 2962   4.759   3.571   6.783
  688SOL    HW1 2963   4.708   3.648   6.743
  688SOL    HW2 2964   4.737   3.487   6.733
  689SOL     OW 2965   2.358   6.015   6.962
  689SOL    HW1 2966   2.353   5.940   0.004
  689SOL    HW2 2967   2.359   6.102   7.011
  690SOL     OW 2968   5.977   3.506   3.955
  690SOL    HW1 2969   5.978   3.540   4.049
  690SOL    HW2 2970   5.885   3.511   3.918
  691SOL     OW 2971   5.444   0.611   2.615
  691SOL    HW1 2972   5.348   0.616   2.585
  691SOL    HW2 2973   5.458   0.673   2.693
  692SOL     OW 2974   1.241   0.055   3.634
  692SOL    HW1 2975   1.272   7.016   3.563
  692SOL    HW2 2976   1.320   0.103   3.673
  693SOL     OW 2977   6.155   4.065   1.995
  693SOL    HW1 2978   6.224   3.995   2.017
  693SOL    HW2 2979   6.091   4.028   1.928
  694SOL     OW 2980   4.068   4.819   4.375
  694SOL    HW1 2981   4.049   4.882   4.299
  694SOL    HW2 2982   3.988   4.813   4.434
  695SOL     OW 2983   4.515   0.292   4.394
  695SOL    HW1 2984   4.590   0.354   4.418
  695SOL    HW2 2985   4.549   0.198   4.389
  696SOL     OW 2986   6.963   4.788   2.066
  696SOL    HW1 2987   7.011   4.852   2.007
  696SOL    HW2 2988   0.005   4.725   2.107
  697SOL     OW 2989   0.450   6.355   3.079
  697SOL    HW1 2990   0.385   6.397   3.142
  697SOL    HW2 2991   0.442   6.255   3.085
  698SOL     OW 2992   5.884   6.240   5.671
  698SOL    HW1 2993   5.949   6.291   5.615
  698SOL    HW2 2994   5.880   6.280   5.762
  699SOL     OW 2995   4.009   2.746   0.500
  699SOL    HW1 2996   4.026   2.769   0.596
  699SOL    HW2 2997   4.049   2.657   0.479
  700SOL     OW 2998   3.431   6.652   5.266
  700SOL    HW1 2999   3.339   6.655   5.225
  700SOL    HW2 3000   3.450   6.558   5.297
  701SOL     OW 3001   4.401   4.520   1.786
  701SOL    HW1 3002   4.439   4.537   1.696
  701SOL    HW2 3003   4.412   4.423   1.809
  702SOL     OW 3004   3.521   1.143   4.904
  702SOL    HW1 3005   3.426   1.168   4.885
  702SOL    HW2 3006   3.581   1.195   4.843
  703SOL     OW 3007   3.494   3.068   0.288
  703SOL    HW1 3008   3.458   2.975   0.274
  703SOL    HW2 3009   3.578   3.079   0.234
  704SOL     OW 3010   3.966   1.733   0.327
  704SOL    HW1 3011   3.956   1.634   0.322
  704SOL    HW2 3012   3.878   1.774   0.350
  705SOL     OW 3013   0.015   6.765   5.913
  705SOL    HW1 3014   0.103   6.776   5.867
  705SOL    HW2 3015   6.968   6.814   5.863
  706SOL     OW 3016   3.695   0.643   4.907
  706SOL    HW1 3017   3.654   0.729   4.877
  706SOL    HW2 3018   3.634   0.567   4.882
  707SOL     OW 3019   3.447   4.919   4.517
  707SOL    HW1 3020   3.390   5.000   4.505
  707SOL    HW2 3021   3.389   4.839   4.533
  708SOL     OW 3022   2.544   6.202   4.193
  708SOL    HW1 3023   2.583   6.111   4.185
  708SOL    HW2 3024   2.467   6.212   4.130
  709SOL     OW 3025   2.247   6.849   1.710
  709SOL    HW1 3026   2.154   6.847   1.673
  709SOL    HW2 3027   2.272   6.943   1.731
  710SOL     OW 3028   4.796   2.940   2.620
  710SOL    HW1 3029   4.891   2.966   2.636
  710SOL    HW2 3030   4.780   2.933   2.522
  711SOL     OW 3031   0.008   1.398   0.609
  711SOL    HW1 3032   7.005   1.303   0.625
  711SOL    HW2 3033   0.041   1.409   0.515
  712SOL     OW 3034   4.759   4.581   6.903
  712SOL    HW1 3035   4.824   4.536   6.966
  712SOL    HW2 3036   4.782   4.556   6.809
  713SOL     OW 3037   3.441   3.093   5.524
  713SOL    HW1 3038   3.514   3.060   5.584
  713SOL    HW2 3039   3.359   3.036   5.536
  714SOL     OW 3040   4.032   6.690   3.082
  714SOL    HW1 3041   4.062   6.655   2.993
  714SOL    HW2 3042   4.035   6.789   3.082
  715SOL     OW 3043   6.382   4.054   6.070
  715SOL    HW1 3044   6.395   4.039   5.972
  715SOL    HW2 3045   6.381   4.152   6.089
  716SOL     OW 3046   3.195   1.009   3.359
  716SOL    HW1 3047   3.191   1.098   3.314
  716SOL    HW2 3048   3.118   1.001   3.423
  717SOL     OW 3049   5.688   4.493   3.803
  717SOL    HW1 3050   5.751   4.492   3.880
  717SOL    HW2 3051   5.637   4.406   3.800
  718SOL     OW 3052   6.494   2.224   5.509
  718SOL    HW1 3053   6.561   2.274   5.564
  718SOL    HW2 3054   6.462   2.282   5.434
  719SOL     OW 3055   4.651   5.637   2.289
  719SOL    HW1 3056   4.736   5.593   2.259
  719SOL    HW2 3057   4.655   5.653   2.388
  720SOL     OW 3058   3.058   1.657   0.920
  720SOL    HW1 3059   3.031   1.753   0.907
  720SOL    HW2 3060   3.063   1.638   1.018
  721SOL     OW 3061   0.025   2.716   2.795
  721SOL    HW1 3062   6.975   2.692   2.858
  721SOL    HW2 3063   0.082   2.787   2.836
  722SOL     OW 3064   5.508   5.704   2.133
  722SOL    HW1 3065   5.414   5.729   2.156
  722SOL    HW2 3066   5.566   5.785   2.137
  723SOL     OW 3067   2.412   0.345   4.916
  723SOL    HW1 3068   2.394   0.382   4.825
  723SOL    HW2 3069   2.466   0.411   4.969
  724SOL     OW 3070   1.272   2.584   4.709
  724SOL    HW1 3071   1.350   2.636   4.673
  724SOL    HW2 3072   1.260   2.501   4.655
  725SOL     OW 3073   1.560   3.947   3.456
  725SOL    HW1 3074   1.608   3.968   3.371
  725SOL    HW2 3075   1.463   3.967   3.445
  726SOL     OW 3076   2.502   3.334   0.581
  726SOL    HW1 3077   2.492   3.408   0.514
  726SOL    HW2 3078   2.599   3.311   0.590
  727SOL     OW 3079   3.892   5.218   5.160
  727SOL    HW1 3080   3.916   5.193   5.254
  727SOL    HW2 3081   3.838   5.302   5.160
  728SOL     OW 3082   6.265   3.836   3.267
  728SOL    HW1 3083   6.286   3.923   3.222
  728SOL    HW2 3084   6.247   3.853   3.364
  729SOL     OW 3085   0.496   4.893   0.240
  729SOL    HW1 3086   0.421   4.912   0.177
  729SOL    HW2 3087   0.477   4.809   0.291
  730SOL     OW 3088   3.904   1.143   3.299
  730SOL    HW1 3089   3.868   1.051   3.317
  730SOL    HW2 3090   3.871   1.175   3.211
  731SOL     OW 3091   4.916   4.434   4.740
  731SOL    HW1 3092   5.000   4.380   4.734
  731SOL    HW2 3093   4.838   4.376   4.717
  732SOL     OW 3094   4.861   0.818   4.496
  732SOL    HW1 3095   4.820   0.872   4.422
  732SOL    HW2 3096   4.952   0.788   4.469
  733SOL     OW 3097   0.584   5.013   4.422
  733SOL    HW1 3098   0.493   4.998   4.382
  733SOL    HW2 3099   0.614   4.929   4.468
  734SOL     OW 3100   6.411   6.010   3.292
  734SOL    HW1 3101   6.419   5.911   3.304
  734SOL    HW2 3102   6.356   6.030   3.211
  735SOL     OW 3103   4.763   0.483   2.751
  735SOL    HW1 3104   4.799   0.431   2.828
  735SOL    HW2 3105   4.838   0.528   2.702
  736SOL     OW 3106   2.032   1.309   2.951
  736SOL    HW1 3107   1.990   1.257   3.025
  736SOL    HW2 3108   2.087   1.248   2.894
  737SOL     OW 3109   3.241   1.579   6.268
  737SOL    HW1 3110   3.268   1.488   6.237
  737SOL    HW2 3111   3.297   1.649   6.224
  738SOL     OW 3112   1.217   5.514   0.314
  738SOL    HW1 3113   1.222   5.609   0.345
  738SOL    HW2 3114   1.134   5.501   0.260
  739SOL     OW 3115   1.536   0.677   2.662
  739SOL    HW1 3116   1.585   0.597   2.696
  739SOL    HW2 3117   1.501   0.730   2.739
  740SOL     OW 3118   4.738   2.740   2.800
  740SOL    HW1 3119   4.738   2.832   2.759
  740SOL    HW2 3120   4.748   2.671   2.729
  741SOL     OW 3121   3.322   0.984   3.009
  741SOL    HW1 3122   3.421   0.970   3.020
  741SOL    HW2 3123   3.306   1.055   2.941
  742SOL     OW 3124   1.987   0.693   2.281
  742SOL    HW1 3125   1.918   0.765   2.285
  742SOL    HW2 3126   1.968   0.633   2.204
  743SOL     OW 3127   6.931   6.472   2.771
  743SOL    HW1 3128   6.971   6.510   2.854
  743SOL    HW2 3129   7.002   6.460   2.701
  744SOL     OW 3130   5.872   1.334   1.143
  744SOL    HW1 3131   5.793   1.390   1.116
  744SOL    HW2 3132   5.926   1.312   1.062
  745SOL     OW 3133   1.075   6.779   5.714
  745SOL    HW1 3134   1.043   6.874   5.710
  745SOL    HW2 3135   0.996   6.718   5.713
  746SOL     OW 3136   6.545   5.693   5.353
  746SOL    HW1 3137   6.562   5.602   5.316
  746SOL    HW2 3138   6.618   5.755   5.325
  747SOL     OW 3139   3.616   5.087   2.257
  747SOL    HW1 3140   3.644   5.015   2.320
  747SOL    HW2 3141   3.612   5.174   2.306
  748SOL     OW 3142   6.185   5.216   3.008
  748SOL    HW1 3143   6.233   5.291   2.963
  748SOL    HW2 3144   6.199   5.222   3.107
  749SOL     OW 3145   4.633   4.333   4.679
  749SOL    HW1 3146   4.599   4.386   4.601
  749SOL    HW2 3147   4.573   4.348   4.757
  750SOL     OW 3148   2.894   1.854   2.590
  750SOL    HW1 3149   2.967   1.839   2.656
  750SOL    HW2 3150   2.902   1.945   2.551
  751SOL     OW 3151   4.316   0.176   0.239
  751SOL    HW1 3152   4.401   0.226   0.218
  751SOL    HW2 3153   4.296   0.184   0.337
  752SOL     OW 3154   3.036   3.132   3.896
  752SOL    HW1 3155   2.976   3.051   3.890
  752SOL    HW2 3156   3.071   3.141   3.989
  753SOL     OW 3157   3.467   3.741   3.509
  753SOL    HW1 3158   3.468   3.813   3.578
  753SOL    HW2 3159   3.465   3.651   3.553
  754SOL     OW 3160   4.554   0.811   6.111
  754SOL    HW1 3161   4.610   0.794   6.030
  754SOL    HW2 3162   4.459   0.790   6.091
  755SOL     OW 3163   4.926   4.412   5.088
  755SOL    HW1 3164   4.880   4.482   5.143
  755SOL    HW2 3165   5.006   4.451   5.043
  756SOL     OW 3166   3.393   5.483   6.203
  756SOL    HW1 3167   3.418   5.427   6.125
  756SOL    HW2 3168   3.475   5.507   6.256
  757SOL     OW 3169   0.986   6.511   1.502
  757SOL    HW1 3170   1.020   6.555   1.419
  757SOL    HW2 3171   1.058   6.512   1.572
  758SOL     OW 3172   3.656   1.147   5.561
  758SOL    HW1 3173   3.622   1.053   5.555
  758SOL    HW2 3174   3.603   1.198   5.629
  759SOL     OW 3175   6.938   2.698   3.697
  759SOL    HW1 3176   6.989   2.710   3.612
  759SOL    HW2 3177   6.853   2.751   3.692
  760SOL     OW 3178   6.761   5.675   4.652
  760SOL    HW1 3179   6.767   5.709   4.746
  760SOL    HW2 3180   6.692   5.728   4.602
  761SOL     OW 3181   4.896   4.380   6.235
  761SOL    HW1 3182   4.864   4.410   6.145
  761SOL    HW2 3183   4.855   4.291   6.257
  762SOL     OW 3184   4.074   6.052   3.427
  762SOL    HW1 3185   4.111   5.998   3.503
  762SOL    HW2 3186   3.992   6.007   3.391
  763SOL     OW 3187   5.783   1.409   0.325
  763SOL    HW1 3188   5.725   1.338   0.285
  763SOL    HW2 3189   5.742   1.442   0.410
  764SOL     OW 3190   5.132   6.376   4.558
  764SOL    HW1 3191   5.196   6.452   4.572
  764SOL    HW2 3192   5.181   6.290   4.561
  765SOL     OW 3193   5.572   6.352   6.738
  765SOL    HW1 3194   5.627   6.425   6.697
  765SOL    HW2 3195   5.618   6.317   6.819
  766SOL     OW 3196   2.763   1.948   3.955
  766SOL    HW1 3197   2.740   2.045   3.954
  766SOL    HW2 3198   2.768   1.914   3.861
  767SOL     OW 3199   6.512   6.826   3.503
  767SOL    HW1 3200   6.451   6.889   3.455
  767SOL    HW2 3201   6.459   6.767   3.563
  768SOL     OW 3202   3.031   5.750   1.629
  768SOL    HW1 3203   3.002   5.661   1.593
  768SOL    HW2 3204   2.971   5.777   1.704
  769SOL     OW 3205   3.803   1.970   5.350
  769SOL    HW1 3206   3.843   2.061   5.357
  769SOL    HW2 3207   3.704   1.978   5.335
  770SOL     OW 3208   0.660   4.415   5.807
  770SOL    HW1 3209   0.613   4.491   5.763
  770SOL    HW2 3210   0.605   4.380   5.883
  771SOL     OW 3211   1.648   5.124   2.662
  771SOL    HW1 3212   1.721   5.175   2.707
  771SOL    HW2 3213   1.686   5.066   2.590
  772SOL     OW 3214   6.316   4.826   0.420
  772SOL    HW1 3215   6.304   4.730   0.394
  772SOL    HW2 3216   6.249   4.851   0.489
  773SOL     OW 3217   1.410   4.639   4.003
  773SOL    HW1 3218   1.429   4.584   3.922
  773SOL    HW2 3219   1.412   4.736   3.979
  774SOL     OW 3220   1.974   2.367   3.403
  774SOL    HW1 3221   1.881   2.389   3.375
  774SOL    HW2 3222   2.038   2.392   3.330
  775SOL     OW 3223   1.228   5.224   2.451
  775SOL    HW1 3224   1.129   5.230   2.456
  775SOL    HW2 3225   1.259   5.254   2.361
  776SOL     OW 3226   2.221   4.732   0.484
  776SOL    HW1 3227   2.126   4.751   0.461
  776SOL    HW2 3228   2.271   4.818   0.492
  777SOL     OW 3229   1.621   3.054   6.588
  777SOL    HW1 3230   1.582   2.990   6.655
  777SOL    HW2 3231   1.716   3.030   6.570
  778SOL     OW 3232   3.405   5.790   6.908
  778SOL    HW1 3233   3.449   5.878   6.889
  778SOL    HW2 3234   3.424   5.764   7.003
  779SOL     OW 3235   5.871   2.220   3.330
  779SOL    HW1 3236   5.927   2.143   3.360
  779SOL    HW2 3237   5.789   2.226   3.388
  780SOL     OW 3238   6.011   1.514   5.185
  780SOL    HW1 3239   6.110   1.525   5.195
  780SOL    HW2 3240   5.992   1.429   5.137
  781SOL     OW 3241   0.118   4.942   6.748
  781SOL    HW1 3242   0.019   4.946   6.738
  781SOL    HW2 3243   0.162   4.982   6.667
  782SOL     OW 3244   2.236   3.723   5.569
  782SOL    HW1 3245   2.237   3.760   5.476
  782SOL    HW2 3246   2.296   3.779   5.627
  783SOL     OW 3247   0.023   5.157   5.801
  783SOL    HW1 3248   6.965   5.206   5.771
  783SOL    HW2 3249   0.087   5.149   5.724
  784SOL     OW 3250   1.540   6.016   5.893
  784SOL    HW1 3251   1.628   6.042   5.855
  784SOL    HW2 3252   1.547   6.006   5.992
  785SOL     OW 3253   0.709   6.841   3.978
  785SOL    HW1 3254   0.708   6.765   4.044
  785SOL    HW2 3255   0.624   6.841   3.926
  786SOL     OW 3256   5.962   1.732   4.845
  786SOL    HW1 3257   6.040   1.764   4.899
  786SOL    HW2 3258   5.899   1.807   4.829
  787SOL     OW 3259   2.304   6.917   0.925
  787SOL    HW1 3260   2.291   6.845   0.994
  787SOL    HW2 3261   2.248   6.896   0.845
  788SOL     OW 3262   2.093   3.353   2.433
  788SOL    HW1 3263   2.127   3.330   2.342
  788SOL    HW2 3264   2.120   3.281   2.498
  789SOL     OW 3265   3.423   5.409   2.119
  789SOL    HW1 3266   3.366   5.349   2.063
  789SOL    HW2 3267   3.373   5.493   2.140
  790SOL     OW 3268   0.135   3.220   2.812
  790SOL    HW1 3269   0.058   3.265   2.858
  790SOL    HW2 3270   0.105   3.132   2.774
  791SOL     OW 3271   3.731   0.646   3.857
  791SOL    HW1 3272   3.669   0.685   3.925
  791SOL    HW2 3273   3.795   0.716   3.826
  792SOL     OW 3274   3.193   0.950   0.354
  792SOL    HW1 3275   3.167   0.940   0.450
  792SOL    HW2 3276   3.288   0.921   0.342
  793SOL     OW 3277   2.282   5.739   4.810
  793SOL    HW1 3278   2.322   5.754   4.720
  793SOL    HW2 3279   2.198   5.794   4.818
  794SOL     OW 3280   3.773   2.966   2.213
  794SOL    HW1 3281   3.808   3.059   2.217
  794SOL    HW2 3282   3.720   2.953   2.129
  795SOL     OW 3283   3.857   6.631   5.987
  795SOL    HW1 3284   3.876   6.647   5.890
  795SOL    HW2 3285   3.797   6.704   6.021
  796SOL     OW 3286   1.069   2.384   6.211
  796SOL    HW1 3287   1.158   2.361   6.247
  796SOL    HW2 3288   1.073   2.386   6.111
  797SOL     OW 3289   3.043   6.737   0.477
  797SOL    HW1 3290   3.128   6.713   0.431
  797SOL    HW2 3291   2.996   6.654   0.507
  798SOL     OW 3292   5.385   4.424   1.863
  798SOL    HW1 3293   5.298   4.380   1.842
  798SOL    HW2 3294   5.441   4.363   1.919
  799SOL     OW 3295   3.404   3.489   4.892
  799SOL    HW1 3296   3.425   3.398   4.856
  799SOL    HW2 3297   3.487   3.530   4.930
  800SOL     OW 3298   4.986   2.764   3.218
  800SOL    HW1 3299   4.966   2.861   3.206
  800SOL    HW2 3300   5.030   2.728   3.136
  801SOL     OW 3301   1.964   4.753   0.257
  801SOL    HW1 3302   1.995   4.669   0.212
  801SOL    HW2 3303   1.989   4.832   0.201
  802SOL     OW 3304   4.077   2.798   5.735
  802SOL    HW1 3305   4.120   2.864   5.673
  802SOL    HW2 3306   4.120   2.804   5.825
  803SOL     OW 3307   3.276   1.921   3.074
  803SOL    HW1 3308   3.201   1.983   3.049
  803SOL    HW2 3309   3.249   1.827   3.058
  804SOL     OW 3310   4.272   6.950   3.140
  804SOL    HW1 3311   4.189   6.958   3.084
  804SOL    HW2 3312   4.342   7.012   3.105
  805SOL     OW 3313   3.474   1.776   3.622
  805SOL    HW1 3314   3.504   1.683   3.603
  805SOL    HW2 3315   3.531   1.816   3.693
  806SOL     OW 3316   4.304   6.454   5.962
  806SOL    HW1 3317   4.244   6.494   6.031
  806SOL    HW2 3318   4.275   6.360   5.943
  807SOL     OW 3319   1.051   6.449   6.352
  807SOL    HW1 3320   0.972   6.394   6.377
  807SOL    HW2 3321   1.135   6.401   6.377
  808SOL     OW 3322   5.187   1.949   5.841
  808SOL    HW1 3323   5.154   1.857   5.863
  808SOL    HW2 3324   5.174   1.966   5.743
  809SOL     OW 3325   2.369   6.297   5.603
  809SOL    HW1 3326   2.325   6.235   5.667
  809SOL    HW2 3327   2.448   6.251   5.561
  810SOL     OW 3328   3.768   3.731   6.392
  810SOL    HW1 3329   3.791   3.825   6.417
  810SOL    HW2 3330   3.846   3.672   6.409
  811SOL     OW 3331   5.459   4.979   5.488
  811SOL    HW1 3332   5.395   5.044   5.529
  811SOL    HW2 3333   5.408   4.901   5.450
  812SOL     OW 3334   1.288   2.200   0.252
  812SOL    HW1 3335   1.299   2.210   0.153
  812SOL    HW2 3336   1.191   2.201   0.275
  813SOL     OW 3337   2.721   1.584   5.091
  813SOL    HW1 3338   2.660   1.523   5.141
  813SOL    HW2 3339   2.701   1.679   5.115
  814SOL     OW 3340   0.399   4.826   1.303
  814SOL    HW1 3341   0.483   4.789   1.263
  814SOL    HW2 3342   0.420   4.910   1.354
  815SOL     OW 3343   4.361   0.724   3.802
  815SOL    HW1 3344   4.281   0.755   3.854
  815SOL    HW2 3345   4.338   0.716   3.705
  816SOL     OW 3346   4.924   3.544   6.460
  816SOL    HW1 3347   4.841   3.525   6.408
  816SOL    HW2 3348   4.938   3.472   6.528
  817SOL     OW 3349   6.923   5.467   0.111
  817SOL    HW1 3350   6.881   5.522   0.184
  817SOL    HW2 3351   7.022   5.465   0.123
  818SOL     OW 3352   6.575   1.197   5.113
  818SOL    HW1 3353   6.541   1.287   5.141
  818SOL    HW2 3354   6.514   1.158   5.044
  819SOL     OW 3355   5.495   3.470   1.978
  819SOL    HW1 3356   5.422   3.535   1.955
  819SOL    HW2 3357   5.583   3.506   1.947
  820SOL     OW 3358   2.442   2.076   5.096
  820SOL    HW1 3359   2.398   1.992   5.067
  820SOL    HW2 3360   2.380   2.153   5.083
  821SOL     OW 3361   5.058   3.625   5.903
  821SOL    HW1 3362   5.066   3.644   6.001
  821SOL    HW2 3363   5.122   3.553   5.878
  822SOL     OW 3364   7.016   4.599   3.251
  822SOL    HW1 3365   0.009   4.529   3.182
  822SOL    HW2 3366   0.073   4.609   3.309
  823SOL     OW 3367   1.740   2.930   4.278
  823SOL    HW1 3368   1.738   2.833   4.303
  823SOL    HW2 3369   1.660   2.976   4.316
  824SOL     OW 3370   5.142   0.670   5.993
  824SOL    HW1 3371   5.108   0.740   6.056
  824SOL    HW2 3372   5.071   0.602   5.978
  825SOL     OW 3373   6.371   6.092   1.439
  825SOL    HW1 3374   6.453   6.086   1.497
  825SOL    HW2 3375   6.353   6.002   1.399
  826SOL     OW 3376   3.517   2.165   0.153
  826SOL    HW1 3377   3.602   2.117   0.131
  826SOL    HW2 3378   3.531   2.224   0.233
  827SOL     OW 3379   3.557   3.224   4.880
  827SOL    HW1 3380   3.614   3.143   4.869
  827SOL    HW2 3381   3.501   3.215   4.962
  828SOL     OW 3382   0.587   6.392   6.357
  828SOL    HW1 3383   0.602   6.389   6.258
  828SOL    HW2 3384   0.523   6.466   6.378
  829SOL     OW 3385   3.847   3.369   1.450
  829SOL    HW1 3386   3.814   3.420   1.370
  829SOL    HW2 3387   3.827   3.422   1.532
  830SOL     OW 3388   0.287   3.128   5.683
  830SOL    HW1 3389   0.352   3.180   5.627
  830SOL    HW2 3390   0.251   3.187   5.756
  831SOL     OW 3391   5.822   2.025   3.098
  831SOL    HW1 3392   5.815   2.104   3.159
  831SOL    HW2 3393   5.808   2.054   3.004
  832SOL     OW 3394   2.993   2.249   4.772
  832SOL    HW1 3395   3.053   2.263   4.850
  832SOL    HW2 3396   3.048   2.233   4.690
  833SOL     OW 3397   3.176   3.125   6.651
  833SOL    HW1 3398   3.127   3.114   6.738
  833SOL    HW2 3399   3.273   3.138   6.668
  834SOL     OW 3400   6.305   3.565   1.274
  834SOL    HW1 3401   6.247   3.531   1.201
  834SOL    HW2 3402   6.254   3.565   1.360
  835SOL     OW 3403   6.614   6.507   4.928
  835SOL    HW1 3404   6.531   6.452   4.936
  835SOL    HW2 3405   6.598   6.598   4.966
  836SOL     OW 3406   6.580   0.263   3.901
  836SOL    HW1 3407   6.563   0.351   3.856
  836SOL    HW2 3408   6.538   0.190   3.847
  837SOL     OW 3409   0.351   6.903   6.460
  837SOL    HW1 3410   0.267   6.956   6.464
  837SOL    HW2 3411   0.357   6.843   6.540
  838SOL     OW 3412   1.007   6.310   3.279
  838SOL    HW1 3413   1.049   6.334   3.191
  838SOL    HW2 3414   1.012   6.388   3.341
  839SOL     OW 3415   1.715   2.215   6.812
  839SOL    HW1 3416   1.775   2.293   6.798
  839SOL    HW2 3417   1.696   2.171   6.724
  840SOL     OW 3418   4.989   5.317   0.482
  840SOL    HW1 3419   5.048   5.398   0.478
  840SOL    HW2 3420   4.959   5.293   0.390
  841SOL     OW 3421   2.817   4.574   6.757
  841SOL    HW1 3422   2.861   4.660   6.731
  841SOL    HW2 3423   2.836   4.505   6.687
  842SOL     OW 3424   3.912   6.590   1.064
  842SOL    HW1 3425   3.981   6.595   0.992
  842SOL    HW2 3426   3.839   6.528   1.036
  843SOL     OW 3427   1.798   0.068   2.190
  843SOL    HW1 3428   1.716   0.118   2.163
  843SOL    HW2 3429   1.871   0.133   2.210
  844SOL     OW 3430   6.907   6.638   1.305
  844SOL    HW1 3431   6.929   6.733   1.286
  844SOL    HW2 3432   6.970   6.601   1.373
  845SOL     OW 3433   4.553   1.507   1.559
  845SOL    HW1 3434   4.639   1.479   1.518
  845SOL    HW2 3435   4.486   1.526   1.487
  846SOL     OW 3436   1.738   0.573   0.815
  846SOL    HW1 3437   1.704   0.611   0.901
  846SOL    HW2 3438   1.717   0.636   0.740
  847SOL     OW 3439   2.842   3.397   1.473
  847SOL    HW1 3440   2.833   3.428   1.568
  847SOL    HW2 3441   2.867   3.301   1.471
  848SOL     OW 3442   6.589   5.970   1.049
  848SOL    HW1 3443   6.502   5.957   1.096
  848SOL    HW2 3444   6.592   5.915   0.966
  849SOL     OW 3445   5.510   3.298   6.128
  849SOL    HW1 3446   5.554   3.209   6.119
  849SOL    HW2 3447   5.500   3.340   6.038
  850SOL     OW 3448   2.516   1.080   4.618
  850SOL    HW1 3449   2.573   1.108   4.695
  850SOL    HW2 3450   2.424   1.058   4.652
  851SOL     OW 3451   4.761   2.561   6.318
  851SOL    HW1 3452   4.849   2.540   6.276
  851SOL    HW2 3453   4.740   2.493   6.388
  852SOL     OW 3454   0.186   5.119   1.115
  852SOL    HW1 3455   0.257   5.188   1.128
  852SOL    HW2 3456   0.116   5.129   1.185
  853SOL     OW 3457   3.729   2.766   0.507
  853SOL    HW1 3458   3.689   2.823   0.579
  853SOL    HW2 3459   3.828   2.767   0.514
  854SOL     OW 3460   6.672   0.978   6.524
  854SOL    HW1 3461   6.596   0.916   6.543
  854SOL    HW2 3462   6.702   0.965   6.430
  855SOL     OW 3463   4.756   1.981   6.994
  855SOL    HW1 3464   4.810   2.052   6.950
  855SOL    HW2 3465   4.742   1.905   6.930
  856SOL     OW 3466   1.668   5.807   1.665
  856SOL    HW1 3467   1.767   5.790   1.667
  856SOL    HW2 3468   1.621   5.740   1.723
  857SOL     OW 3469   0.191   6.414   5.020
  857SOL    HW1 3470   0.110   6.382   4.970
  857SOL    HW2 3471   0.175   6.506   5.054
  858SOL     OW 3472   2.868   4.304   0.430
  858SOL    HW1 3473   2.800   4.376   0.421
  858SOL    HW2 3474   2.943   4.336   0.488
  859SOL     OW 3475   4.883   6.141   5.715
  859SOL    HW1 3476   4.820   6.205   5.758
  859SOL    HW2 3477   4.871   6.144   5.616
  860SOL     OW 3478   4.684   2.800   0.379
  860SOL    HW1 3479   4.680   2.730   0.450
  860SOL    HW2 3480   4.768   2.790   0.327
  861SOL     OW 3481   1.023   5.904   2.725
  861SOL    HW1 3482   1.099   5.931   2.665
  861SOL    HW2 3483   1.019   5.967   2.802
  862SOL     OW 3484   0.492   4.827   4.110
  862SOL    HW1 3485   0.434   4.889   4.164
  862SOL    HW2 3486   0.479   4.733   4.141
  863SOL     OW 3487   5.135   0.466   1.172
  863SOL    HW1 3488   5.078   0.527   1.117
  863SOL    HW2 3489   5.087   0.445   1.257
  864SOL     OW 3490   6.179   3.821   3.528
  864SOL    HW1 3491   6.245   3.796   3.599
  864SOL    HW2 3492   6.089   3.785   3.552
  865SOL     OW 3493   1.973   5.270   4.796
  865SOL    HW1 3494   1.955   5.200   4.728
  865SOL    HW2 3495   2.072   5.280   4.809
  866SOL     OW 3496   3.483   6.578   1.173
  866SOL    HW1 3497   3.444   6.559   1.263
  866SOL    HW2 3498   3.546   6.655   1.180
  867SOL     OW 3499   5.847   3.812   4.838
  867SOL    HW1 3500   5.916   3.858   4.894
  867SOL    HW2 3501   5.771   3.783   4.896
  868SOL     OW 3502   0.466   1.393   2.053
  868SOL    HW1 3503   0.565   1.394   2.041
  868SOL    HW2 3504   0.423   1.373   1.965
  869SOL     OW 3505   0.484   2.936   1.775
  869SOL    HW1 3506   0.428   2.909   1.854
  869SOL    HW2 3507   0.462   3.030   1.749
  870SOL     OW 3508   3.815   4.775   1.703
  870SOL    HW1 3509   3.739   4.726   1.745
  870SOL    HW2 3510   3.786   4.814   1.615
  871SOL     OW 3511   4.818   1.857   3.732
  871SOL    HW1 3512   4.806   1.849   3.831
  871SOL    HW2 3513   4.740   1.905   3.692
  872SOL     OW 3514   1.752   2.510   5.717
  872SOL    HW1 3515   1.709   2.556   5.794
  872SOL    HW2 3516   1.849   2.493   5.738
  873SOL     OW 3517   3.860   0.717   6.333
  873SOL    HW1 3518   3.934   0.743   6.394
  873SOL    HW2 3519   3.773   0.717   6.384
  874SOL     OW 3520   5.557   3.742   2.778
  874SOL    HW1 3521   5.564   3.707   2.871
  874SOL    HW2 3522   5.635   3.709   2.724
  875SOL     OW 3523   5.343   5.266   2.004
  875SOL    HW1 3524   5.367   5.270   1.908
  875SOL    HW2 3525   5.244   5.262   2.014
  876SOL     OW 3526   6.504   1.715   6.284
  876SOL    HW1 3527   6.478   1.701   6.380
  876SOL    HW2 3528   6.561   1.640   6.254
  877SOL     OW 3529   0.874   3.020   6.685
  877SOL    HW1 3530   0.848   2.926   6.710
  877SOL    HW2 3531   0.890   3.024   6.586
  878SOL     OW 3532   4.398   6.338   4.611
  878SOL    HW1 3533   4.391   6.410   4.542
  878SOL    HW2 3534   4.459   6.266   4.578
  879SOL     OW 3535   5.904   6.884   6.193
  879SOL    HW1 3536   5.805   6.877   6.181
  879SOL    HW2 3537   5.937   6.808   6.249
  880SOL     OW 3538   3.871   2.976   3.007
  880SOL    HW1 3539   3.928   2.973   2.925
  880SOL    HW2 3540   3.833   3.069   3.017
  881SOL     OW 3541   4.877   2.050   0.548
  881SOL    HW1 3542   4.915   2.142   0.554
  881SOL    HW2 3543   4.781   2.054   0.520
  882SOL     OW 3544   1.711   2.400   3.335
  882SOL    HW1 3545   1.687   2.323   3.394
  882SOL    HW2 3546   1.683   2.379   3.241
  883SOL     OW 3547   2.504   6.565   2.891
  883SOL    HW1 3548   2.415   6.525   2.870
  883SOL    HW2 3549   2.551   6.509   2.959
  884SOL     OW 3550   2.445   3.444   6.101
  884SOL    HW1 3551   2.498   3.518   6.060
  884SOL    HW2 3552   2.365   3.424   6.044
  885SOL     OW 3553   4.150   3.009   6.476
  885SOL    HW1 3554   4.197   2.922   6.463
  885SOL    HW2 3555   4.096   3.006   6.560
  886SOL     OW 3556   3.641   1.589   5.785
  886SOL    HW1 3557   3.564   1.585   5.848
  886SOL    HW2 3558   3.608   1.608   5.692
  887SOL     OW 3559   3.889   1.280   5.354
  887SOL    HW1 3560   3.895   1.310   5.259
  887SOL    HW2 3561   3.803   1.231   5.369
  888SOL     OW 3562   0.689   6.873   2.099
  888SOL    HW1 3563   0.741   6.959   2.094
  888SOL    HW2 3564   0.593   6.894   2.116
  889SOL     OW 3565   0.495   3.948   1.141
  889SOL    HW1 3566   0.532   3.868   1.092
  889SOL    HW2 3567   0.396   3.939   1.150
  890SOL     OW 3568   2.624   6.091   4.976
  890SOL    HW1 3569   2.614   6.012   5.036
  890SOL    HW2 3570   2.697   6.150   5.010
  891SOL     OW 3571   4.532   4.454   2.372
  891SOL    HW1 3572   4.484   4.381   2.324
  891SOL    HW2 3573   4.601   4.415   2.432
  892SOL     OW 3574   2.392   4.254   1.474
  892SOL    HW1 3575   2.364   4.338   1.428
  892SOL    HW2 3576   2.324   4.182   1.457
  893SOL     OW 3577   1.608   5.311   2.382
  893SOL    HW1 3578   1.670   5.370   2.330
  893SOL    HW2 3579   1.588   5.353   2.470
  894SOL     OW 3580   1.352   4.321   0.902
  894SOL    HW1 3581   1.395   4.337   0.991
  894SOL    HW2 3582   1.356   4.223   0.881
  895SOL     OW 3583   6.682   5.683   4.935
  895SOL    HW1 3584   6.587   5.690   4.906
  895SOL    HW2 3585   6.729   5.769   4.918
  896SOL     OW 3586   6.712   0.836   6.230
  896SOL    HW1 3587   6.751   0.861   6.141
  896SOL    HW2 3588   6.775   0.774   6.277
  897SOL     OW 3589   6.056   1.333   0.370
  897SOL    HW1 3590   6.113   1.406   0.332
  897SOL    HW2 3591   5.959   1.355   0.356
  898SOL     OW 3592   4.234   1.879   3.777
  898SOL    HW1 3593   4.231   1.807   3.708
  898SOL    HW2 3594   4.230   1.968   3.731
  899SOL     OW 3595   6.355   6.941   6.989
  899SOL    HW1 3596   6.432   6.945   0.028
  899SOL    HW2 3597   6.271   6.969   0.012
  900SOL     OW 3598   5.564   5.188   6.232
  900SOL    HW1 3599   5.598   5.147   6.148
  900SOL    HW2 3600   5.476   5.147   6.256
  901SOL     OW 3601   0.988   0.794   2.920
  901SOL    HW1 3602   1.066   0.857   2.929
  901SOL    HW2 3603   0.905   0.847   2.902
  902SOL     OW 3604   6.958   3.064   2.663
  902SOL    HW1 3605   6.944   3.055   2.564
  902SOL    HW2 3606   6.914   2.987   2.710
  903SOL     OW 3607   6.503   1.561   0.409
  903SOL    HW1 3608   6.412   1.599   0.422
  903SOL    HW2 3609   6.529   1.507   0.489
  904SOL     OW 3610   2.752   1.555   3.645
  904SOL    HW1 3611   2.779   1.484   3.709
  904SOL    HW2 3612   2.675   1.523   3.590
  905SOL     OW 3613   5.409   2.272   6.106
  905SOL    HW1 3614   5.415   2.172   6.106
  905SOL    HW2 3615   5.498   2.311   6.130
  906SOL     OW 3616   6.031   3.237   1.119
  906SOL    HW1 3617   5.976   3.317   1.143
  906SOL    HW2 3618   6.020   3.217   1.021
  907SOL     OW 3619   6.009   4.720   0.442
  907SOL    HW1 3620   6.050   4.630   0.428
  907SOL    HW2 3621   6.078   4.785   0.473
  908SOL     OW 3622   0.569   3.798   3.302
  908SOL    HW1 3623   0.478   3.758   3.312
  908SOL    HW2 3624   0.638   3.733   3.333
  909SOL     OW 3625   4.814   4.485   5.988
  909SOL    HW1 3626   4.880   4.436   5.930
  909SOL    HW2 3627   4.723   4.481   5.947
  910SOL     OW 3628   3.236   5.003   0.595
  910SOL    HW1 3629   3.209   5.006   0.499
  910SOL    HW2 3630   3.237   5.096   0.632
  911SOL     OW 3631   1.304   4.473   6.423
  911SOL    HW1 3632   1.218   4.483   6.472
  911SOL    HW2 3633   1.289   4.492   6.326
  912SOL     OW 3634   5.219   1.718   5.189
  912SOL    HW1 3635   5.247   1.648   5.255
  912SOL    HW2 3636   5.205   1.805   5.236
  913SOL     OW 3637   5.551   5.404   3.535
  913SOL    HW1 3638   5.460   5.385   3.574
  913SOL    HW2 3639   5.545   5.402   3.436
  914SOL     OW 3640   2.360   6.553   5.516
  914SOL    HW1 3641   2.447   6.595   5.492
  914SOL    HW2 3642   2.376   6.475   5.576
  915SOL     OW 3643   5.596   5.136   1.927
  915SOL    HW1 3644   5.657   5.119   2.004
  915SOL    HW2 3645   5.502   5.144   1.961
  916SOL     OW 3646   0.874   3.410   2.970
  916SOL    HW1 3647   0.971   3.414   2.948
  916SOL    HW2 3648   0.859   3.443   3.063
  917SOL     OW 3649   0.594   6.651   6.938
  917SOL    HW1 3650   0.671   6.658   7.003
  917SOL    HW2 3651   0.508   6.649   6.989
  918SOL     OW 3652   3.559   5.902   6.280
  918SOL    HW1 3653   3.480   5.845   6.259
  918SOL    HW2 3654   3.597   5.938   6.194
  919SOL     OW 3655   4.304   0.156   5.805
  919SOL    HW1 3656   4.259   0.244   5.822
  919SOL    HW2 3657   4.332   0.116   5.892
  920SOL     OW 3658   3.134   4.510   1.680
  920SOL    HW1 3659   3.057   4.494   1.742
  920SOL    HW2 3660   3.168   4.422   1.647
  921SOL     OW 3661   5.208   5.730   5.633
  921SOL    HW1 3662   5.232   5.665   5.705
  921SOL    HW2 3663   5.141   5.795   5.668
  922SOL     OW 3664   3.377   4.159   2.861
  922SOL    HW1 3665   3.322   4.122   2.936
  922SOL    HW2 3666   3.474   4.152   2.884
  923SOL     OW 3667   2.619   4.094   5.581
  923SOL    HW1 3668   2.619   4.149   5.497
  923SOL    HW2 3669   2.588   4.002   5.560
  924SOL     OW 3670   1.093   3.121   0.953
  924SOL    HW1 3671   1.088   3.035   0.901
  924SOL    HW2 3672   1.071   3.197   0.892
  925SOL     OW 3673   0.700   1.430   6.977
  925SOL    HW1 3674   0.721   1.455   6.883
  925SOL    HW2 3675   0.732   1.501   0.016
  926SOL     OW 3676   2.202   2.281   1.290
  926SOL    HW1 3677   2.248   2.266   1.377
  926SOL    HW2 3678   2.270   2.296   1.218
  927SOL     OW 3679   0.273   3.806   5.201
  927SOL    HW1 3680   0.310   3.895   5.178
  927SOL    HW2 3681   0.193   3.817   5.260
  928SOL     OW 3682   3.008   5.138   6.156
  928SOL    HW1 3683   3.070   5.199   6.205
  928SOL    HW2 3684   2.918   5.139   6.200
  929SOL     OW 3685   1.537   2.352   4.795
  929SOL    HW1 3686   1.439   2.329   4.790
  929SOL    HW2 3687   1.590   2.282   4.747
  930SOL     OW 3688   5.941   5.356   5.416
  930SOL    HW1 3689   6.030   5.334   5.456
  930SOL    HW2 3690   5.869   5.334   5.482
  931SOL     OW 3691   6.109   0.672   3.780
  931SOL    HW1 3692   6.153   0.760   3.799
  931SOL    HW2 3693   6.158   0.600   3.829
  932SOL     OW 3694   4.353   6.925   3.571
  932SOL    HW1 3695   4.395   6.848   3.618
  932SOL    HW2 3696   4.414   7.004   3.574
  933SOL     OW 3697   1.229   5.924   1.740
  933SOL    HW1 3698   1.173   5.845   1.767
  933SOL    HW2 3699   1.278   5.903   1.656
  934SOL     OW 3700   1.913   2.778   0.915
  934SOL    HW1 3701   1.914   2.745   0.821
  934SOL    HW2 3702   1.880   2.706   0.976
  935SOL     OW 3703   5.546   2.916   5.405
  935SOL    HW1 3704   5.569   2.824   5.439
  935SOL    HW2 3705   5.543   2.915   5.305
  936SOL     OW 3706   1.315   1.256   6.140
  936SOL    HW1 3707   1.306   1.286   6.045
  936SOL    HW2 3708   1.390   1.305   6.183
  937SOL     OW 3709   3.038   2.013   6.132
  937SOL    HW1 3710   3.033   2.108   6.102
  937SOL    HW2 3711   2.989   2.003   6.219
  938SOL     OW 3712   4.681   6.645   4.843
  938SOL    HW1 3713   4.635   6.560   4.818
  938SOL    HW2 3714   4.754   6.626   4.908
  939SOL     OW 3715   1.566   0.067   4.663
  939SOL    HW1 3716   1.626   0.014   4.724
  939SOL    HW2 3717   1.534   0.008   4.589
  940SOL     OW 3718   1.911   5.285   0.710
  940SOL    HW1 3719   1.864   5.343   0.644
  940SOL    HW2 3720   1.984   5.337   0.755
  941SOL     OW 3721   3.950   6.836   1.130
  941SOL    HW1 3722   3.977   6.860   1.037
  941SOL    HW2 3723   3.937   6.737   1.137
  942SOL     OW 3724   0.132   5.192   6.942
  942SOL    HW1 3725   0.121   5.112   6.882
  942SOL    HW2 3726   0.215   5.242   6.916
  943SOL     OW 3727   3.340   6.548   1.417
  943SOL    HW1 3728   3.299   6.460   1.394
  943SOL    HW2 3729   3.327   6.566   1.515
  944SOL     OW 3730   6.028   5.960   3.456
  944SOL    HW1 3731   6.112   6.007   3.481
  944SOL    HW2 3732   6.019   5.877   3.512
  945SOL     OW 3733   0.501   4.990   6.451
  945SOL    HW1 3734   0.501   5.040   6.365
  945SOL    HW2 3735   0.473   4.896   6.435
  946SOL     OW 3736   5.785   2.008   3.882
  946SOL    HW1 3737   5.706   1.988   3.824
  946SOL    HW2 3738   5.759   2.001   3.978
  947SOL     OW 3739   3.680   4.080   2.361
  947SOL    HW1 3740   3.650   4.139   2.436
  947SOL    HW2 3741   3.650   4.118   2.274
  948SOL     OW 3742   3.372   1.849   3.957
  948SOL    HW1 3743   3.457   1.796   3.948
  948SOL    HW2 3744   3.387   1.941   3.922
  949SOL     OW 3745   2.081   7.022   5.398
  949SOL    HW1 3746   2.135   0.081   5.380
  949SOL    HW2 3747   2.139   6.942   5.391
  950SOL     OW 3748   6.868   0.338   1.906
  950SOL    HW1 3749   6.933   0.342   1.982
  950SOL    HW2 3750   6.888   0.411   1.841
  951SOL     OW 3751   1.486   0.053   2.767
  951SOL    HW1 3752   1.520   0.051   2.673
  951SOL    HW2 3753   1.530   0.128   2.817
  952SOL     OW 3754   3.255   1.892   2.695
  952SOL    HW1 3755   3.193   1.838   2.752
  952SOL    HW2 3756   3.217   1.983   2.681
  953SOL     OW 3757   1.210   6.079   5.424
  953SOL    HW1 3758   1.156   6.154   5.462
  953SOL    HW2 3759   1.151   6.018   5.372
  954SOL     OW 3760   4.490   6.546   2.540
  954SOL    HW1 3761   4.484   6.446   2.531
  954SOL    HW2 3762   4.464   6.589   2.454
  955SOL     OW 3763   3.190   4.528   1.220
  955SOL    HW1 3764   3.265   4.589   1.191
  955SOL    HW2 3765   3.161   4.553   1.312
  956SOL     OW 3766   3.355   0.135   0.957
  956SOL    HW1 3767   3.455   0.133   0.950
  956SOL    HW2 3768   3.319   0.216   0.911
  957SOL     OW 3769   5.882   7.005   3.134
  957SOL    HW1 3770   5.898   6.907   3.119
  957SOL    HW2 3771   5.953   0.017   3.195
  958SOL     OW 3772   5.374   5.614   1.893
  958SOL    HW1 3773   5.370   5.600   1.794
  958SOL    HW2 3774   5.432   5.693   1.913
  959SOL     OW 3775   4.976   6.483   2.328
  959SOL    HW1 3776   5.045   6.423   2.368
  959SOL    HW2 3777   4.914   6.515   2.399
  960SOL     OW 3778   0.685   6.691   5.994
  960SOL    HW1 3779   0.629   6.733   6.065
  960SOL    HW2 3780   0.631   6.678   5.911
  961SOL     OW 3781   3.951   1.158   3.696
  961SOL    HW1 3782   4.006   1.088   3.650
  961SOL    HW2 3783   4.010   1.233   3.726
  962SOL     OW 3784   6.951   0.521   4.816
  962SOL    HW1 3785   6.922   0.481   4.903
  962SOL    HW2 3786   0.026   0.537   4.818
  963SOL     OW 3787   5.533   2.234   1.065
  963SOL    HW1 3788   5.446   2.273   1.036
  963SOL    HW2 3789   5.589   2.305   1.107
  964SOL     OW 3790   3.729   6.229   4.908
  964SOL    HW1 3791   3.801   6.241   4.976
  964SOL    HW2 3792   3.710   6.131   4.897
  965SOL     OW 3793   4.707   1.747   4.622
  965SOL    HW1 3794   4.788   1.807   4.623
  965SOL    HW2 3795   4.714   1.684   4.545
  966SOL     OW 3796   4.948   1.198   3.107
  966SOL    HW1 3797   4.948   1.217   3.205
  966SOL    HW2 3798   4.953   1.284   3.056
  967SOL     OW 3799   4.174   5.656   5.823
  967SOL    HW1 3800   4.194   5.734   5.883
  967SOL    HW2 3801   4.138   5.689   5.736
  968SOL     OW 3802   4.689   0.121   1.683
  968SOL    HW1 3803   4.658   0.189   1.617
  968SOL    HW2 3804   4.782   0.143   1.714
  969SOL     OW 3805   3.254   3.494   6.990
  969SOL    HW1 3806   3.167   3.542   6.998
  969SOL    HW2 3807   3.298   3.520   6.904
  970SOL     OW 3808   4.414   6.146   5.424
  970SOL    HW1 3809   4.454   6.230   5.460
  970SOL    HW2 3810   4.409   6.152   5.324
  971SOL     OW 3811   4.953   2.954   3.659
  971SOL    HW1 3812   4.946   3.041   3.610
  971SOL    HW2 3813   4.945   2.971   3.758
  972SOL     OW 3814   0.722   1.852   0.995
  972SOL    HW1 3815   0.728   1.814   0.903
  972SOL    HW2 3816   0.651   1.922   0.998
  973SOL     OW 3817   6.792   2.441   4.923
  973SOL    HW1 3818   6.861   2.443   4.850
  973SOL    HW2 3819   6.793   2.529   4.971
  974SOL     OW 3820   1.612   3.254   2.009
  974SOL    HW1 3821   1.568   3.199   1.938
  974SOL    HW2 3822   1.673   3.196   2.064
  975SOL     OW 3823   3.303   0.753   2.590
  975SOL    HW1 3824   3.305   0.827   2.523
  975SOL    HW2 3825   3.257   0.674   2.549
  976SOL     OW 3826   0.295   3.064   4.018
  976SOL    HW1 3827   0.253   3.068   4.108
  976SOL    HW2 3828   0.312   2.968   3.993
  977SOL     OW 3829   6.973   1.487   2.173
  977SOL    HW1 3830   6.933   1.498   2.082
  977SOL    HW2 3831   6.928   1.549   2.237
  978SOL     OW 3832   5.670   1.933   0.626
  978SOL    HW1 3833   5.676   1.997   0.549
  978SOL    HW2 3834   5.679   1.840   0.592
  979SOL     OW 3835   0.196   5.041   6.483
  979SOL    HW1 3836   0.180   5.131   6.441
  979SOL    HW2 3837   0.263   4.991   6.429
  980SOL     OW 3838   5.269   1.520   3.920
  980SOL    HW1 3839   5.272   1.551   3.825
  980SOL    HW2 3840   5.312   1.589   3.979
  981SOL     OW 3841   0.596   6.018   6.070
  981SOL    HW1 3842   0.510   5.984   6.031
  981SOL    HW2 3843   0.603   5.987   6.165
  982SOL     OW 3844   6.857   0.621   6.639
  982SOL    HW1 3845   6.867   0.712   6.679
  982SOL    HW2 3846   6.883   0.552   6.707
  983SOL     OW 3847   6.824   4.114   2.223
  983SOL    HW1 3848   6.795   4.031   2.175
  983SOL    HW2 3849   6.905   4.152   2.178
  984SOL     OW 3850   0.107   3.540   4.370
  984SOL    HW1 3851   0.103   3.559   4.469
  984SOL    HW2 3852   0.198   3.507   4.346
  985SOL     OW 3853   5.481   4.768   5.921
  985SOL    HW1 3854   5.563   4.719   5.892
  985SOL    HW2 3855   5.401   4.726   5.879
  986SOL     OW 3856   4.031   5.734   1.728
  986SOL    HW1 3857   3.951   5.689   1.767
  986SOL    HW2 3858   4.024   5.734   1.628
  987SOL     OW 3859   4.347   4.635   4.448
  987SOL    HW1 3860   4.349   4.639   4.548
  987SOL    HW2 3861   4.308   4.548   4.419
  988SOL     OW 3862   3.228   4.916   2.111
  988SOL    HW1 3863   3.323   4.921   2.078
  988SOL    HW2 3864   3.183   4.837   2.069
  989SOL     OW 3865   0.607   2.210   1.262
  989SOL    HW1 3866   0.666   2.245   1.190
  989SOL    HW2 3867   0.587   2.113   1.245
  990SOL     OW 3868   3.285   6.930   5.055
  990SOL    HW1 3869   3.304   6.835   5.027
  990SOL    HW2 3870   3.343   6.953   5.133
  991SOL     OW 3871   1.450   6.257   4.141
  991SOL    HW1 3872   1.359   6.223   4.116
  991SOL    HW2 3873   1.474   6.223   4.232
  992SOL     OW 3874   6.569   3.601   1.389
  992SOL    HW1 3875   6.596   3.668   1.458
  992SOL    HW2 3876   6.469   3.589   1.392
  993SOL     OW 3877   1.988   5.016   0.160
  993SOL    HW1 3878   1.943   5.006   0.249
  993SOL    HW2 3879   2.084   5.040   0.174
  994SOL     OW 3880   2.954   6.889   1.480
  994SOL    HW1 3881   2.997   6.828   1.413
  994SOL    HW2 3882   2.898   6.957   1.432
  995SOL     OW 3883   5.380   4.305   4.802
  995SOL    HW1 3884   5.295   4.296   4.749
  995SOL    HW2 3885   5.399   4.218   4.847
  996SOL     OW 3886   3.898   6.462   5.400
  996SOL    HW1 3887   3.860   6.547   5.434
  996SOL    HW2 3888   3.836   6.422   5.333
  997SOL     OW 3889   1.254   6.190   3.389
  997SOL    HW1 3890   1.194   6.163   3.465
  997SOL    HW2 3891   1.235   6.285   3.364
  998SOL     OW 3892   4.602   0.097   6.986
  998SOL    HW1 3893   4.697   0.078   6.959
  998SOL    HW2 3894   4.570   0.025   0.025
  999SOL     OW 3895   6.056   3.280   2.131
  999SOL    HW1 3896   6.106   3.225   2.199
  999SOL    HW2 3897   5.987   3.223   2.086
 1000SOL     OW 3898   6.088   1.518   1.917
 1000SOL    HW1 3899   6.164   1.583   1.925
 1000SOL    HW2 3900   6.106   1.438   1.973
 1001SOL     OW 3901   2.572   6.910   3.246
 1001SOL    HW1 3902   2.503   6.981   3.261
 1001SOL    HW2 3903   2.545   6.852   3.169
 1002SOL     OW 3904   4.310   2.281   0.226
 1002SOL    HW1 3905   4.276   2.321   0.141
 1002SOL    HW2 3906   4.278   2.186   0.233
 1003SOL     OW 3907   1.229   1.843   4.056
 1003SOL    HW1 3908   1.168   1.780   4.103
 1003SOL    HW2 3909   1.201   1.853   3.961
 1004SOL     OW 3910   4.361   1.483   4.757
 1004SOL    HW1 3911   4.380   1.576   4.788
 1004SOL    HW2 3912   4.288   1.443   4.814
 1005SOL     OW 3913   0.688   5.892   2.004
 1005SOL    HW1 3914   0.685   5.792   1.991
 1005SOL    HW2 3915   0.620   5.935   1.945
 1006SOL     OW 3916   1.744   4.147   1.549
 1006SOL    HW1 3917   1.810   4.193   1.489
 1006SOL    HW2 3918   1.779   4.057   1.574
 1007SOL     OW 3919   4.929   0.862   6.355
 1007SOL    HW1 3920   4.977   0.788   6.403
 1007SOL    HW2 3921   4.838   0.873   6.395
 1008SOL     OW 3922   0.356   4.478   4.443
 1008SOL    HW1 3923   0.359   4.507   4.348
 1008SOL    HW2 3924   0.394   4.550   4.501
 1009SOL     OW 3925   6.336   5.957   6.544
 1009SOL    HW1 3926   6.369   6.021   6.613
 1009SOL    HW2 3927   6.394   5.963   6.463
 1010SOL     OW 3928   3.314   4.071   0.118
 1010SOL    HW1 3929   3.249   4.014   0.168
 1010SOL    HW2 3930   3.405   4.028   0.120
 1011SOL     OW 3931   6.816   5.661   2.629
 1011SOL    HW1 3932   6.762   5.580   2.607
 1011SOL    HW2 3933   6.769   5.714   2.700
 1012SOL     OW 3934   4.829   6.186   3.315
 1012SOL    HW1 3935   4.897   6.253   3.345
 1012SOL    HW2 3936   4.758   6.233   3.262
 1013SOL     OW 3937   0.691   1.205   6.271
 1013SOL    HW1 3938   0.625   1.279   6.262
 1013SOL    HW2 3939   0.674   1.155   6.356
 1014SOL     OW 3940   0.562   4.534   4.188
 1014SOL    HW1 3941   0.524   4.451   4.147
 1014SOL    HW2 3942   0.660   4.521   4.205
 1015SOL     OW 3943   2.986   6.024   6.841
 1015SOL    HW1 3944   2.974   6.045   6.744
 1015SOL    HW2 3945   2.942   5.936   6.862
 1016SOL     OW 3946   6.927   4.874   0.552
 1016SOL    HW1 3947   7.015   4.894   0.595
 1016SOL    HW2 3948   6.942   4.846   0.457
 1017SOL     OW 3949   1.571   0.257   2.015
 1017SOL    HW1 3950   1.592   0.216   1.926
 1017SOL    HW2 3951   1.563   0.357   2.005
 1018SOL     OW 3952   5.668   5.961   6.091
 1018SOL    HW1 3953   5.612   5.959   6.008
 1018SOL    HW2 3954   5.608   5.956   6.172
 1019SOL     OW 3955   6.641   3.426   1.910
 1019SOL    HW1 3956   6.674   3.516   1.938
 1019SOL    HW2 3957   6.541   3.424   1.912
 1020SOL     OW 3958   5.171   1.359   1.200
 1020SOL    HW1 3959   5.210   1.374   1.109
 1020SOL    HW2 3960   5.239   1.317   1.259
 1021SOL     OW 3961   1.303   6.705   0.415
 1021SOL    HW1 3962   1.273   6.720   0.509
 1021SOL    HW2 3963   1.356   6.784   0.384
 1022SOL     OW 3964   1.854   4.991   6.211
 1022SOL    HW1 3965   1.868   4.972   6.308
 1022SOL    HW2 3966   1.756   4.992   6.190
 1023SOL     OW 3967   0.617   2.099   2.421
 1023SOL    HW1 3968   0.614   2.163   2.497
 1023SOL    HW2 3969   0.538   2.115   2.361
 1024SOL     OW 3970   1.676   2.922   4.684
 1024SOL    HW1 3971   1.663   2.940   4.781
 1024SOL    HW2 3972   1.745   2.985   4.647
 1025SOL     OW 3973   4.464   4.456   0.736
 1025SOL    HW1 3974   4.453   4.502   0.649
 1025SOL    HW2 3975   4.525   4.508   0.795
 1026SOL     OW 3976   3.228   2.614   1.289
 1026SOL    HW1 3977   3.237   2.521   1.326
 1026SOL    HW2 3978   3.263   2.680   1.356
 1027SOL     OW 3979   6.213   0.280   0.601
 1027SOL    HW1 3980   6.178   0.191   0.570
 1027SOL    HW2 3981   6.203   0.347   0.528
 1028SOL     OW 3982   0.734   5.368   3.427
 1028SOL    HW1 3983   0.644   5.384   3.385
 1028SOL    HW2 3984   0.805   5.410   3.371
 1029SOL     OW 3985   0.970   0.313   5.230
 1029SOL    HW1 3986   0.920   0.241   5.277
 1029SOL    HW2 3987   0.929   0.328   5.140
 1030SOL     OW 3988   4.130   3.656   1.061
 1030SOL    HW1 3989   4.097   3.612   1.144
 1030SOL    HW2 3990   4.166   3.747   1.083
 1031SOL     OW 3991   4.218   2.601   0.231
 1031SOL    HW1 3992   4.307   2.645   0.245
 1031SOL    HW2 3993   4.187   2.561   0.317
 1032SOL     OW 3994   1.064   1.140   1.320
 1032SOL    HW1 3995   1.016   1.083   1.252
 1032SOL    HW2 3996   1.024   1.231   1.320
 1033SOL     OW 3997   6.160   0.185   1.672
 1033SOL    HW1 3998   6.179   0.283   1.681
 1033SOL    HW2 3999   6.246   0.134   1.673
 1034SOL     OW 4000   2.315   0.408   5.176
 1034SOL    HW1 4001   2.286   0.346   5.250
 1034SOL    HW2 4002   2.306   0.361   5.088
 1035SOL     OW 4003   1.458   0.193   0.050
 1035SOL    HW1 4004   1.407   0.109   0.068
 1035SOL    HW2 4005   1.428   0.232   6.987
 1036SOL     OW 4006   5.433   1.359   2.664
 1036SOL    HW1 4007   5.416   1.353   2.566
 1036SOL    HW2 4008   5.485   1.279   2.694
 1037SOL     OW 4009   0.903   4.265   2.545
 1037SOL    HW1 4010   0.932   4.277   2.451
 1037SOL    HW2 4011   0.912   4.169   2.571
 1038SOL     OW 4012   1.707   6.614   6.604
 1038SOL    HW1 4013   1.724   6.627   6.702
 1038SOL    HW2 4014   1.767   6.674   6.551
 1039SOL     OW 4015   3.003   3.753   3.006
 1039SOL    HW1 4016   2.932   3.708   2.951
 1039SOL    HW2 4017   2.985   3.737   3.103
 1040SOL     OW 4018   3.705   1.469   2.803
 1040SOL    HW1 4019   3.704   1.494   2.706
 1040SOL    HW2 4020   3.800   1.458   2.833
 1041SOL     OW 4021   6.896   6.921   6.666
 1041SOL    HW1 4022   6.807   6.877   6.683
 1041SOL    HW2 4023   6.959   6.897   6.739
 1042SOL     OW 4024   5.586   3.340   3.677
 1042SOL    HW1 4025   5.512   3.273   3.669
 1042SOL    HW2 4026   5.662   3.314   3.618
 1043SOL     OW 4027   1.995   2.284   3.666
 1043SOL    HW1 4028   2.029   2.199   3.707
 1043SOL    HW2 4029   1.981   2.270   3.568
 1044SOL     OW 4030   5.031   4.521   2.422
 1044SOL    HW1 4031   5.021   4.446   2.487
 1044SOL    HW2 4032   5.119   4.513   2.376
 1045SOL     OW 4033   1.903   0.485   2.114
 1045SOL    HW1 4034   1.822   0.468   2.170
 1045SOL    HW2 4035   1.949   0.399   2.094
 1046SOL     OW 4036   3.835   2.542   0.641
 1046SOL    HW1 4037   3.840   2.579   0.733
 1046SOL    HW2 4038   3.772   2.596   0.586
 1047SOL     OW 4039   3.929   0.671   3.515
 1047SOL    HW1 4040   3.858   0.694   3.581
 1047SOL    HW2 4041   3.931   0.572   3.500
 1048SOL     OW 4042   6.886   0.001   2.254
 1048SOL    HW1 4043   6.936   6.962   2.194
 1048SOL    HW2 4044   6.839   6.973   2.325
 1049SOL     OW 4045   3.261   6.679   0.333
 1049SOL    HW1 4046   3.350   6.656   0.372
 1049SOL    HW2 4047   3.271   6.751   0.265
 1050SOL     OW 4048   2.416   1.629   4.527
 1050SOL    HW1 4049   2.474   1.623   4.446
 1050SOL    HW2 4050   2.460   1.581   4.604
 1051SOL     OW 4051   1.818   2.029   5.562
 1051SOL    HW1 4052   1.722   2.028   5.534
 1051SOL    HW2 4053   1.828   1.978   5.648
 1052SOL     OW 4054   4.985   2.496   6.178
 1052SOL    HW1 4055   5.084   2.495   6.161
 1052SOL    HW2 4056   4.939   2.440   6.109
 1053SOL     OW 4057   4.675   2.757   4.611
 1053SOL    HW1 4058   4.636   2.676   4.566
 1053SOL    HW2 4059   4.610   2.833   4.604
 1054SOL     OW 4060   4.948   5.403   6.586
 1054SOL    HW1 4061   4.961   5.363   6.496
 1054SOL    HW2 4062   4.949   5.331   6.655
 1055SOL     OW 4063   5.550   5.451   5.881
 1055SOL    HW1 4064   5.553   5.351   5.871
 1055SOL    HW2 4065   5.621   5.479   5.946
 1056SOL     OW 4066   3.616   3.419   6.833
 1056SOL    HW1 4067   3.713   3.416   6.813
 1056SOL    HW2 4068   3.601   3.468   6.919
 1057SOL     OW 4069   2.932   3.641   6.737
 1057SOL    HW1 4070   2.839   3.673   6.724
 1057SOL    HW2 4071   2.939   3.545   6.711
 1058SOL     OW 4072   2.698   2.126   1.555
 1058SOL    HW1 4073   2.745   2.053   1.504
 1058SOL    HW2 4074   2.706   2.212   1.505
 1059SOL     OW 4075   2.375   6.062   2.858
 1059SOL    HW1 4076   2.459   6.116   2.867
 1059SOL    HW2 4077   2.375   5.989   2.926
 1060SOL     OW 4078   6.471   6.696   5.094
 1060SOL    HW1 4079   6.440   6.791   5.094
 1060SOL    HW2 4080   6.452   6.654   5.183
 1061SOL     OW 4081   0.233   3.752   6.225
 1061SOL    HW1 4082   0.321   3.706   6.234
 1061SOL    HW2 4083   0.162   3.699   6.272
 1062SOL     OW 4084   3.995   4.796   5.849
 1062SOL    HW1 4085   4.049   4.851   5.784
 1062SOL    HW2 4086   4.055   4.729   5.892
 1063SOL     OW 4087   2.856   6.471   4.108
 1063SOL    HW1 4088   2.938   6.449   4.054
 1063SOL    HW2 4089   2.850   6.409   4.186
 1064SOL     OW 4090   1.061   4.061   0.661
 1064SOL    HW1 4091   1.077   4.159   0.664
 1064SOL    HW2 4092   1.104   4.018   0.741
 1065SOL     OW 4093   6.009   0.975   5.669
 1065SOL    HW1 4094   5.943   0.958   5.596
 1065SOL    HW2 4095   6.056   1.061   5.652
 1066SOL     OW 4096   4.771   6.052   0.967
 1066SOL    HW1 4097   4.731   6.049   1.058
 1066SOL    HW2 4098   4.709   6.010   0.901
 1067SOL     OW 4099   3.761   1.512   0.438
 1067SOL    HW1 4100   3.730   1.460   0.358
 1067SOL    HW2 4101   3.815   1.452   0.497
 1068SOL     OW 4102   6.154   2.746   2.586
 1068SOL    HW1 4103   6.194   2.742   2.494
 1068SOL    HW2 4104   6.072   2.688   2.589
 1069SOL     OW 4105   0.298   1.789   2.801
 1069SOL    HW1 4106   0.332   1.789   2.895
 1069SOL    HW2 4107   0.374   1.810   2.739
 1070SOL     OW 4108   1.267   0.390   2.192
 1070SOL    HW1 4109   1.184   0.439   2.164
 1070SOL    HW2 4110   1.269   0.300   2.148
 1071SOL     OW 4111   0.862   3.183   5.702
 1071SOL    HW1 4112   0.764   3.201   5.699
 1071SOL    HW2 4113   0.897   3.172   5.609
 1072SOL     OW 4114   2.192   1.467   1.846
 1072SOL    HW1 4115   2.108   1.452   1.794
 1072SOL    HW2 4116   2.271   1.463   1.784
 1073SOL     OW 4117   4.931   1.914   2.618
 1073SOL    HW1 4118   4.852   1.937   2.676
 1073SOL    HW2 4119   4.899   1.881   2.530
 1074SOL     OW 4120   3.606   6.165   1.626
 1074SOL    HW1 4121   3.537   6.093   1.633
 1074SOL    HW2 4122   3.628   6.182   1.530
 1075SOL     OW 4123   6.773   3.627   4.732
 1075SOL    HW1 4124   6.859   3.632   4.783
 1075SOL    HW2 4125   6.733   3.719   4.725
 1076SOL     OW 4126   2.499   4.303   5.705
 1076SOL    HW1 4127   2.516   4.375   5.638
 1076SOL    HW2 4128   2.552   4.222   5.681
 1077SOL     OW 4129   6.691   6.546   0.611
 1077SOL    HW1 4130   6.606   6.496   0.596
 1077SOL    HW2 4131   6.746   6.499   0.681
 1078SOL     OW 4132   5.893   0.021   4.074
 1078SOL    HW1 4133   5.883   6.956   4.029
 1078SOL    HW2 4134   5.989   0.035   4.099
 1079SOL     OW 4135   0.892   5.602   1.336
 1079SOL    HW1 4136   0.866   5.696   1.359
 1079SOL    HW2 4137   0.858   5.579   1.246
 1080SOL     OW 4138   4.921   6.223   0.400
 1080SOL    HW1 4139   5.002   6.174   0.369
 1080SOL    HW2 4140   4.857   6.159   0.443
 1081SOL     OW 4141   6.834   6.906   3.186
 1081SOL    HW1 4142   6.761   6.971   3.208
 1081SOL    HW2 4143   6.898   6.902   3.262
 1082SOL     OW 4144   4.742   6.863   0.065
 1082SOL    HW1 4145   4.792   6.814   7.017
 1082SOL    HW2 4146   4.667   6.807   0.098
 1083SOL     OW 4147   6.255   3.736   2.606
 1083SOL    HW1 4148   6.276   3.659   2.547
 1083SOL    HW2 4149   6.263   3.821   2.554
 1084SOL     OW 4150   3.909   0.329   5.372
 1084SOL    HW1 4151   3.839   0.353   5.439
 1084SOL    HW2 4152   3.882   0.245   5.324
 1085SOL     OW 4153   1.871   3.254   4.669
 1085SOL    HW1 4154   1.917   3.340   4.689
 1085SOL    HW2 4155   1.901   3.219   4.580
 1086SOL     OW 4156   5.029   4.153   2.542
 1086SOL    HW1 4157   4.992   4.094   2.613
 1086SOL    HW2 4158   5.058   4.240   2.583
 1087SOL     OW 4159   3.443   0.477   5.926
 1087SOL    HW1 4160   3.539   0.475   5.953
 1087SOL    HW2 4161   3.403   0.564   5.956
 1088SOL     OW 4162   6.387   5.885   4.367
 1088SOL    HW1 4163   6.293   5.900   4.397
 1088SOL    HW2 4164   6.392   5.892   4.268
 1089SOL     OW 4165   5.992   5.201   4.273
 1089SOL    HW1 4166   5.954   5.145   4.200
 1089SOL    HW2 4167   5.996   5.297   4.242
 1090SOL     OW 4168   6.116   2.864   5.161
 1090SOL    HW1 4169   6.031   2.886   5.209
 1090SOL    HW2 4170   6.129   2.765   5.161
 1091SOL     OW 4171   1.632   3.365   3.468
 1091SOL    HW1 4172   1.612   3.434   3.538
 1091SOL    HW2 4173   1.650   3.411   3.381
 1092SOL     OW 4174   1.141   5.967   0.034
 1092SOL    HW1 4175   1.183   6.051   0.070
 1092SOL    HW2 4176   1.069   5.991   6.992
 1093SOL     OW 4177   1.846   0.495   2.970
 1093SOL    HW1 4178   1.915   0.560   2.939
 1093SOL    HW2 4179   1.891   0.417   3.013
 1094SOL     OW 4180   0.288   7.023   3.597
 1094SOL    HW1 4181   0.260   0.039   3.685
 1094SOL    HW2 4182   0.288   6.924   3.604
 1095SOL     OW 4183   6.583   4.653   1.097
 1095SOL    HW1 4184   6.592   4.747   1.067
 1095SOL    HW2 4185   6.606   4.647   1.194
 1096SOL     OW 4186   2.276   6.189   2.531
 1096SOL    HW1 4187   2.332   6.271   2.539
 1096SOL    HW2 4188   2.304   6.121   2.599
 1097SOL     OW 4189   3.295   5.547   4.596
 1097SOL    HW1 4190   3.378   5.522   4.546
 1097SOL    HW2 4191   3.254   5.465   4.635
 1098SOL     OW 4192   6.872   4.010   0.114
 1098SOL    HW1 4193   6.794   3.966   0.159
 1098SOL    HW2 4194   6.930   3.941   0.072
 1099SOL     OW 4195   5.492   0.310   0.134
 1099SOL    HW1 4196   5.429   0.381   0.164
 1099SOL    HW2 4197   5.525   0.331   0.042
 1100SOL     OW 4198   4.758   0.961   4.303
 1100SOL    HW1 4199   4.732   1.058   4.309
 1100SOL    HW2 4200   4.758   0.933   4.207
 1101SOL     OW 4201   4.622   2.553   6.941
 1101SOL    HW1 4202   4.690   2.579   6.872
 1101SOL    HW2 4203   4.603   2.632   7.000
 1102SOL     OW 4204   3.388   1.151   4.610
 1102SOL    HW1 4205   3.326   1.095   4.665
 1102SOL    HW2 4206   3.476   1.104   4.603
 1103SOL     OW 4207   3.185   6.410   0.557
 1103SOL    HW1 4208   3.191   6.452   0.647
 1103SOL    HW2 4209   3.121   6.333   0.560
 1104SOL     OW 4210   6.345   1.081   3.461
 1104SOL    HW1 4211   6.304   1.137   3.532
 1104SOL    HW2 4212   6.389   1.001   3.502
 1105SOL     OW 4213   4.823   0.445   5.466
 1105SOL    HW1 4214   4.866   0.398   5.389
 1105SOL    HW2 4215   4.757   0.383   5.510
 1106SOL     OW 4216   6.195   1.326   2.070
 1106SOL    HW1 4217   6.115   1.266   2.064
 1106SOL    HW2 4218   6.272   1.275   2.108
 1107SOL     OW 4219   1.167   2.351   6.589
 1107SOL    HW1 4220   1.072   2.353   6.618
 1107SOL    HW2 4221   1.192   2.437   6.546
 1108SOL     OW 4222   2.469   1.519   2.577
 1108SOL    HW1 4223   2.371   1.508   2.596
 1108SOL    HW2 4224   2.483   1.601   2.521
 1109SOL     OW 4225   4.988   1.895   5.174
 1109SOL    HW1 4226   5.075   1.917   5.218
 1109SOL    HW2 4227   4.929   1.848   5.239
 1110SOL     OW 4228   1.467   0.376   2.413
 1110SOL    HW1 4229   1.389   0.383   2.351
 1110SOL    HW2 4230   1.435   0.386   2.507
 1111SOL     OW 4231   5.199   3.297   5.972
 1111SOL    HW1 4232   5.274   3.344   5.926
 1111SOL    HW2 4233   5.127   3.275   5.906
 1112SOL     OW 4234   5.916   0.442   2.876
 1112SOL    HW1 4235   5.918   0.384   2.957
 1112SOL    HW2 4236   5.833   0.423   2.824
 1113SOL     OW 4237   0.576   1.563   2.726
 1113SOL    HW1 4238   0.478   1.550   2.740
 1113SOL    HW2 4239   0.624   1.478   2.748
 1114SOL     OW 4240   3.319   2.983   4.426
 1114SOL    HW1 4241   3.373   3.067   4.425
 1114SOL    HW2 4242   3.354   2.919   4.358
 1115SOL     OW 4243   2.024   5.217   6.197
 1115SOL    HW1 4244   2.121   5.209   6.220
 1115SOL    HW2 4245   1.979   5.129   6.211
 1116SOL     OW 4246   4.717   0.033   0.491
 1116SOL    HW1 4247   4.618   0.042   0.489
 1116SOL    HW2 4248   4.753   0.077   0.573
 1117SOL     OW 4249   2.007   2.482   1.651
 1117SOL    HW1 4250   2.003   2.433   1.738
 1117SOL    HW2 4251   2.102   2.499   1.627
 1118SOL     OW 4252   4.462   6.436   0.077
 1118SOL    HW1 4253   4.461   6.389   0.166
 1118SOL    HW2 4254   4.546   6.412   0.028
 1119SOL     OW 4255   3.047   6.172   4.175
 1119SOL    HW1 4256   3.144   6.148   4.186
 1119SOL    HW2 4257   2.991   6.105   4.224
 1120SOL     OW 4258   0.472   3.275   1.726
 1120SOL    HW1 4259   0.473   3.315   1.634
 1120SOL    HW2 4260   0.552   3.306   1.777
 1121SOL     OW 4261   5.460   4.102   5.809
 1121SOL    HW1 4262   5.459   4.192   5.764
 1121SOL    HW2 4263   5.554   4.075   5.828
 1122SOL     OW 4264   5.799   0.601   2.161
 1122SOL    HW1 4265   5.719   0.599   2.221
 1122SOL    HW2 4266   5.803   0.689   2.114
 1123SOL     OW 4267   3.511   1.779   4.721
 1123SOL    HW1 4268   3.477   1.836   4.646
 1123SOL    HW2 4269   3.567   1.834   4.782
 1124SOL     OW 4270   2.641   2.453   3.237
 1124SOL    HW1 4271   2.559   2.510   3.232
 1124SOL    HW2 4272   2.702   2.488   3.308
 1125SOL     OW 4273   1.081   3.379   4.249
 1125SOL    HW1 4274   1.050   3.303   4.305
 1125SOL    HW2 4275   1.015   3.396   4.176
 1126SOL     OW 4276   4.440   4.596   3.597
 1126SOL    HW1 4277   4.395   4.605   3.686
 1126SOL    HW2 4278   4.538   4.616   3.607
 1127SOL     OW 4279   5.914   6.646   1.376
 1127SOL    HW1 4280   5.985   6.590   1.334
 1127SOL    HW2 4281   5.829   6.639   1.323
 1128SOL     OW 4282   3.263   1.975   4.723
 1128SOL    HW1 4283   3.246   2.031   4.641
 1128SOL    HW2 4284   3.304   2.032   4.794
 1129SOL     OW 4285   1.314   0.972   0.171
 1129SOL    HW1 4286   1.396   1.019   0.138
 1129SOL    HW2 4287   1.301   0.888   0.118
 1130SOL     OW 4288   2.096   5.609   1.045
 1130SOL    HW1 4289   2.071   5.540   1.112
 1130SOL    HW2 4290   2.059   5.584   0.956
 1131SOL     OW 4291   1.562   5.572   3.648
 1131SOL    HW1 4292   1.569   5.614   3.557
 1131SOL    HW2 4293   1.469   5.541   3.664
 1132SOL     OW 4294   1.178   2.266   3.076
 1132SOL    HW1 4295   1.201   2.342   3.015
 1132SOL    HW2 4296   1.100   2.216   3.039
 1133SOL     OW 4297   1.427   6.234   6.874
 1133SOL    HW1 4298   1.482   6.237   6.957
 1133SOL    HW2 4299   1.478   6.187   6.802
 1134SOL     OW 4300   3.869   5.928   0.719
 1134SOL    HW1 4301   3.898   5.861   0.650
 1134SOL    HW2 4302   3.875   5.887   0.810
 1135SOL     OW 4303   1.673   6.817   3.187
 1135SOL    HW1 4304   1.658   6.728   3.231
 1135SOL    HW2 4305   1.603   6.832   3.118
 1136SOL     OW 4306   1.451   4.772   3.074
 1136SOL    HW1 4307   1.384   4.743   3.006
 1136SOL    HW2 4308   1.543   4.748   3.043
 1137SOL     OW 4309   1.362   5.163   4.055
 1137SOL    HW1 4310   1.418   5.090   4.093
 1137SOL    HW2 4311   1.298   5.197   4.125
 1138SOL     OW 4312   2.535   4.466   4.087
 1138SOL    HW1 4313   2.579   4.544   4.043
 1138SOL    HW2 4314   2.522   4.485   4.184
 1139SOL     OW 4315   3.584   5.523   4.798
 1139SOL    HW1 4316   3.644   5.498   4.722
 1139SOL    HW2 4317   3.542   5.440   4.836
 1140SOL     OW 4318   2.210   2.744   1.147
 1140SOL    HW1 4319   2.125   2.785   1.181
 1140SOL    HW2 4320   2.258   2.700   1.223
 1141SOL     OW 4321   5.895   4.914   5.730
 1141SOL    HW1 4322   5.819   4.925   5.666
 1141SOL    HW2 4323   5.911   4.817   5.747
 1142SOL     OW 4324   0.375   5.722   2.520
 1142SOL    HW1 4325   0.390   5.816   2.550
 1142SOL    HW2 4326   0.345   5.666   2.598
 1143SOL     OW 4327   0.031   4.556   1.768
 1143SOL    HW1 4328   6.988   4.500   1.816
 1143SOL    HW2 4329   0.114   4.503   1.752
 1144SOL     OW 4330   5.351   4.937   6.906
 1144SOL    HW1 4331   5.328   4.950   6.810
 1144SOL    HW2 4332   5.395   4.848   6.918
 1145SOL     OW 4333   5.699   0.035   1.308
 1145SOL    HW1 4334   5.661   0.125   1.328
 1145SOL    HW2 4335   5.793   0.030   1.340
 1146SOL     OW 4336   1.633   0.321   1.304
 1146SOL    HW1 4337   1.630   0.420   1.289
 1146SOL    HW2 4338   1.683   0.301   1.388
 1147SOL     OW 4339   1.264   6.082   0.478
 1147SOL    HW1 4340   1.209   6.048   0.555
 1147SOL    HW2 4341   1.283   6.006   0.415
 1148SOL     OW 4342   3.781   5.841   1.820
 1148SOL    HW1 4343   3.705   5.866   1.760
 1148SOL    HW2 4344   3.850   5.913   1.817
 1149SOL     OW 4345   5.994   1.887   1.516
 1149SOL    HW1 4346   6.068   1.952   1.499
 1149SOL    HW2 4347   6.000   1.812   1.450
 1150SOL     OW 4348   1.410   1.851   0.776
 1150SOL    HW1 4349   1.350   1.866   0.855
 1150SOL    HW2 4350   1.355   1.833   0.695
 1151SOL     OW 4351   5.899   5.830   4.647
 1151SOL    HW1 4352   5.988   5.793   4.673
 1151SOL    HW2 4353   5.874   5.904   4.710
 1152SOL     OW 4354   2.988   6.095   5.710
 1152SOL    HW1 4355   3.028   6.116   5.799
 1152SOL    HW2 4356   2.986   6.177   5.653
 1153SOL     OW 4357   5.457   6.919   1.145
 1153SOL    HW1 4358   5.402   6.962   1.216
 1153SOL    HW2 4359   5.554   6.935   1.165
 1154SOL     OW 4360   1.857   2.961   1.081
 1154SOL    HW1 4361   1.875   2.893   1.010
 1154SOL    HW2 4362   1.926   3.033   1.076
 1155SOL     OW 4363   3.686   5.656   4.159
 1155SOL    HW1 4364   3.781   5.643   4.185
 1155SOL    HW2 4365   3.677   5.742   4.108
 1156SOL     OW 4366   2.747   0.892   1.178
 1156SOL    HW1 4367   2.684   0.927   1.109
 1156SOL    HW2 4368   2.700   0.886   1.266
 1157SOL     OW 4369   1.964   2.064   0.706
 1157SOL    HW1 4370   1.926   1.980   0.745
 1157SOL    HW2 4371   1.974   2.133   0.777
 1158SOL     OW 4372   5.766   4.175   4.230
 1158SOL    HW1 4373   5.784   4.273   4.234
 1158SOL    HW2 4374   5.852   4.125   4.220
 1159SOL     OW 4375   5.357   4.699   0.655
 1159SOL    HW1 4376   5.419   4.673   0.729
 1159SOL    HW2 4377   5.341   4.619   0.596
 1160SOL     OW 4378   4.215   2.257   1.162
 1160SOL    HW1 4379   4.200   2.170   1.115
 1160SOL    HW2 4380   4.172   2.254   1.252
 1161SOL     OW 4381   0.473   4.669   0.669
 1161SOL    HW1 4382   0.442   4.684   0.575
 1161SOL    HW2 4383   0.394   4.660   0.729
 1162SOL     OW 4384   2.092   2.815   4.721
 1162SOL    HW1 4385   2.184   2.793   4.753
 1162SOL    HW2 4386   2.061   2.899   4.766
 1163SOL     OW 4387   4.825   1.540   1.855
 1163SOL    HW1 4388   4.804   1.559   1.759
 1163SOL    HW2 4389   4.760   1.588   1.913
 1164SOL     OW 4390   4.052   2.003   5.763
 1164SOL    HW1 4391   4.081   2.037   5.852
 1164SOL    HW2 4392   4.101   1.918   5.742
 1165SOL     OW 4393   4.109   0.224   2.937
 1165SOL    HW1 4394   4.017   0.256   2.915
 1165SOL    HW2 4395   4.175   0.293   2.906
 1166SOL     OW 4396   3.585   3.723   6.660
 1166SOL    HW1 4397   3.611   3.808   6.614
 1166SOL    HW2 4398   3.664   3.661   6.662
 1167SOL     OW 4399   5.475   3.749   3.359
 1167SOL    HW1 4400   5.413   3.810   3.409
 1167SOL    HW2 4401   5.426   3.665   3.334
 1168SOL     OW 4402   0.583   0.111   0.675
 1168SOL    HW1 4403   0.533   0.198   0.669
 1168SOL    HW2 4404   0.542   0.044   0.613
 1169SOL     OW 4405   5.123   2.536   5.444
 1169SOL    HW1 4406   5.208   2.484   5.456
 1169SOL    HW2 4407   5.074   2.501   5.365
 1170SOL     OW 4408   5.067   4.317   2.963
 1170SOL    HW1 4409   5.069   4.303   2.864
 1170SOL    HW2 4410   5.039   4.232   3.008
 1171SOL     OW 4411   0.025   6.083   0.505
 1171SOL    HW1 4412   0.093   6.126   0.445
 1171SOL    HW2 4413   6.958   6.119   0.484
 1172SOL     OW 4414   5.823   3.030   6.748
 1172SOL    HW1 4415   5.859   2.965   6.814
 1172SOL    HW2 4416   5.745   2.989   6.700
 1173SOL     OW 4417   4.684   2.640   1.591
 1173SOL    HW1 4418   4.637   2.695   1.660
 1173SOL    HW2 4419   4.734   2.566   1.635
 1174SOL     OW 4420   2.545   5.187   0.275
 1174SOL    HW1 4421   2.461   5.234   0.249
 1174SOL    HW2 4422   2.522   5.101   0.320
 1175SOL     OW 4423   3.197   4.077   3.773
 1175SOL    HW1 4424   3.170   4.157   3.720
 1175SOL    HW2 4425   3.142   4.073   3.856
 1176SOL     OW 4426   5.270   3.428   0.384
 1176SOL    HW1 4427   5.264   3.525   0.361
 1176SOL    HW2 4428   5.362   3.395   0.364
 1177SOL     OW 4429   1.159   0.871   4.609
 1177SOL    HW1 4430   1.220   0.794   4.590
 1177SOL    HW2 4431   1.067   0.838   4.625
 1178SOL     OW 4432   4.241   6.439   6.941
 1178SOL    HW1 4433   4.169   6.507   6.951
 1178SOL    HW2 4434   4.322   6.468   6.992
 1179SOL     OW 4435   0.378   5.738   0.843
 1179SOL    HW1 4436   0.280   5.726   0.833
 1179SOL    HW2 4437   0.422   5.728   0.754
 1180SOL     OW 4438   3.516   6.422   0.354
 1180SOL    HW1 4439   3.603   6.469   0.344
 1180SOL    HW2 4440   3.495   6.413   0.451
 1181SOL     OW 4441   6.255   6.277   6.441
 1181SOL    HW1 4442   6.189   6.273   6.516
 1181SOL    HW2 4443   6.241   6.198   6.381
 1182SOL     OW 4444   4.940   3.845   4.324
 1182SOL    HW1 4445   4.952   3.749   4.351
 1182SOL    HW2 4446   5.026   3.880   4.287
 1183SOL     OW 4447   2.059   4.462   0.351
 1183SOL    HW1 4448   2.025   4.501   0.436
 1183SOL    HW2 4449   2.116   4.383   0.371
 1184SOL     OW 4450   0.402   1.535   5.404
 1184SOL    HW1 4451   0.482   1.484   5.373
 1184SOL    HW2 4452   0.351   1.480   5.470
 1185SOL     OW 4453   6.748   1.835   6.383
 1185SOL    HW1 4454   6.730   1.737   6.368
 1185SOL    HW2 4455   6.713   1.887   6.305
 1186SOL     OW 4456   4.923   6.486   4.313
 1186SOL    HW1 4457   4.949   6.563   4.371
 1186SOL    HW2 4458   4.933   6.401   4.364
 1187SOL     OW 4459   5.998   2.110   6.928
 1187SOL    HW1 4460   6.084   2.066   6.955
 1187SOL    HW2 4461   5.986   2.195   6.981
 1188SOL     OW 4462   4.374   1.873   6.506
 1188SOL    HW1 4463   4.311   1.878   6.430
 1188SOL    HW2 4464   4.368   1.783   6.549
 1189SOL     OW 4465   6.321   3.709   3.726
 1189SOL    HW1 4466   6.249   3.693   3.793
 1189SOL    HW2 4467   6.389   3.771   3.764
 1190SOL     OW 4468   2.740   0.731   3.582
 1190SOL    HW1 4469   2.654   0.755   3.627
 1190SOL    HW2 4470   2.815   0.737   3.647
 1191SOL     OW 4471   3.198   0.160   2.958
 1191SOL    HW1 4472   3.144   0.077   2.949
 1191SOL    HW2 4473   3.294   0.136   2.970
 1192SOL     OW 4474   5.847   5.619   3.944
 1192SOL    HW1 4475   5.782   5.694   3.957
 1192SOL    HW2 4476   5.816   5.562   3.867
 1193SOL     OW 4477   6.629   6.433   4.654
 1193SOL    HW1 4478   6.707   6.472   4.606
 1193SOL    HW2 4479   6.639   6.447   4.753
 1194SOL     OW 4480   3.661   0.423   1.116
 1194SOL    HW1 4481   3.724   0.462   1.183
 1194SOL    HW2 4482   3.680   0.325   1.107
 1195SOL     OW 4483   5.243   2.815   2.850
 1195SOL    HW1 4484   5.197   2.741   2.802
 1195SOL    HW2 4485   5.301   2.866   2.786
 1196SOL     OW 4486   0.290   6.702   5.194
 1196SOL    HW1 4487   0.362   6.634   5.204
 1196SOL    HW2 4488   0.323   6.777   5.136
 1197SOL     OW 4489   2.690   6.443   6.384
 1197SOL    HW1 4490   2.620   6.496   6.336
 1197SOL    HW2 4491   2.715   6.489   6.469
 1198SOL     OW 4492   1.451   2.742   0.360
 1198SOL    HW1 4493   1.521   2.811   0.373
 1198SOL    HW2 4494   1.455   2.707   0.266
 1199SOL     OW 4495   5.651   4.409   2.805
 1199SOL    HW1 4496   5.678   4.345   2.734
 1199SOL    HW2 4497   5.658   4.503   2.770
 1200SOL     OW 4498   3.356   4.160   2.336
 1200SOL    HW1 4499   3.310   4.246   2.315
 1200SOL    HW2 4500   3.293   4.083   2.322
 1201SOL     OW 4501   1.748   2.412   5.285
 1201SOL    HW1 4502   1.684   2.364   5.225
 1201SOL    HW2 4503   1.728   2.389   5.380
 1202SOL     OW 4504   0.972   6.324   5.005
 1202SOL    HW1 4505   1.051   6.342   4.946
 1202SOL    HW2 4506   0.971   6.228   5.032
 1203SOL     OW 4507   4.390   5.464   4.937
 1203SOL    HW1 4508   4.384   5.546   4.994
 1203SOL    HW2 4509   4.392   5.383   4.995
 1204SOL     OW 4510   2.164   0.124   2.448
 1204SOL    HW1 4511   2.221   0.059   2.396
 1204SOL    HW2 4512   2.069   0.117   2.417
 1205SOL     OW 4513   5.792   3.679   2.462
 1205SOL    HW1 4514   5.709   3.635   2.428
 1205SOL    HW2 4515   5.839   3.725   2.386
 1206SOL     OW 4516   3.091   3.350   4.425
 1206SOL    HW1 4517   3.150   3.399   4.488
 1206SOL    HW2 4518   3.072   3.258   4.461
 1207SOL     OW 4519   0.742   5.711   3.346
 1207SOL    HW1 4520   0.654   5.680   3.381
 1207SOL    HW2 4521   0.771   5.793   3.395
 1208SOL     OW 4522   3.398   2.799   6.622
 1208SOL    HW1 4523   3.488   2.781   6.662
 1208SOL    HW2 4524   3.400   2.885   6.572
 1209SOL     OW 4525   4.106   6.660   5.237
 1209SOL    HW1 4526   4.168   6.738   5.232
 1209SOL    HW2 4527   4.013   6.692   5.253
 1210SOL     OW 4528   2.950   1.132   2.716
 1210SOL    HW1 4529   2.957   1.231   2.729
 1210SOL    HW2 4530   2.985   1.086   2.798
 1211SOL     OW 4531   0.961   2.946   0.756
 1211SOL    HW1 4532   0.915   2.983   0.675
 1211SOL    HW2 4533   1.057   2.925   0.734
 1212SOL     OW 4534   0.775   6.722   0.423
 1212SOL    HW1 4535   0.747   6.711   0.518
 1212SOL    HW2 4536   0.720   6.662   0.365
 1213SOL     OW 4537   5.928   2.872   2.195
 1213SOL    HW1 4538   5.894   2.889   2.102
 1213SOL    HW2 4539   6.024   2.899   2.201
 1214SOL     OW 4540   0.322   2.479   2.127
 1214SOL    HW1 4541   0.361   2.527   2.206
 1214SOL    HW2 4542   0.224   2.464   2.142
 1215SOL     OW 4543   2.437   5.728   2.854
 1215SOL    HW1 4544   2.481   5.724   2.765
 1215SOL    HW2 4545   2.386   5.644   2.871
 1216SOL     OW 4546   4.575   6.920   1.791
 1216SOL    HW1 4547   4.642   6.986   1.755
 1216SOL    HW2 4548   4.622   6.855   1.851
 1217SOL     OW 4549   2.713   4.290   0.169
 1217SOL    HW1 4550   2.630   4.333   0.135
 1217SOL    HW2 4551   2.716   4.299   0.269
 1218SOL     OW 4552   2.606   5.082   4.175
 1218SOL    HW1 4553   2.596   4.992   4.132
 1218SOL    HW2 4554   2.554   5.084   4.261
 1219SOL     OW 4555   3.708   5.176   1.785
 1219SOL    HW1 4556   3.793   5.141   1.744
 1219SOL    HW2 4557   3.637   5.106   1.778
 1220SOL     OW 4558   0.791   4.880   2.003
 1220SOL    HW1 4559   0.718   4.825   2.046
 1220SOL    HW2 4560   0.832   4.940   2.072
 1221SOL     OW 4561   4.512   4.266   6.861
 1221SOL    HW1 4562   4.578   4.309   6.799
 1221SOL    HW2 4563   4.559   4.230   6.941
 1222SOL     OW 4564   6.878   1.247   6.420
 1222SOL    HW1 4565   6.947   1.209   6.358
 1222SOL    HW2 4566   6.874   1.192   6.503
 1223SOL     OW 4567   4.118   5.878   1.181
 1223SOL    HW1 4568   4.143   5.786   1.212
 1223SOL    HW2 4569   4.202   5.931   1.164
 1224SOL     OW 4570   3.091   1.424   1.307
 1224SOL    HW1 4571   3.175   1.389   1.350
 1224SOL    HW2 4572   3.014   1.365   1.332
 1225SOL     OW 4573   3.707   4.513   5.915
 1225SOL    HW1 4574   3.613   4.531   5.889
 1225SOL    HW2 4575   3.767   4.582   5.873
 1226SOL     OW 4576   2.273   5.283   0.507
 1226SOL    HW1 4577   2.244   5.248   0.596
 1226SOL    HW2 4578   2.194   5.326   0.462
 1227SOL     OW 4579   1.469   4.214   5.786
 1227SOL    HW1 4580   1.415   4.163   5.718
 1227SOL    HW2 4581   1.461   4.312   5.767
 1228SOL     OW 4582   3.877   2.259   6.883
 1228SOL    HW1 4583   3.919   2.349   6.869
 1228SOL    HW2 4584   3.949   2.189   6.885
 1229SOL     OW 4585   2.860   3.851   0.116
 1229SOL    HW1 4586   2.912   3.884   0.195
 1229SOL    HW2 4587   2.853   3.924   0.048
 1230SOL     OW 4588   4.515   0.103   3.614
 1230SOL    HW1 4589   4.454   0.182   3.621
 1230SOL    HW2 4590   4.576   0.101   3.693
 1231SOL     OW 4591   0.779   3.328   3.524
 1231SOL    HW1 4592   0.753   3.251   3.465
 1231SOL    HW2 4593   0.766   3.413   3.474
 1232SOL     OW 4594   1.724   2.198   2.453
 1232SOL    HW1 4595   1.661   2.206   2.376
 1232SOL    HW2 4596   1.688   2.248   2.531
 1233SOL     OW 4597   0.892   1.968   4.464
 1233SOL    HW1 4598   0.802   1.966   4.507
 1233SOL    HW2 4599   0.948   2.039   4.506
 1234SOL     OW 4600   6.620   4.686   4.588
 1234SOL    HW1 4601   6.605   4.594   4.623
 1234SOL    HW2 4602   6.563   4.700   4.507
 1235SOL     OW 4603   6.885   4.955   3.320
 1235SOL    HW1 4604   6.882   5.055   3.315
 1235SOL    HW2 4605   6.931   4.918   3.240
 1236SOL     OW 4606   5.761   0.693   0.015
 1236SOL    HW1 4607   5.818   0.612   0.019
 1236SOL    HW2 4608   5.763   0.732   6.947
 1237SOL     OW 4609   1.979   4.478   6.714
 1237SOL    HW1 4610   2.039   4.534   6.770
 1237SOL    HW2 4611   1.885   4.488   6.745
 1238SOL     OW 4612   2.005   1.346   1.303
 1238SOL    HW1 4613   1.991   1.315   1.209
 1238SOL    HW2 4614   1.926   1.399   1.334
 1239SOL     OW 4615   0.868   0.330   5.832
 1239SOL    HW1 4616   0.845   0.337   5.929
 1239SOL    HW2 4617   0.963   0.298   5.823
 1240SOL     OW 4618   5.919   5.047   1.036
 1240SOL    HW1 4619   5.872   4.986   0.972
 1240SOL    HW2 4620   5.915   5.141   1.001
 1241SOL     OW 4621   0.484   1.856   4.329
 1241SOL    HW1 4622   0.480   1.946   4.284
 1241SOL    HW2 4623   0.460   1.866   4.426
 1242SOL     OW 4624   1.640   2.426   6.601
 1242SOL    HW1 4625   1.738   2.435   6.616
 1242SOL    HW2 4626   1.614   2.473   6.517
 1243SOL     OW 4627   3.546   4.768   5.295
 1243SOL    HW1 4628   3.463   4.735   5.340
 1243SOL    HW2 4629   3.625   4.717   5.329
 1244SOL     OW 4630   1.049   1.330   3.379
 1244SOL    HW1 4631   1.085   1.423   3.373
 1244SOL    HW2 4632   0.952   1.333   3.404
 1245SOL     OW 4633   3.329   2.869   5.139
 1245SOL    HW1 4634   3.289   2.846   5.050
 1245SOL    HW2 4635   3.256   2.893   5.203
 1246SOL     OW 4636   1.753   6.222   1.785
 1246SOL    HW1 4637   1.821   6.187   1.849
 1246SOL    HW2 4638   1.663   6.221   1.828
 1247SOL     OW 4639   0.816   6.284   6.419
 1247SOL    HW1 4640   0.739   6.343   6.396
 1247SOL    HW2 4641   0.797   6.235   6.504
 1248SOL     OW 4642   2.304   7.017   4.029
 1248SOL    HW1 4643   2.376   0.014   4.095
 1248SOL    HW2 4644   2.271   0.079   3.988
 1249SOL     OW 4645   6.392   2.803   3.470
 1249SOL    HW1 4646   6.323   2.867   3.437
 1249SOL    HW2 4647   6.364   2.766   3.558
 1250SOL     OW 4648   6.955   3.385   4.621
 1250SOL    HW1 4649   6.930   3.482   4.627
 1250SOL    HW2 4650   6.949   3.355   4.526
 1251SOL     OW 4651   3.292   1.186   6.474
 1251SOL    HW1 4652   3.283   1.090   6.448
 1251SOL    HW2 4653   3.210   1.214   6.525
 1252SOL     OW 4654   3.734   3.682   0.334
 1252SOL    HW1 4655   3.649   3.714   0.376
 1252SOL    HW2 4656   3.771   3.606   0.387
 1253SOL     OW 4657   4.555   1.681   3.146
 1253SOL    HW1 4658   4.472   1.702   3.198
 1253SOL    HW2 4659   4.535   1.610   3.079
 1254SOL     OW 4660   5.581   1.014   3.713
 1254SOL    HW1 4661   5.501   1.058   3.672
 1254SOL    HW2 4662   5.595   1.050   3.806
 1255SOL     OW 4663   5.630   0.596   1.596
 1255SOL    HW1 4664   5.677   0.531   1.654
 1255SOL    HW2 4665   5.697   0.660   1.556
 1256SOL     OW 4666   5.243   3.172   3.445
 1256SOL    HW1 4667   5.224   3.196   3.350
 1256SOL    HW2 4668   5.317   3.105   3.448
 1257SOL     OW 4669   6.205   1.500   4.191
 1257SOL    HW1 4670   6.187   1.460   4.281
 1257SOL    HW2 4671   6.181   1.597   4.192
 1258SOL     OW 4672   7.021   4.762   4.161
 1258SOL    HW1 4673   7.001   4.702   4.084
 1258SOL    HW2 4674   0.092   4.748   4.191
 1259SOL     OW 4675   5.472   2.318   4.921
 1259SOL    HW1 4676   5.465   2.228   4.878
 1259SOL    HW2 4677   5.386   2.339   4.968
 1260SOL     OW 4678   0.601   1.720   4.568
 1260SOL    HW1 4679   0.536   1.680   4.633
 1260SOL    HW2 4680   0.630   1.650   4.503
 1261SOL     OW 4681   0.005   3.095   1.307
 1261SOL    HW1 4682   6.970   3.099   1.388
 1261SOL    HW2 4683   0.007   3.001   1.272
 1262SOL     OW 4684   5.308   6.302   1.911
 1262SOL    HW1 4685   5.228   6.245   1.891
 1262SOL    HW2 4686   5.381   6.281   1.847
 1263SOL     OW 4687   1.243   1.756   2.994
 1263SOL    HW1 4688   1.196   1.796   2.916
 1263SOL    HW2 4689   1.335   1.794   3.002
 1264SOL     OW 4690   1.251   3.161   5.328
 1264SOL    HW1 4691   1.347   3.181   5.312
 1264SOL    HW2 4692   1.241   3.116   5.417
 1265SOL     OW 4693   6.563   0.629   6.128
 1265SOL    HW1 4694   6.609   0.706   6.172
 1265SOL    HW2 4695   6.613   0.545   6.148
 1266SOL     OW 4696   3.788   2.003   5.737
 1266SOL    HW1 4697   3.887   1.994   5.728
 1266SOL    HW2 4698   3.745   1.914   5.719
 1267SOL     OW 4699   3.164   1.334   2.127
 1267SOL    HW1 4700   3.164   1.344   2.027
 1267SOL    HW2 4701   3.256   1.314   2.158
 1268SOL     OW 4702   4.247   2.228   5.307
 1268SOL    HW1 4703   4.286   2.146   5.349
 1268SOL    HW2 4704   4.150   2.235   5.331
 1269SOL     OW 4705   5.203   1.937   3.066
 1269SOL    HW1 4706   5.297   1.969   3.073
 1269SOL    HW2 4707   5.197   1.844   3.103
 1270SOL     OW 4708   6.113   5.519   3.541
 1270SOL    HW1 4709   6.077   5.507   3.448
 1270SOL    HW2 4710   6.183   5.450   3.559
 1271SOL     OW 4711   1.526   0.098   2.274
 1271SOL    HW1 4712   1.442   0.045   2.285
 1271SOL    HW2 4713   1.507   0.178   2.217
 1272SOL     OW 4714   6.352   2.243   0.641
 1272SOL    HW1 4715   6.396   2.167   0.688
 1272SOL    HW2 4716   6.374   2.328   0.689
 1273SOL     OW 4717   2.235   4.306   5.435
 1273SOL    HW1 4718   2.211   4.379   5.499
 1273SOL    HW2 4719   2.329   4.319   5.403
 1274SOL     OW 4720   6.870   4.545   4.742
 1274SOL    HW1 4721   6.842   4.450   4.750
 1274SOL    HW2 4722   6.894   4.565   4.647
 1275SOL     OW 4723   1.599   1.250   2.870
 1275SOL    HW1 4724   1.651   1.221   2.951
 1275SOL    HW2 4725   1.603   1.349   2.862
 1276SOL     OW 4726   5.650   4.223   3.815
 1276SOL    HW1 4727   5.684   4.183   3.730
 1276SOL    HW2 4728   5.583   4.161   3.856
 1277SOL     OW 4729   1.526   6.229   6.216
 1277SOL    HW1 4730   1.597   6.161   6.199
 1277SOL    HW2 4731   1.458   6.192   6.278
 1278SOL     OW 4732   0.148   6.705   2.626
 1278SOL    HW1 4733   0.109   6.617   2.600
 1278SOL    HW2 4734   0.225   6.727   2.566
 1279SOL     OW 4735   3.145   2.476   0.611
 1279SOL    HW1 4736   3.076   2.475   0.539
 1279SOL    HW2 4737   3.100   2.486   0.700
 1280SOL     OW 4738   2.964   2.234   3.269
 1280SOL    HW1 4739   2.989   2.221   3.173
 1280SOL    HW2 4740   2.865   2.221   3.279
 1281SOL     OW 4741   5.617   5.780   5.545
 1281SOL    HW1 4742   5.569   5.863   5.576
 1281SOL    HW2 4743   5.661   5.736   5.622
 1282SOL     OW 4744   0.968   2.725   1.168
 1282SOL    HW1 4745   0.980   2.626   1.179
 1282SOL    HW2 4746   1.033   2.758   1.099
 1283SOL     OW 4747   1.632   0.532   4.548
 1283SOL    HW1 4748   1.588   0.470   4.612
 1283SOL    HW2 4749   1.731   0.519   4.550
 1284SOL     OW 4750   3.865   2.402   1.721
 1284SOL    HW1 4751   3.780   2.376   1.766
 1284SOL    HW2 4752   3.943   2.375   1.778
 1285SOL     OW 4753   3.907   1.677   4.741
 1285SOL    HW1 4754   3.852   1.646   4.664
 1285SOL    HW2 4755   3.849   1.728   4.805
 1286SOL     OW 4756   5.110   1.119   2.437
 1286SOL    HW1 4757   5.116   1.156   2.530
 1286SOL    HW2 4758   5.022   1.072   2.425
 1287SOL     OW 4759   5.708   4.910   6.989
 1287SOL    HW1 4760   5.660   4.996   7.007
 1287SOL    HW2 4761   5.781   4.898   0.032
 1288SOL     OW 4762   4.778   4.742   6.110
 1288SOL    HW1 4763   4.795   4.656   6.063
 1288SOL    HW2 4764   4.740   4.724   6.201
 1289SOL     OW 4765   1.490   6.749   0.677
 1289SOL    HW1 4766   1.488   6.849   0.678
 1289SOL    HW2 4767   1.526   6.718   0.588
 1290SOL     OW 4768   1.406   6.730   4.213
 1290SOL    HW1 4769   1.327   6.712   4.271
 1290SOL    HW2 4770   1.472   6.786   4.264
 1291SOL     OW 4771   5.250   5.735   3.456
 1291SOL    HW1 4772   5.298   5.684   3.527
 1291SOL    HW2 4773   5.306   5.740   3.374
 1292SOL     OW 4774   7.014   6.905   2.698
 1292SOL    HW1 4775   0.047   6.829   2.665
 1292SOL    HW2 4776   0.046   6.965   2.756
 1293SOL     OW 4777   4.846   6.915   0.891
 1293SOL    HW1 4778   4.794   6.910   0.977
 1293SOL    HW2 4779   4.944   6.904   0.911
 1294SOL     OW 4780   2.231   4.588   5.589
 1294SOL    HW1 4781   2.261   4.649   5.517
 1294SOL    HW2 4782   2.303   4.577   5.657
 1295SOL     OW 4783   0.015   4.617   0.317
 1295SOL    HW1 4784   0.085   4.684   0.342
 1295SOL    HW2 4785   0.041   4.528   0.352
 1296SOL     OW 4786   3.736   1.138   5.949
 1296SOL    HW1 4787   3.769   1.160   6.041
 1296SOL    HW2 4788   3.794   1.184   5.881
 1297SOL     OW 4789   6.133   6.885   0.234
 1297SOL    HW1 4790   6.168   6.969   0.275
 1297SOL    HW2 4791   6.143   6.810   0.299
 1298SOL     OW 4792   5.200   0.198   3.364
 1298SOL    HW1 4793   5.205   0.124   3.296
 1298SOL    HW2 4794   5.237   0.282   3.324
 1299SOL     OW 4795   0.904   4.758   4.853
 1299SOL    HW1 4796   0.961   4.839   4.838
 1299SOL    HW2 4797   0.820   4.785   4.902
 1300SOL     OW 4798   1.487   5.441   0.126
 1300SOL    HW1 4799   1.546   5.378   0.074
 1300SOL    HW2 4800   1.508   5.535   0.099
 1301SOL     OW 4801   6.494   1.760   6.903
 1301SOL    HW1 4802   6.591   1.743   6.886
 1301SOL    HW2 4803   6.441   1.734   6.823
 1302SOL     OW 4804   6.565   6.958   4.831
 1302SOL    HW1 4805   6.592   0.025   4.797
 1302SOL    HW2 4806   6.496   6.969   4.903
 1303SOL     OW 4807   2.927   6.534   1.581
 1303SOL    HW1 4808   2.959   6.570   1.493
 1303SOL    HW2 4809   2.982   6.454   1.605
 1304SOL     OW 4810   0.118   0.839   0.504
 1304SOL    HW1 4811   0.209   0.812   0.536
 1304SOL    HW2 4812   0.125   0.925   0.454
 1305SOL     OW 4813   3.873   4.078   6.134
 1305SOL    HW1 4814   3.951   4.023   6.103
 1305SOL    HW2 4815   3.831   4.123   6.056
 1306SOL     OW 4816   2.150   6.339   4.326
 1306SOL    HW1 4817   2.207   6.257   4.329
 1306SOL    HW2 4818   2.060   6.316   4.290
 1307SOL     OW 4819   1.915   3.759   3.501
 1307SOL    HW1 4820   1.926   3.835   3.565
 1307SOL    HW2 4821   1.837   3.703   3.528
 1308SOL     OW 4822   1.054   3.935   5.634
 1308SOL    HW1 4823   1.122   3.879   5.587
 1308SOL    HW2 4824   0.981   3.959   5.571
 1309SOL     OW 4825   5.895   3.801   0.162
 1309SOL    HW1 4826   5.803   3.820   0.130
 1309SOL    HW2 4827   5.934   3.883   0.203
 1310SOL     OW 4828   2.334   2.891   3.461
 1310SOL    HW1 4829   2.319   2.989   3.458
 1310SOL    HW2 4830   2.345   2.861   3.556
 1311SOL     OW 4831   6.259   5.225   0.598
 1311SOL    HW1 4832   6.269   5.204   0.695
 1311SOL    HW2 4833   6.181   5.286   0.585
 1312SOL     OW 4834   2.230   1.495   6.804
 1312SOL    HW1 4835   2.131   1.485   6.814
 1312SOL    HW2 4836   2.255   1.591   6.815
 1313SOL     OW 4837   4.844   4.964   3.121
 1313SOL    HW1 4838   4.789   5.048   3.120
 1313SOL    HW2 4839   4.931   4.982   3.167
 1314SOL     OW 4840   2.552   1.791   3.582
 1314SOL    HW1 4841   2.646   1.808   3.552
 1314SOL    HW2 4842   2.525   1.861   3.648
 1315SOL     OW 4843   5.827   0.742   3.727
 1315SOL    HW1 4844   5.818   0.836   3.694
 1315SOL    HW2 4845   5.924   0.718   3.736
 1316SOL     OW 4846   5.211   0.321   6.072
 1316SOL    HW1 4847   5.119   0.342   6.106
 1316SOL    HW2 4848   5.228   0.223   6.082
 1317SOL     OW 4849   4.042   3.185   4.217
 1317SOL    HW1 4850   3.955   3.233   4.225
 1317SOL    HW2 4851   4.054   3.124   4.295
 1318SOL     OW 4852   1.729   1.179   6.805
 1318SOL    HW1 4853   1.696   1.159   6.898
 1318SOL    HW2 4854   1.753   1.094   6.759
 1319SOL     OW 4855   6.654   2.123   0.481
 1319SOL    HW1 4856   6.726   2.066   0.519
 1319SOL    HW2 4857   6.637   2.201   0.542
 1320SOL     OW 4858   2.580   2.587   5.804
 1320SOL    HW1 4859   2.567   2.649   5.727
 1320SOL    HW2 4860   2.494   2.580   5.855
 1321SOL     OW 4861   6.999   2.530   1.493
 1321SOL    HW1 4862   6.957   2.546   1.582
 1321SOL    HW2 4863   0.074   2.540   1.500
 1322SOL     OW 4864   2.196   2.600   0.392
 1322SOL    HW1 4865   2.172   2.652   0.474
 1322SOL    HW2 4866   2.220   2.506   0.418
 1323SOL     OW 4867   4.667   0.504   1.173
 1323SOL    HW1 4868   4.589   0.545   1.220
 1323SOL    HW2 4869   4.652   0.505   1.075
 1324SOL     OW 4870   2.362   3.968   6.311
 1324SOL    HW1 4871   2.374   3.977   6.212
 1324SOL    HW2 4872   2.428   4.026   6.358
 1325SOL     OW 4873   4.406   4.942   4.332
 1325SOL    HW1 4874   4.350   4.968   4.410
 1325SOL    HW2 4875   4.484   4.888   4.363
 1326SOL     OW 4876   4.161   1.463   5.050
 1326SOL    HW1 4877   4.203   1.546   5.015
 1326SOL    HW2 4878   4.062   1.466   5.035
 1327SOL     OW 4879   4.953   5.786   1.821
 1327SOL    HW1 4880   5.013   5.712   1.850
 1327SOL    HW2 4881   4.882   5.801   1.890
 1328SOL     OW 4882   1.353   2.240   5.368
 1328SOL    HW1 4883   1.330   2.291   5.285
 1328SOL    HW2 4884   1.370   2.305   5.442
 1329SOL     OW 4885   1.418   2.852   4.192
 1329SOL    HW1 4886   1.461   2.930   4.237
 1329SOL    HW2 4887   1.349   2.812   4.252
 1330SOL     OW 4888   6.447   3.095   2.341
 1330SOL    HW1 4889   6.536   3.140   2.337
 1330SOL    HW2 4890   6.447   3.027   2.414
 1331SOL     OW 4891   3.452   1.717   2.628
 1331SOL    HW1 4892   3.516   1.784   2.590
 1331SOL    HW2 4893   3.370   1.763   2.661
 1332SOL     OW 4894   2.364   6.314   6.871
 1332SOL    HW1 4895   2.371   6.382   6.944
 1332SOL    HW2 4896   2.450   6.262   6.867
 1333SOL     OW 4897   3.541   3.563   2.187
 1333SOL    HW1 4898   3.529   3.653   2.229
 1333SOL    HW2 4899   3.493   3.495   2.242
 1334SOL     OW 4900   0.357   4.095   1.430
 1334SOL    HW1 4901   0.392   4.188   1.433
 1334SOL    HW2 4902   0.411   4.037   1.492
 1335SOL     OW 4903   0.186   3.392   3.222
 1335SOL    HW1 4904   0.242   3.406   3.303
 1335SOL    HW2 4905   0.153   3.297   3.220
 1336SOL     OW 4906   2.222   6.485   5.778
 1336SOL    HW1 4907   2.286   6.526   5.712
 1336SOL    HW2 4908   2.274   6.435   5.847
 1337SOL     OW 4909   0.247   6.950   1.799
 1337SOL    HW1 4910   0.340   6.921   1.819
 1337SOL    HW2 4911   0.184   6.874   1.815
 1338SOL     OW 4912   0.520   4.263   4.965
 1338SOL    HW1 4913   0.440   4.324   4.962
 1338SOL    HW2 4914   0.508   4.191   4.897
 1339SOL     OW 4915   5.188   1.252   6.827
 1339SOL    HW1 4916   5.254   1.254   6.901
 1339SOL    HW2 4917   5.201   1.332   6.768
 1340SOL     OW 4918   2.440   2.529   1.006
 1340SOL    HW1 4919   2.481   2.597   1.066
 1340SOL    HW2 4920   2.502   2.509   0.930
 1341SOL     OW 4921   6.060   6.175   6.661
 1341SOL    HW1 4922   6.087   6.143   6.752
 1341SOL    HW2 4923   5.981   6.122   6.629
 1342SOL     OW 4924   1.934   5.825   1.694
 1342SOL    HW1 4925   1.976   5.741   1.660
 1342SOL    HW2 4926   1.995   5.902   1.675
 1343SOL     OW 4927   5.060   5.885   2.919
 1343SOL    HW1 4928   5.025   5.937   2.841
 1343SOL    HW2 4929   4.991   5.882   2.991
 1344SOL     OW 4930   1.349   0.802   3.675
 1344SOL    HW1 4931   1.364   0.729   3.742
 1344SOL    HW2 4932   1.425   0.803   3.610
 1345SOL     OW 4933   1.225   6.649   5.529
 1345SOL    HW1 4934   1.161   6.709   5.576
 1345SOL    HW2 4935   1.264   6.584   5.595
 1346SOL     OW 4936   3.169   5.954   3.753
 1346SOL    HW1 4937   3.197   5.881   3.815
 1346SOL    HW2 4938   3.096   6.008   3.796
 1347SOL     OW 4939   0.329   1.079   6.285
 1347SOL    HW1 4940   0.400   1.009   6.275
 1347SOL    HW2 4941   0.241   1.036   6.304
 1348SOL     OW 4942   1.543   6.742   4.719
 1348SOL    HW1 4943   1.531   6.774   4.812
 1348SOL    HW2 4944   1.635   6.705   4.708
 1349SOL     OW 4945   5.175   3.563   4.060
 1349SOL    HW1 4946   5.136   3.504   3.989
 1349SOL    HW2 4947   5.198   3.651   4.019
 1350SOL     OW 4948   5.411   4.716   6.570
 1350SOL    HW1 4949   5.406   4.740   6.667
 1350SOL    HW2 4950   5.334   4.758   6.522
 1351SOL     OW 4951   6.812   3.317   6.989
 1351SOL    HW1 4952   6.899   3.279   6.958
 1351SOL    HW2 4953   6.809   3.318   0.065
 1352SOL     OW 4954   6.968   1.192   3.223
 1352SOL    HW1 4955   6.961   1.209   3.321
 1352SOL    HW2 4956   6.921   1.107   3.201
 1353SOL     OW 4957   6.822   3.255   6.349
 1353SOL    HW1 4958   6.895   3.319   6.374
 1353SOL    HW2 4959   6.832   3.230   6.253
 1354SOL     OW 4960   4.941   4.580   2.803
 1354SOL    HW1 4961   4.857   4.595   2.750
 1354SOL    HW2 4962   4.946   4.646   2.877
 1355SOL     OW 4963   3.798   3.610   4.441
 1355SOL    HW1 4964   3.749   3.682   4.491
 1355SOL    HW2 4965   3.815   3.640   4.347
 1356SOL     OW 4966   2.931   3.368   6.751
 1356SOL    HW1 4967   2.860   3.320   6.700
 1356SOL    HW2 4968   2.977   3.304   6.813
 1357SOL     OW 4969   0.541   3.202   5.309
 1357SOL    HW1 4970   0.551   3.302   5.305
 1357SOL    HW2 4971   0.576   3.162   5.224
 1358SOL     OW 4972   2.325   6.659   6.555
 1358SOL    HW1 4973   2.343   6.638   6.651
 1358SOL    HW2 4974   2.235   6.702   6.547
 1359SOL     OW 4975   6.025   5.214   0.204
 1359SOL    HW1 4976   5.946   5.237   0.261
 1359SOL    HW2 4977   6.096   5.172   0.261
 1360SOL     OW 4978   2.035   1.441   5.865
 1360SOL    HW1 4979   1.982   1.361   5.838
 1360SOL    HW2 4980   2.123   1.440   5.818
 1361SOL     OW 4981   6.122   5.049   4.804
 1361SOL    HW1 4982   6.188   5.113   4.765
 1361SOL    HW2 4983   6.117   4.967   4.745
 1362SOL     OW 4984   3.041   3.941   3.999
 1362SOL    HW1 4985   3.039   3.844   4.021
 1362SOL    HW2 4986   2.957   3.965   3.949
 1363SOL     OW 4987   0.188   6.765   3.719
 1363SOL    HW1 4988   0.118   6.834   3.703
 1363SOL    HW2 4989   0.166   6.683   3.666
 1364SOL     OW 4990   3.568   4.204   0.321
 1364SOL    HW1 4991   3.559   4.112   0.283
 1364SOL    HW2 4992   3.632   4.202   0.398
 1365SOL     OW 4993   5.189   2.238   5.939
 1365SOL    HW1 4994   5.210   2.141   5.927
 1365SOL    HW2 4995   5.253   2.279   6.004
 1366SOL     OW 4996   1.805   0.763   4.874
 1366SOL    HW1 4997   1.777   0.669   4.889
 1366SOL    HW2 4998   1.728   0.825   4.893
 1367SOL     OW 4999   2.433   1.481   1.750
 1367SOL    HW1 5000   2.439   1.566   1.698
 1367SOL    HW2 5001   2.464   1.497   1.844
 1368SOL     OW 5002   6.639   0.987   3.343
 1368SOL    HW1 5003   6.681   0.901   3.371
 1368SOL    HW2 5004   6.588   1.026   3.419
 1369SOL     OW 5005   0.214   0.071   2.628
 1369SOL    HW1 5006   0.301   0.075   2.579
 1369SOL    HW2 5007   0.181   0.164   2.646
 1370SOL     OW 5008   0.823   1.209   2.901
 1370SOL    HW1 5009   0.884   1.135   2.874
 1370SOL    HW2 5010   0.858   1.296   2.866
 1371SOL     OW 5011   2.344   0.262   5.588
 1371SOL    HW1 5012   2.439   0.287   5.610
 1371SOL    HW2 5013   2.297   0.234   5.672
 1372SOL     OW 5014   2.818   1.898   1.445
 1372SOL    HW1 5015   2.800   1.805   1.415
 1372SOL    HW2 5016   2.910   1.925   1.416
 1373SOL     OW 5017   1.525   5.433   6.034
 1373SOL    HW1 5018   1.501   5.460   5.941
 1373SOL    HW2 5019   1.604   5.372   6.031
 1374SOL     OW 5020   5.743   3.536   4.371
 1374SOL    HW1 5021   5.662   3.537   4.312
 1374SOL    HW2 5022   5.723   3.584   4.456
 1375SOL     OW 5023   0.844   4.388   4.048
 1375SOL    HW1 5024   0.860   4.399   3.950
 1375SOL    HW2 5025   0.919   4.430   4.098
 1376SOL     OW 5026   4.748   0.419   2.457
 1376SOL    HW1 5027   4.748   0.426   2.556
 1376SOL    HW2 5028   4.801   0.339   2.429
 1377SOL     OW 5029   0.094   4.237   4.925
 1377SOL    HW1 5030   0.001   4.242   4.963
 1377SOL    HW2 5031   0.141   4.323   4.941
 1378SOL     OW 5032   1.749   1.531   0.182
 1378SOL    HW1 5033   1.654   1.531   0.213
 1378SOL    HW2 5034   1.800   1.603   0.229
 1379SOL     OW 5035   4.516   5.242   1.878
 1379SOL    HW1 5036   4.558   5.315   1.932
 1379SOL    HW2 5037   4.424   5.270   1.849
 1380SOL     OW 5038   5.888   5.308   2.996
 1380SOL    HW1 5039   5.865   5.241   2.926
 1380SOL    HW2 5040   5.905   5.261   3.083
 1381SOL     OW 5041   4.226   6.688   2.834
 1381SOL    HW1 5042   4.321   6.678   2.805
 1381SOL    HW2 5043   4.193   6.780   2.810
 1382SOL     OW 5044   0.061   4.044   0.752
 1382SOL    HW1 5045   0.034   4.072   0.660
 1382SOL    HW2 5046   7.009   3.995   0.796
 1383SOL     OW 5047   3.224   0.117   0.703
 1383SOL    HW1 5048   3.157   0.045   0.723
 1383SOL    HW2 5049   3.303   0.077   0.657
 1384SOL     OW 5050   1.006   1.384   2.293
 1384SOL    HW1 5051   1.028   1.475   2.328
 1384SOL    HW2 5052   0.963   1.330   2.366
 1385SOL     OW 5053   4.992   3.540   4.294
 1385SOL    HW1 5054   4.985   3.448   4.334
 1385SOL    HW2 5055   5.078   3.548   4.244
 1386SOL     OW 5056   2.694   2.336   2.942
 1386SOL    HW1 5057   2.718   2.326   3.039
 1386SOL    HW2 5058   2.650   2.425   2.928
 1387SOL     OW 5059   3.453   0.936   4.336
 1387SOL    HW1 5060   3.445   0.997   4.257
 1387SOL    HW2 5061   3.426   0.843   4.309
 1388SOL     OW 5062   4.866   2.361   3.671
 1388SOL    HW1 5063   4.815   2.321   3.748
 1388SOL    HW2 5064   4.959   2.383   3.701
 1389SOL     OW 5065   6.826   0.924   4.611
 1389SOL    HW1 5066   6.794   0.836   4.645
 1389SOL    HW2 5067   6.767   0.955   4.536
 1390SOL     OW 5068   5.570   2.264   2.537
 1390SOL    HW1 5069   5.564   2.304   2.445
 1390SOL    HW2 5070   5.653   2.209   2.544
 1391SOL     OW 5071   5.854   0.983   5.449
 1391SOL    HW1 5072   5.856   0.916   5.374
 1391SOL    HW2 5073   5.794   1.059   5.424
 1392SOL     OW 5074   3.120   6.776   4.848
 1392SOL    HW1 5075   3.170   6.703   4.895
 1392SOL    HW2 5076   3.158   6.790   4.757
 1393SOL     OW 5077   4.878   6.632   6.888
 1393SOL    HW1 5078   4.843   6.670   6.802
 1393SOL    HW2 5079   4.976   6.616   6.881
 1394SOL     OW 5080   4.193   1.241   4.840
 1394SOL    HW1 5081   4.118   1.307   4.832
 1394SOL    HW2 5082   4.241   1.236   4.753
 1395SOL     OW 5083   0.919   4.887   2.637
 1395SOL    HW1 5084   0.878   4.936   2.714
 1395SOL    HW2 5085   1.012   4.920   2.623
 1396SOL     OW 5086   1.491   1.481   3.113
 1396SOL    HW1 5087   1.559   1.555   3.112
 1396SOL    HW2 5088   1.504   1.425   3.195
 1397SOL     OW 5089   2.377   4.606   5.817
 1397SOL    HW1 5090   2.407   4.664   5.893
 1397SOL    HW2 5091   2.456   4.575   5.765
 1398SOL     OW 5092   3.163   0.001   6.192
 1398SOL    HW1 5093   3.069   0.020   6.163
 1398SOL    HW2 5094   3.200   6.950   6.137
 1399SOL     OW 5095   3.629   6.898   0.185
 1399SOL    HW1 5096   3.654   6.895   0.282
 1399SOL    HW2 5097   3.710   6.917   0.130
 1400SOL     OW 5098   0.510   1.988   5.691
 1400SOL    HW1 5099   0.519   2.088   5.688
 1400SOL    HW2 5100   0.565   1.948   5.618
 1401SOL     OW 5101   4.430   6.968   2.472
 1401SOL    HW1 5102   4.486   6.995   2.550
 1401SOL    HW2 5103   4.402   6.872   2.482
 1402SOL     OW 5104   5.131   4.244   2.316
 1402SOL    HW1 5105   5.066   4.239   2.240
 1402SOL    HW2 5106   5.099   4.188   2.392
 1403SOL     OW 5107   3.012   2.575   6.669
 1403SOL    HW1 5108   3.008   2.594   6.767
 1403SOL    HW2 5109   3.107   2.566   6.641
 1404SOL     OW 5110   4.021   5.808   6.684
 1404SOL    HW1 5111   4.038   5.763   6.596
 1404SOL    HW2 5112   3.930   5.783   6.717
 1405SOL     OW 5113   0.792   4.312   6.790
 1405SOL    HW1 5114   0.856   4.316   6.713
 1405SOL    HW2 5115   0.837   4.346   6.872
 1406SOL     OW 5116   1.991   2.149   0.341
 1406SOL    HW1 5117   1.938   2.229   0.312
 1406SOL    HW2 5118   1.928   2.075   0.365
 1407SOL     OW 5119   6.706   2.787   1.307
 1407SOL    HW1 5120   6.723   2.868   1.364
 1407SOL    HW2 5121   6.668   2.714   1.363
 1408SOL     OW 5122   5.754   5.804   1.362
 1408SOL    HW1 5123   5.726   5.828   1.269
 1408SOL    HW2 5124   5.694   5.732   1.397
 1409SOL     OW 5125   5.823   2.187   5.874
 1409SOL    HW1 5126   5.730   2.164   5.845
 1409SOL    HW2 5127   5.865   2.249   5.807
 1410SOL     OW 5128   3.478   0.689   0.540
 1410SOL    HW1 5129   3.555   0.650   0.590
 1410SOL    HW2 5130   3.444   0.769   0.589
 1411SOL     OW 5131   3.295   0.235   6.969
 1411SOL    HW1 5132   3.246   0.305   7.022
 1411SOL    HW2 5133   3.386   0.221   7.008
 1412SOL     OW 5134   1.785   1.440   6.322
 1412SOL    HW1 5135   1.721   1.503   6.366
 1412SOL    HW2 5136   1.778   1.448   6.223
 1413SOL     OW 5137   1.884   1.216   4.789
 1413SOL    HW1 5138   1.839   1.269   4.718
 1413SOL    HW2 5139   1.912   1.127   4.751
 1414SOL     OW 5140   0.293   5.555   2.733
 1414SOL    HW1 5141   0.330   5.503   2.811
 1414SOL    HW2 5142   0.218   5.613   2.765
 1415SOL     OW 5143   3.475   1.711   5.065
 1415SOL    HW1 5144   3.394   1.768   5.052
 1415SOL    HW2 5145   3.549   1.746   5.008
 1416SOL     OW 5146   4.090   0.400   5.176
 1416SOL    HW1 5147   4.025   0.406   5.252
 1416SOL    HW2 5148   4.161   0.469   5.188
 1417SOL     OW 5149   3.500   4.114   4.315
 1417SOL    HW1 5150   3.423   4.086   4.259
 1417SOL    HW2 5151   3.538   4.199   4.279
 1418SOL     OW 5152   3.374   3.941   5.371
 1418SOL    HW1 5153   3.301   3.885   5.330
 1418SOL    HW2 5154   3.378   4.029   5.325
 1419SOL     OW 5155   0.519   5.241   1.680
 1419SOL    HW1 5156   0.548   5.334   1.657
 1419SOL    HW2 5157   0.520   5.230   1.780
 1420SOL     OW 5158   2.207   6.630   3.676
 1420SOL    HW1 5159   2.184   6.547   3.726
 1420SOL    HW2 5160   2.307   6.640   3.673
 1421SOL     OW 5161   1.444   5.285   0.574
 1421SOL    HW1 5162   1.505   5.205   0.570
 1421SOL    HW2 5163   1.475   5.346   0.647
 1422SOL     OW 5164   1.538   3.697   0.075
 1422SOL    HW1 5165   1.501   3.778   0.030
 1422SOL    HW2 5166   1.570   3.720   0.167
 1423SOL     OW 5167   5.161   1.053   4.977
 1423SOL    HW1 5168   5.108   0.994   4.915
 1423SOL    HW2 5169   5.234   1.001   5.019
 1424SOL     OW 5170   6.125   4.274   1.782
 1424SOL    HW1 5171   6.030   4.297   1.766
 1424SOL    HW2 5172   6.131   4.204   1.854
 1425SOL     OW 5173   5.968   6.721   3.209
 1425SOL    HW1 5174   5.897   6.653   3.225
 1425SOL    HW2 5175   6.021   6.696   3.128
 1426SOL     OW 5176   3.913   0.542   0.998
 1426SOL    HW1 5177   3.974   0.469   1.032
 1426SOL    HW2 5178   3.832   0.501   0.958
 1427SOL     OW 5179   1.622   1.093   3.780
 1427SOL    HW1 5180   1.643   1.039   3.862
 1427SOL    HW2 5181   1.620   1.032   3.700
 1428SOL     OW 5182   2.151   4.045   4.008
 1428SOL    HW1 5183   2.114   3.970   3.954
 1428SOL    HW2 5184   2.163   4.014   4.103
 1429SOL     OW 5185   5.918   0.427   1.375
 1429SOL    HW1 5186   5.946   0.509   1.426
 1429SOL    HW2 5187   5.981   0.413   1.299
 1430SOL     OW 5188   2.229   3.926   4.502
 1430SOL    HW1 5189   2.329   3.932   4.499
 1430SOL    HW2 5190   2.203   3.845   4.555
 1431SOL     OW 5191   3.479   1.618   0.827
 1431SOL    HW1 5192   3.438   1.593   0.915
 1431SOL    HW2 5193   3.417   1.590   0.753
 1432SOL     OW 5194   2.969   0.344   2.353
 1432SOL    HW1 5195   2.989   0.343   2.255
 1432SOL    HW2 5196   2.872   0.323   2.368
 1433SOL     OW 5197   3.874   1.906   3.579
 1433SOL    HW1 5198   3.947   1.851   3.621
 1433SOL    HW2 5199   3.850   1.867   3.490
 1434SOL     OW 5200   6.157   3.486   1.063
 1434SOL    HW1 5201   6.142   3.388   1.053
 1434SOL    HW2 5202   6.177   3.527   0.974
 1435SOL     OW 5203   6.886   6.607   4.089
 1435SOL    HW1 5204   6.965   6.631   4.033
 1435SOL    HW2 5205   6.884   6.665   4.171
 1436SOL     OW 5206   5.865   0.422   0.013
 1436SOL    HW1 5207   5.943   0.479   7.010
 1436SOL    HW2 5208   5.890   0.367   0.093
 1437SOL     OW 5209   4.143   0.729   0.264
 1437SOL    HW1 5210   4.181   0.714   0.356
 1437SOL    HW2 5211   4.215   0.716   0.196
 1438SOL     OW 5212   2.880   6.989   3.810
 1438SOL    HW1 5213   2.927   6.945   3.886
 1438SOL    HW2 5214   2.795   0.006   3.843
 1439SOL     OW 5215   6.742   5.324   4.850
 1439SOL    HW1 5216   6.789   5.347   4.765
 1439SOL    HW2 5217   6.643   5.335   4.838
 1440SOL     OW 5218   3.293   2.854   2.107
 1440SOL    HW1 5219   3.279   2.755   2.112
 1440SOL    HW2 5220   3.328   2.887   2.194
 1441SOL     OW 5221   0.203   2.220   6.463
 1441SOL    HW1 5222   0.284   2.273   6.438
 1441SOL    HW2 5223   0.142   2.213   6.384
 1442SOL     OW 5224   5.698   6.272   6.979
 1442SOL    HW1 5225   5.756   6.351   6.965
 1442SOL    HW2 5226   5.638   6.287   0.034
 1443SOL     OW 5227   1.939   3.063   4.454
 1443SOL    HW1 5228   2.002   3.019   4.517
 1443SOL    HW2 5229   1.901   2.994   4.391
 1444SOL     OW 5230   4.490   6.606   4.517
 1444SOL    HW1 5231   4.556   6.539   4.549
 1444SOL    HW2 5232   4.470   6.671   4.590
 1445SOL     OW 5233   6.656   2.462   0.150
 1445SOL    HW1 5234   6.585   2.495   0.213
 1445SOL    HW2 5235   6.638   2.497   0.058
 1446SOL     OW 5236   3.102   6.199   2.583
 1446SOL    HW1 5237   3.184   6.213   2.638
 1446SOL    HW2 5238   3.027   6.170   2.643
 1447SOL     OW 5239   6.349   0.936   4.999
 1447SOL    HW1 5240   6.329   0.988   4.916
 1447SOL    HW2 5241   6.444   0.907   4.998
 1448SOL     OW 5242   5.270   1.536   0.711
 1448SOL    HW1 5243   5.231   1.523   0.620
 1448SOL    HW2 5244   5.282   1.634   0.729
 1449SOL     OW 5245   5.026   5.896   0.335
 1449SOL    HW1 5246   5.087   5.975   0.327
 1449SOL    HW2 5247   5.053   5.827   0.267
 1450SOL     OW 5248   5.659   1.210   4.141
 1450SOL    HW1 5249   5.584   1.271   4.115
 1450SOL    HW2 5250   5.641   1.174   4.233
 1451SOL     OW 5251   0.432   6.742   2.501
 1451SOL    HW1 5252   0.404   6.828   2.544
 1451SOL    HW2 5253   0.532   6.737   2.499
 1452SOL     OW 5254   1.768   0.301   6.208
 1452SOL    HW1 5255   1.804   0.208   6.221
 1452SOL    HW2 5256   1.724   0.332   6.292
 1453SOL     OW 5257   5.882   4.452   3.987
 1453SOL    HW1 5258   5.913   4.365   3.950
 1453SOL    HW2 5259   5.879   4.447   4.087
 1454SOL     OW 5260   5.854   4.329   1.762
 1454SOL    HW1 5261   5.793   4.402   1.731
 1454SOL    HW2 5262   5.837   4.310   1.859
 1455SOL     OW 5263   2.099   1.823   1.931
 1455SOL    HW1 5264   2.197   1.833   1.918
 1455SOL    HW2 5265   2.078   1.729   1.958
 1456SOL     OW 5266   5.459   5.180   4.778
 1456SOL    HW1 5267   5.540   5.238   4.786
 1456SOL    HW2 5268   5.388   5.213   4.840
 1457SOL     OW 5269   2.211   1.544   4.219
 1457SOL    HW1 5270   2.226   1.505   4.128
 1457SOL    HW2 5271   2.210   1.644   4.213
 1458SOL     OW 5272   6.455   5.552   0.405
 1458SOL    HW1 5273   6.393   5.581   0.332
 1458SOL    HW2 5274   6.463   5.453   0.406
 1459SOL     OW 5275   3.263   6.875   1.473
 1459SOL    HW1 5276   3.277   6.839   1.566
 1459SOL    HW2 5277   3.201   6.814   1.423
 1460SOL     OW 5278   0.754   1.498   6.728
 1460SOL    HW1 5279   0.711   1.426   6.674
 1460SOL    HW2 5280   0.852   1.502   6.708
 1461SOL     OW 5281   4.931   3.961   2.739
 1461SOL    HW1 5282   4.913   3.910   2.823
 1461SOL    HW2 5283   4.878   3.921   2.664
 1462SOL     OW 5284   5.647   0.330   5.294
 1462SOL    HW1 5285   5.629   0.242   5.250
 1462SOL    HW2 5286   5.746   0.346   5.296
 1463SOL     OW 5287   1.215   2.396   5.560
 1463SOL    HW1 5288   1.258   2.331   5.624
 1463SOL    HW2 5289   1.149   2.347   5.503
 1464SOL     OW 5290   0.623   0.878   1.066
 1464SOL    HW1 5291   0.670   0.864   0.979
 1464SOL    HW2 5292   0.623   0.793   1.118
 1465SOL     OW 5293   2.186   1.037   3.654
 1465SOL    HW1 5294   2.142   0.961   3.702
 1465SOL    HW2 5295   2.135   1.121   3.670
 1466SOL     OW 5296   5.842   6.011   4.845
 1466SOL    HW1 5297   5.779   6.012   4.923
 1466SOL    HW2 5298   5.936   6.009   4.878
 1467SOL     OW 5299   0.427   4.295   4.199
 1467SOL    HW1 5300   0.422   4.244   4.285
 1467SOL    HW2 5301   0.376   4.245   4.129
 1468SOL     OW 5302   4.622   0.078   2.660
 1468SOL    HW1 5303   4.596   0.144   2.589
 1468SOL    HW2 5304   4.693   0.116   2.718
 1469SOL     OW 5305   6.604   0.381   2.507
 1469SOL    HW1 5306   6.652   0.337   2.431
 1469SOL    HW2 5307   6.564   0.467   2.476
 1470SOL     OW 5308   0.068   0.398   2.070
 1470SOL    HW1 5309   0.137   0.401   1.998
 1470SOL    HW2 5310   0.090   0.325   2.135
 1471SOL     OW 5311   6.483   1.021   0.989
 1471SOL    HW1 5312   6.470   1.102   1.046
 1471SOL    HW2 5313   6.445   0.941   1.035
 1472SOL     OW 5314   4.677   5.078   4.516
 1472SOL    HW1 5315   4.636   4.987   4.528
 1472SOL    HW2 5316   4.651   5.136   4.594
 1473SOL     OW 5317   0.323   3.311   3.985
 1473SOL    HW1 5318   0.413   3.310   4.029
 1473SOL    HW2 5319   0.288   3.218   3.977
 1474SOL     OW 5320   4.714   5.954   2.450
 1474SOL    HW1 5321   4.698   6.040   2.403
 1474SOL    HW2 5322   4.752   5.887   2.386
 1475SOL     OW 5323   6.368   7.021   3.055
 1475SOL    HW1 5324   6.336   0.090   3.071
 1475SOL    HW2 5325   6.291   6.964   3.027
 1476SOL     OW 5326   0.986   2.230   0.690
 1476SOL    HW1 5327   0.934   2.261   0.770
 1476SOL    HW2 5328   1.011   2.134   0.702
 1477SOL     OW 5329   2.425   6.431   4.569
 1477SOL    HW1 5330   2.504   6.457   4.625
 1477SOL    HW2 5331   2.367   6.369   4.622
 1478SOL     OW 5332   0.256   4.547   0.960
 1478SOL    HW1 5333   0.267   4.626   1.020
 1478SOL    HW2 5334   0.188   4.485   0.999
 1479SOL     OW 5335   0.956   4.805   6.999
 1479SOL    HW1 5336   0.879   4.834   6.942
 1479SOL    HW2 5337   1.039   4.853   6.970
 1480SOL     OW 5338   3.632   0.803   6.911
 1480SOL    HW1 5339   3.533   0.803   6.902
 1480SOL    HW2 5340   3.665   0.710   6.927
 1481SOL     OW 5341   0.216   3.395   1.003
 1481SOL    HW1 5342   0.135   3.361   1.051
 1481SOL    HW2 5343   0.250   3.325   0.940
 1482SOL     OW 5344   5.848   0.594   5.544
 1482SOL    HW1 5345   5.835   0.680   5.593
 1482SOL    HW2 5346   5.869   0.522   5.610
 1483SOL     OW 5347   0.159   2.409   1.055
 1483SOL    HW1 5348   0.060   2.420   1.051
 1483SOL    HW2 5349   0.191   2.426   1.149
 1484SOL     OW 5350   5.607   0.171   3.300
 1484SOL    HW1 5351   5.677   0.142   3.364
 1484SOL    HW2 5352   5.640   0.250   3.247
 1485SOL     OW 5353   5.351   3.786   4.331
 1485SOL    HW1 5354   5.334   3.743   4.420
 1485SOL    HW2 5355   5.445   3.820   4.329
 1486SOL     OW 5356   5.024   2.804   1.691
 1486SOL    HW1 5357   5.054   2.749   1.613
 1486SOL    HW2 5358   5.097   2.869   1.715
 1487SOL     OW 5359   0.725   6.844   5.544
 1487SOL    HW1 5360   0.747   6.940   5.561
 1487SOL    HW2 5361   0.656   6.814   5.610
 1488SOL     OW 5362   4.689   2.227   3.849
 1488SOL    HW1 5363   4.728   2.156   3.908
 1488SOL    HW2 5364   4.667   2.308   3.904
 1489SOL     OW 5365   3.640   5.242   5.027
 1489SOL    HW1 5366   3.682   5.153   5.041
 1489SOL    HW2 5367   3.553   5.231   4.978
 1490SOL     OW 5368   2.965   2.993   0.614
 1490SOL    HW1 5369   2.886   3.008   0.672
 1490SOL    HW2 5370   3.002   2.901   0.631
 1491SOL     OW 5371   1.393   1.592   3.902
 1491SOL    HW1 5372   1.415   1.654   3.977
 1491SOL    HW2 5373   1.395   1.497   3.934
 1492SOL     OW 5374   6.720   2.207   1.484
 1492SOL    HW1 5375   6.749   2.258   1.566
 1492SOL    HW2 5376   6.620   2.202   1.483
 1493SOL     OW 5377   6.698   3.164   5.177
 1493SOL    HW1 5378   6.772   3.181   5.242
 1493SOL    HW2 5379   6.611   3.155   5.225
 1494SOL     OW 5380   5.381   1.711   4.082
 1494SOL    HW1 5381   5.470   1.715   4.128
 1494SOL    HW2 5382   5.324   1.788   4.112
 1495SOL     OW 5383   1.471   3.773   1.542
 1495SOL    HW1 5384   1.475   3.684   1.588
 1495SOL    HW2 5385   1.400   3.771   1.472
 1496SOL     OW 5386   0.238   0.371   2.541
 1496SOL    HW1 5387   0.270   0.329   2.456
 1496SOL    HW2 5388   0.184   0.453   2.520
 1497SOL     OW 5389   5.377   4.396   5.776
 1497SOL    HW1 5390   5.317   4.325   5.740
 1497SOL    HW2 5391   5.355   4.484   5.732
 1498SOL     OW 5392   3.336   5.532   6.879
 1498SOL    HW1 5393   3.252   5.496   6.837
 1498SOL    HW2 5394   3.341   5.631   6.866
 1499SOL     OW 5395   1.655   4.135   4.121
 1499SOL    HW1 5396   1.604   4.088   4.049
 1499SOL    HW2 5397   1.591   4.178   4.184
 1500SOL     OW 5398   4.144   5.978   5.440
 1500SOL    HW1 5399   4.237   5.951   5.418
 1500SOL    HW2 5400   4.114   6.048   5.374
 1501SOL     OW 5401   3.894   0.798   1.438
 1501SOL    HW1 5402   3.892   0.840   1.347
 1501SOL    HW2 5403   3.807   0.754   1.456
 1502SOL     OW 5404   6.944   0.449   6.831
 1502SOL    HW1 5405   6.985   0.359   6.843
 1502SOL    HW2 5406   6.873   0.464   6.899
 1503SOL     OW 5407   3.496   3.806   5.076
 1503SOL    HW1 5408   3.397   3.794   5.082
 1503SOL    HW2 5409   3.536   3.796   5.167
 1504SOL     OW 5410   3.005   0.508   3.411
 1504SOL    HW1 5411   3.052   0.504   3.323
 1504SOL    HW2 5412   2.907   0.496   3.398
 1505SOL     OW 5413   5.745   6.555   2.920
 1505SOL    HW1 5414   5.704   6.627   2.977
 1505SOL    HW2 5415   5.811   6.504   2.975
 1506SOL     OW 5416   0.144   0.046   4.265
 1506SOL    HW1 5417   0.236   0.053   4.228
 1506SOL    HW2 5418   0.085   0.114   4.221
 1507SOL     OW 5419   1.959   1.827   6.623
 1507SOL    HW1 5420   1.911   1.864   6.703
 1507SOL    HW2 5421   1.940   1.884   6.543
 1508SOL     OW 5422   4.223   6.426   0.941
 1508SOL    HW1 5423   4.251   6.495   0.875
 1508SOL    HW2 5424   4.294   6.356   0.948
 1509SOL     OW 5425   5.218   2.014   6.291
 1509SOL    HW1 5426   5.309   2.013   6.250
 1509SOL    HW2 5427   5.152   1.980   6.225
 1510SOL     OW 5428   6.862   1.618   2.389
 1510SOL    HW1 5429   6.786   1.673   2.355
 1510SOL    HW2 5430   6.902   1.663   2.469
 1511SOL     OW 5431   0.132   2.605   0.491
 1511SOL    HW1 5432   0.207   2.591   0.426
 1511SOL    HW2 5433   0.124   2.526   0.551
 1512SOL     OW 5434   0.367   0.598   2.641
 1512SOL    HW1 5435   0.288   0.597   2.702
 1512SOL    HW2 5436   0.369   0.512   2.589
 1513SOL     OW 5437   2.279   0.558   2.696
 1513SOL    HW1 5438   2.343   0.594   2.764
 1513SOL    HW2 5439   2.317   0.572   2.604
 1514SOL     OW 5440   4.490   0.499   6.043
 1514SOL    HW1 5441   4.502   0.595   6.018
 1514SOL    HW2 5442   4.393   0.479   6.054
 1515SOL     OW 5443   5.487   5.197   5.787
 1515SOL    HW1 5444   5.395   5.205   5.823
 1515SOL    HW2 5445   5.494   5.247   5.701
 1516SOL     OW 5446   6.180   1.907   2.295
 1516SOL    HW1 5447   6.100   1.865   2.253
 1516SOL    HW2 5448   6.231   1.838   2.347
 1517SOL     OW 5449   3.227   5.178   1.434
 1517SOL    HW1 5450   3.155   5.113   1.410
 1517SOL    HW2 5451   3.314   5.129   1.441
 1518SOL     OW 5452   0.940   4.968   0.760
 1518SOL    HW1 5453   0.864   5.027   0.784
 1518SOL    HW2 5454   1.018   4.987   0.820
 1519SOL     OW 5455   0.943   4.434   1.039
 1519SOL    HW1 5456   0.862   4.462   0.987
 1519SOL    HW2 5457   0.952   4.335   1.036
 1520SOL     OW 5458   1.783   4.091   2.906
 1520SOL    HW1 5459   1.703   4.142   2.937
 1520SOL    HW2 5460   1.841   4.067   2.984
 1521SOL     OW 5461   2.075   5.741   5.658
 1521SOL    HW1 5462   2.020   5.807   5.710
 1521SOL    HW2 5463   2.057   5.754   5.560
 1522SOL     OW 5464   1.584   1.818   5.783
 1522SOL    HW1 5465   1.591   1.787   5.688
 1522SOL    HW2 5466   1.672   1.856   5.812
 1523SOL     OW 5467   5.507   1.142   1.125
 1523SOL    HW1 5468   5.520   1.238   1.151
 1523SOL    HW2 5469   5.427   1.134   1.067
 1524SOL     OW 5470   0.958   1.982   1.004
 1524SOL    HW1 5471   0.877   1.923   1.010
 1524SOL    HW2 5472   0.995   1.998   1.096
 1525SOL     OW 5473   4.781   1.790   5.019
 1525SOL    HW1 5474   4.860   1.798   5.080
 1525SOL    HW2 5475   4.740   1.880   5.006
 1526SOL     OW 5476   5.333   2.661   0.650
 1526SOL    HW1 5477   5.327   2.562   0.639
 1526SOL    HW2 5478   5.292   2.688   0.737
 1527SOL     OW 5479   2.005   0.295   4.957
 1527SOL    HW1 5480   2.047   0.206   4.942
 1527SOL    HW2 5481   1.951   0.293   5.041
 1528SOL     OW 5482   4.858   5.956   3.089
 1528SOL    HW1 5483   4.818   6.032   3.038
 1528SOL    HW2 5484   4.811   5.945   3.176
 1529SOL     OW 5485   1.340   6.436   5.644
 1529SOL    HW1 5486   1.408   6.382   5.595
 1529SOL    HW2 5487   1.359   6.433   5.742
 1530SOL     OW 5488   3.572   6.903   1.459
 1530SOL    HW1 5489   3.518   6.872   1.381
 1530SOL    HW2 5490   3.512   6.949   1.525
 1531SOL     OW 5491   5.594   1.369   6.664
 1531SOL    HW1 5492   5.581   1.283   6.615
 1531SOL    HW2 5493   5.658   1.427   6.614
 1532SOL     OW 5494   3.154   1.062   5.079
 1532SOL    HW1 5495   3.198   1.047   5.168
 1532SOL    HW2 5496   3.202   1.134   5.030
 1533SOL     OW 5497   4.142   2.946   1.101
 1533SOL    HW1 5498   4.178   3.028   1.144
 1533SOL    HW2 5499   4.204   2.869   1.117
 1534SOL     OW 5500   6.447   0.396   0.737
 1534SOL    HW1 5501   6.389   0.315   0.746
 1534SOL    HW2 5502   6.443   0.450   0.821
 1535SOL     OW 5503   4.652   4.435   4.420
 1535SOL    HW1 5504   4.704   4.376   4.358
 1535SOL    HW2 5505   4.616   4.513   4.369
 1536SOL     OW 5506   3.076   6.403   2.975
 1536SOL    HW1 5507   3.153   6.446   2.927
 1536SOL    HW2 5508   2.997   6.465   2.973
 1537SOL     OW 5509   1.654   5.910   4.597
 1537SOL    HW1 5510   1.701   5.861   4.671
 1537SOL    HW2 5511   1.652   5.852   4.515
 1538SOL     OW 5512   3.624   6.218   0.045
 1538SOL    HW1 5513   3.539   6.271   0.041
 1538SOL    HW2 5514   3.624   6.162   0.127
 1539SOL     OW 5515   2.339   6.782   1.964
 1539SOL    HW1 5516   2.315   6.687   1.985
 1539SOL    HW2 5517   2.329   6.798   1.866
 1540SOL     OW 5518   6.338   0.694   5.984
 1540SOL    HW1 5519   6.417   0.692   6.045
 1540SOL    HW2 5520   6.359   0.751   5.905
 1541SOL     OW 5521   5.111   1.918   2.095
 1541SOL    HW1 5522   5.136   1.829   2.134
 1541SOL    HW2 5523   5.171   1.938   2.017
 1542SOL     OW 5524   6.727   4.979   1.313
 1542SOL    HW1 5525   6.702   4.912   1.383
 1542SOL    HW2 5526   6.755   4.932   1.230
 1543SOL     OW 5527   3.401   2.947   2.334
 1543SOL    HW1 5528   3.492   2.911   2.358
 1543SOL    HW2 5529   3.346   2.956   2.417
 1544SOL     OW 5530   3.072   3.498   1.348
 1544SOL    HW1 5531   3.120   3.425   1.397
 1544SOL    HW2 5532   2.978   3.505   1.383
 1545SOL     OW 5533   0.608   6.312   6.084
 1545SOL    HW1 5534   0.605   6.212   6.086
 1545SOL    HW2 5535   0.520   6.348   6.053
 1546SOL     OW 5536   0.358   6.605   0.723
 1546SOL    HW1 5537   0.340   6.703   0.721
 1546SOL    HW2 5538   0.374   6.575   0.817
 1547SOL     OW 5539   2.808   6.507   0.520
 1547SOL    HW1 5540   2.804   6.479   0.424
 1547SOL    HW2 5541   2.795   6.427   0.578
 1548SOL     OW 5542   6.262   4.336   3.501
 1548SOL    HW1 5543   6.317   4.257   3.531
 1548SOL    HW2 5544   6.166   4.310   3.499
 1549SOL     OW 5545   6.164   1.916   1.225
 1549SOL    HW1 5546   6.086   1.957   1.178
 1549SOL    HW2 5547   6.174   1.957   1.315
 1550SOL     OW 5548   2.660   4.860   2.228
 1550SOL    HW1 5549   2.612   4.804   2.160
 1550SOL    HW2 5550   2.757   4.839   2.226
 1551SOL     OW 5551   1.126   1.895   1.841
 1551SOL    HW1 5552   1.155   1.904   1.937
 1551SOL    HW2 5553   1.192   1.837   1.792
 1552SOL     OW 5554   1.722   6.362   2.402
 1552SOL    HW1 5555   1.722   6.461   2.388
 1552SOL    HW2 5556   1.778   6.340   2.482
 1553SOL     OW 5557   5.872   2.023   5.505
 1553SOL    HW1 5558   5.909   1.938   5.542
 1553SOL    HW2 5559   5.861   2.090   5.579
 1554SOL     OW 5560   2.855   3.278   0.340
 1554SOL    HW1 5561   2.900   3.342   0.278
 1554SOL    HW2 5562   2.764   3.257   0.306
 1555SOL     OW 5563   4.372   1.304   0.910
 1555SOL    HW1 5564   4.396   1.365   0.986
 1555SOL    HW2 5565   4.273   1.310   0.893
 1556SOL     OW 5566   2.706   1.967   0.505
 1556SOL    HW1 5567   2.706   1.924   0.415
 1556SOL    HW2 5568   2.779   1.929   0.561
 1557SOL     OW 5569   2.580   2.388   1.429
 1557SOL    HW1 5570   2.619   2.340   1.351
 1557SOL    HW2 5571   2.646   2.455   1.463
 1558SOL     OW 5572   4.978   2.150   0.294
 1558SOL    HW1 5573   4.886   2.158   0.254
 1558SOL    HW2 5574   4.973   2.096   0.378
 1559SOL     OW 5575   2.013   5.928   4.369
 1559SOL    HW1 5576   1.960   5.979   4.438
 1559SOL    HW2 5577   2.023   5.833   4.398
 1560SOL     OW 5578   4.968   3.200   1.585
 1560SOL    HW1 5579   5.021   3.181   1.668
 1560SOL    HW2 5580   4.885   3.144   1.585
 1561SOL     OW 5581   6.161   6.431   1.297
 1561SOL    HW1 5582   6.099   6.406   1.371
 1561SOL    HW2 5583   6.250   6.389   1.313
 1562SOL     OW 5584   2.799   0.047   2.905
 1562SOL    HW1 5585   2.731   0.100   2.955
 1562SOL    HW2 5586   2.888   0.055   2.949
 1563SOL     OW 5587   2.150   4.494   3.754
 1563SOL    HW1 5588   2.095   4.420   3.793
 1563SOL    HW2 5589   2.245   4.482   3.780
 1564SOL     OW 5590   2.114   1.997   3.117
 1564SOL    HW1 5591   2.159   1.908   3.123
 1564SOL    HW2 5592   2.105   2.035   3.209
 1565SOL     OW 5593   5.372   1.585   5.414
 1565SOL    HW1 5594   5.359   1.665   5.473
 1565SOL    HW2 5595   5.439   1.606   5.343
 1566SOL     OW 5596   1.080   3.386   3.642
 1566SOL    HW1 5597   0.989   3.348   3.656
 1566SOL    HW2 5598   1.142   3.313   3.612
 1567SOL     OW 5599   5.702   0.884   4.400
 1567SOL    HW1 5600   5.626   0.853   4.457
 1567SOL    HW2 5601   5.698   0.837   4.311
 1568SOL     OW 5602   1.982   5.012   0.997
 1568SOL    HW1 5603   1.889   5.044   0.984
 1568SOL    HW2 5604   1.982   4.913   1.008
 1569SOL     OW 5605   2.194   1.103   2.280
 1569SOL    HW1 5606   2.287   1.130   2.305
 1569SOL    HW2 5607   2.151   1.175   2.226
 1570SOL     OW 5608   2.517   5.751   6.063
 1570SOL    HW1 5609   2.597   5.703   6.100
 1570SOL    HW2 5610   2.518   5.846   6.095
 1571SOL     OW 5611   1.339   1.435   4.253
 1571SOL    HW1 5612   1.255   1.487   4.235
 1571SOL    HW2 5613   1.370   1.391   4.169
 1572SOL     OW 5614   2.435   5.245   3.708
 1572SOL    HW1 5615   2.402   5.313   3.774
 1572SOL    HW2 5616   2.524   5.273   3.673
 1573SOL     OW 5617   5.529   5.881   6.676
 1573SOL    HW1 5618   5.572   5.919   6.758
 1573SOL    HW2 5619   5.460   5.945   6.643
 1574SOL     OW 5620   0.449   2.404   3.269
 1574SOL    HW1 5621   0.427   2.317   3.225
 1574SOL    HW2 5622   0.498   2.387   3.355
 1575SOL     OW 5623   6.928   2.092   0.005
 1575SOL    HW1 5624   6.933   2.169   6.965
 1575SOL    HW2 5625   6.872   2.117   0.084
 1576SOL     OW 5626   0.813   6.154   2.721
 1576SOL    HW1 5627   0.749   6.220   2.680
 1576SOL    HW2 5628   0.837   6.184   2.813
 1577SOL     OW 5629   4.476   5.893   4.133
 1577SOL    HW1 5630   4.480   5.921   4.037
 1577SOL    HW2 5631   4.542   5.820   4.150
 1578SOL     OW 5632   5.493   1.745   2.108
 1578SOL    HW1 5633   5.560   1.687   2.155
 1578SOL    HW2 5634   5.404   1.700   2.110
 1579SOL     OW 5635   1.663   4.007   2.493
 1579SOL    HW1 5636   1.578   3.966   2.460
 1579SOL    HW2 5637   1.672   3.991   2.592
 1580SOL     OW 5638   3.357   3.227   4.683
 1580SOL    HW1 5639   3.379   3.213   4.587
 1580SOL    HW2 5640   3.439   3.214   4.738
 1581SOL     OW 5641   5.290   3.828   5.276
 1581SOL    HW1 5642   5.324   3.764   5.345
 1581SOL    HW2 5643   5.203   3.793   5.239
 1582SOL     OW 5644   4.062   6.229   4.039
 1582SOL    HW1 5645   4.047   6.327   4.056
 1582SOL    HW2 5646   4.094   6.185   4.123
 1583SOL     OW 5647   0.598   5.545   4.608
 1583SOL    HW1 5648   0.649   5.462   4.631
 1583SOL    HW2 5649   0.642   5.592   4.532
 1584SOL     OW 5650   0.426   4.551   0.161
 1584SOL    HW1 5651   0.507   4.536   0.104
 1584SOL    HW2 5652   0.361   4.476   0.147
 1585SOL     OW 5653   4.174   6.696   4.121
 1585SOL    HW1 5654   4.212   6.656   4.205
 1585SOL    HW2 5655   4.188   6.795   4.122
 1586SOL     OW 5656   3.001   5.938   3.477
 1586SOL    HW1 5657   2.964   6.030   3.486
 1586SOL    HW2 5658   3.055   5.915   3.558
 1587SOL     OW 5659   4.101   0.149   6.681
 1587SOL    HW1 5660   4.119   0.100   6.766
 1587SOL    HW2 5661   4.015   0.199   6.688
 1588SOL     OW 5662   6.198   1.490   3.901
 1588SOL    HW1 5663   6.202   1.499   4.001
 1588SOL    HW2 5664   6.253   1.562   3.859
 1589SOL     OW 5665   0.061   0.974   3.953
 1589SOL    HW1 5666   0.104   1.007   3.868
 1589SOL    HW2 5667   0.032   1.053   4.007
 1590SOL     OW 5668   5.705   6.972   3.817
 1590SOL    HW1 5669   5.696   0.046   3.835
 1590SOL    HW2 5670   5.619   6.926   3.841
 1591SOL     OW 5671   0.175   4.966   0.612
 1591SOL    HW1 5672   0.157   4.965   0.710
 1591SOL    HW2 5673   0.161   5.058   0.576
 1592SOL     OW 5674   6.706   4.410   4.376
 1592SOL    HW1 5675   6.762   4.488   4.349
 1592SOL    HW2 5676   6.757   4.325   4.364
 1593SOL     OW 5677   3.998   5.290   1.136
 1593SOL    HW1 5678   4.019   5.269   1.040
 1593SOL    HW2 5679   4.011   5.208   1.192
 1594SOL     OW 5680   5.035   0.832   3.117
 1594SOL    HW1 5681   5.103   0.870   3.180
 1594SOL    HW2 5682   5.074   0.751   3.072
 1595SOL     OW 5683   6.701   3.746   0.839
 1595SOL    HW1 5684   6.690   3.654   0.801
 1595SOL    HW2 5685   6.615   3.797   0.829
 1596SOL     OW 5686   5.450   4.297   4.531
 1596SOL    HW1 5687   5.503   4.302   4.616
 1596SOL    HW2 5688   5.362   4.343   4.543
 1597SOL     OW 5689   4.316   6.838   1.330
 1597SOL    HW1 5690   4.372   6.816   1.410
 1597SOL    HW2 5691   4.225   6.799   1.341
 1598SOL     OW 5692   0.820   5.897   5.960
 1598SOL    HW1 5693   0.765   5.837   5.901
 1598SOL    HW2 5694   0.759   5.958   6.011
 1599SOL     OW 5695   5.123   5.048   4.158
 1599SOL    HW1 5696   5.037   5.097   4.175
 1599SOL    HW2 5697   5.126   4.966   4.215
 1600SOL     OW 5698   5.385   1.329   1.870
 1600SOL    HW1 5699   5.397   1.426   1.852
 1600SOL    HW2 5700   5.339   1.316   1.958
 1601SOL     OW 5701   5.896   0.539   5.090
 1601SOL    HW1 5702   5.812   0.538   5.036
 1601SOL    HW2 5703   5.928   0.445   5.103
 1602SOL     OW 5704   3.624   5.906   3.525
 1602SOL    HW1 5705   3.630   5.983   3.461
 1602SOL    HW2 5706   3.687   5.921   3.602
 1603SOL     OW 5707   3.487   5.787   1.090
 1603SOL    HW1 5708   3.494   5.693   1.122
 1603SOL    HW2 5709   3.398   5.825   1.117
 1604SOL     OW 5710   4.435   5.579   1.634
 1604SOL    HW1 5711   4.379   5.650   1.590
 1604SOL    HW2 5712   4.529   5.586   1.600
 1605SOL     OW 5713   3.946   4.917   0.298
 1605SOL    HW1 5714   3.946   5.004   0.250
 1605SOL    HW2 5715   3.918   4.931   0.393
 1606SOL     OW 5716   5.079   5.838   4.870
 1606SOL    HW1 5717   5.008   5.830   4.940
 1606SOL    HW2 5718   5.135   5.920   4.889
 1607SOL     OW 5719   4.696   4.295   4.057
 1607SOL    HW1 5720   4.796   4.295   4.050
 1607SOL    HW2 5721   4.662   4.204   4.032
 1608SOL     OW 5722   6.293   3.133   3.103
 1608SOL    HW1 5723   6.375   3.143   3.046
 1608SOL    HW2 5724   6.231   3.068   3.059
 1609SOL     OW 5725   1.449   0.211   0.750
 1609SOL    HW1 5726   1.458   0.117   0.785
 1609SOL    HW2 5727   1.539   0.252   0.740
 1610SOL     OW 5728   5.605   5.442   1.189
 1610SOL    HW1 5729   5.548   5.483   1.260
 1610SOL    HW2 5730   5.701   5.442   1.220
 1611SOL     OW 5731   0.140   4.587   6.594
 1611SOL    HW1 5732   0.102   4.623   6.679
 1611SOL    HW2 5733   0.206   4.515   6.614
 1612SOL     OW 5734   5.113   0.725   2.235
 1612SOL    HW1 5735   5.095   0.814   2.191
 1612SOL    HW2 5736   5.075   0.652   2.178
 1613SOL     OW 5737   0.127   6.377   2.605
 1613SOL    HW1 5738   0.101   6.285   2.577
 1613SOL    HW2 5739   0.200   6.373   2.673
 1614SOL     OW 5740   6.116   1.028   6.092
 1614SOL    HW1 5741   6.092   0.932   6.078
 1614SOL    HW2 5742   6.196   1.051   6.037
 1615SOL     OW 5743   6.540   2.997   5.855
 1615SOL    HW1 5744   6.533   2.954   5.765
 1615SOL    HW2 5745   6.519   2.929   5.925
 1616SOL     OW 5746   1.512   1.308   3.336
 1616SOL    HW1 5747   1.469   1.397   3.353
 1616SOL    HW2 5748   1.475   1.240   3.400
 1617SOL     OW 5749   0.198   6.080   4.361
 1617SOL    HW1 5750   0.163   6.018   4.431
 1617SOL    HW2 5751   0.237   6.027   4.286
 1618SOL     OW 5752   3.271   5.176   2.829
 1618SOL    HW1 5753   3.215   5.128   2.760
 1618SOL    HW2 5754   3.222   5.257   2.860
 1619SOL     OW 5755   1.141   3.747   6.159
 1619SOL    HW1 5756   1.191   3.661   6.156
 1619SOL    HW2 5757   1.160   3.800   6.076
 1620SOL     OW 5758   2.659   6.861   4.668
 1620SOL    HW1 5759   2.624   6.811   4.747
 1620SOL    HW2 5760   2.601   6.940   4.650
 1621SOL     OW 5761   5.583   5.041   0.840
 1621SOL    HW1 5762   5.588   5.007   0.746
 1621SOL    HW2 5763   5.529   4.978   0.896
 1622SOL     OW 5764   6.578   2.990   3.381
 1622SOL    HW1 5765   6.547   3.046   3.457
 1622SOL    HW2 5766   6.535   2.900   3.385
 1623SOL     OW 5767   0.660   2.400   3.968
 1623SOL    HW1 5768   0.717   2.416   4.049
 1623SOL    HW2 5769   0.701   2.328   3.912
 1624SOL     OW 5770   4.591   3.092   0.449
 1624SOL    HW1 5771   4.494   3.072   0.435
 1624SOL    HW2 5772   4.645   3.010   0.427
 1625SOL     OW 5773   1.032   6.387   0.215
 1625SOL    HW1 5774   1.087   6.321   0.165
 1625SOL    HW2 5775   0.996   6.455   0.152
 1626SOL     OW 5776   2.678   1.685   1.903
 1626SOL    HW1 5777   2.697   1.717   1.811
 1626SOL    HW2 5778   2.669   1.764   1.964
 1627SOL     OW 5779   4.150   0.841   5.569
 1627SOL    HW1 5780   4.099   0.856   5.484
 1627SOL    HW2 5781   4.246   0.868   5.554
 1628SOL     OW 5782   5.390   5.550   0.997
 1628SOL    HW1 5783   5.316   5.615   1.015
 1628SOL    HW2 5784   5.453   5.548   1.075
 1629SOL     OW 5785   1.864   6.271   2.636
 1629SOL    HW1 5786   1.855   6.287   2.734
 1629SOL    HW2 5787   1.920   6.190   2.620
 1630SOL     OW 5788   0.402   4.954   5.946
 1630SOL    HW1 5789   0.409   4.854   5.941
 1630SOL    HW2 5790   0.407   4.982   6.042
 1631SOL     OW 5791   5.150   4.415   6.831
 1631SOL    HW1 5792   5.089   4.376   6.763
 1631SOL    HW2 5793   5.107   4.410   6.922
 1632SOL     OW 5794   6.059   5.572   2.422
 1632SOL    HW1 5795   6.091   5.488   2.379
 1632SOL    HW2 5796   5.962   5.563   2.443
 1633SOL     OW 5797   6.694   3.874   4.838
 1633SOL    HW1 5798   6.609   3.927   4.844
 1633SOL    HW2 5799   6.747   3.886   4.922
 1634SOL     OW 5800   1.387   4.029   6.024
 1634SOL    HW1 5801   1.431   4.064   5.942
 1634SOL    HW2 5802   1.381   3.929   6.019
 1635SOL     OW 5803   2.507   1.279   3.726
 1635SOL    HW1 5804   2.504   1.372   3.763
 1635SOL    HW2 5805   2.439   1.270   3.653
 1636SOL     OW 5806   0.183   6.074   1.765
 1636SOL    HW1 5807   0.272   6.064   1.721
 1636SOL    HW2 5808   0.143   6.162   1.741
 1637SOL     OW 5809   1.402   1.368   1.623
 1637SOL    HW1 5810   1.391   1.349   1.720
 1637SOL    HW2 5811   1.458   1.297   1.581
 1638SOL     OW 5812   5.411   1.808   3.828
 1638SOL    HW1 5813   5.388   1.785   3.922
 1638SOL    HW2 5814   5.369   1.742   3.765
 1639SOL     OW 5815   5.123   1.967   1.004
 1639SOL    HW1 5816   5.075   1.897   1.058
 1639SOL    HW2 5817   5.220   1.944   0.997
 1640SOL     OW 5818   6.149   1.384   6.685
 1640SOL    HW1 5819   6.192   1.473   6.670
 1640SOL    HW2 5820   6.214   1.323   6.731
 1641SOL     OW 5821   5.795   1.206   2.504
 1641SOL    HW1 5822   5.871   1.154   2.464
 1641SOL    HW2 5823   5.825   1.300   2.521
 1642SOL     OW 5824   0.178   3.507   6.813
 1642SOL    HW1 5825   0.130   3.434   6.766
 1642SOL    HW2 5826   0.201   3.580   6.748
 1643SOL     OW 5827   2.224   5.420   4.566
 1643SOL    HW1 5828   2.139   5.383   4.527
 1643SOL    HW2 5829   2.293   5.425   4.495
 1644SOL     OW 5830   5.998   1.670   1.340
 1644SOL    HW1 5831   6.065   1.696   1.270
 1644SOL    HW2 5832   6.036   1.596   1.396
 1645SOL     OW 5833   2.495   0.980   3.953
 1645SOL    HW1 5834   2.552   0.974   4.035
 1645SOL    HW2 5835   2.438   1.062   3.957
 1646SOL     OW 5836   6.750   5.333   1.958
 1646SOL    HW1 5837   6.738   5.428   1.932
 1646SOL    HW2 5838   6.738   5.323   2.057
 1647SOL     OW 5839   6.793   3.912   5.336
 1647SOL    HW1 5840   6.779   3.914   5.435
 1647SOL    HW2 5841   6.746   3.833   5.297
 1648SOL     OW 5842   5.820   5.652   2.157
 1648SOL    HW1 5843   5.887   5.579   2.157
 1648SOL    HW2 5844   5.776   5.657   2.067
 1649SOL     OW 5845   3.879   0.865   3.341
 1649SOL    HW1 5846   3.896   0.802   3.416
 1649SOL    HW2 5847   3.781   0.869   3.322
 1650SOL     OW 5848   2.765   2.439   5.243
 1650SOL    HW1 5849   2.698   2.416   5.173
 1650SOL    HW2 5850   2.729   2.416   5.333
 1651SOL     OW 5851   1.685   1.974   3.764
 1651SOL    HW1 5852   1.653   1.881   3.744
 1651SOL    HW2 5853   1.646   2.004   3.851
 1652SOL     OW 5854   0.216   4.186   1.706
 1652SOL    HW1 5855   0.159   4.224   1.633
 1652SOL    HW2 5856   0.267   4.260   1.750
 1653SOL     OW 5857   5.915   4.017   1.850
 1653SOL    HW1 5858   5.906   4.005   1.751
 1653SOL    HW2 5859   5.829   3.995   1.895
 1654SOL     OW 5860   0.060   3.127   1.895
 1654SOL    HW1 5861   0.075   3.095   1.802
 1654SOL    HW2 5862   0.089   3.223   1.902
 1655SOL     OW 5863   6.660   0.719   5.633
 1655SOL    HW1 5864   6.729   0.788   5.612
 1655SOL    HW2 5865   6.591   0.757   5.695
 1656SOL     OW 5866   1.787   4.427   2.972
 1656SOL    HW1 5867   1.877   4.392   2.999
 1656SOL    HW2 5868   1.716   4.366   3.005
 1657SOL     OW 5869   0.489   1.385   6.279
 1657SOL    HW1 5870   0.497   1.452   6.352
 1657SOL    HW2 5871   0.394   1.356   6.270
 1658SOL     OW 5872   4.693   0.079   5.480
 1658SOL    HW1 5873   4.764   0.053   5.545
 1658SOL    HW2 5874   4.636   0.152   5.519
 1659SOL     OW 5875   3.024   1.203   6.617
 1659SOL    HW1 5876   2.944   1.143   6.607
 1659SOL    HW2 5877   3.025   1.242   6.709
 1660SOL     OW 5878   2.313   1.206   1.243
 1660SOL    HW1 5879   2.238   1.257   1.201
 1660SOL    HW2 5880   2.321   1.231   1.339
 1661SOL     OW 5881   4.590   5.280   3.439
 1661SOL    HW1 5882   4.529   5.351   3.476
 1661SOL    HW2 5883   4.546   5.236   3.361
 1662SOL     OW 5884   0.665   1.955   3.976
 1662SOL    HW1 5885   0.698   1.878   4.031
 1662SOL    HW2 5886   0.581   1.991   4.016
 1663SOL     OW 5887   6.894   3.912   1.553
 1663SOL    HW1 5888   6.865   3.891   1.459
 1663SOL    HW2 5889   6.987   3.877   1.567
 1664SOL     OW 5890   1.307   1.079   6.684
 1664SOL    HW1 5891   1.337   0.993   6.725
 1664SOL    HW2 5892   1.386   1.140   6.672
 1665SOL     OW 5893   1.640   3.804   0.301
 1665SOL    HW1 5894   1.731   3.763   0.314
 1665SOL    HW2 5895   1.642   3.898   0.334
 1666SOL     OW 5896   5.470   6.256   5.430
 1666SOL    HW1 5897   5.548   6.217   5.381
 1666SOL    HW2 5898   5.501   6.333   5.486
 1667SOL     OW 5899   6.631   5.153   1.000
 1667SOL    HW1 5900   6.681   5.222   1.052
 1667SOL    HW2 5901   6.553   5.196   0.953
 1668SOL     OW 5902   6.849   2.745   2.131
 1668SOL    HW1 5903   6.850   2.795   2.044
 1668SOL    HW2 5904   6.911   2.666   2.125
 1669SOL     OW 5905   6.329   2.817   5.648
 1669SOL    HW1 5906   6.289   2.758   5.719
 1669SOL    HW2 5907   6.270   2.896   5.635
 1670SOL     OW 5908   2.965   4.295   5.260
 1670SOL    HW1 5909   3.016   4.240   5.194
 1670SOL    HW2 5910   2.934   4.379   5.215
 1671SOL     OW 5911   5.679   2.251   0.500
 1671SOL    HW1 5912   5.590   2.213   0.471
 1671SOL    HW2 5913   5.664   2.337   0.548
 1672SOL     OW 5914   0.945   1.760   1.565
 1672SOL    HW1 5915   0.915   1.853   1.588
 1672SOL    HW2 5916   1.034   1.742   1.606
 1673SOL     OW 5917   0.822   0.674   6.431
 1673SOL    HW1 5918   0.728   0.708   6.419
 1673SOL    HW2 5919   0.883   0.721   6.368
 1674SOL     OW 5920   4.709   2.774   3.188
 1674SOL    HW1 5921   4.795   2.725   3.196
 1674SOL    HW2 5922   4.703   2.843   3.260
 1675SOL     OW 5923   5.064   0.944   2.074
 1675SOL    HW1 5924   5.039   0.877   2.005
 1675SOL    HW2 5925   4.984   0.997   2.101
 1676SOL     OW 5926   1.610   1.721   3.772
 1676SOL    HW1 5927   1.532   1.686   3.824
 1676SOL    HW2 5928   1.609   1.682   3.680
 1677SOL     OW 5929   3.011   3.846   1.375
 1677SOL    HW1 5930   2.918   3.852   1.338
 1677SOL    HW2 5931   3.024   3.918   1.443
 1678SOL     OW 5932   6.761   0.349   0.657
 1678SOL    HW1 5933   6.793   0.365   0.564
 1678SOL    HW2 5934   6.751   0.437   0.704
 1679SOL     OW 5935   6.235   2.013   7.015
 1679SOL    HW1 5936   6.252   2.004   0.090
 1679SOL    HW2 5937   6.303   2.074   6.975
 1680SOL     OW 5938   5.235   1.927   3.441
 1680SOL    HW1 5939   5.309   1.988   3.414
 1680SOL    HW2 5940   5.250   1.836   3.401
 1681SOL     OW 5941   4.308   6.421   3.943
 1681SOL    HW1 5942   4.296   6.379   4.033
 1681SOL    HW2 5943   4.277   6.516   3.946
 1682SOL     OW 5944   4.240   1.833   5.322
 1682SOL    HW1 5945   4.227   1.871   5.230
 1682SOL    HW2 5946   4.287   1.901   5.379
 1683SOL     OW 5947   1.091   3.866   3.578
 1683SOL    HW1 5948   1.035   3.786   3.599
 1683SOL    HW2 5949   1.116   3.912   3.664
 1684SOL     OW 5950   3.647   5.828   0.878
 1684SOL    HW1 5951   3.572   5.802   0.938
 1684SOL    HW2 5952   3.642   5.775   0.793
 1685SOL     OW 5953   0.074   2.029   5.704
 1685SOL    HW1 5954   0.089   1.931   5.711
 1685SOL    HW2 5955   0.105   2.061   5.614
 1686SOL     OW 5956   3.205   6.011   1.414
 1686SOL    HW1 5957   3.258   5.946   1.468
 1686SOL    HW2 5958   3.204   5.982   1.319
 1687SOL     OW 5959   4.461   4.113   0.289
 1687SOL    HW1 5960   4.492   4.045   0.356
 1687SOL    HW2 5961   4.401   4.179   0.335
 1688SOL     OW 5962   2.886   0.534   2.712
 1688SOL    HW1 5963   2.795   0.577   2.711
 1688SOL    HW2 5964   2.877   0.437   2.688
 1689SOL     OW 5965   4.085   0.976   2.119
 1689SOL    HW1 5966   4.057   1.053   2.176
 1689SOL    HW2 5967   4.005   0.943   2.067
 1690SOL     OW 5968   0.254   4.608   4.146
 1690SOL    HW1 5969   0.236   4.511   4.163
 1690SOL    HW2 5970   0.262   4.623   4.047
 1691SOL     OW 5971   4.476   3.141   5.456
 1691SOL    HW1 5972   4.558   3.179   5.412
 1691SOL    HW2 5973   4.502   3.067   5.517
 1692SOL     OW 5974   5.501   5.323   2.953
 1692SOL    HW1 5975   5.510   5.317   3.052
 1692SOL    HW2 5976   5.490   5.419   2.926
 1693SOL     OW 5977   5.814   0.729   5.833
 1693SOL    HW1 5978   5.913   0.739   5.845
 1693SOL    HW2 5979   5.789   0.633   5.843
 1694SOL     OW 5980   4.362   0.981   6.888
 1694SOL    HW1 5981   4.410   1.015   6.807
 1694SOL    HW2 5982   4.287   0.922   6.860
 1695SOL     OW 5983   5.398   0.708   5.276
 1695SOL    HW1 5984   5.473   0.662   5.322
 1695SOL    HW2 5985   5.311   0.676   5.314
 1696SOL     OW 5986   5.308   6.907   0.908
 1696SOL    HW1 5987   5.370   6.920   0.985
 1696SOL    HW2 5988   5.361   6.886   0.826
 1697SOL     OW 5989   4.041   4.070   1.784
 1697SOL    HW1 5990   4.016   4.029   1.872
 1697SOL    HW2 5991   3.965   4.126   1.751
 1698SOL     OW 5992   5.011   2.024   1.362
 1698SOL    HW1 5993   5.035   2.037   1.458
 1698SOL    HW2 5994   4.950   1.946   1.353
 1699SOL     OW 5995   1.928   0.397   0.910
 1699SOL    HW1 5996   1.860   0.458   0.871
 1699SOL    HW2 5997   1.920   0.396   1.010
 1700SOL     OW 5998   5.989   3.211   3.191
 1700SOL    HW1 5999   5.958   3.262   3.271
 1700SOL    HW2 6000   5.948   3.120   3.191
 1701SOL     OW 6001   1.202   5.605   5.246
 1701SOL    HW1 6002   1.269   5.643   5.310
 1701SOL    HW2 6003   1.127   5.671   5.233
 1702SOL     OW 6004   2.142   2.443   6.767
 1702SOL    HW1 6005   2.133   2.500   6.849
 1702SOL    HW2 6006   2.236   2.411   6.759
 1703SOL     OW 6007   1.266   1.847   2.120
 1703SOL    HW1 6008   1.301   1.766   2.167
 1703SOL    HW2 6009   1.338   1.917   2.115
 1704SOL     OW 6010   2.672   3.154   6.976
 1704SOL    HW1 6011   2.709   3.246   6.981
 1704SOL    HW2 6012   2.730   3.098   6.916
 1705SOL     OW 6013   5.587   3.326   1.406
 1705SOL    HW1 6014   5.674   3.279   1.398
 1705SOL    HW2 6015   5.519   3.281   1.347
 1706SOL     OW 6016   6.064   0.568   5.788
 1706SOL    HW1 6017   6.127   0.622   5.731
 1706SOL    HW2 6018   6.098   0.568   5.882
 1707SOL     OW 6019   2.729   1.316   2.236
 1707SOL    HW1 6020   2.763   1.392   2.292
 1707SOL    HW2 6021   2.792   1.302   2.159
 1708SOL     OW 6022   2.865   4.809   1.504
 1708SOL    HW1 6023   2.823   4.730   1.548
 1708SOL    HW2 6024   2.871   4.884   1.570
 1709SOL     OW 6025   5.994   4.961   2.672
 1709SOL    HW1 6026   5.983   4.862   2.672
 1709SOL    HW2 6027   6.086   4.985   2.642
 1710SOL     OW 6028   4.920   2.840   2.037
 1710SOL    HW1 6029   4.860   2.910   2.075
 1710SOL    HW2 6030   4.937   2.861   1.940
 1711SOL     OW 6031   3.941   5.168   0.104
 1711SOL    HW1 6032   3.860   5.200   0.153
 1711SOL    HW2 6033   3.976   5.241   0.045
 1712SOL     OW 6034   0.095   2.495   2.552
 1712SOL    HW1 6035   0.034   2.479   2.474
 1712SOL    HW2 6036   0.064   2.574   2.604
 1713SOL     OW 6037   2.904   1.402   2.688
 1713SOL    HW1 6038   2.895   1.456   2.605
 1713SOL    HW2 6039   2.859   1.450   2.764
 1714SOL     OW 6040   3.374   4.736   0.897
 1714SOL    HW1 6041   3.443   4.685   0.948
 1714SOL    HW2 6042   3.406   4.753   0.804
 1715SOL     OW 6043   1.183   5.752   0.551
 1715SOL    HW1 6044   1.167   5.804   0.468
 1715SOL    HW2 6045   1.096   5.732   0.596
 1716SOL     OW 6046   5.160   1.451   2.503
 1716SOL    HW1 6047   5.095   1.382   2.534
 1716SOL    HW2 6048   5.140   1.539   2.547
 1717SOL     OW 6049   3.714   6.799   3.953
 1717SOL    HW1 6050   3.619   6.831   3.954
 1717SOL    HW2 6051   3.758   6.824   4.039
 1718SOL     OW 6052   1.620   3.968   1.899
 1718SOL    HW1 6053   1.720   3.967   1.889
 1718SOL    HW2 6054   1.578   4.003   1.815
 1719SOL     OW 6055   1.643   4.874   3.543
 1719SOL    HW1 6056   1.614   4.876   3.447
 1719SOL    HW2 6057   1.710   4.946   3.559
 1720SOL     OW 6058   1.369   2.858   5.638
 1720SOL    HW1 6059   1.371   2.956   5.659
 1720SOL    HW2 6060   1.322   2.844   5.551
 1721SOL     OW 6061   2.050   2.360   0.031
 1721SOL    HW1 6062   2.025   2.265   0.013
 1721SOL    HW2 6063   2.010   2.389   0.118
 1722SOL     OW 6064   3.725   2.083   2.942
 1722SOL    HW1 6065   3.654   2.031   2.988
 1722SOL    HW2 6066   3.685   2.138   2.869
 1723SOL     OW 6067   6.923   5.352   1.337
 1723SOL    HW1 6068   6.899   5.393   1.426
 1723SOL    HW2 6069   6.841   5.351   1.279
 1724SOL     OW 6070   6.204   3.936   1.579
 1724SOL    HW1 6071   6.200   4.031   1.611
 1724SOL    HW2 6072   6.256   3.932   1.494
 1725SOL     OW 6073   1.776   6.639   4.618
 1725SOL    HW1 6074   1.796   6.737   4.611
 1725SOL    HW2 6075   1.840   6.588   4.561
 1726SOL     OW 6076   5.477   4.988   3.515
 1726SOL    HW1 6077   5.503   4.893   3.534
 1726SOL    HW2 6078   5.442   5.031   3.598
 1727SOL     OW 6079   2.894   3.514   3.653
 1727SOL    HW1 6080   2.933   3.606   3.656
 1727SOL    HW2 6081   2.840   3.504   3.569
 1728SOL     OW 6082   5.404   2.032   4.684
 1728SOL    HW1 6083   5.380   2.022   4.781
 1728SOL    HW2 6084   5.471   1.962   4.660
 1729SOL     OW 6085   1.451   3.295   3.040
 1729SOL    HW1 6086   1.363   3.249   3.046
 1729SOL    HW2 6087   1.501   3.262   2.960
 1730SOL     OW 6088   2.565   0.684   4.411
 1730SOL    HW1 6089   2.612   0.750   4.353
 1730SOL    HW2 6090   2.632   0.621   4.450
 1731SOL     OW 6091   6.261   4.964   3.193
 1731SOL    HW1 6092   6.278   4.928   3.284
 1731SOL    HW2 6093   6.185   4.913   3.151
 1732SOL     OW 6094   3.950   3.139   4.756
 1732SOL    HW1 6095   4.017   3.066   4.748
 1732SOL    HW2 6096   3.962   3.204   4.682
 1733SOL     OW 6097   1.376   2.111   7.015
 1733SOL    HW1 6098   1.393   2.045   6.942
 1733SOL    HW2 6099   1.425   2.196   6.996
 1734SOL     OW 6100   0.791   4.468   2.321
 1734SOL    HW1 6101   0.887   4.494   2.309
 1734SOL    HW2 6102   0.774   4.449   2.417
 1735SOL     OW 6103   3.569   5.731   5.833
 1735SOL    HW1 6104   3.505   5.655   5.825
 1735SOL    HW2 6105   3.658   5.705   5.795
 1736SOL     OW 6106   4.384   1.931   4.972
 1736SOL    HW1 6107   4.412   1.947   4.877
 1736SOL    HW2 6108   4.457   1.961   5.033
 1737SOL     OW 6109   2.048   0.637   0.300
 1737SOL    HW1 6110   1.983   0.617   0.374
 1737SOL    HW2 6111   2.131   0.583   0.313
 1738SOL     OW 6112   1.411   4.021   2.089
 1738SOL    HW1 6113   1.487   4.028   2.025
 1738SOL    HW2 6114   1.396   4.110   2.133
 1739SOL     OW 6115   4.592   5.758   2.902
 1739SOL    HW1 6116   4.575   5.837   2.843
 1739SOL    HW2 6117   4.656   5.696   2.857
 1740SOL     OW 6118   6.807   2.186   4.631
 1740SOL    HW1 6119   6.796   2.184   4.532
 1740SOL    HW2 6120   6.899   2.153   4.655
 1741SOL     OW 6121   1.468   2.732   4.578
 1741SOL    HW1 6122   1.504   2.817   4.616
 1741SOL    HW2 6123   1.541   2.682   4.532
 1742SOL     OW 6124   5.727   0.328   6.488
 1742SOL    HW1 6125   5.770   0.361   6.404
 1742SOL    HW2 6126   5.684   0.240   6.471
 1743SOL     OW 6127   0.654   1.625   2.176
 1743SOL    HW1 6128   0.597   1.649   2.098
 1743SOL    HW2 6129   0.700   1.708   2.210
 1744SOL     OW 6130   2.779   2.073   5.268
 1744SOL    HW1 6131   2.821   2.138   5.331
 1744SOL    HW2 6132   2.734   2.122   5.194
 1745SOL     OW 6133   6.025   6.998   1.069
 1745SOL    HW1 6134   6.026   6.981   1.168
 1745SOL    HW2 6135   5.974   0.058   1.050
 1746SOL     OW 6136   2.541   5.063   2.360
 1746SOL    HW1 6137   2.589   5.146   2.331
 1746SOL    HW2 6138   2.579   4.984   2.311
 1747SOL     OW 6139   2.895   6.816   1.956
 1747SOL    HW1 6140   2.946   6.767   2.027
 1747SOL    HW2 6141   2.939   6.802   1.867
 1748SOL     OW 6142   0.007   1.592   3.587
 1748SOL    HW1 6143   0.030   1.562   3.494
 1748SOL    HW2 6144   6.932   1.596   3.596
 1749SOL     OW 6145   6.231   5.709   2.599
 1749SOL    HW1 6146   6.164   5.660   2.543
 1749SOL    HW2 6147   6.187   5.787   2.643
 1750SOL     OW 6148   2.501   1.796   0.856
 1750SOL    HW1 6149   2.469   1.762   0.768
 1750SOL    HW2 6150   2.428   1.847   0.902
 1751SOL     OW 6151   6.556   4.334   4.629
 1751SOL    HW1 6152   6.621   4.361   4.559
 1751SOL    HW2 6153   6.476   4.291   4.586
 1752SOL     OW 6154   5.958   0.396   3.323
 1752SOL    HW1 6155   5.947   0.448   3.408
 1752SOL    HW2 6156   5.969   0.459   3.246
 1753SOL     OW 6157   6.932   1.481   1.170
 1753SOL    HW1 6158   0.007   1.498   1.170
 1753SOL    HW2 6159   6.890   1.533   1.096
 1754SOL     OW 6160   1.853   4.358   4.121
 1754SOL    HW1 6161   1.774   4.309   4.086
 1754SOL    HW2 6162   1.824   4.445   4.161
 1755SOL     OW 6163   5.401   6.739   5.359
 1755SOL    HW1 6164   5.441   6.826   5.389
 1755SOL    HW2 6165   5.307   6.732   5.392
 1756SOL     OW 6166   4.453   5.158   1.121
 1756SOL    HW1 6167   4.451   5.258   1.121
 1756SOL    HW2 6168   4.422   5.123   1.209
 1757SOL     OW 6169   3.219   5.002   5.325
 1757SOL    HW1 6170   3.128   5.034   5.299
 1757SOL    HW2 6171   3.232   4.908   5.293
 1758SOL     OW 6172   0.249   6.432   4.089
 1758SOL    HW1 6173   0.234   6.395   4.181
 1758SOL    HW2 6174   0.347   6.435   4.071
 1759SOL     OW 6175   1.914   5.204   5.792
 1759SOL    HW1 6176   1.973   5.257   5.732
 1759SOL    HW2 6177   1.968   5.138   5.843
 1760SOL     OW 6178   5.795   1.397   4.478
 1760SOL    HW1 6179   5.734   1.321   4.457
 1760SOL    HW2 6180   5.745   1.484   4.469
 1761SOL     OW 6181   4.957   2.508   3.992
 1761SOL    HW1 6182   4.980   2.551   3.905
 1761SOL    HW2 6183   4.995   2.561   4.067
 1762SOL     OW 6184   0.956   1.477   5.101
 1762SOL    HW1 6185   0.960   1.572   5.071
 1762SOL    HW2 6186   1.037   1.428   5.069
 1763SOL     OW 6187   1.521   5.243   4.307
 1763SOL    HW1 6188   1.459   5.306   4.261
 1763SOL    HW2 6189   1.609   5.242   4.258
 1764SOL     OW 6190   0.368   5.220   3.418
 1764SOL    HW1 6191   0.446   5.183   3.367
 1764SOL    HW2 6192   0.307   5.146   3.444
 1765SOL     OW 6193   5.367   4.115   2.239
 1765SOL    HW1 6194   5.410   4.147   2.155
 1765SOL    HW2 6195   5.291   4.176   2.264
 1766SOL     OW 6196   3.952   4.991   3.173
 1766SOL    HW1 6197   3.878   4.945   3.123
 1766SOL    HW2 6198   3.914   5.051   3.242
 1767SOL     OW 6199   2.486   4.073   1.728
 1767SOL    HW1 6200   2.477   3.977   1.703
 1767SOL    HW2 6201   2.493   4.129   1.645
 1768SOL     OW 6202   3.571   5.207   2.678
 1768SOL    HW1 6203   3.509   5.262   2.622
 1768SOL    HW2 6204   3.529   5.118   2.696
 1769SOL     OW 6205   5.541   0.392   0.797
 1769SOL    HW1 6206   5.484   0.338   0.737
 1769SOL    HW2 6207   5.579   0.334   0.869
 1770SOL     OW 6208   2.214   3.799   0.451
 1770SOL    HW1 6209   2.171   3.849   0.376
 1770SOL    HW2 6210   2.303   3.763   0.421
 1771SOL     OW 6211   1.624   3.001   6.238
 1771SOL    HW1 6212   1.672   2.997   6.150
 1771SOL    HW2 6213   1.689   2.983   6.311
 1772SOL     OW 6214   2.725   5.101   1.991
 1772SOL    HW1 6215   2.811   5.116   1.943
 1772SOL    HW2 6216   2.742   5.049   2.075
 1773SOL     OW 6217   2.140   6.128   5.156
 1773SOL    HW1 6218   2.059   6.098   5.207
 1773SOL    HW2 6219   2.219   6.075   5.186
 1774SOL     OW 6220   5.640   4.786   1.566
 1774SOL    HW1 6221   5.562   4.830   1.610
 1774SOL    HW2 6222   5.633   4.796   1.467
 1775SOL     OW 6223   1.987   6.724   1.166
 1775SOL    HW1 6224   1.989   6.630   1.201
 1775SOL    HW2 6225   1.902   6.739   1.115
 1776SOL     OW 6226   4.497   3.168   5.882
 1776SOL    HW1 6227   4.431   3.126   5.944
 1776SOL    HW2 6228   4.453   3.243   5.832
 1777SOL     OW 6229   4.772   4.592   6.389
 1777SOL    HW1 6230   4.833   4.524   6.348
 1777SOL    HW2 6231   4.694   4.547   6.431
 1778SOL     OW 6232   6.783   0.567   2.832
 1778SOL    HW1 6233   6.873   0.528   2.814
 1778SOL    HW2 6234   6.712   0.498   2.815
 1779SOL     OW 6235   0.059   6.760   4.834
 1779SOL    HW1 6236   0.149   6.741   4.794
 1779SOL    HW2 6237   0.002   6.679   4.829
 1780SOL     OW 6238   2.651   6.981   5.063
 1780SOL    HW1 6239   2.579   6.946   5.003
 1780SOL    HW2 6240   2.728   6.918   5.063
 1781SOL     OW 6241   3.819   1.381   5.687
 1781SOL    HW1 6242   3.773   1.309   5.634
 1781SOL    HW2 6243   3.751   1.444   5.723
 1782SOL     OW 6244   5.635   0.445   2.781
 1782SOL    HW1 6245   5.547   0.483   2.752
 1782SOL    HW2 6246   5.691   0.426   2.700
 1783SOL     OW 6247   1.492   3.215   7.010
 1783SOL    HW1 6248   1.448   3.289   0.037
 1783SOL    HW2 6249   1.435   3.191   6.931
 1784SOL     OW 6250   1.870   6.099   1.406
 1784SOL    HW1 6251   1.951   6.076   1.460
 1784SOL    HW2 6252   1.788   6.067   1.454
 1785SOL     OW 6253   2.254   5.010   5.480
 1785SOL    HW1 6254   2.258   5.051   5.571
 1785SOL    HW2 6255   2.269   5.082   5.411
 1786SOL     OW 6256   0.602   5.661   2.356
 1786SOL    HW1 6257   0.683   5.711   2.386
 1786SOL    HW2 6258   0.528   5.676   2.421
 1787SOL     OW 6259   2.759   1.846   6.179
 1787SOL    HW1 6260   2.679   1.823   6.124
 1787SOL    HW2 6261   2.837   1.793   6.148
 1788SOL     OW 6262   3.715   4.146   0.542
 1788SOL    HW1 6263   3.640   4.130   0.607
 1788SOL    HW2 6264   3.770   4.063   0.533
 1789SOL     OW 6265   6.247   3.061   3.388
 1789SOL    HW1 6266   6.229   3.056   3.289
 1789SOL    HW2 6267   6.319   3.128   3.405
 1790SOL     OW 6268   2.539   2.538   4.503
 1790SOL    HW1 6269   2.440   2.522   4.498
 1790SOL    HW2 6270   2.572   2.572   4.415
 1791SOL     OW 6271   6.311   0.430   3.476
 1791SOL    HW1 6272   6.284   0.416   3.571
 1791SOL    HW2 6273   6.274   0.516   3.442
 1792SOL     OW 6274   0.077   3.447   5.822
 1792SOL    HW1 6275   0.174   3.425   5.826
 1792SOL    HW2 6276   0.025   3.383   5.879
 1793SOL     OW 6277   0.449   1.997   4.864
 1793SOL    HW1 6278   0.507   2.003   4.783
 1793SOL    HW2 6279   0.380   2.069   4.861
 1794SOL     OW 6280   6.961   2.025   6.374
 1794SOL    HW1 6281   6.925   1.931   6.373
 1794SOL    HW2 6282   6.921   2.075   6.450
 1795SOL     OW 6283   6.055   3.837   0.834
 1795SOL    HW1 6284   6.003   3.858   0.752
 1795SOL    HW2 6285   6.047   3.912   0.899
 1796SOL     OW 6286   6.303   6.985   6.516
 1796SOL    HW1 6287   6.262   0.047   6.547
 1796SOL    HW2 6288   6.296   6.917   6.588
 1797SOL     OW 6289   2.868   5.912   5.967
 1797SOL    HW1 6290   2.953   5.904   5.914
 1797SOL    HW2 6291   2.850   5.825   6.014
 1798SOL     OW 6292   2.552   4.148   6.913
 1798SOL    HW1 6293   2.489   4.203   6.859
 1798SOL    HW2 6294   2.585   4.200   6.991
 1799SOL     OW 6295   4.179   1.700   1.636
 1799SOL    HW1 6296   4.152   1.616   1.684
 1799SOL    HW2 6297   4.277   1.715   1.647
 1800SOL     OW 6298   5.624   2.489   5.721
 1800SOL    HW1 6299   5.614   2.390   5.709
 1800SOL    HW2 6300   5.695   2.507   5.790
 1801SOL     OW 6301   0.778   1.832   2.331
 1801SOL    HW1 6302   0.791   1.766   2.404
 1801SOL    HW2 6303   0.715   1.904   2.362
 1802SOL     OW 6304   6.306   4.712   4.750
 1802SOL    HW1 6305   6.220   4.761   4.731
 1802SOL    HW2 6306   6.369   4.774   4.797
 1803SOL     OW 6307   6.256   6.565   3.831
 1803SOL    HW1 6308   6.280   6.618   3.750
 1803SOL    HW2 6309   6.287   6.614   3.913
 1804SOL     OW 6310   1.356   3.029   6.354
 1804SOL    HW1 6311   1.395   2.971   6.283
 1804SOL    HW2 6312   1.388   3.123   6.343
 1805SOL     OW 6313   6.470   4.949   5.848
 1805SOL    HW1 6314   6.558   4.923   5.888
 1805SOL    HW2 6315   6.396   4.919   5.908
 1806SOL     OW 6316   0.280   1.165   1.920
 1806SOL    HW1 6317   0.202   1.148   1.860
 1806SOL    HW2 6318   0.248   1.208   2.005
 1807SOL     OW 6319   6.372   2.777   2.278
 1807SOL    HW1 6320   6.461   2.754   2.316
 1807SOL    HW2 6321   6.312   2.697   2.281
 1808SOL     OW 6322   6.571   0.970   0.158
 1808SOL    HW1 6323   6.522   0.897   0.111
 1808SOL    HW2 6324   6.514   1.052   0.160
 1809SOL     OW 6325   4.242   0.484   4.719
 1809SOL    HW1 6326   4.159   0.483   4.774
 1809SOL    HW2 6327   4.289   0.397   4.727
 1810SOL     OW 6328   1.387   0.963   4.424
 1810SOL    HW1 6329   1.452   0.994   4.355
 1810SOL    HW2 6330   1.390   0.863   4.430
 1811SOL     OW 6331   3.429   5.421   1.422
 1811SOL    HW1 6332   3.386   5.335   1.451
 1811SOL    HW2 6333   3.505   5.443   1.482
 1812SOL     OW 6334   3.938   1.081   6.793
 1812SOL    HW1 6335   4.024   1.105   6.839
 1812SOL    HW2 6336   3.939   0.984   6.770
 1813SOL     OW 6337   5.811   3.687   1.528
 1813SOL    HW1 6338   5.875   3.612   1.514
 1813SOL    HW2 6339   5.853   3.757   1.587
 1814SOL     OW 6340   6.650   5.546   1.457
 1814SOL    HW1 6341   6.664   5.583   1.365
 1814SOL    HW2 6342   6.636   5.621   1.521
 1815SOL     OW 6343   6.660   5.362   1.160
 1815SOL    HW1 6344   6.627   5.305   1.235
 1815SOL    HW2 6345   6.585   5.420   1.127
 1816SOL     OW 6346   3.842   4.919   4.552
 1816SOL    HW1 6347   3.771   4.929   4.622
 1816SOL    HW2 6348   3.932   4.912   4.597
 1817SOL     OW 6349   6.450   2.899   4.437
 1817SOL    HW1 6350   6.503   2.873   4.518
 1817SOL    HW2 6351   6.382   2.829   4.417
 1818SOL     OW 6352   2.228   2.147   0.144
 1818SOL    HW1 6353   2.141   2.170   0.186
 1818SOL    HW2 6354   2.281   2.230   0.129
 1819SOL     OW 6355   0.563   3.382   0.718
 1819SOL    HW1 6356   0.604   3.338   0.798
 1819SOL    HW2 6357   0.592   3.333   0.635
 1820SOL     OW 6358   3.566   6.459   4.948
 1820SOL    HW1 6359   3.610   6.531   4.894
 1820SOL    HW2 6360   3.605   6.370   4.923
 1821SOL     OW 6361   4.338   1.063   2.880
 1821SOL    HW1 6362   4.310   0.967   2.872
 1821SOL    HW2 6363   4.437   1.068   2.892
 1822SOL     OW 6364   2.435   4.697   4.993
 1822SOL    HW1 6365   2.501   4.770   4.975
 1822SOL    HW2 6366   2.410   4.653   4.907
 1823SOL     OW 6367   4.666   0.068   4.428
 1823SOL    HW1 6368   4.683   0.065   4.526
 1823SOL    HW2 6369   4.753   0.063   4.379
 1824SOL     OW 6370   4.562   2.819   1.772
 1824SOL    HW1 6371   4.595   2.896   1.827
 1824SOL    HW2 6372   4.470   2.840   1.738
 1825SOL     OW 6373   1.504   3.659   0.484
 1825SOL    HW1 6374   1.554   3.708   0.556
 1825SOL    HW2 6375   1.538   3.687   0.395
 1826SOL     OW 6376   3.970   3.069   6.672
 1826SOL    HW1 6377   3.902   3.013   6.720
 1826SOL    HW2 6378   4.007   3.137   6.734
 1827SOL     OW 6379   5.077   4.526   0.960
 1827SOL    HW1 6380   5.173   4.513   0.982
 1827SOL    HW2 6381   5.025   4.542   1.044
 1828SOL     OW 6382   2.864   5.448   5.135
 1828SOL    HW1 6383   2.798   5.495   5.193
 1828SOL    HW2 6384   2.913   5.380   5.189
 1829SOL     OW 6385   2.091   6.421   2.434
 1829SOL    HW1 6386   2.022   6.351   2.412
 1829SOL    HW2 6387   2.181   6.378   2.439
 1830SOL     OW 6388   4.494   1.218   0.005
 1830SOL    HW1 6389   4.501   1.122   0.033
 1830SOL    HW2 6390   4.581   1.248   6.990
 1831SOL     OW 6391   3.641   3.991   6.555
 1831SOL    HW1 6392   3.718   4.002   6.493
 1831SOL    HW2 6393   3.662   4.035   6.643
 1832SOL     OW 6394   2.319   2.098   5.583
 1832SOL    HW1 6395   2.329   2.193   5.611
 1832SOL    HW2 6396   2.222   2.076   5.572
 1833SOL     OW 6397   5.681   1.569   0.132
 1833SOL    HW1 6398   5.720   1.540   0.045
 1833SOL    HW2 6399   5.719   1.514   0.206
 1834SOL     OW 6400   1.772   3.511   6.625
 1834SOL    HW1 6401   1.701   3.575   6.597
 1834SOL    HW2 6402   1.808   3.537   6.715
 1835SOL     OW 6403   6.247   0.237   6.578
 1835SOL    HW1 6404   6.338   0.253   6.618
 1835SOL    HW2 6405   6.232   0.302   6.503
 1836SOL     OW 6406   6.013   1.162   4.795
 1836SOL    HW1 6407   5.933   1.164   4.734
 1836SOL    HW2 6408   6.042   1.067   4.808
 1837SOL     OW 6409   1.306   1.840   1.020
 1837SOL    HW1 6410   1.225   1.855   1.077
 1837SOL    HW2 6411   1.360   1.765   1.058
 1838SOL     OW 6412   4.800   0.365   0.476
 1838SOL    HW1 6413   4.897   0.340   0.484
 1838SOL    HW2 6414   4.778   0.383   0.380
 1839SOL     OW 6415   0.134   2.053   6.670
 1839SOL    HW1 6416   0.224   2.011   6.682
 1839SOL    HW2 6417   0.141   2.128   6.604
 1840SOL     OW 6418   2.228   6.798   5.406
 1840SOL    HW1 6419   2.286   6.798   5.325
 1840SOL    HW2 6420   2.283   6.770   5.485
 1841SOL     OW 6421   2.730   7.015   1.701
 1841SOL    HW1 6422   2.700   6.920   1.699
 1841SOL    HW2 6423   2.693   0.040   1.622
 1842SOL     OW 6424   0.418   4.738   1.625
 1842SOL    HW1 6425   0.372   4.734   1.536
 1842SOL    HW2 6426   0.371   4.804   1.683
 1843SOL     OW 6427   3.911   1.082   6.472
 1843SOL    HW1 6428   3.963   1.155   6.516
 1843SOL    HW2 6429   3.948   0.993   6.499
 1844SOL     OW 6430   5.377   3.682   1.545
 1844SOL    HW1 6431   5.324   3.597   1.536
 1844SOL    HW2 6432   5.467   3.669   1.505
 1845SOL     OW 6433   0.415   2.552   4.829
 1845SOL    HW1 6434   0.357   2.558   4.748
 1845SOL    HW2 6435   0.473   2.633   4.835
 1846SOL     OW 6436   3.801   1.202   2.257
 1846SOL    HW1 6437   3.779   1.271   2.327
 1846SOL    HW2 6438   3.794   1.243   2.167
 1847SOL     OW 6439   2.991   5.496   6.846
 1847SOL    HW1 6440   3.062   5.427   6.860
 1847SOL    HW2 6441   3.008   5.574   6.907
 1848SOL     OW 6442   3.301   6.063   4.337
 1848SOL    HW1 6443   3.370   6.123   4.378
 1848SOL    HW2 6444   3.343   6.010   4.263
 1849SOL     OW 6445   5.157   2.825   2.214
 1849SOL    HW1 6446   5.223   2.784   2.151
 1849SOL    HW2 6447   5.071   2.842   2.166
 1850SOL     OW 6448   4.842   1.133   0.421
 1850SOL    HW1 6449   4.816   1.062   0.486
 1850SOL    HW2 6450   4.805   1.111   0.330
 1851SOL     OW 6451   1.601   4.936   4.075
 1851SOL    HW1 6452   1.680   4.976   4.028
 1851SOL    HW2 6453   1.524   4.929   4.011
 1852SOL     OW 6454   0.116   0.429   4.289
 1852SOL    HW1 6455   0.094   0.469   4.378
 1852SOL    HW2 6456   0.069   0.481   4.217
 1853SOL     OW 6457   1.213   2.068   4.906
 1853SOL    HW1 6458   1.252   1.987   4.949
 1853SOL    HW2 6459   1.197   2.050   4.809
 1854SOL     OW 6460   1.212   0.030   4.089
 1854SOL    HW1 6461   1.183   0.008   3.996
 1854SOL    HW2 6462   1.179   6.983   4.152
 1855SOL     OW 6463   6.398   1.419   5.159
 1855SOL    HW1 6464   6.457   1.494   5.129
 1855SOL    HW2 6465   6.324   1.406   5.093
 1856SOL     OW 6466   4.466   3.825   0.053
 1856SOL    HW1 6467   4.547   3.871   0.089
 1856SOL    HW2 6468   4.439   3.869   6.991
 1857SOL     OW 6469   4.655   0.426   6.711
 1857SOL    HW1 6470   4.614   0.357   6.651
 1857SOL    HW2 6471   4.641   0.517   6.672
 1858SOL     OW 6472   4.408   2.321   4.567
 1858SOL    HW1 6473   4.355   2.320   4.652
 1858SOL    HW2 6474   4.346   2.327   4.489
 1859SOL     OW 6475   6.238   6.055   3.100
 1859SOL    HW1 6476   6.252   6.086   3.005
 1859SOL    HW2 6477   6.151   6.008   3.107
 1860SOL     OW 6478   2.295   0.351   0.620
 1860SOL    HW1 6479   2.302   0.371   0.717
 1860SOL    HW2 6480   2.325   0.257   0.603
 1861SOL     OW 6481   6.531   0.150   5.219
 1861SOL    HW1 6482   6.626   0.175   5.202
 1861SOL    HW2 6483   6.471   0.226   5.192
 1862SOL     OW 6484   4.378   4.941   4.816
 1862SOL    HW1 6485   4.313   4.888   4.871
 1862SOL    HW2 6486   4.338   4.961   4.727
 1863SOL     OW 6487   6.921   0.975   1.274
 1863SOL    HW1 6488   6.839   0.964   1.218
 1863SOL    HW2 6489   6.987   1.033   1.226
 1864SOL     OW 6490   2.727   5.680   2.214
 1864SOL    HW1 6491   2.662   5.638   2.279
 1864SOL    HW2 6492   2.676   5.723   2.139
 1865SOL     OW 6493   6.025   2.426   6.045
 1865SOL    HW1 6494   6.034   2.326   6.051
 1865SOL    HW2 6495   6.062   2.467   6.128
 1866SOL     OW 6496   0.158   4.496   5.027
 1866SOL    HW1 6497   0.071   4.491   5.075
 1866SOL    HW2 6498   0.153   4.565   4.955
 1867SOL     OW 6499   1.603   0.388   0.438
 1867SOL    HW1 6500   1.661   0.374   0.518
 1867SOL    HW2 6501   1.627   0.321   0.368
 1868SOL     OW 6502   6.084   3.381   5.894
 1868SOL    HW1 6503   6.061   3.464   5.842
 1868SOL    HW2 6504   6.045   3.301   5.849
 1869SOL     OW 6505   4.811   0.861   5.125
 1869SOL    HW1 6506   4.907   0.834   5.120
 1869SOL    HW2 6507   4.804   0.960   5.117
 1870SOL     OW 6508   5.775   1.525   5.837
 1870SOL    HW1 6509   5.787   1.538   5.936
 1870SOL    HW2 6510   5.705   1.456   5.821
 1871SOL     OW 6511   2.705   4.655   6.975
 1871SOL    HW1 6512   2.753   4.601   6.906
 1871SOL    HW2 6513   2.609   4.665   6.948
 1872SOL     OW 6514   2.183   3.704   6.599
 1872SOL    HW1 6515   2.112   3.741   6.539
 1872SOL    HW2 6516   2.270   3.703   6.550
 1873SOL     OW 6517   6.029   1.077   1.800
 1873SOL    HW1 6518   5.931   1.076   1.783
 1873SOL    HW2 6519   6.076   1.027   1.727
 1874SOL     OW 6520   2.294   5.307   6.899
 1874SOL    HW1 6521   2.294   5.219   6.853
 1874SOL    HW2 6522   2.378   5.317   6.952
 1875SOL     OW 6523   1.116   6.032   2.204
 1875SOL    HW1 6524   1.096   6.128   2.227
 1875SOL    HW2 6525   1.043   5.996   2.146
 1876SOL     OW 6526   0.985   4.816   5.527
 1876SOL    HW1 6527   1.035   4.900   5.545
 1876SOL    HW2 6528   1.033   4.762   5.458
 1877SOL     OW 6529   0.327   1.210   3.531
 1877SOL    HW1 6530   0.426   1.195   3.530
 1877SOL    HW2 6531   0.286   1.165   3.452
 1878SOL     OW 6532   5.737   3.833   4.119
 1878SOL    HW1 6533   5.774   3.916   4.079
 1878SOL    HW2 6534   5.717   3.767   4.047
 1879SOL     OW 6535   4.000   6.195   5.033
 1879SOL    HW1 6536   4.038   6.116   4.984
 1879SOL    HW2 6537   4.026   6.279   4.986
 1880SOL     OW 6538   1.991   3.664   4.333
 1880SOL    HW1 6539   2.006   3.603   4.255
 1880SOL    HW2 6540   1.898   3.698   4.331
 1881SOL     OW 6541   3.058   2.063   2.988
 1881SOL    HW1 6542   2.991   2.008   3.038
 1881SOL    HW2 6543   3.037   2.061   2.890
 1882SOL     OW 6544   4.135   7.005   6.930
 1882SOL    HW1 6545   4.131   0.037   7.013
 1882SOL    HW2 6546   4.204   6.934   6.941
 1883SOL     OW 6547   2.134   3.839   2.810
 1883SOL    HW1 6548   2.073   3.898   2.863
 1883SOL    HW2 6549   2.127   3.863   2.713
 1884SOL     OW 6550   4.964   0.716   0.645
 1884SOL    HW1 6551   5.030   0.736   0.573
 1884SOL    HW2 6552   4.976   0.622   0.676
 1885SOL     OW 6553   0.087   1.810   1.115
 1885SOL    HW1 6554   0.178   1.783   1.082
 1885SOL    HW2 6555   0.023   1.811   1.039
 1886SOL     OW 6556   3.402   2.882   4.659
 1886SOL    HW1 6557   3.364   2.911   4.572
 1886SOL    HW2 6558   3.353   2.928   4.734
 1887SOL     OW 6559   0.781   5.993   5.584
 1887SOL    HW1 6560   0.875   5.979   5.615
 1887SOL    HW2 6561   0.748   6.080   5.619
 1888SOL     OW 6562   2.220   1.459   5.626
 1888SOL    HW1 6563   2.270   1.376   5.599
 1888SOL    HW2 6564   2.130   1.458   5.583
 1889SOL     OW 6565   3.615   3.783   6.933
 1889SOL    HW1 6566   3.636   3.699   6.983
 1889SOL    HW2 6567   3.591   3.760   6.839
 1890SOL     OW 6568   5.812   6.719   6.512
 1890SOL    HW1 6569   5.818   6.814   6.540
 1890SOL    HW2 6570   5.887   6.697   6.450
 1891SOL     OW 6571   4.959   3.321   0.008
 1891SOL    HW1 6572   5.039   3.297   6.977
 1891SOL    HW2 6573   4.986   3.380   0.084
 1892SOL     OW 6574   3.617   0.905   3.292
 1892SOL    HW1 6575   3.582   0.941   3.206
 1892SOL    HW2 6576   3.541   0.871   3.347
 1893SOL     OW 6577   2.796   2.489   6.931
 1893SOL    HW1 6578   2.879   2.542   6.916
 1893SOL    HW2 6579   2.816   2.411   6.990
 1894SOL     OW 6580   5.237   2.992   1.043
 1894SOL    HW1 6581   5.139   3.010   1.051
 1894SOL    HW2 6582   5.251   2.896   1.018
 1895SOL     OW 6583   4.101   6.067   2.946
 1895SOL    HW1 6584   4.141   6.106   3.029
 1895SOL    HW2 6585   4.122   5.969   2.942
 1896SOL     OW 6586   0.345   1.621   4.216
 1896SOL    HW1 6587   0.344   1.594   4.312
 1896SOL    HW2 6588   0.374   1.716   4.208
 1897SOL     OW 6589   5.256   5.373   3.574
 1897SOL    HW1 6590   5.242   5.307   3.500
 1897SOL    HW2 6591   5.204   5.344   3.654
 1898SOL     OW 6592   5.164   6.117   0.302
 1898SOL    HW1 6593   5.142   6.131   0.206
 1898SOL    HW2 6594   5.238   6.180   0.329
 1899SOL     OW 6595   1.697   3.189   3.943
 1899SOL    HW1 6596   1.778   3.131   3.953
 1899SOL    HW2 6597   1.676   3.200   3.845
 1900SOL     OW 6598   2.605   5.884   1.415
 1900SOL    HW1 6599   2.628   5.981   1.430
 1900SOL    HW2 6600   2.510   5.877   1.383
 1901SOL     OW 6601   0.238   1.425   6.542
 1901SOL    HW1 6602   0.252   1.524   6.530
 1901SOL    HW2 6603   0.252   1.379   6.454
 1902SOL     OW 6604   1.571   2.628   4.852
 1902SOL    HW1 6605   1.660   2.645   4.810
 1902SOL    HW2 6606   1.552   2.530   4.850
 1903SOL     OW 6607   6.899   6.323   4.169
 1903SOL    HW1 6608   6.883   6.421   4.168
 1903SOL    HW2 6609   6.979   6.302   4.112
 1904SOL     OW 6610   0.892   1.005   3.948
 1904SOL    HW1 6611   0.961   1.064   3.990
 1904SOL    HW2 6612   0.826   0.975   4.018
 1905SOL     OW 6613   5.777   2.607   6.255
 1905SOL    HW1 6614   5.867   2.649   6.240
 1905SOL    HW2 6615   5.741   2.637   6.343
 1906SOL     OW 6616   2.339   5.730   5.560
 1906SOL    HW1 6617   2.413   5.731   5.627
 1906SOL    HW2 6618   2.257   5.772   5.600
 1907SOL     OW 6619   4.621   0.313   3.101
 1907SOL    HW1 6620   4.609   0.215   3.086
 1907SOL    HW2 6621   4.640   0.358   3.014
 1908SOL     OW 6622   5.556   4.429   0.597
 1908SOL    HW1 6623   5.464   4.395   0.580
 1908SOL    HW2 6624   5.571   4.439   0.695
 1909SOL     OW 6625   5.074   5.355   4.056
 1909SOL    HW1 6626   4.979   5.357   4.087
 1909SOL    HW2 6627   5.078   5.308   3.967
 1910SOL     OW 6628   5.576   3.543   4.163
 1910SOL    HW1 6629   5.588   3.623   4.104
 1910SOL    HW2 6630   5.535   3.469   4.110
 1911SOL     OW 6631   0.846   2.358   5.756
 1911SOL    HW1 6632   0.787   2.317   5.825
 1911SOL    HW2 6633   0.810   2.337   5.665
 1912SOL     OW 6634   3.695   0.512   2.351
 1912SOL    HW1 6635   3.743   0.426   2.337
 1912SOL    HW2 6636   3.756   0.588   2.327
 1913SOL     OW 6637   3.006   3.906   6.663
 1913SOL    HW1 6638   3.033   3.814   6.694
 1913SOL    HW2 6639   2.937   3.898   6.592
 1914SOL     OW 6640   4.329   1.505   5.277
 1914SOL    HW1 6641   4.313   1.603   5.270
 1914SOL    HW2 6642   4.257   1.456   5.227
 1915SOL     OW 6643   2.656   6.415   5.269
 1915SOL    HW1 6644   2.677   6.389   5.363
 1915SOL    HW2 6645   2.576   6.364   5.238
 1916SOL     OW 6646   3.734   6.460   2.933
 1916SOL    HW1 6647   3.742   6.481   3.031
 1916SOL    HW2 6648   3.793   6.382   2.912
 1917SOL     OW 6649   3.724   3.979   3.181
 1917SOL    HW1 6650   3.745   4.021   3.269
 1917SOL    HW2 6651   3.778   3.896   3.169
 1918SOL     OW 6652   0.849   6.640   6.250
 1918SOL    HW1 6653   0.842   6.655   6.152
 1918SOL    HW2 6654   0.917   6.569   6.268
 1919SOL     OW 6655   5.613   0.846   1.791
 1919SOL    HW1 6656   5.526   0.893   1.804
 1919SOL    HW2 6657   5.599   0.762   1.739
 1920SOL     OW 6658   6.230   6.617   4.489
 1920SOL    HW1 6659   6.133   6.594   4.478
 1920SOL    HW2 6660   6.277   6.605   4.402
 1921SOL     OW 6661   2.231   6.610   0.161
 1921SOL    HW1 6662   2.321   6.586   0.127
 1921SOL    HW2 6663   2.171   6.530   0.159
 1922SOL     OW 6664   3.504   4.763   6.873
 1922SOL    HW1 6665   3.481   4.734   6.780
 1922SOL    HW2 6666   3.422   4.758   6.930
 1923SOL     OW 6667   1.439   3.065   1.554
 1923SOL    HW1 6668   1.484   3.025   1.634
 1923SOL    HW2 6669   1.411   2.992   1.492
 1924SOL     OW 6670   0.849   4.076   1.685
 1924SOL    HW1 6671   0.934   4.129   1.679
 1924SOL    HW2 6672   0.866   3.995   1.742
 1925SOL     OW 6673   3.250   4.842   0.352
 1925SOL    HW1 6674   3.309   4.878   0.425
 1925SOL    HW2 6675   3.267   4.745   0.340
 1926SOL     OW 6676   0.046   0.324   2.948
 1926SOL    HW1 6677   0.004   0.241   2.986
 1926SOL    HW2 6678   7.012   0.403   2.968
 1927SOL     OW 6679   5.278   3.667   1.939
 1927SOL    HW1 6680   5.203   3.632   1.883
 1927SOL    HW2 6681   5.240   3.718   2.017
 1928SOL     OW 6682   0.456   5.445   4.884
 1928SOL    HW1 6683   0.382   5.438   4.817
 1928SOL    HW2 6684   0.424   5.496   4.964
 1929SOL     OW 6685   1.652   4.443   3.321
 1929SOL    HW1 6686   1.741   4.463   3.281
 1929SOL    HW2 6687   1.664   4.383   3.400
 1930SOL     OW 6688   6.472   5.958   6.313
 1930SOL    HW1 6689   6.542   5.887   6.301
 1930SOL    HW2 6690   6.461   6.008   6.228
 1931SOL     OW 6691   2.397   2.308   3.100
 1931SOL    HW1 6692   2.355   2.303   3.010
 1931SOL    HW2 6693   2.489   2.345   3.092
 1932SOL     OW 6694   5.831   3.172   2.062
 1932SOL    HW1 6695   5.787   3.205   2.146
 1932SOL    HW2 6696   5.786   3.088   2.032
 1933SOL     OW 6697   2.346   4.989   0.460
 1933SOL    HW1 6698   2.346   5.047   0.541
 1933SOL    HW2 6699   2.439   4.959   0.439
 1934SOL     OW 6700   0.313   6.594   2.894
 1934SOL    HW1 6701   0.340   6.504   2.862
 1934SOL    HW2 6702   0.259   6.640   2.824
 1935SOL     OW 6703   0.896   1.532   2.044
 1935SOL    HW1 6704   0.956   1.474   2.099
 1935SOL    HW2 6705   0.803   1.527   2.079
 1936SOL     OW 6706   0.471   6.045   5.008
 1936SOL    HW1 6707   0.527   5.980   5.058
 1936SOL    HW2 6708   0.395   5.996   4.964
 1937SOL     OW 6709   4.670   2.121   3.606
 1937SOL    HW1 6710   4.643   2.033   3.644
 1937SOL    HW2 6711   4.681   2.187   3.680
 1938SOL     OW 6712   4.664   0.089   3.832
 1938SOL    HW1 6713   4.683   0.163   3.897
 1938SOL    HW2 6714   4.595   0.027   3.871
 1939SOL     OW 6715   2.670   0.899   4.166
 1939SOL    HW1 6716   2.756   0.933   4.128
 1939SOL    HW2 6717   2.652   0.944   4.254
 1940SOL     OW 6718   6.767   0.160   6.912
 1940SOL    HW1 6719   6.857   0.120   6.898
 1940SOL    HW2 6720   6.743   0.156   7.009
 1941SOL     OW 6721   4.520   4.861   2.674
 1941SOL    HW1 6722   4.538   4.819   2.763
 1941SOL    HW2 6723   4.564   4.951   2.670
 1942SOL     OW 6724   0.189   3.542   2.598
 1942SOL    HW1 6725   0.189   3.486   2.681
 1942SOL    HW2 6726   0.167   3.484   2.519
 1943SOL     OW 6727   3.388   5.286   3.211
 1943SOL    HW1 6728   3.458   5.219   3.188
 1943SOL    HW2 6729   3.387   5.301   3.310
 1944SOL     OW 6730   6.537   6.518   1.853
 1944SOL    HW1 6731   6.555   6.604   1.902
 1944SOL    HW2 6732   6.469   6.465   1.903
 1945SOL     OW 6733   3.134   5.203   2.185
 1945SOL    HW1 6734   3.199   5.197   2.109
 1945SOL    HW2 6735   3.086   5.291   2.181
 1946SOL     OW 6736   1.356   6.427   6.668
 1946SOL    HW1 6737   1.333   6.341   6.712
 1946SOL    HW2 6738   1.448   6.455   6.695
 1947SOL     OW 6739   4.399   1.397   3.822
 1947SOL    HW1 6740   4.354   1.364   3.739
 1947SOL    HW2 6741   4.457   1.325   3.860
 1948SOL     OW 6742   6.385   2.877   5.232
 1948SOL    HW1 6743   6.415   2.970   5.255
 1948SOL    HW2 6744   6.286   2.873   5.236
 1949SOL     OW 6745   4.532   3.329   6.991
 1949SOL    HW1 6746   4.619   3.338   0.015
 1949SOL    HW2 6747   4.478   3.413   7.004
 1950SOL     OW 6748   2.277   5.066   0.999
 1950SOL    HW1 6749   2.181   5.050   1.020
 1950SOL    HW2 6750   2.333   5.049   1.080
 1951SOL     OW 6751   5.647   3.242   6.432
 1951SOL    HW1 6752   5.556   3.264   6.397
 1951SOL    HW2 6753   5.708   3.223   6.355
 1952SOL     OW 6754   3.044   3.180   3.226
 1952SOL    HW1 6755   3.097   3.098   3.249
 1952SOL    HW2 6756   3.000   3.215   3.309
 1953SOL     OW 6757   0.660   1.986   4.631
 1953SOL    HW1 6758   0.651   1.886   4.628
 1953SOL    HW2 6759   0.590   2.028   4.573
 1954SOL     OW 6760   2.050   2.366   4.146
 1954SOL    HW1 6761   2.138   2.403   4.175
 1954SOL    HW2 6762   2.017   2.417   4.067
 1955SOL     OW 6763   6.427   5.715   3.071
 1955SOL    HW1 6764   6.338   5.712   3.024
 1955SOL    HW2 6765   6.452   5.623   3.100
 1956SOL     OW 6766   3.759   6.141   3.190
 1956SOL    HW1 6767   3.823   6.067   3.210
 1956SOL    HW2 6768   3.720   6.176   3.275
 1957SOL     OW 6769   2.266   5.886   6.012
 1957SOL    HW1 6770   2.334   5.813   6.022
 1957SOL    HW2 6771   2.175   5.846   6.004
 1958SOL     OW 6772   3.913   3.492   6.056
 1958SOL    HW1 6773   3.950   3.541   6.135
 1958SOL    HW2 6774   3.985   3.434   6.017
 1959SOL     OW 6775   3.258   0.368   0.893
 1959SOL    HW1 6776   3.175   0.337   0.941
 1959SOL    HW2 6777   3.235   0.390   0.799
 1960SOL     OW 6778   4.668   5.159   3.133
 1960SOL    HW1 6779   4.577   5.153   3.175
 1960SOL    HW2 6780   4.663   5.214   3.050
 1961SOL     OW 6781   5.749   4.880   5.218
 1961SOL    HW1 6782   5.793   4.969   5.208
 1961SOL    HW2 6783   5.654   4.886   5.187
 1962SOL     OW 6784   1.050   6.365   4.016
 1962SOL    HW1 6785   1.096   6.454   4.024
 1962SOL    HW2 6786   1.119   6.294   4.002
 1963SOL     OW 6787   2.305   1.302   3.563
 1963SOL    HW1 6788   2.251   1.231   3.518
 1963SOL    HW2 6789   2.253   1.388   3.564
 1964SOL     OW 6790   6.434   2.481   2.050
 1964SOL    HW1 6791   6.508   2.512   2.108
 1964SOL    HW2 6792   6.372   2.557   2.031
 1965SOL     OW 6793   1.675   6.965   3.413
 1965SOL    HW1 6794   1.700   6.889   3.353
 1965SOL    HW2 6795   1.719   6.954   3.501
 1966SOL     OW 6796   6.562   6.386   0.214
 1966SOL    HW1 6797   6.660   6.377   0.196
 1966SOL    HW2 6798   6.516   6.300   0.193
 1967SOL     OW 6799   6.495   2.471   4.957
 1967SOL    HW1 6800   6.494   2.564   4.994
 1967SOL    HW2 6801   6.584   2.429   4.973
 1968SOL     OW 6802   4.325   5.447   4.392
 1968SOL    HW1 6803   4.299   5.524   4.450
 1968SOL    HW2 6804   4.423   5.452   4.374
 1969SOL     OW 6805   6.161   0.777   1.662
 1969SOL    HW1 6806   6.072   0.765   1.705
 1969SOL    HW2 6807   6.228   0.806   1.731
 1970SOL     OW 6808   2.408   1.571   4.916
 1970SOL    HW1 6809   2.413   1.612   5.007
 1970SOL    HW2 6810   2.314   1.574   4.883
 1971SOL     OW 6811   0.219   1.483   5.987
 1971SOL    HW1 6812   0.208   1.582   5.997
 1971SOL    HW2 6813   0.264   1.446   6.068
 1972SOL     OW 6814   1.214   6.781   3.791
 1972SOL    HW1 6815   1.289   6.779   3.857
 1972SOL    HW2 6816   1.167   6.870   3.797
 1973SOL     OW 6817   3.710   2.862   6.996
 1973SOL    HW1 6818   3.611   2.849   7.001
 1973SOL    HW2 6819   3.732   2.918   6.917
 1974SOL     OW 6820   6.115   5.985   4.419
 1974SOL    HW1 6821   6.046   6.021   4.356
 1974SOL    HW2 6822   6.082   5.900   4.459
 1975SOL     OW 6823   2.471   6.825   3.885
 1975SOL    HW1 6824   2.381   6.868   3.877
 1975SOL    HW2 6825   2.536   6.891   3.922
 1976SOL     OW 6826   6.419   4.552   6.265
 1976SOL    HW1 6827   6.515   4.526   6.252
 1976SOL    HW2 6828   6.393   4.620   6.196
 1977SOL     OW 6829   3.037   2.042   5.094
 1977SOL    HW1 6830   3.078   2.110   5.032
 1977SOL    HW2 6831   2.980   2.090   5.161
 1978SOL     OW 6832   0.078   2.576   4.932
 1978SOL    HW1 6833   0.097   2.663   4.886
 1978SOL    HW2 6834   0.083   2.501   4.866
 1979SOL     OW 6835   6.734   4.315   2.680
 1979SOL    HW1 6836   6.692   4.229   2.710
 1979SOL    HW2 6837   6.666   4.369   2.630
 1980SOL     OW 6838   2.505   0.610   2.871
 1980SOL    HW1 6839   2.542   0.517   2.873
 1980SOL    HW2 6840   2.541   0.662   2.949
 1981SOL     OW 6841   5.666   3.222   2.368
 1981SOL    HW1 6842   5.580   3.219   2.419
 1981SOL    HW2 6843   5.685   3.316   2.341
 1982SOL     OW 6844   0.250   6.682   5.460
 1982SOL    HW1 6845   0.274   6.683   5.363
 1982SOL    HW2 6846   0.188   6.606   5.479
 1983SOL     OW 6847   1.006   4.991   1.558
 1983SOL    HW1 6848   0.929   5.055   1.560
 1983SOL    HW2 6849   1.006   4.941   1.471
 1984SOL     OW 6850   3.746   0.451   5.794
 1984SOL    HW1 6851   3.717   0.506   5.716
 1984SOL    HW2 6852   3.769   0.359   5.762
 1985SOL     OW 6853   1.097   5.633   2.011
 1985SOL    HW1 6854   1.062   5.696   2.079
 1985SOL    HW2 6855   1.057   5.542   2.025
 1986SOL     OW 6856   6.186   2.350   0.957
 1986SOL    HW1 6857   6.127   2.430   0.943
 1986SOL    HW2 6858   6.278   2.370   0.922
 1987SOL     OW 6859   2.198   3.363   0.477
 1987SOL    HW1 6860   2.104   3.343   0.452
 1987SOL    HW2 6861   2.251   3.277   0.477
 1988SOL     OW 6862   4.795   2.528   1.130
 1988SOL    HW1 6863   4.713   2.470   1.139
 1988SOL    HW2 6864   4.795   2.597   1.202
 1989SOL     OW 6865   2.710   2.184   3.230
 1989SOL    HW1 6866   2.639   2.113   3.230
 1989SOL    HW2 6867   2.667   2.274   3.230
 1990SOL     OW 6868   1.255   0.005   2.883
 1990SOL    HW1 6869   1.344   0.029   2.844
 1990SOL    HW2 6870   1.267   7.000   2.978
 1991SOL     OW 6871   5.061   5.544   2.684
 1991SOL    HW1 6872   5.051   5.445   2.699
 1991SOL    HW2 6873   5.154   5.572   2.706
 1992SOL     OW 6874   2.300   5.588   5.323
 1992SOL    HW1 6875   2.333   5.618   5.412
 1992SOL    HW2 6876   2.201   5.580   5.325
 1993SOL     OW 6877   3.145   3.108   4.157
 1993SOL    HW1 6878   3.129   3.087   4.254
 1993SOL    HW2 6879   3.198   3.192   4.149
 1994SOL     OW 6880   6.483   2.031   1.183
 1994SOL    HW1 6881   6.481   2.010   1.085
 1994SOL    HW2 6882   6.390   2.025   1.220
 1995SOL     OW 6883   4.128   2.642   1.680
 1995SOL    HW1 6884   4.113   2.593   1.594
 1995SOL    HW2 6885   4.043   2.644   1.732
 1996SOL     OW 6886   2.283   5.173   5.719
 1996SOL    HW1 6887   2.360   5.162   5.782
 1996SOL    HW2 6888   2.204   5.124   5.755
 1997SOL     OW 6889   5.639   6.336   4.652
 1997SOL    HW1 6890   5.707   6.265   4.635
 1997SOL    HW2 6891   5.620   6.341   4.750
 1998SOL     OW 6892   3.060   4.962   4.743
 1998SOL    HW1 6893   3.029   4.916   4.660
 1998SOL    HW2 6894   2.989   4.956   4.813
 1999SOL     OW 6895   3.644   1.722   1.924
 1999SOL    HW1 6896   3.744   1.723   1.926
 1999SOL    HW2 6897   3.610   1.663   1.997
 2000SOL     OW 6898   2.790   1.354   5.698
 2000SOL    HW1 6899   2.800   1.451   5.672
 2000SOL    HW2 6900   2.718   1.312   5.643
 2001SOL     OW 6901   2.049   3.206   0.177
 2001SOL    HW1 6902   2.046   3.236   0.081
 2001SOL    HW2 6903   2.128   3.147   0.191
 2002SOL     OW 6904   1.761   4.977   5.011
 2002SOL    HW1 6905   1.683   4.953   4.953
 2002SOL    HW2 6906   1.791   5.070   4.990
 2003SOL     OW 6907   6.492   3.668   3.264
 2003SOL    HW1 6908   6.477   3.643   3.360
 2003SOL    HW2 6909   6.418   3.727   3.233
 2004SOL     OW 6910   3.219   0.407   6.431
 2004SOL    HW1 6911   3.220   0.307   6.441
 2004SOL    HW2 6912   3.130   0.442   6.462
 2005SOL     OW 6913   2.442   0.041   5.271
 2005SOL    HW1 6914   2.432   6.975   5.228
 2005SOL    HW2 6915   2.519   0.040   5.334
 2006SOL     OW 6916   4.839   0.126   2.804
 2006SOL    HW1 6917   4.866   0.199   2.867
 2006SOL    HW2 6918   4.828   0.041   2.855
 2007SOL     OW 6919   6.950   5.180   0.101
 2007SOL    HW1 6920   6.933   5.276   0.123
 2007SOL    HW2 6921   0.018   5.170   0.062
 2008SOL     OW 6922   0.377   5.896   5.958
 2008SOL    HW1 6923   0.397   5.798   5.966
 2008SOL    HW2 6924   0.295   5.917   6.012
 2009SOL     OW 6925   1.270   0.721   0.032
 2009SOL    HW1 6926   1.234   0.776   6.981
 2009SOL    HW2 6927   1.370   0.715   0.024
 2010SOL     OW 6928   2.564   0.983   0.983
 2010SOL    HW1 6929   2.609   1.038   0.912
 2010SOL    HW2 6930   2.467   0.971   0.959
 2011SOL     OW 6931   6.692   1.453   4.664
 2011SOL    HW1 6932   6.788   1.480   4.670
 2011SOL    HW2 6933   6.635   1.534   4.647
 2012SOL     OW 6934   6.956   3.566   2.035
 2012SOL    HW1 6935   6.948   3.625   1.955
 2012SOL    HW2 6936   6.996   3.618   2.111
 2013SOL     OW 6937   3.494   2.309   1.636
 2013SOL    HW1 6938   3.556   2.315   1.714
 2013SOL    HW2 6939   3.412   2.364   1.654
 2014SOL     OW 6940   3.277   5.127   3.481
 2014SOL    HW1 6941   3.269   5.187   3.560
 2014SOL    HW2 6942   3.209   5.154   3.412
 2015SOL     OW 6943   2.770   5.128   0.156
 2015SOL    HW1 6944   2.805   5.220   0.137
 2015SOL    HW2 6945   2.680   5.135   0.197
 2016SOL     OW 6946   6.922   5.326   5.063
 2016SOL    HW1 6947   6.863   5.337   4.983
 2016SOL    HW2 6948   7.008   5.282   5.035
 2017SOL     OW 6949   1.911   4.921   1.367
 2017SOL    HW1 6950   1.916   4.979   1.448
 2017SOL    HW2 6951   1.868   4.971   1.292
 2018SOL     OW 6952   0.296   4.865   5.012
 2018SOL    HW1 6953   0.254   4.874   5.102
 2018SOL    HW2 6954   0.266   4.779   4.970
 2019SOL     OW 6955   5.186   0.464   2.360
 2019SOL    HW1 6956   5.185   0.544   2.300
 2019SOL    HW2 6957   5.252   0.397   2.325
 2020SOL     OW 6958   2.257   5.064   3.291
 2020SOL    HW1 6959   2.263   5.102   3.384
 2020SOL    HW2 6960   2.217   4.972   3.296
 2021SOL     OW 6961   1.891   6.092   1.965
 2021SOL    HW1 6962   1.855   6.119   2.054
 2021SOL    HW2 6963   1.855   6.002   1.940
 2022SOL     OW 6964   4.050   5.395   1.635
 2022SOL    HW1 6965   3.953   5.415   1.652
 2022SOL    HW2 6966   4.107   5.452   1.694
 2023SOL     OW 6967   6.925   2.641   6.021
 2023SOL    HW1 6968   6.929   2.571   5.950
 2023SOL    HW2 6969   6.974   2.722   5.990
 2024SOL     OW 6970   5.522   6.966   3.526
 2024SOL    HW1 6971   5.552   6.945   3.619
 2024SOL    HW2 6972   5.568   6.905   3.461
 2025SOL     OW 6973   6.228   1.046   1.213
 2025SOL    HW1 6974   6.275   1.133   1.198
 2025SOL    HW2 6975   6.201   1.039   1.309
 2026SOL     OW 6976   2.351   2.049   4.740
 2026SOL    HW1 6977   2.346   1.990   4.660
 2026SOL    HW2 6978   2.264   2.099   4.750
 2027SOL     OW 6979   6.295   6.979   2.475
 2027SOL    HW1 6980   6.366   6.938   2.417
 2027SOL    HW2 6981   6.208   6.934   2.458
 2028SOL     OW 6982   3.790   4.225   5.930
 2028SOL    HW1 6983   3.752   4.151   5.874
 2028SOL    HW2 6984   3.732   4.306   5.922
 2029SOL     OW 6985   2.179   0.328   0.237
 2029SOL    HW1 6986   2.207   0.239   0.273
 2029SOL    HW2 6987   2.214   0.401   0.296
 2030SOL     OW 6988   2.157   3.076   2.485
 2030SOL    HW1 6989   2.176   3.044   2.392
 2030SOL    HW2 6990   2.226   3.039   2.548
 2031SOL     OW 6991   5.830   7.014   2.361
 2031SOL    HW1 6992   5.901   0.056   2.388
 2031SOL    HW2 6993   5.754   7.020   2.426
 2032SOL     OW 6994   4.195   6.365   2.414
 2032SOL    HW1 6995   4.238   6.437   2.359
 2032SOL    HW2 6996   4.179   6.399   2.506
 2033SOL     OW 6997   0.032   4.692   6.831
 2033SOL    HW1 6998   0.072   4.771   6.785
 2033SOL    HW2 6999   0.054   4.695   6.928
 2034SOL     OW 7000   2.158   5.544   4.203
 2034SOL    HW1 7001   2.144   5.456   4.159
 2034SOL    HW2 7002   2.156   5.617   4.134
 2035SOL     OW 7003   0.753   1.347   3.381
 2035SOL    HW1 7004   0.723   1.353   3.285
 2035SOL    HW2 7005   0.739   1.436   3.425
 2036SOL     OW 7006   1.086   4.561   1.254
 2036SOL    HW1 7007   1.028   4.501   1.199
 2036SOL    HW2 7008   1.070   4.544   1.351
 2037SOL     OW 7009   0.728   3.231   6.200
 2037SOL    HW1 7010   0.699   3.169   6.128
 2037SOL    HW2 7011   0.721   3.325   6.168
 2038SOL     OW 7012   1.716   6.993   4.956
 2038SOL    HW1 7013   1.746   0.033   5.026
 2038SOL    HW2 7014   1.792   6.933   4.931
 2039SOL     OW 7015   1.047   5.330   2.068
 2039SOL    HW1 7016   1.017   5.327   2.164
 2039SOL    HW2 7017   1.062   5.236   2.036
 2040SOL     OW 7018   3.837   3.066   4.419
 2040SOL    HW1 7019   3.770   3.037   4.487
 2040SOL    HW2 7020   3.834   3.166   4.411
 2041SOL     OW 7021   5.046   2.991   0.091
 2041SOL    HW1 7022   5.041   2.912   0.152
 2041SOL    HW2 7023   5.142   3.006   0.064
 2042SOL     OW 7024   3.160   6.414   0.285
 2042SOL    HW1 7025   3.175   6.511   0.307
 2042SOL    HW2 7026   3.189   6.358   0.363
 2043SOL     OW 7027   5.189   5.578   2.415
 2043SOL    HW1 7028   5.129   5.599   2.492
 2043SOL    HW2 7029   5.148   5.506   2.359
 2044SOL     OW 7030   6.722   0.515   2.118
 2044SOL    HW1 7031   6.651   0.444   2.113
 2044SOL    HW2 7032   6.765   0.512   2.208
 2045SOL     OW 7033   3.276   6.745   5.638
 2045SOL    HW1 7034   3.215   6.801   5.695
 2045SOL    HW2 7035   3.327   6.804   5.576
 2046SOL     OW 7036   5.900   0.354   5.722
 2046SOL    HW1 7037   5.835   0.365   5.798
 2046SOL    HW2 7038   5.981   0.410   5.738
 2047SOL     OW 7039   4.861   3.200   0.286
 2047SOL    HW1 7040   4.897   3.115   0.250
 2047SOL    HW2 7041   4.841   3.263   0.211
 2048SOL     OW 7042   4.525   6.472   5.343
 2048SOL    HW1 7043   4.536   6.567   5.313
 2048SOL    HW2 7044   4.536   6.467   5.443
 2049SOL     OW 7045   5.531   5.674   6.498
 2049SOL    HW1 7046   5.450   5.643   6.449
 2049SOL    HW2 7047   5.506   5.750   6.559
 2050SOL     OW 7048   5.712   1.052   3.342
 2050SOL    HW1 7049   5.623   1.090   3.369
 2050SOL    HW2 7050   5.784   1.119   3.358
 2051SOL     OW 7051   3.256   5.826   1.199
 2051SOL    HW1 7052   3.226   5.754   1.262
 2051SOL    HW2 7053   3.193   5.831   1.121
 2052SOL     OW 7054   1.456   2.502   0.797
 2052SOL    HW1 7055   1.519   2.466   0.865
 2052SOL    HW2 7056   1.464   2.448   0.713
 2053SOL     OW 7057   4.662   0.643   0.447
 2053SOL    HW1 7058   4.747   0.653   0.499
 2053SOL    HW2 7059   4.680   0.592   0.362
 2054SOL     OW 7060   0.797   3.072   0.995
 2054SOL    HW1 7061   0.869   3.068   0.926
 2054SOL    HW2 7062   0.769   2.979   1.020
 2055SOL     OW 7063   6.602   0.829   3.863
 2055SOL    HW1 7064   6.701   0.828   3.871
 2055SOL    HW2 7065   6.574   0.897   3.796
 2056SOL     OW 7066   0.086   6.633   2.330
 2056SOL    HW1 7067   0.152   6.665   2.262
 2056SOL    HW2 7068   0.111   6.540   2.359
 2057SOL     OW 7069   4.929   3.100   4.234
 2057SOL    HW1 7070   5.006   3.065   4.288
 2057SOL    HW2 7071   4.869   3.024   4.209
 2058SOL     OW 7072   1.037   1.408   1.204
 2058SOL    HW1 7073   0.998   1.466   1.275
 2058SOL    HW2 7074   0.989   1.423   1.118
 2059SOL     OW 7075   1.842   0.567   6.928
 2059SOL    HW1 7076   1.809   0.594   7.018
 2059SOL    HW2 7077   1.940   0.549   6.932
 2060SOL     OW 7078   0.565   4.824   3.718
 2060SOL    HW1 7079   0.603   4.732   3.711
 2060SOL    HW2 7080   0.465   4.819   3.722
 2061SOL     OW 7081   1.497   0.473   0.147
 2061SOL    HW1 7082   1.561   0.396   0.151
 2061SOL    HW2 7083   1.410   0.446   0.188
 2062SOL     OW 7084   3.767   0.103   4.100
 2062SOL    HW1 7085   3.746   0.074   4.007
 2062SOL    HW2 7086   3.708   0.179   4.126
 2063SOL     OW 7087   2.600   2.892   1.309
 2063SOL    HW1 7088   2.515   2.910   1.259
 2063SOL    HW2 7089   2.610   2.959   1.382
 2064SOL     OW 7090   1.076   1.981   0.771
 2064SOL    HW1 7091   1.055   1.889   0.736
 2064SOL    HW2 7092   1.039   1.991   0.863
 2065SOL     OW 7093   0.165   3.094   3.168
 2065SOL    HW1 7094   0.069   3.072   3.154
 2065SOL    HW2 7095   0.220   3.055   3.094
 2066SOL     OW 7096   0.845   6.560   3.186
 2066SOL    HW1 7097   0.794   6.630   3.236
 2066SOL    HW2 7098   0.786   6.517   3.118
 2067SOL     OW 7099   0.059   0.614   0.908
 2067SOL    HW1 7100   0.080   0.546   0.838
 2067SOL    HW2 7101   0.145   0.651   0.944
 2068SOL     OW 7102   2.466   2.482   5.082
 2068SOL    HW1 7103   2.479   2.494   4.983
 2068SOL    HW2 7104   2.446   2.571   5.124
 2069SOL     OW 7105   1.472   2.241   1.697
 2069SOL    HW1 7106   1.450   2.289   1.612
 2069SOL    HW2 7107   1.557   2.278   1.735
 2070SOL     OW 7108   0.460   1.835   2.353
 2070SOL    HW1 7109   0.367   1.798   2.358
 2070SOL    HW2 7110   0.469   1.892   2.271
 2071SOL     OW 7111   2.563   5.802   5.791
 2071SOL    HW1 7112   2.636   5.733   5.785
 2071SOL    HW2 7113   2.523   5.800   5.882
 2072SOL     OW 7114   5.448   4.616   2.489
 2072SOL    HW1 7115   5.405   4.689   2.542
 2072SOL    HW2 7116   5.546   4.635   2.481
 2073SOL     OW 7117   3.045   6.460   5.127
 2073SOL    HW1 7118   3.138   6.469   5.090
 2073SOL    HW2 7119   3.039   6.376   5.180
 2074SOL     OW 7120   5.286   1.813   2.808
 2074SOL    HW1 7121   5.243   1.852   2.890
 2074SOL    HW2 7122   5.364   1.870   2.782
 2075SOL     OW 7123   3.461   3.142   6.395
 2075SOL    HW1 7124   3.478   3.192   6.310
 2075SOL    HW2 7125   3.381   3.083   6.383
 2076SOL     OW 7126   5.050   6.583   0.646
 2076SOL    HW1 7127   5.122   6.591   0.577
 2076SOL    HW2 7128   5.083   6.618   0.734
 2077SOL     OW 7129   3.915   0.924   4.733
 2077SOL    HW1 7130   3.929   0.826   4.719
 2077SOL    HW2 7131   3.981   0.976   4.677
 2078SOL     OW 7132   3.995   6.529   3.905
 2078SOL    HW1 7133   4.017   6.567   3.995
 2078SOL    HW2 7134   4.057   6.568   3.837
 2079SOL     OW 7135   5.554   0.226   4.120
 2079SOL    HW1 7136   5.511   0.148   4.074
 2079SOL    HW2 7137   5.554   0.210   4.218
 2080SOL     OW 7138   2.902   1.871   3.094
 2080SOL    HW1 7139   2.826   1.806   3.099
 2080SOL    HW2 7140   2.935   1.890   3.186
 2081SOL     OW 7141   1.577   5.694   3.404
 2081SOL    HW1 7142   1.611   5.771   3.350
 2081SOL    HW2 7143   1.482   5.674   3.378
 2082SOL     OW 7144   5.043   0.848   2.668
 2082SOL    HW1 7145   4.984   0.916   2.710
 2082SOL    HW2 7146   5.130   0.844   2.717
 2083SOL     OW 7147   3.765   4.725   5.729
 2083SOL    HW1 7148   3.843   4.767   5.775
 2083SOL    HW2 7149   3.704   4.797   5.695
 2084SOL     OW 7150   0.199   2.312   3.142
 2084SOL    HW1 7151   0.218   2.390   3.202
 2084SOL    HW2 7152   0.226   2.335   3.048
 2085SOL     OW 7153   5.923   6.863   0.472
 2085SOL    HW1 7154   5.998   6.798   0.463
 2085SOL    HW2 7155   5.839   6.814   0.495
 2086SOL     OW 7156   3.897   5.468   6.515
 2086SOL    HW1 7157   3.946   5.542   6.469
 2086SOL    HW2 7158   3.801   5.494   6.527
 2087SOL     OW 7159   5.871   5.910   2.946
 2087SOL    HW1 7160   5.911   5.897   3.036
 2087SOL    HW2 7161   5.882   5.827   2.891
 2088SOL     OW 7162   2.217   6.380   1.142
 2088SOL    HW1 7163   2.171   6.418   1.222
 2088SOL    HW2 7164   2.171   6.296   1.114
 2089SOL     OW 7165   2.501   1.085   6.667
 2089SOL    HW1 7166   2.517   0.992   6.700
 2089SOL    HW2 7167   2.403   1.104   6.665
 2090SOL     OW 7168   3.038   3.775   3.431
 2090SOL    HW1 7169   3.049   3.776   3.531
 2090SOL    HW2 7170   3.049   3.868   3.396
 2091SOL     OW 7171   2.531   4.452   1.879
 2091SOL    HW1 7172   2.536   4.388   1.956
 2091SOL    HW2 7173   2.561   4.407   1.796
 2092SOL     OW 7174   6.152   0.376   0.843
 2092SOL    HW1 7175   6.195   0.303   0.789
 2092SOL    HW2 7176   6.176   0.465   0.804
 2093SOL     OW 7177   1.861   1.238   1.680
 2093SOL    HW1 7178   1.861   1.338   1.674
 2093SOL    HW2 7179   1.955   1.205   1.684
 2094SOL     OW 7180   0.090   0.590   2.455
 2094SOL    HW1 7181   0.090   0.645   2.371
 2094SOL    HW2 7182   0.082   0.651   2.534
 2095SOL     OW 7183   6.127   4.505   5.230
 2095SOL    HW1 7184   6.118   4.512   5.329
 2095SOL    HW2 7185   6.166   4.589   5.193
 2096SOL     OW 7186   4.781   4.441   3.693
 2096SOL    HW1 7187   4.815   4.535   3.701
 2096SOL    HW2 7188   4.695   4.442   3.641
 2097SOL     OW 7189   6.201   3.356   5.533
 2097SOL    HW1 7190   6.117   3.324   5.578
 2097SOL    HW2 7191   6.277   3.350   5.597
 2098SOL     OW 7192   4.165   0.573   4.255
 2098SOL    HW1 7193   4.223   0.517   4.196
 2098SOL    HW2 7194   4.176   0.669   4.231
 2099SOL     OW 7195   2.484   1.665   4.083
 2099SOL    HW1 7196   2.477   1.765   4.077
 2099SOL    HW2 7197   2.398   1.624   4.054
 2100SOL     OW 7198   4.629   4.797   5.859
 2100SOL    HW1 7199   4.666   4.767   5.947
 2100SOL    HW2 7200   4.530   4.783   5.857
 2101SOL     OW 7201   5.342   0.032   1.694
 2101SOL    HW1 7202   5.396   0.082   1.627
 2101SOL    HW2 7203   5.384   6.967   1.711
 2102SOL     OW 7204   0.009   5.097   1.344
 2102SOL    HW1 7205   7.018   5.195   1.340
 2102SOL    HW2 7206   6.944   5.050   1.348
 2103SOL     OW 7207   3.275   3.933   6.730
 2103SOL    HW1 7208   3.294   3.994   6.807
 2103SOL    HW2 7209   3.176   3.933   6.712
 2104SOL     OW 7210   1.002   5.085   6.373
 2104SOL    HW1 7211   1.085   5.053   6.329
 2104SOL    HW2 7212   1.026   5.144   6.451
 2105SOL     OW 7213   5.837   5.915   2.507
 2105SOL    HW1 7214   5.868   5.950   2.595
 2105SOL    HW2 7215   5.870   5.975   2.434
 2106SOL     OW 7216   5.782   6.253   5.945
 2106SOL    HW1 7217   5.706   6.294   5.894
 2106SOL    HW2 7218   5.749   6.220   6.033
 2107SOL     OW 7219   2.593   4.921   0.394
 2107SOL    HW1 7220   2.675   4.905   0.448
 2107SOL    HW2 7221   2.575   4.840   0.337
 2108SOL     OW 7222   5.661   4.826   6.534
 2108SOL    HW1 7223   5.579   4.771   6.552
 2108SOL    HW2 7224   5.689   4.814   6.439
 2109SOL     OW 7225   5.330   5.556   2.797
 2109SOL    HW1 7226   5.387   5.595   2.724
 2109SOL    HW2 7227   5.319   5.458   2.782
 2110SOL     OW 7228   1.146   4.999   5.648
 2110SOL    HW1 7229   1.160   5.085   5.598
 2110SOL    HW2 7230   1.147   5.016   5.746
 2111SOL     OW 7231   1.674   2.067   6.556
 2111SOL    HW1 7232   1.727   2.039   6.476
 2111SOL    HW2 7233   1.581   2.090   6.528
 2112SOL     OW 7234   5.171   3.821   0.576
 2112SOL    HW1 7235   5.161   3.909   0.624
 2112SOL    HW2 7236   5.130   3.749   0.631
 2113SOL     OW 7237   6.975   1.198   3.486
 2113SOL    HW1 7238   0.038   1.225   3.527
 2113SOL    HW2 7239   6.908   1.178   3.558
 2114SOL     OW 7240   1.373   3.200   6.766
 2114SOL    HW1 7241   1.313   3.139   6.714
 2114SOL    HW2 7242   1.341   3.294   6.757
 2115SOL     OW 7243   4.245   5.275   1.877
 2115SOL    HW1 7244   4.241   5.374   1.860
 2115SOL    HW2 7245   4.155   5.242   1.904
 2116SOL     OW 7246   0.294   3.782   4.130
 2116SOL    HW1 7247   0.233   3.861   4.141
 2116SOL    HW2 7248   0.240   3.698   4.126
 2117SOL     OW 7249   6.059   5.990   5.732
 2117SOL    HW1 7250   6.022   5.919   5.792
 2117SOL    HW2 7251   6.024   6.079   5.761
 2118SOL     OW 7252   6.994   2.954   2.393
 2118SOL    HW1 7253   0.036   2.880   2.410
 2118SOL    HW2 7254   6.918   2.919   2.339
 2119SOL     OW 7255   4.042   6.593   7.006
 2119SOL    HW1 7256   4.066   6.632   0.070
 2119SOL    HW2 7257   3.947   6.561   7.008
 2120SOL     OW 7258   6.014   3.989   2.382
 2120SOL    HW1 7259   5.981   3.941   2.301
 2120SOL    HW2 7260   6.065   3.925   2.440
 2121SOL     OW 7261   0.696   3.801   4.859
 2121SOL    HW1 7262   0.764   3.872   4.842
 2121SOL    HW2 7263   0.737   3.729   4.916
 2122SOL     OW 7264   3.806   5.005   5.024
 2122SOL    HW1 7265   3.873   5.071   5.058
 2122SOL    HW2 7266   3.838   4.966   4.937
 2123SOL     OW 7267   3.905   5.914   3.281
 2123SOL    HW1 7268   3.820   5.877   3.320
 2123SOL    HW2 7269   3.946   5.847   3.221
 2124SOL     OW 7270   2.200   2.324   1.883
 2124SOL    HW1 7271   2.217   2.244   1.824
 2124SOL    HW2 7272   2.287   2.356   1.921
 2125SOL     OW 7273   4.768   6.028   0.004
 2125SOL    HW1 7274   4.695   6.027   6.959
 2125SOL    HW2 7275   4.788   5.935   0.033
 2126SOL     OW 7276   2.968   1.911   0.899
 2126SOL    HW1 7277   2.875   1.932   0.929
 2126SOL    HW2 7278   2.969   1.900   0.800
 2127SOL     OW 7279   5.833   2.523   4.285
 2127SOL    HW1 7280   5.887   2.551   4.365
 2127SOL    HW2 7281   5.736   2.533   4.306
 2128SOL     OW 7282   0.628   3.537   4.308
 2128SOL    HW1 7283   0.563   3.613   4.308
 2128SOL    HW2 7284   0.707   3.561   4.252
 2129SOL     OW 7285   4.501   2.398   5.007
 2129SOL    HW1 7286   4.433   2.369   4.940
 2129SOL    HW2 7287   4.577   2.444   4.960
 2130SOL     OW 7288   4.981   6.781   3.258
 2130SOL    HW1 7289   4.914   6.853   3.276
 2130SOL    HW2 7290   4.935   6.692   3.255
 2131SOL     OW 7291   4.978   1.545   6.764
 2131SOL    HW1 7292   5.011   1.494   6.685
 2131SOL    HW2 7293   4.965   1.641   6.740
 2132SOL     OW 7294   1.213   3.257   1.627
 2132SOL    HW1 7295   1.161   3.209   1.556
 2132SOL    HW2 7296   1.290   3.201   1.656
 2133SOL     OW 7297   2.548   4.145   6.426
 2133SOL    HW1 7298   2.548   4.091   6.510
 2133SOL    HW2 7299   2.573   4.240   6.448
 2134SOL     OW 7300   0.008   6.758   0.183
 2134SOL    HW1 7301   0.046   6.729   0.271
 2134SOL    HW2 7302   0.042   6.698   0.110
 2135SOL     OW 7303   6.413   5.269   5.722
 2135SOL    HW1 7304   6.347   5.331   5.679
 2135SOL    HW2 7305   6.420   5.185   5.668
 2136SOL     OW 7306   1.626   5.249   0.006
 2136SOL    HW1 7307   1.721   5.223   7.010
 2136SOL    HW2 7308   1.565   5.174   7.005
 2137SOL     OW 7309   1.448   6.739   3.644
 2137SOL    HW1 7310   1.431   6.809   3.574
 2137SOL    HW2 7311   1.378   6.745   3.715
 2138SOL     OW 7312   4.827   2.004   1.830
 2138SOL    HW1 7313   4.797   2.068   1.760
 2138SOL    HW2 7314   4.926   1.989   1.821
 2139SOL     OW 7315   2.765   5.962   5.659
 2139SOL    HW1 7316   2.859   5.980   5.689
 2139SOL    HW2 7317   2.721   5.898   5.723
 2140SOL     OW 7318   2.370   1.944   3.343
 2140SOL    HW1 7319   2.450   1.964   3.287
 2140SOL    HW2 7320   2.379   1.852   3.382
 2141SOL     OW 7321   6.838   3.325   2.675
 2141SOL    HW1 7322   6.884   3.384   2.741
 2141SOL    HW2 7323   6.894   3.245   2.656
 2142SOL     OW 7324   1.746   1.512   1.935
 2142SOL    HW1 7325   1.785   1.532   1.845
 2142SOL    HW2 7326   1.676   1.580   1.956
 2143SOL     OW 7327   6.332   5.810   5.934
 2143SOL    HW1 7328   6.424   5.770   5.930
 2143SOL    HW2 7329   6.277   5.759   6.001
 2144SOL     OW 7330   5.939   4.246   2.827
 2144SOL    HW1 7331   5.943   4.333   2.875
 2144SOL    HW2 7332   5.885   4.181   2.880
 2145SOL     OW 7333   3.232   1.268   3.248
 2145SOL    HW1 7334   3.324   1.280   3.211
 2145SOL    HW2 7335   3.220   1.329   3.327
 2146SOL     OW 7336   1.924   1.381   6.808
 2146SOL    HW1 7337   1.891   1.444   6.738
 2146SOL    HW2 7338   1.871   1.296   6.803
 2147SOL     OW 7339   6.338   0.268   5.596
 2147SOL    HW1 7340   6.261   0.215   5.631
 2147SOL    HW2 7341   6.394   0.300   5.673
 2148SOL     OW 7342   1.856   2.778   5.102
 2148SOL    HW1 7343   1.794   2.705   5.130
 2148SOL    HW2 7344   1.949   2.741   5.094
 2149SOL     OW 7345   0.494   6.729   0.322
 2149SOL    HW1 7346   0.542   6.641   0.319
 2149SOL    HW2 7347   0.432   6.736   0.243
 2150SOL     OW 7348   1.945   2.685   0.314
 2150SOL    HW1 7349   2.043   2.672   0.328
 2150SOL    HW2 7350   1.928   2.773   0.271
 2151SOL     OW 7351   0.958   5.513   6.418
 2151SOL    HW1 7352   1.033   5.549   6.474
 2151SOL    HW2 7353   0.995   5.480   6.331
 2152SOL     OW 7354   5.206   6.529   4.082
 2152SOL    HW1 7355   5.215   6.458   4.151
 2152SOL    HW2 7356   5.239   6.495   3.994
 2153SOL     OW 7357   4.935   6.942   3.907
 2153SOL    HW1 7358   4.890   7.004   3.970
 2153SOL    HW2 7359   4.891   6.946   3.817
 2154SOL     OW 7360   2.774   6.544   2.380
 2154SOL    HW1 7361   2.738   6.496   2.300
 2154SOL    HW2 7362   2.736   6.637   2.383
 2155SOL     OW 7363   5.252   0.584   0.727
 2155SOL    HW1 7364   5.330   0.601   0.668
 2155SOL    HW2 7365   5.246   0.656   0.796
 2156SOL     OW 7366   6.493   1.696   4.340
 2156SOL    HW1 7367   6.396   1.718   4.330
 2156SOL    HW2 7368   6.528   1.737   4.424
 2157SOL     OW 7369   4.450   6.093   3.190
 2157SOL    HW1 7370   4.404   6.182   3.182
 2157SOL    HW2 7371   4.456   6.066   3.286
 2158SOL     OW 7372   3.027   0.004   0.221
 2158SOL    HW1 7373   2.984   6.994   0.305
 2158SOL    HW2 7374   3.109   0.056   0.245
 2159SOL     OW 7375   0.614   1.896   5.435
 2159SOL    HW1 7376   0.550   1.916   5.361
 2159SOL    HW2 7377   0.707   1.917   5.405
 2160SOL     OW 7378   5.424   6.902   7.019
 2160SOL    HW1 7379   5.404   6.953   0.079
 2160SOL    HW2 7380   5.507   6.939   6.977
 2161SOL     OW 7381   1.235   3.644   0.241
 2161SOL    HW1 7382   1.277   3.554   0.240
 2161SOL    HW2 7383   1.305   3.714   0.225
 2162SOL     OW 7384   2.114   6.818   0.374
 2162SOL    HW1 7385   2.176   6.758   0.323
 2162SOL    HW2 7386   2.151   6.910   0.376
 2163SOL     OW 7387   0.808   2.701   4.559
 2163SOL    HW1 7388   0.901   2.736   4.552
 2163SOL    HW2 7389   0.810   2.609   4.598
 2164SOL     OW 7390   2.130   4.480   1.912
 2164SOL    HW1 7391   2.188   4.497   1.832
 2164SOL    HW2 7392   2.186   4.483   1.995
 2165SOL     OW 7393   6.271   2.250   5.799
 2165SOL    HW1 7394   6.331   2.198   5.740
 2165SOL    HW2 7395   6.223   2.320   5.746
 2166SOL     OW 7396   6.797   2.355   2.047
 2166SOL    HW1 7397   6.857   2.281   2.078
 2166SOL    HW2 7398   6.704   2.320   2.036
 2167SOL     OW 7399   1.516   2.147   2.778
 2167SOL    HW1 7400   1.607   2.166   2.816
 2167SOL    HW2 7401   1.499   2.210   2.702
 2168SOL     OW 7402   1.431   2.471   3.436
 2168SOL    HW1 7403   1.415   2.403   3.364
 2168SOL    HW2 7404   1.444   2.424   3.523
 2169SOL     OW 7405   6.774   6.959   0.906
 2169SOL    HW1 7406   6.707   6.889   0.931
 2169SOL    HW2 7407   6.728   0.023   0.894
 2170SOL     OW 7408   1.842   2.693   6.201
 2170SOL    HW1 7409   1.824   2.597   6.184
 2170SOL    HW2 7410   1.843   2.711   6.299
 2171SOL     OW 7411   6.879   6.146   1.705
 2171SOL    HW1 7412   6.903   6.134   1.609
 2171SOL    HW2 7413   6.890   6.242   1.731
 2172SOL     OW 7414   2.503   2.519   4.789
 2172SOL    HW1 7415   2.549   2.553   4.707
 2172SOL    HW2 7416   2.515   2.420   4.795
 2173SOL     OW 7417   4.243   0.615   5.273
 2173SOL    HW1 7418   4.307   0.689   5.255
 2173SOL    HW2 7419   4.187   0.638   5.353
 2174SOL     OW 7420   4.940   0.302   6.162
 2174SOL    HW1 7421   4.947   0.204   6.144
 2174SOL    HW2 7422   4.854   0.337   6.126
 2175SOL     OW 7423   2.955   2.889   5.750
 2175SOL    HW1 7424   2.933   2.799   5.790
 2175SOL    HW2 7425   3.054   2.903   5.752
 2176SOL     OW 7426   6.331   1.818   2.826
 2176SOL    HW1 7427   6.376   1.895   2.870
 2176SOL    HW2 7428   6.284   1.850   2.743
 2177SOL     OW 7429   0.490   1.016   5.311
 2177SOL    HW1 7430   0.515   0.929   5.353
 2177SOL    HW2 7431   0.397   1.010   5.275
 2178SOL     OW 7432   1.802   3.414   2.503
 2178SOL    HW1 7433   1.883   3.378   2.457
 2178SOL    HW2 7434   1.807   3.514   2.507
 2179SOL     OW 7435   1.766   3.938   6.983
 2179SOL    HW1 7436   1.809   3.918   6.895
 2179SOL    HW2 7437   1.671   3.966   6.969
 2180SOL     OW 7438   0.497   5.101   2.991
 2180SOL    HW1 7439   0.524   5.077   2.897
 2180SOL    HW2 7440   0.421   5.041   3.020
 2181SOL     OW 7441   4.251   4.662   3.353
 2181SOL    HW1 7442   4.294   4.651   3.442
 2181SOL    HW2 7443   4.175   4.726   3.360
 2182SOL     OW 7444   0.279   6.801   1.198
 2182SOL    HW1 7445   0.201   6.740   1.187
 2182SOL    HW2 7446   0.248   6.887   1.240
 2183SOL     OW 7447   3.746   3.029   6.796
 2183SOL    HW1 7448   3.731   3.041   6.697
 2183SOL    HW2 7449   3.667   3.063   6.846
 2184SOL     OW 7450   6.425   2.136   6.850
 2184SOL    HW1 7451   6.386   2.156   6.760
 2184SOL    HW2 7452   6.504   2.076   6.839
 2185SOL     OW 7453   0.004   1.164   6.215
 2185SOL    HW1 7454   0.009   1.064   6.210
 2185SOL    HW2 7455   0.028   1.204   6.127
 2186SOL     OW 7456   6.890   6.296   5.853
 2186SOL    HW1 7457   6.927   6.369   5.911
 2186SOL    HW2 7458   6.801   6.268   5.888
 2187SOL     OW 7459   5.922   3.941   1.584
 2187SOL    HW1 7460   6.021   3.945   1.582
 2187SOL    HW2 7461   5.884   4.016   1.530
 2188SOL     OW 7462   3.089   1.914   1.484
 2188SOL    HW1 7463   3.126   1.931   1.575
 2188SOL    HW2 7464   3.115   1.823   1.453
 2189SOL     OW 7465   2.193   0.835   2.230
 2189SOL    HW1 7466   2.117   0.770   2.244
 2189SOL    HW2 7467   2.160   0.928   2.245
 2190SOL     OW 7468   6.779   4.634   1.739
 2190SOL    HW1 7469   6.730   4.659   1.822
 2190SOL    HW2 7470   6.878   4.636   1.756
 2191SOL     OW 7471   3.407   6.993   6.754
 2191SOL    HW1 7472   3.317   7.017   6.792
 2191SOL    HW2 7473   3.444   6.913   6.802
 2192SOL     OW 7474   5.007   2.556   1.830
 2192SOL    HW1 7475   4.992   2.650   1.798
 2192SOL    HW2 7476   5.054   2.504   1.760
 2193SOL     OW 7477   1.613   0.275   5.744
 2193SOL    HW1 7478   1.642   0.238   5.656
 2193SOL    HW2 7479   1.561   0.360   5.730
 2194SOL     OW 7480   0.916   4.366   5.855
 2194SOL    HW1 7481   0.985   4.390   5.924
 2194SOL    HW2 7482   0.828   4.407   5.879
 2195SOL     OW 7483   0.560   4.607   5.137
 2195SOL    HW1 7484   0.477   4.578   5.184
 2195SOL    HW2 7485   0.634   4.542   5.155
 2196SOL     OW 7486   4.167   1.523   6.852
 2196SOL    HW1 7487   4.108   1.561   6.923
 2196SOL    HW2 7488   4.138   1.430   6.830
 2197SOL     OW 7489   4.215   5.189   6.500
 2197SOL    HW1 7490   4.131   5.180   6.446
 2197SOL    HW2 7491   4.196   5.168   6.595
 2198SOL     OW 7492   1.561   0.803   6.043
 2198SOL    HW1 7493   1.523   0.893   6.062
 2198SOL    HW2 7494   1.657   0.811   6.019
 2199SOL     OW 7495   4.482   6.705   3.662
 2199SOL    HW1 7496   4.579   6.717   3.683
 2199SOL    HW2 7497   4.470   6.625   3.604
 2200SOL     OW 7498   2.552   1.909   4.894
 2200SOL    HW1 7499   2.635   1.964   4.901
 2200SOL    HW2 7500   2.500   1.935   4.812
 2201SOL     OW 7501   6.252   3.306   4.430
 2201SOL    HW1 7502   6.275   3.215   4.464
 2201SOL    HW2 7503   6.191   3.297   4.350
 2202SOL     OW 7504   4.355   0.234   4.614
 2202SOL    HW1 7505   4.344   0.135   4.613
 2202SOL    HW2 7506   4.421   0.261   4.544
 2203SOL     OW 7507   2.117   6.145   1.053
 2203SOL    HW1 7508   2.124   6.047   1.068
 2203SOL    HW2 7509   2.038   6.164   0.994
 2204SOL     OW 7510   4.836   2.984   0.630
 2204SOL    HW1 7511   4.929   2.956   0.654
 2204SOL    HW2 7512   4.840   3.067   0.574
 2205SOL     OW 7513   5.313   5.414   1.372
 2205SOL    HW1 7514   5.288   5.318   1.356
 2205SOL    HW2 7515   5.304   5.465   1.287
 2206SOL     OW 7516   3.645   3.195   5.342
 2206SOL    HW1 7517   3.590   3.162   5.419
 2206SOL    HW2 7518   3.680   3.117   5.290
 2207SOL     OW 7519   4.498   4.753   1.336
 2207SOL    HW1 7520   4.542   4.701   1.409
 2207SOL    HW2 7521   4.416   4.704   1.305
 2208SOL     OW 7522   6.555   6.162   2.979
 2208SOL    HW1 7523   6.507   6.074   2.973
 2208SOL    HW2 7524   6.530   6.208   3.064
 2209SOL     OW 7525   2.748   5.792   3.910
 2209SOL    HW1 7526   2.765   5.886   3.883
 2209SOL    HW2 7527   2.810   5.731   3.860
 2210SOL     OW 7528   5.273   6.479   2.126
 2210SOL    HW1 7529   5.330   6.550   2.086
 2210SOL    HW2 7530   5.257   6.407   2.058
 2211SOL     OW 7531   1.724   0.786   1.493
 2211SOL    HW1 7532   1.633   0.824   1.477
 2211SOL    HW2 7533   1.755   0.811   1.585
 2212SOL     OW 7534   3.043   6.077   6.315
 2212SOL    HW1 7535   2.964   6.121   6.358
 2212SOL    HW2 7536   3.109   6.147   6.288
 2213SOL     OW 7537   3.116   1.754   4.588
 2213SOL    HW1 7538   3.088   1.809   4.509
 2213SOL    HW2 7539   3.139   1.815   4.664
 2214SOL     OW 7540   4.299   4.779   6.804
 2214SOL    HW1 7541   4.291   4.715   6.727
 2214SOL    HW2 7542   4.387   4.765   6.850
 2215SOL     OW 7543   6.690   5.315   6.436
 2215SOL    HW1 7544   6.642   5.242   6.387
 2215SOL    HW2 7545   6.643   5.402   6.421
 2216SOL     OW 7546   0.007   6.299   0.099
 2216SOL    HW1 7547   7.002   6.257   0.013
 2216SOL    HW2 7548   0.083   6.246   0.138
 2217SOL     OW 7549   3.935   1.558   3.752
 2217SOL    HW1 7550   3.873   1.518   3.686
 2217SOL    HW2 7551   4.024   1.513   3.747
 2218SOL     OW 7552   6.172   5.451   5.745
 2218SOL    HW1 7553   6.235   5.488   5.813
 2218SOL    HW2 7554   6.194   5.489   5.655
 2219SOL     OW 7555   5.460   2.143   0.386
 2219SOL    HW1 7556   5.366   2.179   0.384
 2219SOL    HW2 7557   5.468   2.065   0.324
 2220SOL     OW 7558   6.598   6.510   4.102
 2220SOL    HW1 7559   6.682   6.560   4.078
 2220SOL    HW2 7560   6.588   6.509   4.202
 2221SOL     OW 7561   5.187   0.050   3.822
 2221SOL    HW1 7562   5.102   0.017   3.865
 2221SOL    HW2 7563   5.165   0.116   3.751
 2222SOL     OW 7564   3.494   1.011   4.063
 2222SOL    HW1 7565   3.555   1.090   4.050
 2222SOL    HW2 7566   3.489   0.960   3.977
 2223SOL     OW 7567   0.683   0.158   5.616
 2223SOL    HW1 7568   0.769   0.130   5.574
 2223SOL    HW2 7569   0.674   0.257   5.612
 2224SOL     OW 7570   5.289   4.658   6.844
 2224SOL    HW1 7571   5.226   4.580   6.842
 2224SOL    HW2 7572   5.362   4.640   6.909
 2225SOL     OW 7573   6.501   0.631   0.593
 2225SOL    HW1 7574   6.478   0.539   0.624
 2225SOL    HW2 7575   6.594   0.631   0.556
 2226SOL     OW 7576   2.744   3.432   6.941
 2226SOL    HW1 7577   2.798   3.473   7.014
 2226SOL    HW2 7578   2.800   3.426   6.858
 2227SOL     OW 7579   4.669   1.736   1.319
 2227SOL    HW1 7580   4.718   1.650   1.308
 2227SOL    HW2 7581   4.583   1.720   1.368
 2228SOL     OW 7582   4.836   6.663   6.587
 2228SOL    HW1 7583   4.917   6.721   6.589
 2228SOL    HW2 7584   4.837   6.606   6.505
 2229SOL     OW 7585   3.402   2.868   4.200
 2229SOL    HW1 7586   3.457   2.785   4.199
 2229SOL    HW2 7587   3.367   2.886   4.108
 2230SOL     OW 7588   6.581   1.437   6.152
 2230SOL    HW1 7589   6.493   1.439   6.104
 2230SOL    HW2 7590   6.608   1.342   6.167
 2231SOL     OW 7591   1.113   6.981   6.061
 2231SOL    HW1 7592   1.023   6.977   6.016
 2231SOL    HW2 7593   1.185   6.968   5.992
 2232SOL     OW 7594   1.615   0.927   6.579
 2232SOL    HW1 7595   1.695   0.987   6.586
 2232SOL    HW2 7596   1.619   0.857   6.650
 2233SOL     OW 7597   3.067   5.784   1.015
 2233SOL    HW1 7598   3.031   5.811   0.926
 2233SOL    HW2 7599   3.035   5.692   1.037
 2234SOL     OW 7600   5.230   1.938   1.826
 2234SOL    HW1 7601   5.323   1.956   1.793
 2234SOL    HW2 7602   5.176   2.021   1.816
 2235SOL     OW 7603   1.371   2.094   3.499
 2235SOL    HW1 7604   1.282   2.117   3.540
 2235SOL    HW2 7605   1.444   2.138   3.551
 2236SOL     OW 7606   2.686   4.759   5.200
 2236SOL    HW1 7607   2.613   4.705   5.242
 2236SOL    HW2 7608   2.763   4.700   5.177
 2237SOL     OW 7609   6.044   6.655   6.360
 2237SOL    HW1 7610   6.029   6.605   6.275
 2237SOL    HW2 7611   6.139   6.644   6.389
 2238SOL     OW 7612   5.244   4.072   1.662
 2238SOL    HW1 7613   5.206   4.003   1.600
 2238SOL    HW2 7614   5.232   4.043   1.756
 2239SOL     OW 7615   3.518   0.462   3.183
 2239SOL    HW1 7616   3.518   0.503   3.092
 2239SOL    HW2 7617   3.609   0.423   3.202
 2240SOL     OW 7618   4.955   5.284   2.735
 2240SOL    HW1 7619   4.979   5.250   2.826
 2240SOL    HW2 7620   4.895   5.218   2.689
 2241SOL     OW 7621   1.185   1.702   3.252
 2241SOL    HW1 7622   1.165   1.702   3.154
 2241SOL    HW2 7623   1.253   1.772   3.273
 2242SOL     OW 7624   5.256   2.178   4.215
 2242SOL    HW1 7625   5.276   2.192   4.312
 2242SOL    HW2 7626   5.258   2.266   4.167
 2243SOL     OW 7627   2.495   0.660   0.285
 2243SOL    HW1 7628   2.507   0.626   0.192
 2243SOL    HW2 7629   2.434   0.739   0.283
 2244SOL     OW 7630   2.255   1.917   0.913
 2244SOL    HW1 7631   2.231   2.012   0.892
 2244SOL    HW2 7632   2.173   1.862   0.920
 2245SOL     OW 7633   0.029   1.343   0.339
 2245SOL    HW1 7634   0.050   1.245   0.343
 2245SOL    HW2 7635   7.023   1.366   0.246
 2246SOL     OW 7636   5.516   1.035   5.563
 2246SOL    HW1 7637   5.486   1.115   5.614
 2246SOL    HW2 7638   5.606   1.007   5.597
 2247SOL     OW 7639   3.768   3.515   1.716
 2247SOL    HW1 7640   3.741   3.472   1.802
 2247SOL    HW2 7641   3.707   3.591   1.696
 2248SOL     OW 7642   5.569   3.235   4.483
 2248SOL    HW1 7643   5.642   3.252   4.416
 2248SOL    HW2 7644   5.607   3.186   4.562
 2249SOL     OW 7645   2.450   6.160   3.644
 2249SOL    HW1 7646   2.456   6.254   3.680
 2249SOL    HW2 7647   2.379   6.156   3.574
 2250SOL     OW 7648   4.159   6.264   6.233
 2250SOL    HW1 7649   4.207   6.227   6.153
 2250SOL    HW2 7650   4.114   6.189   6.282
 2251SOL     OW 7651   3.869   6.949   4.669
 2251SOL    HW1 7652   3.905   7.010   4.740
 2251SOL    HW2 7653   3.869   6.855   4.702
 2252SOL     OW 7654   3.587   1.272   2.629
 2252SOL    HW1 7655   3.539   1.329   2.562
 2252SOL    HW2 7656   3.663   1.323   2.668
 2253SOL     OW 7657   1.198   2.710   1.802
 2253SOL    HW1 7658   1.160   2.717   1.710
 2253SOL    HW2 7659   1.257   2.629   1.808
 2254SOL     OW 7660   3.271   3.017   2.557
 2254SOL    HW1 7661   3.348   3.000   2.618
 2254SOL    HW2 7662   3.188   3.031   2.612
 2255SOL     OW 7663   1.469   1.991   6.245
 2255SOL    HW1 7664   1.416   1.936   6.310
 2255SOL    HW2 7665   1.418   2.000   6.159
 2256SOL     OW 7666   4.828   0.256   1.200
 2256SOL    HW1 7667   4.810   0.351   1.224
 2256SOL    HW2 7668   4.914   0.249   1.150
 2257SOL     OW 7669   0.068   0.681   6.367
 2257SOL    HW1 7670   0.117   0.595   6.378
 2257SOL    HW2 7671   6.994   0.663   6.364
 2258SOL     OW 7672   2.407   0.181   3.261
 2258SOL    HW1 7673   2.325   0.173   3.203
 2258SOL    HW2 7674   2.383   0.229   3.345
 2259SOL     OW 7675   5.979   0.238   5.460
 2259SOL    HW1 7676   6.028   0.309   5.409
 2259SOL    HW2 7677   5.980   0.260   5.557
 2260SOL     OW 7678   1.269   3.644   1.311
 2260SOL    HW1 7679   1.360   3.616   1.280
 2260SOL    HW2 7680   1.211   3.661   1.232
 2261SOL     OW 7681   4.646   4.368   6.604
 2261SOL    HW1 7682   4.694   4.292   6.561
 2261SOL    HW2 7683   4.558   4.381   6.559
 2262SOL     OW 7684   6.661   0.433   3.602
 2262SOL    HW1 7685   6.674   0.334   3.588
 2262SOL    HW2 7686   6.612   0.472   3.524
 2263SOL     OW 7687   2.446   4.354   6.712
 2263SOL    HW1 7688   2.359   4.374   6.667
 2263SOL    HW2 7689   2.520   4.354   6.645
 2264SOL     OW 7690   2.226   0.887   6.644
 2264SOL    HW1 7691   2.279   0.900   6.560
 2264SOL    HW2 7692   2.129   0.888   6.623
 2265SOL     OW 7693   0.630   6.272   3.693
 2265SOL    HW1 7694   0.580   6.349   3.653
 2265SOL    HW2 7695   0.722   6.301   3.716
 2266SOL     OW 7696   4.479   3.978   6.857
 2266SOL    HW1 7697   4.488   4.073   6.828
 2266SOL    HW2 7698   4.383   3.958   6.875
 2267SOL     OW 7699   5.632   3.141   4.762
 2267SOL    HW1 7700   5.686   3.062   4.790
 2267SOL    HW2 7701   5.665   3.222   4.809
 2268SOL     OW 7702   0.921   6.181   4.702
 2268SOL    HW1 7703   0.849   6.113   4.710
 2268SOL    HW2 7704   0.991   6.163   4.772
 2269SOL     OW 7705   2.045   2.137   5.495
 2269SOL    HW1 7706   1.951   2.102   5.496
 2269SOL    HW2 7707   2.049   2.218   5.437
 2270SOL     OW 7708   4.527   1.512   6.437
 2270SOL    HW1 7709   4.588   1.436   6.455
 2270SOL    HW2 7710   4.481   1.540   6.521
 2271SOL     OW 7711   4.334   5.691   5.102
 2271SOL    HW1 7712   4.238   5.681   5.128
 2271SOL    HW2 7713   4.384   5.737   5.175
 2272SOL     OW 7714   6.042   0.750   6.618
 2272SOL    HW1 7715   5.968   0.704   6.667
 2272SOL    HW2 7716   6.125   0.747   6.673
 2273SOL     OW 7717   1.783   2.305   4.186
 2273SOL    HW1 7718   1.872   2.328   4.226
 2273SOL    HW2 7719   1.723   2.384   4.189
 2274SOL     OW 7720   1.140   1.211   6.915
 2274SOL    HW1 7721   1.201   1.152   6.863
 2274SOL    HW2 7722   1.129   1.175   7.007
 2275SOL     OW 7723   5.649   3.098   3.126
 2275SOL    HW1 7724   5.641   3.059   3.217
 2275SOL    HW2 7725   5.707   3.039   3.069
 2276SOL     OW 7726   1.945   1.513   1.670
 2276SOL    HW1 7727   2.026   1.488   1.617
 2276SOL    HW2 7728   1.884   1.569   1.614
 2277SOL     OW 7729   3.950   3.087   3.249
 2277SOL    HW1 7730   3.997   3.173   3.228
 2277SOL    HW2 7731   3.940   3.033   3.165
 2278SOL     OW 7732   6.587   3.432   3.778
 2278SOL    HW1 7733   6.591   3.495   3.855
 2278SOL    HW2 7734   6.646   3.353   3.795
 2279SOL     OW 7735   0.682   5.508   6.072
 2279SOL    HW1 7736   0.615   5.473   6.007
 2279SOL    HW2 7737   0.758   5.444   6.080
 2280SOL     OW 7738   5.042   2.898   5.691
 2280SOL    HW1 7739   5.104   2.858   5.624
 2280SOL    HW2 7740   4.971   2.949   5.643
 2281SOL     OW 7741   5.193   6.688   2.319
 2281SOL    HW1 7742   5.198   6.595   2.283
 2281SOL    HW2 7743   5.142   6.688   2.405
 2282SOL     OW 7744   3.457   5.477   5.812
 2282SOL    HW1 7745   3.499   5.445   5.727
 2282SOL    HW2 7746   3.463   5.405   5.881
 2283SOL     OW 7747   6.814   1.065   5.128
 2283SOL    HW1 7748   6.722   1.104   5.133
 2283SOL    HW2 7749   6.816   0.979   5.179
 2284SOL     OW 7750   1.477   3.625   6.173
 2284SOL    HW1 7751   1.534   3.667   6.243
 2284SOL    HW2 7752   1.473   3.526   6.189
 2285SOL     OW 7753   1.524   5.162   6.671
 2285SOL    HW1 7754   1.547   5.128   6.580
 2285SOL    HW2 7755   1.575   5.111   6.740
 2286SOL     OW 7756   4.764   4.243   2.448
 2286SOL    HW1 7757   4.739   4.210   2.539
 2286SOL    HW2 7758   4.864   4.242   2.438
 2287SOL     OW 7759   1.781   1.418   4.071
 2287SOL    HW1 7760   1.718   1.463   4.134
 2287SOL    HW2 7761   1.850   1.368   4.123
 2288SOL     OW 7762   6.484   5.103   3.110
 2288SOL    HW1 7763   6.557   5.042   3.081
 2288SOL    HW2 7764   6.409   5.050   3.149
 2289SOL     OW 7765   0.270   4.908   0.082
 2289SOL    HW1 7766   0.221   4.820   0.079
 2289SOL    HW2 7767   0.298   4.933   7.013
 2290SOL     OW 7768   0.884   5.214   6.854
 2290SOL    HW1 7769   0.889   5.256   6.763
 2290SOL    HW2 7770   0.970   5.229   6.903
 2291SOL     OW 7771   1.945   1.563   7.014
 2291SOL    HW1 7772   1.862   1.566   0.046
 2291SOL    HW2 7773   1.931   1.499   6.938
 2292SOL     OW 7774   2.125   0.849   4.386
 2292SOL    HW1 7775   2.143   0.931   4.440
 2292SOL    HW2 7776   2.081   0.780   4.444
 2293SOL     OW 7777   4.966   4.269   3.274
 2293SOL    HW1 7778   5.027   4.277   3.353
 2293SOL    HW2 7779   4.925   4.358   3.254
 2294SOL     OW 7780   3.901   6.876   6.944
 2294SOL    HW1 7781   3.993   6.916   6.950
 2294SOL    HW2 7782   3.888   6.836   6.854
 2295SOL     OW 7783   1.094   0.986   1.917
 2295SOL    HW1 7784   1.094   0.979   1.817
 2295SOL    HW2 7785   1.070   0.898   1.957
 2296SOL     OW 7786   2.840   6.408   6.926
 2296SOL    HW1 7787   2.816   6.495   6.970
 2296SOL    HW2 7788   2.901   6.356   6.986
 2297SOL     OW 7789   4.051   6.076   6.400
 2297SOL    HW1 7790   4.087   6.039   6.486
 2297SOL    HW2 7791   3.960   6.113   6.415
 2298SOL     OW 7792   4.582   2.909   6.559
 2298SOL    HW1 7793   4.612   2.981   6.496
 2298SOL    HW2 7794   4.483   2.916   6.573
 2299SOL     OW 7795   4.652   0.291   1.484
 2299SOL    HW1 7796   4.666   0.238   1.400
 2299SOL    HW2 7797   4.588   0.365   1.466
 2300SOL     OW 7798   0.738   5.128   0.877
 2300SOL    HW1 7799   0.816   5.185   0.905
 2300SOL    HW2 7800   0.715   5.066   0.952
 2301SOL     OW 7801   3.212   3.328   1.498
 2301SOL    HW1 7802   3.184   3.232   1.499
 2301SOL    HW2 7803   3.311   3.334   1.497
 2302SOL     OW 7804   3.028   5.375   2.905
 2302SOL    HW1 7805   3.054   5.428   2.986
 2302SOL    HW2 7806   2.964   5.303   2.932
 2303SOL     OW 7807   0.345   3.414   5.898
 2303SOL    HW1 7808   0.389   3.500   5.872
 2303SOL    HW2 7809   0.376   3.387   5.989
 2304SOL     OW 7810   1.824   1.048   4.495
 2304SOL    HW1 7811   1.782   0.966   4.535
 2304SOL    HW2 7812   1.923   1.038   4.496
 2305SOL     OW 7813   4.213   4.987   1.889
 2305SOL    HW1 7814   4.250   5.078   1.906
 2305SOL    HW2 7815   4.127   4.995   1.838
 2306SOL     OW 7816   0.415   4.194   0.207
 2306SOL    HW1 7817   0.458   4.234   0.126
 2306SOL    HW2 7818   0.320   4.172   0.187
 2307SOL     OW 7819   0.248   0.845   3.193
 2307SOL    HW1 7820   0.301   0.774   3.240
 2307SOL    HW2 7821   0.206   0.906   3.260
 2308SOL     OW 7822   0.986   0.187   6.965
 2308SOL    HW1 7823   0.977   0.092   6.933
 2308SOL    HW2 7824   1.045   0.189   0.022
 2309SOL     OW 7825   1.972   4.967   6.481
 2309SOL    HW1 7826   1.945   4.922   6.566
 2309SOL    HW2 7827   2.023   5.050   6.502
 2310SOL     OW 7828   5.561   1.336   3.004
 2310SOL    HW1 7829   5.488   1.384   2.956
 2310SOL    HW2 7830   5.529   1.245   3.031
 2311SOL     OW 7831   2.688   0.091   2.663
 2311SOL    HW1 7832   2.705   0.041   2.748
 2311SOL    HW2 7833   2.609   0.051   2.615
 2312SOL     OW 7834   2.801   1.024   2.315
 2312SOL    HW1 7835   2.712   0.980   2.316
 2312SOL    HW2 7836   2.805   1.091   2.241
 2313SOL     OW 7837   4.712   4.697   1.701
 2313SOL    HW1 7838   4.760   4.646   1.772
 2313SOL    HW2 7839   4.778   4.750   1.647
 2314SOL     OW 7840   6.788   6.075   3.191
 2314SOL    HW1 7841   6.774   6.123   3.277
 2314SOL    HW2 7842   6.717   6.101   3.126
 2315SOL     OW 7843   4.864   6.335   5.239
 2315SOL    HW1 7844   4.915   6.280   5.172
 2315SOL    HW2 7845   4.767   6.315   5.231
 2316SOL     OW 7846   3.845   2.196   6.124
 2316SOL    HW1 7847   3.850   2.253   6.042
 2316SOL    HW2 7848   3.757   2.211   6.169
 2317SOL     OW 7849   0.202   5.211   2.510
 2317SOL    HW1 7850   0.301   5.212   2.522
 2317SOL    HW2 7851   0.157   5.225   2.598
 2318SOL     OW 7852   1.398   4.906   3.902
 2318SOL    HW1 7853   1.422   4.863   3.815
 2318SOL    HW2 7854   1.317   4.963   3.889
 2319SOL     OW 7855   2.480   5.887   3.071
 2319SOL    HW1 7856   2.489   5.821   3.146
 2319SOL    HW2 7857   2.458   5.839   2.986
 2320SOL     OW 7858   1.031   1.742   5.073
 2320SOL    HW1 7859   0.994   1.760   4.982
 2320SOL    HW2 7860   1.086   1.821   5.102
 2321SOL     OW 7861   1.950   4.999   5.339
 2321SOL    HW1 7862   2.012   4.959   5.272
 2321SOL    HW2 7863   1.955   4.947   5.424
 2322SOL     OW 7864   1.859   3.504   1.580
 2322SOL    HW1 7865   1.942   3.536   1.626
 2322SOL    HW2 7866   1.847   3.406   1.597
 2323SOL     OW 7867   2.655   5.885   0.163
 2323SOL    HW1 7868   2.672   5.853   0.256
 2323SOL    HW2 7869   2.559   5.869   0.140
 2324SOL     OW 7870   6.615   4.939   2.627
 2324SOL    HW1 7871   6.675   5.009   2.588
 2324SOL    HW2 7872   6.659   4.900   2.708
 2325SOL     OW 7873   6.463   4.317   2.897
 2325SOL    HW1 7874   6.392   4.278   2.955
 2325SOL    HW2 7875   6.444   4.294   2.801
 2326SOL     OW 7876   2.192   0.047   0.305
 2326SOL    HW1 7877   2.284   0.086   0.294
 2326SOL    HW2 7878   2.152   0.032   0.215
 2327SOL     OW 7879   6.562   6.237   2.014
 2327SOL    HW1 7880   6.478   6.291   2.009
 2327SOL    HW2 7881   6.635   6.291   2.055
 2328SOL     OW 7882   2.050   3.613   2.412
 2328SOL    HW1 7883   1.969   3.647   2.459
 2328SOL    HW2 7884   2.077   3.524   2.450
 2329SOL     OW 7885   0.616   4.771   2.186
 2329SOL    HW1 7886   0.655   4.772   2.278
 2329SOL    HW2 7887   0.559   4.689   2.176
 2330SOL     OW 7888   5.987   3.029   1.492
 2330SOL    HW1 7889   6.059   3.027   1.423
 2330SOL    HW2 7890   5.965   2.935   1.520
 2331SOL     OW 7891   4.966   5.539   1.446
 2331SOL    HW1 7892   4.985   5.443   1.429
 2331SOL    HW2 7893   5.012   5.568   1.530
 2332SOL     OW 7894   6.067   6.987   5.998
 2332SOL    HW1 7895   6.005   6.978   6.076
 2332SOL    HW2 7896   6.014   6.999   5.914
 2333SOL     OW 7897   1.422   4.595   2.613
 2333SOL    HW1 7898   1.407   4.577   2.516
 2333SOL    HW2 7899   1.453   4.511   2.658
 2334SOL     OW 7900   3.365   1.757   6.120
 2334SOL    HW1 7901   3.382   1.692   6.047
 2334SOL    HW2 7902   3.303   1.828   6.087
 2335SOL     OW 7903   6.865   1.033   3.728
 2335SOL    HW1 7904   6.914   0.968   3.669
 2335SOL    HW2 7905   6.895   1.022   3.822
 2336SOL     OW 7906   1.711   1.631   3.162
 2336SOL    HW1 7907   1.752   1.562   3.222
 2336SOL    HW2 7908   1.755   1.627   3.072
 2337SOL     OW 7909   3.867   0.935   1.965
 2337SOL    HW1 7910   3.786   0.943   2.023
 2337SOL    HW2 7911   3.843   0.956   1.871
 2338SOL     OW 7912   6.826   3.846   3.507
 2338SOL    HW1 7913   6.826   3.849   3.607
 2338SOL    HW2 7914   6.826   3.939   3.471
 2339SOL     OW 7915   3.669   3.075   2.641
 2339SOL    HW1 7916   3.727   3.014   2.587
 2339SOL    HW2 7917   3.605   3.020   2.695
 2340SOL     OW 7918   2.040   3.611   6.815
 2340SOL    HW1 7919   2.098   3.643   6.740
 2340SOL    HW2 7920   1.984   3.687   6.848
 2341SOL     OW 7921   2.857   5.077   4.280
 2341SOL    HW1 7922   2.903   4.993   4.250
 2341SOL    HW2 7923   2.762   5.075   4.250
 2342SOL     OW 7924   3.878   1.281   4.470
 2342SOL    HW1 7925   3.972   1.259   4.442
 2342SOL    HW2 7926   3.815   1.259   4.395
 2343SOL     OW 7927   0.174   0.072   1.005
 2343SOL    HW1 7928   0.233   0.003   0.963
 2343SOL    HW2 7929   0.139   0.038   1.092
 2344SOL     OW 7930   6.336   4.589   0.302
 2344SOL    HW1 7931   6.255   4.548   0.342
 2344SOL    HW2 7932   6.348   4.555   0.208
 2345SOL     OW 7933   3.777   6.256   4.637
 2345SOL    HW1 7934   3.740   6.253   4.730
 2345SOL    HW2 7935   3.702   6.271   4.572
 2346SOL     OW 7936   4.938   3.341   0.532
 2346SOL    HW1 7937   4.935   3.297   0.442
 2346SOL    HW2 7938   5.028   3.325   0.573
 2347SOL     OW 7939   1.349   1.057   1.311
 2347SOL    HW1 7940   1.262   1.104   1.323
 2347SOL    HW2 7941   1.399   1.098   1.234
 2348SOL     OW 7942   7.013   5.865   2.490
 2348SOL    HW1 7943   6.993   5.887   2.586
 2348SOL    HW2 7944   0.001   5.767   2.479
 2349SOL     OW 7945   0.741   4.833   5.050
 2349SOL    HW1 7946   0.674   4.904   5.031
 2349SOL    HW2 7947   0.703   4.767   5.115
 2350SOL     OW 7948   5.501   4.003   0.413
 2350SOL    HW1 7949   5.424   4.053   0.453
 2350SOL    HW2 7950   5.504   4.019   0.315
 2351SOL     OW 7951   2.364   6.144   1.485
 2351SOL    HW1 7952   2.461   6.150   1.463
 2351SOL    HW2 7953   2.330   6.233   1.514
 2352SOL     OW 7954   6.751   2.541   3.320
 2352SOL    HW1 7955   6.794   2.451   3.331
 2352SOL    HW2 7956   6.797   2.590   3.246
 2353SOL     OW 7957   3.240   5.737   3.904
 2353SOL    HW1 7958   3.310   5.728   3.833
 2353SOL    HW2 7959   3.279   5.708   3.992
 2354SOL     OW 7960   2.417   2.579   3.622
 2354SOL    HW1 7961   2.491   2.516   3.596
 2354SOL    HW2 7962   2.329   2.540   3.595
 2355SOL     OW 7963   2.360   5.570   4.390
 2355SOL    HW1 7964   2.311   5.579   4.304
 2355SOL    HW2 7965   2.371   5.660   4.432
 2356SOL     OW 7966   6.672   2.619   6.924
 2356SOL    HW1 7967   6.661   2.551   6.852
 2356SOL    HW2 7968   6.758   2.667   6.912
 2357SOL     OW 7969   2.165   6.674   2.840
 2357SOL    HW1 7970   2.124   6.711   2.757
 2357SOL    HW2 7971   2.197   6.750   2.897
 2358SOL     OW 7972   4.531   5.521   5.986
 2358SOL    HW1 7973   4.623   5.527   6.025
 2358SOL    HW2 7974   4.464   5.518   6.061
 2359SOL     OW 7975   1.814   7.007   5.504
 2359SOL    HW1 7976   1.899   0.035   5.494
 2359SOL    HW2 7977   1.737   0.038   5.473
 2360SOL     OW 7978   6.661   3.928   0.286
 2360SOL    HW1 7979   6.633   3.844   0.333
 2360SOL    HW2 7980   6.662   4.004   0.351
 2361SOL     OW 7981   3.698   1.183   0.389
 2361SOL    HW1 7982   3.673   1.247   0.317
 2361SOL    HW2 7983   3.615   1.147   0.432
 2362SOL     OW 7984   2.725   5.418   3.334
 2362SOL    HW1 7985   2.823   5.433   3.321
 2362SOL    HW2 7986   2.697   5.456   3.422
 2363SOL     OW 7987   4.115   0.539   3.941
 2363SOL    HW1 7988   4.191   0.477   3.919
 2363SOL    HW2 7989   4.033   0.508   3.893
 2364SOL     OW 7990   1.296   2.653   1.190
 2364SOL    HW1 7991   1.373   2.596   1.219
 2364SOL    HW2 7992   1.326   2.716   1.119
 2365SOL     OW 7993   5.069   1.707   0.334
 2365SOL    HW1 7994   5.019   1.735   0.252
 2365SOL    HW2 7995   5.075   1.785   0.397
 2366SOL     OW 7996   4.618   5.451   0.752
 2366SOL    HW1 7997   4.708   5.441   0.795
 2366SOL    HW2 7998   4.582   5.361   0.730
 2367SOL     OW 7999   2.093   3.571   6.047
 2367SOL    HW1 8000   2.134   3.485   6.014
 2367SOL    HW2 8001   2.008   3.551   6.095
 2368SOL     OW 8002   5.873   6.140   1.983
 2368SOL    HW1 8003   5.854   6.145   1.885
 2368SOL    HW2 8004   5.971   6.149   1.999
 2369SOL     OW 8005   2.191   1.668   3.206
 2369SOL    HW1 8006   2.158   1.576   3.228
 2369SOL    HW2 8007   2.268   1.691   3.266
 2370SOL     OW 8008   6.007   2.764   6.088
 2370SOL    HW1 8009   5.978   2.859   6.100
 2370SOL    HW2 8010   5.976   2.731   5.999
 2371SOL     OW 8011   1.788   5.846   1.955
 2371SOL    HW1 8012   1.708   5.786   1.957
 2371SOL    HW2 8013   1.839   5.832   1.870
 2372SOL     OW 8014   6.453   2.439   3.056
 2372SOL    HW1 8015   6.450   2.420   2.958
 2372SOL    HW2 8016   6.431   2.535   3.072
 2373SOL     OW 8017   2.476   3.744   6.468
 2373SOL    HW1 8018   2.475   3.647   6.446
 2373SOL    HW2 8019   2.456   3.797   6.385
 2374SOL     OW 8020   5.506   2.557   4.729
 2374SOL    HW1 8021   5.421   2.506   4.715
 2374SOL    HW2 8022   5.491   2.630   4.796
 2375SOL     OW 8023   1.287   6.873   5.837
 2375SOL    HW1 8024   1.206   6.820   5.814
 2375SOL    HW2 8025   1.364   6.812   5.854
 2376SOL     OW 8026   0.399   2.320   3.966
 2376SOL    HW1 8027   0.489   2.353   3.996
 2376SOL    HW2 8028   0.328   2.381   4.000
 2377SOL     OW 8029   3.367   2.901   3.920
 2377SOL    HW1 8030   3.444   2.894   3.857
 2377SOL    HW2 8031   3.281   2.889   3.870
 2378SOL     OW 8032   5.240   2.069   0.754
 2378SOL    HW1 8033   5.170   2.112   0.811
 2378SOL    HW2 8034   5.326   2.119   0.765
 2379SOL     OW 8035   6.732   6.815   6.099
 2379SOL    HW1 8036   6.635   6.810   6.120
 2379SOL    HW2 8037   6.786   6.802   6.182
 2380SOL     OW 8038   6.398   2.270   2.828
 2380SOL    HW1 8039   6.396   2.320   2.741
 2380SOL    HW2 8040   6.316   2.215   2.836
 2381SOL     OW 8041   1.975   6.029   2.570
 2381SOL    HW1 8042   1.989   6.000   2.475
 2381SOL    HW2 8043   2.048   5.991   2.627
 2382SOL     OW 8044   1.646   2.880   5.547
 2382SOL    HW1 8045   1.563   2.839   5.584
 2382SOL    HW2 8046   1.708   2.903   5.622
 2383SOL     OW 8047   5.715   5.410   1.819
 2383SOL    HW1 8048   5.655   5.351   1.766
 2383SOL    HW2 8049   5.693   5.403   1.917
 2384SOL     OW 8050   4.253   1.340   1.473
 2384SOL    HW1 8051   4.301   1.423   1.444
 2384SOL    HW2 8052   4.220   1.291   1.392
 2385SOL     OW 8053   1.424   2.557   0.121
 2385SOL    HW1 8054   1.436   2.467   0.079
 2385SOL    HW2 8055   1.363   2.612   0.063
 2386SOL     OW 8056   4.140   4.806   3.627
 2386SOL    HW1 8057   4.210   4.875   3.642
 2386SOL    HW2 8058   4.154   4.729   3.690
 2387SOL     OW 8059   1.473   1.040   2.750
 2387SOL    HW1 8060   1.511   1.125   2.786
 2387SOL    HW2 8061   1.430   1.057   2.661
 2388SOL     OW 8062   0.071   1.517   4.075
 2388SOL    HW1 8063   7.016   1.481   4.125
 2388SOL    HW2 8064   0.140   1.549   4.140
 2389SOL     OW 8065   3.474   6.710   2.312
 2389SOL    HW1 8066   3.510   6.706   2.219
 2389SOL    HW2 8067   3.532   6.657   2.374
 2390SOL     OW 8068   3.074   4.828   1.221
 2390SOL    HW1 8069   3.075   4.792   1.314
 2390SOL    HW2 8070   2.991   4.797   1.174
 2391SOL     OW 8071   4.347   5.242   4.607
 2391SOL    HW1 8072   4.357   5.338   4.582
 2391SOL    HW2 8073   4.421   5.216   4.669
 2392SOL     OW 8074   4.169   1.215   6.859
 2392SOL    HW1 8075   4.166   1.225   6.760
 2392SOL    HW2 8076   4.251   1.163   6.884
 2393SOL     OW 8077   3.542   4.962   5.082
 2393SOL    HW1 8078   3.641   4.978   5.086
 2393SOL    HW2 8079   3.516   4.899   5.155
 2394SOL     OW 8080   0.219   4.817   5.550
 2394SOL    HW1 8081   0.282   4.877   5.600
 2394SOL    HW2 8082   0.148   4.783   5.612
 2395SOL     OW 8083   4.312   6.417   6.385
 2395SOL    HW1 8084   4.270   6.339   6.339
 2395SOL    HW2 8085   4.254   6.498   6.373
 2396SOL     OW 8086   2.970   5.517   1.103
 2396SOL    HW1 8087   3.005   5.446   1.164
 2396SOL    HW2 8088   2.878   5.543   1.131
 2397SOL     OW 8089   0.488   3.130   4.600
 2397SOL    HW1 8090   0.502   3.209   4.659
 2397SOL    HW2 8091   0.413   3.149   4.536
 2398SOL     OW 8092   4.743   3.772   5.318
 2398SOL    HW1 8093   4.839   3.790   5.341
 2398SOL    HW2 8094   4.732   3.676   5.293
 2399SOL     OW 8095   4.717   2.210   1.299
 2399SOL    HW1 8096   4.673   2.124   1.273
 2399SOL    HW2 8097   4.679   2.285   1.244
 2400SOL     OW 8098   1.560   5.008   0.343
 2400SOL    HW1 8099   1.462   4.991   0.350
 2400SOL    HW2 8100   1.608   4.922   0.328
 2401SOL     OW 8101   6.096   5.848   6.809
 2401SOL    HW1 8102   6.134   5.810   6.725
 2401SOL    HW2 8103   6.131   5.941   6.822
 2402SOL     OW 8104   6.808   6.902   3.939
 2402SOL    HW1 8105   6.825   6.852   3.854
 2402SOL    HW2 8106   6.890   6.898   3.996
 2403SOL     OW 8107   1.216   1.023   3.821
 2403SOL    HW1 8108   1.162   1.099   3.785
 2403SOL    HW2 8109   1.219   0.949   3.755
 2404SOL     OW 8110   1.249   0.215   6.685
 2404SOL    HW1 8111   1.219   0.277   6.757
 2404SOL    HW2 8112   1.344   0.187   6.703
 2405SOL     OW 8113   3.103   4.638   1.447
 2405SOL    HW1 8114   3.022   4.696   1.452
 2405SOL    HW2 8115   3.121   4.599   1.538
 2406SOL     OW 8116   4.997   1.156   1.291
 2406SOL    HW1 8117   5.058   1.222   1.246
 2406SOL    HW2 8118   4.936   1.116   1.223
 2407SOL     OW 8119   5.260   6.638   3.794
 2407SOL    HW1 8120   5.255   6.725   3.744
 2407SOL    HW2 8121   5.255   6.562   3.729
 2408SOL     OW 8122   4.412   4.683   2.186
 2408SOL    HW1 8123   4.465   4.633   2.118
 2408SOL    HW2 8124   4.413   4.633   2.273
 2409SOL     OW 8125   1.393   4.331   0.490
 2409SOL    HW1 8126   1.490   4.345   0.513
 2409SOL    HW2 8127   1.377   4.233   0.474
 2410SOL     OW 8128   4.130   3.419   2.615
 2410SOL    HW1 8129   4.207   3.461   2.567
 2410SOL    HW2 8130   4.061   3.489   2.636
 2411SOL     OW 8131   3.497   0.345   4.934
 2411SOL    HW1 8132   3.435   0.285   4.984
 2411SOL    HW2 8133   3.445   0.406   4.875
 2412SOL     OW 8134   4.228   3.888   1.127
 2412SOL    HW1 8135   4.328   3.885   1.122
 2412SOL    HW2 8136   4.200   3.942   1.206
 2413SOL     OW 8137   3.772   0.336   3.213
 2413SOL    HW1 8138   3.861   0.354   3.170
 2413SOL    HW2 8139   3.784   0.269   3.287
 2414SOL     OW 8140   5.303   3.303   4.494
 2414SOL    HW1 8141   5.396   3.272   4.477
 2414SOL    HW2 8142   5.288   3.391   4.448
 2415SOL     OW 8143   4.366   0.334   3.610
 2415SOL    HW1 8144   4.287   0.334   3.671
 2415SOL    HW2 8145   4.372   0.422   3.563
 2416SOL     OW 8146   5.686   1.890   6.268
 2416SOL    HW1 8147   5.640   1.889   6.356
 2416SOL    HW2 8148   5.691   1.797   6.232
 2417SOL     OW 8149   3.296   4.201   5.272
 2417SOL    HW1 8150   3.335   4.290   5.249
 2417SOL    HW2 8151   3.227   4.176   5.203
 2418SOL     OW 8152   2.997   3.213   2.389
 2418SOL    HW1 8153   3.048   3.146   2.444
 2418SOL    HW2 8154   2.986   3.297   2.441
 2419SOL     OW 8155   6.878   0.690   3.678
 2419SOL    HW1 8156   6.864   0.730   3.769
 2419SOL    HW2 8157   6.899   0.593   3.687
 2420SOL     OW 8158   2.146   6.978   2.117
 2420SOL    HW1 8159   2.185   6.931   2.037
 2420SOL    HW2 8160   2.192   6.946   2.200
 2421SOL     OW 8161   4.158   2.195   3.103
 2421SOL    HW1 8162   4.063   2.167   3.115
 2421SOL    HW2 8163   4.182   2.264   3.171
 2422SOL     OW 8164   5.470   1.603   1.369
 2422SOL    HW1 8165   5.447   1.664   1.445
 2422SOL    HW2 8166   5.512   1.519   1.404
 2423SOL     OW 8167   1.355   4.997   2.245
 2423SOL    HW1 8168   1.374   5.092   2.220
 2423SOL    HW2 8169   1.344   4.990   2.344
 2424SOL     OW 8170   6.584   6.935   0.118
 2424SOL    HW1 8171   6.628   6.846   0.123
 2424SOL    HW2 8172   6.543   6.957   0.207
 2425SOL     OW 8173   6.841   0.097   4.434
 2425SOL    HW1 8174   6.834   0.159   4.512
 2425SOL    HW2 8175   6.880   0.010   4.464
 2426SOL     OW 8176   1.855   5.233   4.267
 2426SOL    HW1 8177   1.796   5.285   4.205
 2426SOL    HW2 8178   1.843   5.266   4.360
 2427SOL     OW 8179   6.425   0.754   5.418
 2427SOL    HW1 8180   6.520   0.783   5.427
 2427SOL    HW2 8181   6.387   0.790   5.332
 2428SOL     OW 8182   5.816   1.690   0.549
 2428SOL    HW1 8183   5.857   1.668   0.460
 2428SOL    HW2 8184   5.875   1.654   0.622
 2429SOL     OW 8185   4.577   4.536   2.765
 2429SOL    HW1 8186   4.611   4.562   2.674
 2429SOL    HW2 8187   4.477   4.530   2.763
 2430SOL     OW 8188   4.933   0.167   2.514
 2430SOL    HW1 8189   4.907   0.138   2.607
 2430SOL    HW2 8190   4.860   0.143   2.450
 2431SOL     OW 8191   4.182   6.800   2.337
 2431SOL    HW1 8192   4.086   6.814   2.362
 2431SOL    HW2 8193   4.209   6.870   2.272
 2432SOL     OW 8194   2.536   5.772   2.019
 2432SOL    HW1 8195   2.547   5.822   1.933
 2432SOL    HW2 8196   2.465   5.703   2.009
 2433SOL     OW 8197   5.101   6.937   0.663
 2433SOL    HW1 8198   5.127   6.971   0.573
 2433SOL    HW2 8199   5.170   6.874   0.698
 2434SOL     OW 8200   3.235   3.329   5.047
 2434SOL    HW1 8201   3.275   3.412   5.008
 2434SOL    HW2 8202   3.309   3.268   5.078
 2435SOL     OW 8203   5.977   5.685   6.348
 2435SOL    HW1 8204   5.993   5.590   6.321
 2435SOL    HW2 8205   5.891   5.716   6.307
 2436SOL     OW 8206   3.297   4.418   0.969
 2436SOL    HW1 8207   3.325   4.323   0.987
 2436SOL    HW2 8208   3.225   4.444   1.034
 2437SOL     OW 8209   6.831   0.928   6.009
 2437SOL    HW1 8210   6.920   0.954   6.047
 2437SOL    HW2 8211   6.841   0.846   5.953
 2438SOL     OW 8212   3.646   3.571   0.613
 2438SOL    HW1 8213   3.576   3.507   0.644
 2438SOL    HW2 8214   3.602   3.651   0.572
 2439SOL     OW 8215   6.111   4.246   6.492
 2439SOL    HW1 8216   6.202   4.243   6.451
 2439SOL    HW2 8217   6.052   4.307   6.438
 2440SOL     OW 8218   6.093   5.123   6.359
 2440SOL    HW1 8219   6.045   5.189   6.416
 2440SOL    HW2 8220   6.074   5.031   6.392
 2441SOL     OW 8221   6.431   2.441   0.809
 2441SOL    HW1 8222   6.530   2.449   0.824
 2441SOL    HW2 8223   6.390   2.533   0.808
 2442SOL     OW 8224   6.637   1.763   4.607
 2442SOL    HW1 8225   6.696   1.777   4.687
 2442SOL    HW2 8226   6.555   1.820   4.616
 2443SOL     OW 8227   2.781   5.062   6.315
 2443SOL    HW1 8228   2.776   5.015   6.227
 2443SOL    HW2 8229   2.714   5.022   6.377
 2444SOL     OW 8230   3.399   2.384   6.339
 2444SOL    HW1 8231   3.361   2.307   6.389
 2444SOL    HW2 8232   3.345   2.466   6.358
 2445SOL     OW 8233   1.090   0.425   0.672
 2445SOL    HW1 8234   1.178   0.440   0.627
 2445SOL    HW2 8235   1.070   0.502   0.732
 2446SOL     OW 8236   4.918   2.759   6.514
 2446SOL    HW1 8237   4.850   2.688   6.533
 2446SOL    HW2 8238   4.874   2.834   6.464
 2447SOL     OW 8239   0.919   3.953   6.773
 2447SOL    HW1 8240   0.962   3.867   6.744
 2447SOL    HW2 8241   0.985   4.027   6.767
 2448SOL     OW 8242   6.604   0.811   5.001
 2448SOL    HW1 8243   6.674   0.819   5.072
 2448SOL    HW2 8244   6.618   0.725   4.951
 2449SOL     OW 8245   6.665   3.187   5.551
 2449SOL    HW1 8246   6.759   3.180   5.584
 2449SOL    HW2 8247   6.619   3.099   5.563
 2450SOL     OW 8248   2.600   3.190   1.403
 2450SOL    HW1 8249   2.606   3.285   1.434
 2450SOL    HW2 8250   2.690   3.147   1.412
 2451SOL     OW 8251   1.987   5.956   3.648
 2451SOL    HW1 8252   2.013   5.996   3.736
 2451SOL    HW2 8253   1.907   5.898   3.661
 2452SOL     OW 8254   2.604   1.606   4.335
 2452SOL    HW1 8255   2.557   1.632   4.251
 2452SOL    HW2 8256   2.701   1.631   4.328
 2453SOL     OW 8257   0.292   3.904   0.776
 2453SOL    HW1 8258   0.204   3.953   0.774
 2453SOL    HW2 8259   0.287   3.829   0.841
 2454SOL     OW 8260   1.060   6.815   1.802
 2454SOL    HW1 8261   1.025   6.901   1.766
 2454SOL    HW2 8262   1.060   6.746   1.730
 2455SOL     OW 8263   5.728   3.882   1.332
 2455SOL    HW1 8264   5.646   3.932   1.357
 2455SOL    HW2 8265   5.762   3.831   1.411
 2456SOL     OW 8266   2.652   6.574   1.610
 2456SOL    HW1 8267   2.600   6.490   1.593
 2456SOL    HW2 8268   2.748   6.559   1.585
 2457SOL     OW 8269   5.129   5.802   0.747
 2457SOL    HW1 8270   5.117   5.755   0.835
 2457SOL    HW2 8271   5.103   5.898   0.757
 2458SOL     OW 8272   0.569   6.427   1.276
 2458SOL    HW1 8273   0.552   6.524   1.258
 2458SOL    HW2 8274   0.493   6.389   1.328
 2459SOL     OW 8275   1.681   1.981   6.977
 2459SOL    HW1 8276   1.736   1.906   6.940
 2459SOL    HW2 8277   1.685   2.059   6.915
 2460SOL     OW 8278   2.068   4.751   0.742
 2460SOL    HW1 8279   2.039   4.713   0.830
 2460SOL    HW2 8280   2.162   4.723   0.723
 2461SOL     OW 8281   4.370   1.442   3.474
 2461SOL    HW1 8282   4.441   1.513   3.476
 2461SOL    HW2 8283   4.390   1.378   3.399
 2462SOL     OW 8284   3.247   4.580   6.281
 2462SOL    HW1 8285   3.199   4.590   6.194
 2462SOL    HW2 8286   3.334   4.629   6.277
 2463SOL     OW 8287   1.263   3.426   5.144
 2463SOL    HW1 8288   1.353   3.411   5.103
 2463SOL    HW2 8289   1.200   3.355   5.113
 2464SOL     OW 8290   0.880   3.472   0.781
 2464SOL    HW1 8291   0.977   3.449   0.785
 2464SOL    HW2 8292   0.862   3.528   0.700
 2465SOL     OW 8293   6.021   4.142   3.149
 2465SOL    HW1 8294   6.026   4.091   3.234
 2465SOL    HW2 8295   5.926   4.145   3.117
 2466SOL     OW 8296   4.483   1.775   1.585
 2466SOL    HW1 8297   4.561   1.719   1.615
 2466SOL    HW2 8298   4.504   1.872   1.598
 2467SOL     OW 8299   1.175   1.277   4.429
 2467SOL    HW1 8300   1.148   1.199   4.373
 2467SOL    HW2 8301   1.249   1.326   4.384
 2468SOL     OW 8302   6.260   5.016   6.660
 2468SOL    HW1 8303   6.356   5.019   6.687
 2468SOL    HW2 8304   6.244   4.937   6.602
 2469SOL     OW 8305   2.568   2.047   6.041
 2469SOL    HW1 8306   2.562   2.118   5.970
 2469SOL    HW2 8307   2.663   2.037   6.071
 2470SOL     OW 8308   4.962   2.981   1.013
 2470SOL    HW1 8309   4.891   3.045   0.984
 2470SOL    HW2 8310   4.923   2.889   1.021
 2471SOL     OW 8311   0.221   1.124   3.290
 2471SOL    HW1 8312   0.126   1.154   3.282
 2471SOL    HW2 8313   0.269   1.141   3.204
 2472SOL     OW 8314   6.630   1.047   4.203
 2472SOL    HW1 8315   6.540   1.027   4.166
 2472SOL    HW2 8316   6.628   1.036   4.303
 2473SOL     OW 8317   0.801   5.829   4.743
 2473SOL    HW1 8318   0.863   5.791   4.675
 2473SOL    HW2 8319   0.746   5.756   4.784
 2474SOL     OW 8320   5.809   6.699   4.621
 2474SOL    HW1 8321   5.863   6.764   4.568
 2474SOL    HW2 8322   5.751   6.749   4.685
 2475SOL     OW 8323   3.551   2.746   6.311
 2475SOL    HW1 8324   3.480   2.814   6.331
 2475SOL    HW2 8325   3.578   2.752   6.215
 2476SOL     OW 8326   0.854   1.150   3.727
 2476SOL    HW1 8327   0.759   1.158   3.696
 2476SOL    HW2 8328   0.857   1.100   3.814
 2477SOL     OW 8329   4.567   4.537   2.013
 2477SOL    HW1 8330   4.586   4.439   2.009
 2477SOL    HW2 8331   4.494   4.560   1.949
 2478SOL     OW 8332   6.987   0.135   2.521
 2478SOL    HW1 8333   6.930   0.053   2.513
 2478SOL    HW2 8334   0.054   0.109   2.552
 2479SOL     OW 8335   1.029   3.265   0.454
 2479SOL    HW1 8336   1.068   3.232   0.539
 2479SOL    HW2 8337   1.053   3.362   0.442
 2480SOL     OW 8338   6.709   4.620   0.864
 2480SOL    HW1 8339   6.672   4.631   0.956
 2480SOL    HW2 8340   6.806   4.641   0.864
 2481SOL     OW 8341   3.939   4.912   2.729
 2481SOL    HW1 8342   3.998   4.841   2.690
 2481SOL    HW2 8343   3.942   4.993   2.670
 2482SOL     OW 8344   4.105   2.041   4.697
 2482SOL    HW1 8345   4.139   1.948   4.686
 2482SOL    HW2 8346   4.101   2.086   4.608
 2483SOL     OW 8347   1.058   3.307   6.941
 2483SOL    HW1 8348   1.075   3.298   6.843
 2483SOL    HW2 8349   0.972   3.260   6.964
 2484SOL     OW 8350   3.700   4.364   5.523
 2484SOL    HW1 8351   3.768   4.351   5.596
 2484SOL    HW2 8352   3.652   4.278   5.505
 2485SOL     OW 8353   0.662   4.562   0.016
 2485SOL    HW1 8354   0.661   4.659   7.016
 2485SOL    HW2 8355   0.755   4.533   0.038
 2486SOL     OW 8356   0.637   5.273   4.179
 2486SOL    HW1 8357   0.688   5.313   4.256
 2486SOL    HW2 8358   0.696   5.269   4.099
 2487SOL     OW 8359   2.337   1.418   0.953
 2487SOL    HW1 8360   2.396   1.406   0.873
 2487SOL    HW2 8361   2.387   1.468   1.024
 2488SOL     OW 8362   2.697   5.615   0.055
 2488SOL    HW1 8363   2.643   5.579   7.003
 2488SOL    HW2 8364   2.656   5.699   0.089
 2489SOL     OW 8365   6.579   5.932   4.590
 2489SOL    HW1 8366   6.641   6.009   4.578
 2489SOL    HW2 8367   6.523   5.921   4.508
 2490SOL     OW 8368   5.522   2.580   1.116
 2490SOL    HW1 8369   5.532   2.579   1.216
 2490SOL    HW2 8370   5.585   2.647   1.077
 2491SOL     OW 8371   6.596   4.451   2.455
 2491SOL    HW1 8372   6.568   4.504   2.375
 2491SOL    HW2 8373   6.618   4.358   2.427
 2492SOL     OW 8374   3.744   2.052   0.330
 2492SOL    HW1 8375   3.758   2.137   0.380
 2492SOL    HW2 8376   3.793   2.056   0.243
 2493SOL     OW 8377   6.466   0.843   5.782
 2493SOL    HW1 8378   6.428   0.883   5.698
 2493SOL    HW2 8379   6.478   0.914   5.851
 2494SOL     OW 8380   5.431   5.471   0.347
 2494SOL    HW1 8381   5.481   5.462   0.433
 2494SOL    HW2 8382   5.377   5.389   0.330
 2495SOL     OW 8383   6.941   1.301   2.372
 2495SOL    HW1 8384   6.949   1.203   2.355
 2495SOL    HW2 8385   6.954   1.351   2.287
 2496SOL     OW 8386   1.929   4.977   0.712
 2496SOL    HW1 8387   1.929   5.020   0.802
 2496SOL    HW2 8388   1.995   4.902   0.711
 2497SOL     OW 8389   5.980   1.344   6.471
 2497SOL    HW1 8390   6.031   1.358   6.556
 2497SOL    HW2 8391   6.027   1.275   6.415
 2498SOL     OW 8392   1.296   3.317   4.526
 2498SOL    HW1 8393   1.366   3.369   4.577
 2498SOL    HW2 8394   1.235   3.381   4.479
 2499SOL     OW 8395   5.055   0.305   6.928
 2499SOL    HW1 8396   5.146   0.264   6.919
 2499SOL    HW2 8397   5.061   0.403   6.909
 2500SOL     OW 8398   5.663   3.085   6.158
 2500SOL    HW1 8399   5.746   3.134   6.181
 2500SOL    HW2 8400   5.685   2.991   6.131
 2501SOL     OW 8401   6.279   5.240   0.886
 2501SOL    HW1 8402   6.287   5.334   0.854
 2501SOL    HW2 8403   6.220   5.238   0.967
 2502SOL     OW 8404   1.284   6.703   2.925
 2502SOL    HW1 8405   1.212   6.670   2.986
 2502SOL    HW2 8406   1.336   6.775   2.970
 2503SOL     OW 8407   5.596   6.074   3.478
 2503SOL    HW1 8408   5.684   6.091   3.434
 2503SOL    HW2 8409   5.526   6.056   3.409
 2504SOL     OW 8410   2.677   5.009   3.079
 2504SOL    HW1 8411   2.670   4.909   3.079
 2504SOL    HW2 8412   2.586   5.049   3.068
 2505SOL     OW 8413   4.796   4.025   4.467
 2505SOL    HW1 8414   4.849   3.950   4.428
 2505SOL    HW2 8415   4.698   4.008   4.453
 2506SOL     OW 8416   1.409   1.677   6.883
 2506SOL    HW1 8417   1.438   1.582   6.889
 2506SOL    HW2 8418   1.349   1.699   6.960
 2507SOL     OW 8419   0.014   5.853   0.866
 2507SOL    HW1 8420   6.952   5.821   0.826
 2507SOL    HW2 8421   0.060   5.776   0.910
 2508SOL     OW 8422   1.722   1.436   1.378
 2508SOL    HW1 8423   1.649   1.451   1.311
 2508SOL    HW2 8424   1.694   1.365   1.442
 2509SOL     OW 8425   6.285   6.994   4.065
 2509SOL    HW1 8426   6.240   6.949   3.988
 2509SOL    HW2 8427   6.238   0.056   4.086
 2510SOL     OW 8428   3.517   6.014   2.755
 2510SOL    HW1 8429   3.604   6.025   2.803
 2510SOL    HW2 8430   3.527   6.041   2.660
 2511SOL     OW 8431   0.834   4.989   4.288
 2511SOL    HW1 8432   0.836   5.034   4.199
 2511SOL    HW2 8433   0.746   5.007   4.332
 2512SOL     OW 8434   6.013   2.989   4.458
 2512SOL    HW1 8435   5.975   3.078   4.483
 2512SOL    HW2 8436   6.061   2.950   4.537
 2513SOL     OW 8437   0.681   4.721   1.546
 2513SOL    HW1 8438   0.586   4.726   1.577
 2513SOL    HW2 8439   0.742   4.728   1.625
 2514SOL     OW 8440   6.768   1.951   4.402
 2514SOL    HW1 8441   6.763   1.891   4.483
 2514SOL    HW2 8442   6.757   1.896   4.320
 2515SOL     OW 8443   0.444   4.701   6.219
 2515SOL    HW1 8444   0.538   4.729   6.200
 2515SOL    HW2 8445   0.410   4.645   6.144
 2516SOL     OW 8446   4.468   6.783   4.728
 2516SOL    HW1 8447   4.418   6.787   4.814
 2516SOL    HW2 8448   4.561   6.750   4.745
 2517SOL     OW 8449   2.822   5.787   6.881
 2517SOL    HW1 8450   2.733   5.830   6.864
 2517SOL    HW2 8451   2.810   5.710   6.944
 2518SOL     OW 8452   1.907   2.079   0.071
 2518SOL    HW1 8453   1.816   2.069   0.031
 2518SOL    HW2 8454   1.902   2.064   0.169
 2519SOL     OW 8455   6.027   4.389   4.642
 2519SOL    HW1 8456   6.025   4.333   4.559
 2519SOL    HW2 8457   6.116   4.379   4.687
 2520SOL     OW 8458   4.316   5.661   1.234
 2520SOL    HW1 8459   4.319   5.569   1.274
 2520SOL    HW2 8460   4.297   5.654   1.136
 2521SOL     OW 8461   5.470   6.774   5.687
 2521SOL    HW1 8462   5.425   6.759   5.774
 2521SOL    HW2 8463   5.569   6.770   5.699
 2522SOL     OW 8464   3.742   5.461   5.153
 2522SOL    HW1 8465   3.706   5.391   5.091
 2522SOL    HW2 8466   3.695   5.547   5.138
 2523SOL     OW 8467   0.981   2.060   6.643
 2523SOL    HW1 8468   0.940   2.150   6.629
 2523SOL    HW2 8469   1.031   2.032   6.561
 2524SOL     OW 8470   2.056   0.069   4.252
 2524SOL    HW1 8471   2.073   6.998   4.279
 2524SOL    HW2 8472   2.091   0.084   4.159
 2525SOL     OW 8473   2.909   5.053   2.246
 2525SOL    HW1 8474   2.925   4.954   2.246
 2525SOL    HW2 8475   2.997   5.101   2.251
 2526SOL     OW 8476   1.971   3.044   4.812
 2526SOL    HW1 8477   2.045   3.072   4.873
 2526SOL    HW2 8478   1.940   3.123   4.759
 2527SOL     OW 8479   6.646   6.899   4.166
 2527SOL    HW1 8480   6.696   6.866   4.086
 2527SOL    HW2 8481   6.642   6.998   4.165
 2528SOL     OW 8482   5.341   4.810   2.252
 2528SOL    HW1 8483   5.359   4.805   2.154
 2528SOL    HW2 8484   5.348   4.719   2.293
 2529SOL     OW 8485   5.272   5.315   4.907
 2529SOL    HW1 8486   5.260   5.414   4.897
 2529SOL    HW2 8487   5.257   5.289   5.003
 2530SOL     OW 8488   1.265   6.463   3.341
 2530SOL    HW1 8489   1.337   6.484   3.406
 2530SOL    HW2 8490   1.177   6.497   3.376
 2531SOL     OW 8491   5.367   2.731   6.208
 2531SOL    HW1 8492   5.307   2.770   6.278
 2531SOL    HW2 8493   5.459   2.768   6.219
 2532SOL     OW 8494   0.003   5.620   6.854
 2532SOL    HW1 8495   0.076   5.603   6.920
 2532SOL    HW2 8496   6.982   5.707   6.877
 2533SOL     OW 8497   5.079   0.558   4.212
 2533SOL    HW1 8498   5.096   0.621   4.287
 2533SOL    HW2 8499   5.024   0.481   4.245
 2534SOL     OW 8500   6.763   1.534   2.725
 2534SOL    HW1 8501   6.737   1.516   2.631
 2534SOL    HW2 8502   6.686   1.576   2.774
 2535SOL     OW 8503   2.951   1.314   1.683
 2535SOL    HW1 8504   2.895   1.343   1.761
 2535SOL    HW2 8505   2.915   1.228   1.647
 2536SOL     OW 8506   0.691   6.946   3.263
 2536SOL    HW1 8507   0.656   7.018   3.204
 2536SOL    HW2 8508   0.791   6.949   3.262
 2537SOL     OW 8509   2.139   6.155   2.040
 2537SOL    HW1 8510   2.049   6.135   2.000
 2537SOL    HW2 8511   2.210   6.138   1.972
 2538SOL     OW 8512   6.740   5.304   5.482
 2538SOL    HW1 8513   6.680   5.251   5.422
 2538SOL    HW2 8514   6.739   5.264   5.574
 2539SOL     OW 8515   0.585   0.001   5.172
 2539SOL    HW1 8516   0.653   6.978   5.115
 2539SOL    HW2 8517   0.494   6.987   5.153
 2540SOL     OW 8518   5.525   2.920   1.704
 2540SOL    HW1 8519   5.476   2.911   1.791
 2540SOL    HW2 8520   5.577   2.837   1.686
 2541SOL     OW 8521   2.031   0.887   0.218
 2541SOL    HW1 8522   2.040   0.796   0.258
 2541SOL    HW2 8523   2.121   0.928   0.207
 2542SOL     OW 8524   3.895   2.100   3.197
 2542SOL    HW1 8525   3.875   2.008   3.232
 2542SOL    HW2 8526   3.829   2.124   3.126
 2543SOL     OW 8527   5.857   6.495   5.181
 2543SOL    HW1 8528   5.851   6.402   5.145
 2543SOL    HW2 8529   5.779   6.513   5.240
 2544SOL     OW 8530   0.041   0.419   0.251
 2544SOL    HW1 8531   0.056   0.472   0.334
 2544SOL    HW2 8532   0.009   0.327   0.276
 2545SOL     OW 8533   0.832   1.773   0.252
 2545SOL    HW1 8534   0.872   1.791   0.162
 2545SOL    HW2 8535   0.753   1.713   0.242
 2546SOL     OW 8536   5.858   2.905   3.189
 2546SOL    HW1 8537   5.774   2.851   3.186
 2546SOL    HW2 8538   5.895   2.903   3.282
 2547SOL     OW 8539   6.005   3.589   0.706
 2547SOL    HW1 8540   6.029   3.658   0.774
 2547SOL    HW2 8541   5.997   3.632   0.616
 2548SOL     OW 8542   6.166   0.481   5.432
 2548SOL    HW1 8543   6.168   0.546   5.508
 2548SOL    HW2 8544   6.255   0.436   5.424
 2549SOL     OW 8545   2.639   4.383   6.509
 2549SOL    HW1 8546   2.621   4.467   6.459
 2549SOL    HW2 8547   2.737   4.375   6.528
 2550SOL     OW 8548   3.868   0.802   1.168
 2550SOL    HW1 8549   3.951   0.858   1.159
 2550SOL    HW2 8550   3.860   0.743   1.088
 2551SOL     OW 8551   2.840   4.413   1.179
 2551SOL    HW1 8552   2.875   4.321   1.160
 2551SOL    HW2 8553   2.887   4.479   1.121
 2552SOL     OW 8554   3.168   5.595   1.361
 2552SOL    HW1 8555   3.096   5.591   1.429
 2552SOL    HW2 8556   3.223   5.512   1.366
 2553SOL     OW 8557   4.367   2.122   1.387
 2553SOL    HW1 8558   4.349   2.220   1.377
 2553SOL    HW2 8559   4.435   2.107   1.459
 2554SOL     OW 8560   1.479   5.841   0.571
 2554SOL    HW1 8561   1.483   5.862   0.668
 2554SOL    HW2 8562   1.386   5.812   0.546
 2555SOL     OW 8563   0.811   5.855   4.146
 2555SOL    HW1 8564   0.765   5.777   4.189
 2555SOL    HW2 8565   0.765   5.877   4.060
 2556SOL     OW 8566   5.574   1.036   0.512
 2556SOL    HW1 8567   5.507   1.109   0.525
 2556SOL    HW2 8568   5.654   1.053   0.569
 2557SOL     OW 8569   3.044   1.305   0.284
 2557SOL    HW1 8570   3.013   1.254   0.364
 2557SOL    HW2 8571   2.966   1.327   0.226
 2558SOL     OW 8572   5.905   2.788   1.630
 2558SOL    HW1 8573   5.971   2.719   1.602
 2558SOL    HW2 8574   5.831   2.744   1.682
 2559SOL     OW 8575   0.003   6.213   3.356
 2559SOL    HW1 8576   6.938   6.199   3.402
 2559SOL    HW2 8577   0.008   6.154   3.276
 2560SOL     OW 8578   4.295   2.855   1.671
 2560SOL    HW1 8579   4.233   2.777   1.671
 2560SOL    HW2 8580   4.253   2.930   1.723
 2561SOL     OW 8581   3.707   0.660   4.522
 2561SOL    HW1 8582   3.612   0.642   4.546
 2561SOL    HW2 8583   3.766   0.642   4.602
 2562SOL     OW 8584   1.758   6.330   5.047
 2562SOL    HW1 8585   1.817   6.411   5.055
 2562SOL    HW2 8586   1.727   6.302   5.137
 2563SOL     OW 8587   4.559   2.397   0.185
 2563SOL    HW1 8588   4.469   2.357   0.201
 2563SOL    HW2 8589   4.554   2.459   0.107
 2564SOL     OW 8590   1.612   1.214   1.561
 2564SOL    HW1 8591   1.582   1.120   1.547
 2564SOL    HW2 8592   1.700   1.214   1.610
 2565SOL     OW 8593   6.646   0.182   0.867
 2565SOL    HW1 8594   6.685   0.231   0.789
 2565SOL    HW2 8595   6.551   0.157   0.846
 2566SOL     OW 8596   2.943   1.421   0.881
 2566SOL    HW1 8597   2.959   1.406   0.783
 2566SOL    HW2 8598   2.969   1.514   0.906
 2567SOL     OW 8599   2.213   0.896   5.945
 2567SOL    HW1 8600   2.255   0.840   6.016
 2567SOL    HW2 8601   2.154   0.965   5.988
 2568SOL     OW 8602   3.157   6.332   6.749
 2568SOL    HW1 8603   3.075   6.322   6.806
 2568SOL    HW2 8604   3.134   6.386   6.668
 2569SOL     OW 8605   2.789   6.517   6.662
 2569SOL    HW1 8606   2.804   6.478   6.753
 2569SOL    HW2 8607   2.794   6.616   6.667
 2570SOL     OW 8608   7.007   0.289   3.421
 2570SOL    HW1 8609   6.917   0.246   3.435
 2570SOL    HW2 8610   6.994   0.384   3.392
 2571SOL     OW 8611   3.205   3.660   2.311
 2571SOL    HW1 8612   3.287   3.697   2.355
 2571SOL    HW2 8613   3.127   3.718   2.330
 2572SOL     OW 8614   3.267   6.753   2.470
 2572SOL    HW1 8615   3.193   6.687   2.458
 2572SOL    HW2 8616   3.345   6.726   2.413
 2573SOL     OW 8617   5.998   0.516   2.481
 2573SOL    HW1 8618   6.044   0.479   2.401
 2573SOL    HW2 8619   6.066   0.546   2.548
 2574SOL     OW 8620   0.689   4.307   2.124
 2574SOL    HW1 8621   0.734   4.365   2.192
 2574SOL    HW2 8622   0.663   4.220   2.167
 2575SOL     OW 8623   4.452   3.565   5.331
 2575SOL    HW1 8624   4.403   3.651   5.321
 2575SOL    HW2 8625   4.526   3.561   5.264
 2576SOL     OW 8626   0.621   0.677   3.219
 2576SOL    HW1 8627   0.642   0.773   3.204
 2576SOL    HW2 8628   0.699   0.621   3.190
 2577SOL     OW 8629   1.626   4.449   0.561
 2577SOL    HW1 8630   1.647   4.537   0.604
 2577SOL    HW2 8631   1.693   4.430   0.490
 2578SOL     OW 8632   4.995   1.292   4.983
 2578SOL    HW1 8633   5.046   1.207   4.969
 2578SOL    HW2 8634   4.932   1.280   5.059
 2579SOL     OW 8635   0.353   1.944   6.477
 2579SOL    HW1 8636   0.298   1.861   6.477
 2579SOL    HW2 8637   0.295   2.023   6.458
 2580SOL     OW 8638   1.632   2.382   5.524
 2580SOL    HW1 8639   1.687   2.421   5.599
 2580SOL    HW2 8640   1.559   2.446   5.499
 2581SOL     OW 8641   4.608   6.588   4.226
 2581SOL    HW1 8642   4.553   6.650   4.282
 2581SOL    HW2 8643   4.698   6.576   4.267
 2582SOL     OW 8644   6.743   4.741   2.805
 2582SOL    HW1 8645   6.750   4.657   2.859
 2582SOL    HW2 8646   6.835   4.767   2.773
 2583SOL     OW 8647   2.696   0.985   7.016
 2583SOL    HW1 8648   2.735   0.965   0.082
 2583SOL    HW2 8649   2.738   1.068   6.979
 2584SOL     OW 8650   3.414   0.292   3.426
 2584SOL    HW1 8651   3.319   0.276   3.401
 2584SOL    HW2 8652   3.454   0.358   3.363
 2585SOL     OW 8653   3.871   0.697   2.915
 2585SOL    HW1 8654   3.861   0.669   3.011
 2585SOL    HW2 8655   3.819   0.635   2.856
 2586SOL     OW 8656   1.855   1.858   4.393
 2586SOL    HW1 8657   1.835   1.848   4.296
 2586SOL    HW2 8658   1.842   1.953   4.421
 2587SOL     OW 8659   6.704   4.486   3.503
 2587SOL    HW1 8660   6.719   4.585   3.498
 2587SOL    HW2 8661   6.790   4.439   3.485
 2588SOL     OW 8662   3.202   0.465   2.572
 2588SOL    HW1 8663   3.166   0.444   2.663
 2588SOL    HW2 8664   3.128   0.465   2.505
 2589SOL     OW 8665   4.703   6.796   2.354
 2589SOL    HW1 8666   4.750   6.737   2.421
 2589SOL    HW2 8667   4.711   6.756   2.263
 2590SOL     OW 8668   4.349   6.278   3.600
 2590SOL    HW1 8669   4.418   6.259   3.670
 2590SOL    HW2 8670   4.350   6.205   3.532
 2591SOL     OW 8671   5.569   0.590   1.235
 2591SOL    HW1 8672   5.656   0.636   1.254
 2591SOL    HW2 8673   5.538   0.614   1.143
 2592SOL     OW 8674   2.573   5.251   1.792
 2592SOL    HW1 8675   2.494   5.198   1.762
 2592SOL    HW2 8676   2.591   5.232   1.889
 2593SOL     OW 8677   2.521   0.043   4.218
 2593SOL    HW1 8678   2.607   0.074   4.176
 2593SOL    HW2 8679   2.542   7.008   4.297
 2594SOL     OW 8680   2.049   5.731   6.164
 2594SOL    HW1 8681   2.051   5.633   6.180
 2594SOL    HW2 8682   2.035   5.778   6.252
 2595SOL     OW 8683   6.959   3.191   5.286
 2595SOL    HW1 8684   6.965   3.230   5.378
 2595SOL    HW2 8685   6.963   3.264   5.218
 2596SOL     OW 8686   4.280   1.507   0.731
 2596SOL    HW1 8687   4.266   1.565   0.650
 2596SOL    HW2 8688   4.205   1.441   0.738
 2597SOL     OW 8689   2.363   1.883   6.399
 2597SOL    HW1 8690   2.293   1.839   6.343
 2597SOL    HW2 8691   2.320   1.926   6.478
 2598SOL     OW 8692   6.431   1.624   3.227
 2598SOL    HW1 8693   6.487   1.706   3.241
 2598SOL    HW2 8694   6.355   1.646   3.166
 2599SOL     OW 8695   5.003   5.878   5.742
 2599SOL    HW1 8696   4.982   5.968   5.704
 2599SOL    HW2 8697   4.918   5.830   5.765
 2600SOL     OW 8698   0.150   2.807   4.773
 2600SOL    HW1 8699   0.065   2.839   4.733
 2600SOL    HW2 8700   0.227   2.854   4.730
 2601SOL     OW 8701   4.147   4.245   5.288
 2601SOL    HW1 8702   4.215   4.309   5.251
 2601SOL    HW2 8703   4.062   4.252   5.236
 2602SOL     OW 8704   6.167   0.058   0.442
 2602SOL    HW1 8705   6.195   7.006   0.501
 2602SOL    HW2 8706   6.075   0.040   0.406
 2603SOL     OW 8707   1.942   1.858   6.921
 2603SOL    HW1 8708   1.964   1.908   7.005
 2603SOL    HW2 8709   1.943   1.760   6.939
 2604SOL     OW 8710   6.023   1.517   0.585
 2604SOL    HW1 8711   6.005   1.459   0.506
 2604SOL    HW2 8712   6.101   1.482   0.636
 2605SOL     OW 8713   5.378   2.408   5.413
 2605SOL    HW1 8714   5.366   2.496   5.366
 2605SOL    HW2 8715   5.475   2.389   5.424
 2606SOL     OW 8716   6.195   4.192   1.530
 2606SOL    HW1 8717   6.174   4.237   1.617
 2606SOL    HW2 8718   6.294   4.191   1.516
 2607SOL     OW 8719   0.356   0.580   3.260
 2607SOL    HW1 8720   0.443   0.628   3.274
 2607SOL    HW2 8721   0.372   0.496   3.208
 2608SOL     OW 8722   4.527   0.577   6.971
 2608SOL    HW1 8723   4.516   0.619   6.881
 2608SOL    HW2 8724   4.624   0.557   6.987
 2609SOL     OW 8725   1.055   4.223   3.538
 2609SOL    HW1 8726   0.965   4.206   3.577
 2609SOL    HW2 8727   1.111   4.141   3.545
 2610SOL     OW 8728   5.617   5.309   4.483
 2610SOL    HW1 8729   5.631   5.402   4.449
 2610SOL    HW2 8730   5.629   5.308   4.582
 2611SOL     OW 8731   2.785   6.445   1.971
 2611SOL    HW1 8732   2.793   6.378   1.897
 2611SOL    HW2 8733   2.748   6.531   1.935
 2612SOL     OW 8734   0.870   6.626   4.360
 2612SOL    HW1 8735   0.851   6.571   4.279
 2612SOL    HW2 8736   0.908   6.567   4.432
 2613SOL     OW 8737   4.084   1.929   6.912
 2613SOL    HW1 8738   4.129   1.985   6.842
 2613SOL    HW2 8739   3.999   1.892   6.876
 2614SOL     OW 8740   6.536   6.539   6.789
 2614SOL    HW1 8741   6.632   6.512   6.800
 2614SOL    HW2 8742   6.521   6.572   6.696
 2615SOL     OW 8743   0.423   4.355   1.323
 2615SOL    HW1 8744   0.436   4.351   1.223
 2615SOL    HW2 8745   0.505   4.395   1.365
 2616SOL     OW 8746   3.655   3.769   1.669
 2616SOL    HW1 8747   3.567   3.765   1.623
 2616SOL    HW2 8748   3.656   3.848   1.731
 2617SOL     OW 8749   2.795   6.709   1.159
 2617SOL    HW1 8750   2.846   6.787   1.124
 2617SOL    HW2 8751   2.698   6.731   1.165
 2618SOL     OW 8752   1.266   5.867   0.258
 2618SOL    HW1 8753   1.206   5.891   0.183
 2618SOL    HW2 8754   1.355   5.911   0.245
 2619SOL     OW 8755   6.272   1.091   2.434
 2619SOL    HW1 8756   6.184   1.121   2.398
 2619SOL    HW2 8757   6.261   1.004   2.482
 2620SOL     OW 8758   1.883   5.728   3.829
 2620SOL    HW1 8759   1.854   5.773   3.913
 2620SOL    HW2 8760   1.836   5.769   3.751
 2621SOL     OW 8761   1.688   5.779   4.347
 2621SOL    HW1 8762   1.786   5.783   4.330
 2621SOL    HW2 8763   1.644   5.721   4.278
 2622SOL     OW 8764   2.223   2.760   4.182
 2622SOL    HW1 8765   2.237   2.814   4.099
 2622SOL    HW2 8766   2.251   2.813   4.262
 2623SOL     OW 8767   3.101   0.108   5.580
 2623SOL    HW1 8768   3.041   0.177   5.540
 2623SOL    HW2 8769   3.100   0.117   5.680
 2624SOL     OW 8770   4.843   2.292   4.659
 2624SOL    HW1 8771   4.836   2.265   4.755
 2624SOL    HW2 8772   4.768   2.251   4.607
 2625SOL     OW 8773   2.199   0.075   5.771
 2625SOL    HW1 8774   2.120   0.094   5.829
 2625SOL    HW2 8775   2.265   0.019   5.821
 2626SOL     OW 8776   2.860   6.933   3.275
 2626SOL    HW1 8777   2.764   6.944   3.249
 2626SOL    HW2 8778   2.872   6.966   3.369
 2627SOL     OW 8779   0.963   0.376   4.954
 2627SOL    HW1 8780   0.976   0.475   4.952
 2627SOL    HW2 8781   0.881   0.351   4.902
 2628SOL     OW 8782   5.176   5.246   0.044
 2628SOL    HW1 8783   5.119   5.174   0.003
 2628SOL    HW2 8784   5.269   5.238   0.008
 2629SOL     OW 8785   3.043   3.954   1.926
 2629SOL    HW1 8786   3.030   3.986   2.020
 2629SOL    HW2 8787   2.964   3.982   1.871
 2630SOL     OW 8788   3.612   1.724   2.350
 2630SOL    HW1 8789   3.605   1.658   2.275
 2630SOL    HW2 8790   3.696   1.708   2.401
 2631SOL     OW 8791   3.353   6.788   4.305
 2631SOL    HW1 8792   3.363   6.885   4.326
 2631SOL    HW2 8793   3.443   6.749   4.283
 2632SOL     OW 8794   4.755   1.289   1.118
 2632SOL    HW1 8795   4.790   1.304   1.025
 2632SOL    HW2 8796   4.747   1.377   1.165
 2633SOL     OW 8797   0.400   1.843   0.568
 2633SOL    HW1 8798   0.435   1.925   0.614
 2633SOL    HW2 8799   0.366   1.868   0.477
 2634SOL     OW 8800   2.590   5.030   0.679
 2634SOL    HW1 8801   2.661   4.966   0.707
 2634SOL    HW2 8802   2.514   5.026   0.744
 2635SOL     OW 8803   6.798   4.076   3.355
 2635SOL    HW1 8804   6.856   4.126   3.291
 2635SOL    HW2 8805   6.744   4.009   3.304
 2636SOL     OW 8806   5.628   5.035   5.998
 2636SOL    HW1 8807   5.589   4.943   5.993
 2636SOL    HW2 8808   5.576   5.096   5.938
 2637SOL     OW 8809   5.079   5.303   2.342
 2637SOL    HW1 8810   5.174   5.271   2.349
 2637SOL    HW2 8811   5.020   5.240   2.392
 2638SOL     OW 8812   4.642   5.698   0.661
 2638SOL    HW1 8813   4.645   5.601   0.684
 2638SOL    HW2 8814   4.730   5.726   0.622
 2639SOL     OW 8815   6.771   0.990   0.371
 2639SOL    HW1 8816   6.856   0.936   0.371
 2639SOL    HW2 8817   6.726   0.981   0.282
 2640SOL     OW 8818   6.782   5.986   0.745
 2640SOL    HW1 8819   6.784   6.023   0.652
 2640SOL    HW2 8820   6.695   5.939   0.760
 2641SOL     OW 8821   0.028   5.619   1.245
 2641SOL    HW1 8822   6.978   5.558   1.271
 2641SOL    HW2 8823   0.081   5.577   1.170
 2642SOL     OW 8824   6.665   0.167   4.141
 2642SOL    HW1 8825   6.638   0.217   4.059
 2642SOL    HW2 8826   6.763   0.176   4.156
 2643SOL     OW 8827   1.911   0.772   1.964
 2643SOL    HW1 8828   1.905   0.861   2.008
 2643SOL    HW2 8829   2.006   0.752   1.941
 2644SOL     OW 8830   5.814   6.570   4.934
 2644SOL    HW1 8831   5.869   6.537   4.858
 2644SOL    HW2 8832   5.847   6.532   5.019
 2645SOL     OW 8833   5.575   6.144   6.535
 2645SOL    HW1 8834   5.495   6.145   6.595
 2645SOL    HW2 8835   5.624   6.231   6.543
 2646SOL     OW 8836   5.513   5.338   5.568
 2646SOL    HW1 8837   5.531   5.298   5.479
 2646SOL    HW2 8838   5.450   5.415   5.558
 2647SOL     OW 8839   3.344   4.434   0.610
 2647SOL    HW1 8840   3.404   4.513   0.603
 2647SOL    HW2 8841   3.255   4.455   0.570
 2648SOL     OW 8842   4.573   1.609   3.785
 2648SOL    HW1 8843   4.629   1.617   3.867
 2648SOL    HW2 8844   4.498   1.544   3.802
 2649SOL     OW 8845   2.908   3.916   5.110
 2649SOL    HW1 8846   2.943   3.841   5.055
 2649SOL    HW2 8847   2.827   3.886   5.161
 2650SOL     OW 8848   0.253   0.108   2.028
 2650SOL    HW1 8849   0.238   0.046   1.952
 2650SOL    HW2 8850   0.264   0.202   1.993
 2651SOL     OW 8851   1.659   6.790   2.530
 2651SOL    HW1 8852   1.688   6.879   2.494
 2651SOL    HW2 8853   1.570   6.766   2.492
 2652SOL     OW 8854   3.269   2.750   1.522
 2652SOL    HW1 8855   3.179   2.709   1.528
 2652SOL    HW2 8856   3.300   2.779   1.613
 2653SOL     OW 8857   6.099   6.865   1.395
 2653SOL    HW1 8858   6.183   6.848   1.446
 2653SOL    HW2 8859   6.044   6.782   1.392
 2654SOL     OW 8860   6.976   3.220   5.560
 2654SOL    HW1 8861   6.977   3.120   5.567
 2654SOL    HW2 8862   6.968   3.260   5.651
 2655SOL     OW 8863   5.351   4.568   4.178
 2655SOL    HW1 8864   5.266   4.563   4.231
 2655SOL    HW2 8865   5.329   4.570   4.081
 2656SOL     OW 8866   5.992   3.531   5.127
 2656SOL    HW1 8867   6.065   3.513   5.193
 2656SOL    HW2 8868   5.919   3.582   5.172
 2657SOL     OW 8869   4.103   2.091   5.511
 2657SOL    HW1 8870   4.042   2.085   5.590
 2657SOL    HW2 8871   4.173   2.020   5.518
 2658SOL     OW 8872   7.007   4.224   5.324
 2658SOL    HW1 8873   0.033   4.238   5.409
 2658SOL    HW2 8874   6.914   4.192   5.344
 2659SOL     OW 8875   6.589   1.048   3.704
 2659SOL    HW1 8876   6.684   1.017   3.700
 2659SOL    HW2 8877   6.586   1.145   3.726
 2660SOL     OW 8878   1.062   1.787   3.866
 2660SOL    HW1 8879   0.998   1.727   3.913
 2660SOL    HW2 8880   1.011   1.860   3.819
 2661SOL     OW 8881   3.551   6.608   3.541
 2661SOL    HW1 8882   3.461   6.594   3.499
 2661SOL    HW2 8883   3.613   6.649   3.474
 2662SOL     OW 8884   3.768   1.091   4.115
 2662SOL    HW1 8885   3.743   1.033   4.192
 2662SOL    HW2 8886   3.792   1.034   4.036
 2663SOL     OW 8887   0.771   4.100   3.010
 2663SOL    HW1 8888   0.864   4.134   2.994
 2663SOL    HW2 8889   0.739   4.050   2.930
 2664SOL     OW 8890   4.709   4.276   1.763
 2664SOL    HW1 8891   4.626   4.256   1.815
 2664SOL    HW2 8892   4.760   4.350   1.809
 2665SOL     OW 8893   3.843   0.978   5.230
 2665SOL    HW1 8894   3.866   0.920   5.152
 2665SOL    HW2 8895   3.860   1.074   5.206
 2666SOL     OW 8896   5.103   6.113   1.707
 2666SOL    HW1 8897   5.110   6.207   1.673
 2666SOL    HW2 8898   5.013   6.076   1.684
 2667SOL     OW 8899   1.892   4.728   2.602
 2667SOL    HW1 8900   1.939   4.760   2.684
 2667SOL    HW2 8901   1.875   4.630   2.609
 2668SOL     OW 8902   6.920   2.694   5.269
 2668SOL    HW1 8903   6.866   2.675   5.188
 2668SOL    HW2 8904   7.012   2.657   5.258
 2669SOL     OW 8905   3.897   5.760   4.941
 2669SOL    HW1 8906   3.808   5.767   4.895
 2669SOL    HW2 8907   3.948   5.683   4.903
 2670SOL     OW 8908   1.984   6.634   4.361
 2670SOL    HW1 8909   2.021   6.618   4.269
 2670SOL    HW2 8910   2.009   6.559   4.421
 2671SOL     OW 8911   2.991   3.619   6.997
 2671SOL    HW1 8912   2.975   3.691   0.041
 2671SOL    HW2 8913   2.963   3.651   6.907
 2672SOL     OW 8914   0.800   4.708   0.748
 2672SOL    HW1 8915   0.723   4.736   0.804
 2672SOL    HW2 8916   0.842   4.789   0.706
 2673SOL     OW 8917   3.896   1.865   2.900
 2673SOL    HW1 8918   3.923   1.823   2.986
 2673SOL    HW2 8919   3.853   1.953   2.917
 2674SOL     OW 8920   4.972   6.127   5.075
 2674SOL    HW1 8921   5.043   6.154   5.011
 2674SOL    HW2 8922   4.906   6.067   5.028
 2675SOL     OW 8923   0.192   5.241   6.034
 2675SOL    HW1 8924   0.157   5.176   5.967
 2675SOL    HW2 8925   0.172   5.334   6.003
 2676SOL     OW 8926   4.945   0.115   1.806
 2676SOL    HW1 8927   5.030   0.157   1.836
 2676SOL    HW2 8928   4.966   0.041   1.741
 2677SOL     OW 8929   2.287   4.708   2.040
 2677SOL    HW1 8930   2.296   4.629   2.101
 2677SOL    HW2 8931   2.324   4.686   1.950
 2678SOL     OW 8932   1.013   6.538   6.993
 2678SOL    HW1 8933   1.021   6.533   6.893
 2678SOL    HW2 8934   0.944   6.606   7.017
 2679SOL     OW 8935   2.030   5.413   1.253
 2679SOL    HW1 8936   2.126   5.388   1.268
 2679SOL    HW2 8937   1.971   5.344   1.296
 2680SOL     OW 8938   6.461   2.635   1.169
 2680SOL    HW1 8939   6.548   2.589   1.188
 2680SOL    HW2 8940   6.423   2.669   1.255
 2681SOL     OW 8941   1.852   2.181   1.354
 2681SOL    HW1 8942   1.874   2.232   1.437
 2681SOL    HW2 8943   1.886   2.231   1.274
 2682SOL     OW 8944   0.524   3.113   3.814
 2682SOL    HW1 8945   0.453   3.096   3.883
 2682SOL    HW2 8946   0.491   3.086   3.724
 2683SOL     OW 8947   1.752   6.872   0.823
 2683SOL    HW1 8948   1.787   6.963   0.848
 2683SOL    HW2 8949   1.656   6.880   0.794
 2684SOL     OW 8950   2.869   4.759   3.028
 2684SOL    HW1 8951   2.806   4.690   2.990
 2684SOL    HW2 8952   2.937   4.783   2.959
 2685SOL     OW 8953   4.963   4.305   5.807
 2685SOL    HW1 8954   4.895   4.247   5.762
 2685SOL    HW2 8955   5.052   4.291   5.766
 2686SOL     OW 8956   1.506   3.428   4.661
 2686SOL    HW1 8957   1.501   3.527   4.670
 2686SOL    HW2 8958   1.572   3.391   4.727
 2687SOL     OW 8959   4.576   5.229   2.878
 2687SOL    HW1 8960   4.478   5.209   2.870
 2687SOL    HW2 8961   4.607   5.278   2.796
 2688SOL     OW 8962   3.204   4.495   5.308
 2688SOL    HW1 8963   3.155   4.408   5.302
 2688SOL    HW2 8964   3.301   4.477   5.326
 2689SOL     OW 8965   5.929   1.429   3.912
 2689SOL    HW1 8966   6.027   1.429   3.893
 2689SOL    HW2 8967   5.894   1.523   3.910
 2690SOL     OW 8968   3.557   4.142   3.529
 2690SOL    HW1 8969   3.501   4.199   3.468
 2690SOL    HW2 8970   3.511   4.055   3.545
 2691SOL     OW 8971   0.865   6.059   1.067
 2691SOL    HW1 8972   0.902   5.999   1.138
 2691SOL    HW2 8973   0.820   6.137   1.110
 2692SOL     OW 8974   0.145   4.332   4.091
 2692SOL    HW1 8975   0.101   4.263   4.149
 2692SOL    HW2 8976   0.179   4.289   4.008
 2693SOL     OW 8977   2.185   3.847   2.538
 2693SOL    HW1 8978   2.179   3.776   2.469
 2693SOL    HW2 8979   2.184   3.937   2.494
 2694SOL     OW 8980   1.870   1.645   2.649
 2694SOL    HW1 8981   1.836   1.621   2.558
 2694SOL    HW2 8982   1.905   1.739   2.648
 2695SOL     OW 8983   4.014   2.213   2.013
 2695SOL    HW1 8984   4.025   2.250   1.921
 2695SOL    HW2 8985   3.918   2.222   2.041
 2696SOL     OW 8986   2.973   3.564   6.338
 2696SOL    HW1 8987   3.038   3.547   6.413
 2696SOL    HW2 8988   3.007   3.521   6.254
 2697SOL     OW 8989   2.201   0.882   4.985
 2697SOL    HW1 8990   2.279   0.881   5.048
 2697SOL    HW2 8991   2.165   0.790   4.974
 2698SOL     OW 8992   1.600   1.214   0.028
 2698SOL    HW1 8993   1.566   1.299   7.012
 2698SOL    HW2 8994   1.697   1.224   0.050
 2699SOL     OW 8995   1.756   4.828   3.834
 2699SOL    HW1 8996   1.759   4.810   3.736
 2699SOL    HW2 8997   1.662   4.819   3.867
 2700SOL     OW 8998   2.040   4.382   3.070
 2700SOL    HW1 8999   2.003   4.444   3.139
 2700SOL    HW2 9000   2.132   4.354   3.097
 2701SOL     OW 9001   1.626   0.608   5.195
 2701SOL    HW1 9002   1.716   0.636   5.227
 2701SOL    HW2 9003   1.555   0.653   5.248
 2702SOL     OW 9004   5.889   6.133   2.366
 2702SOL    HW1 9005   5.828   6.212   2.377
 2702SOL    HW2 9006   5.870   6.088   2.279
 2703SOL     OW 9007   2.061   2.777   2.311
 2703SOL    HW1 9008   2.096   2.860   2.269
 2703SOL    HW2 9009   2.126   2.702   2.297
 2704SOL     OW 9010   0.610   6.474   0.336
 2704SOL    HW1 9011   0.695   6.427   0.361
 2704SOL    HW2 9012   0.574   6.435   0.251
 2705SOL     OW 9013   0.305   2.768   2.936
 2705SOL    HW1 9014   0.389   2.807   2.973
 2705SOL    HW2 9015   0.274   2.824   2.859
 2706SOL     OW 9016   6.696   2.288   3.614
 2706SOL    HW1 9017   6.613   2.334   3.646
 2706SOL    HW2 9018   6.685   2.265   3.517
 2707SOL     OW 9019   3.879   0.727   0.364
 2707SOL    HW1 9020   3.808   0.776   0.315
 2707SOL    HW2 9021   3.967   0.741   0.318
 2708SOL     OW 9022   1.529   4.592   6.542
 2708SOL    HW1 9023   1.591   4.572   6.467
 2708SOL    HW2 9024   1.441   4.546   6.526
 2709SOL     OW 9025   3.897   0.403   1.984
 2709SOL    HW1 9026   3.902   0.410   1.884
 2709SOL    HW2 9027   3.890   0.494   2.023
 2710SOL     OW 9028   5.841   3.769   3.177
 2710SOL    HW1 9029   5.850   3.819   3.263
 2710SOL    HW2 9030   5.906   3.805   3.110
 2711SOL     OW 9031   0.608   6.675   1.607
 2711SOL    HW1 9032   0.564   6.695   1.695
 2711SOL    HW2 9033   0.679   6.606   1.619
 2712SOL     OW 9034   3.275   5.618   2.933
 2712SOL    HW1 9035   3.194   5.607   2.989
 2712SOL    HW2 9036   3.342   5.548   2.957
 2713SOL     OW 9037   2.433   2.544   5.478
 2713SOL    HW1 9038   2.497   2.615   5.509
 2713SOL    HW2 9039   2.371   2.583   5.411
 2714SOL     OW 9040   5.744   0.854   6.806
 2714SOL    HW1 9041   5.718   0.794   6.731
 2714SOL    HW2 9042   5.802   0.928   6.771
 2715SOL     OW 9043   5.640   0.349   6.910
 2715SOL    HW1 9044   5.600   0.418   6.849
 2715SOL    HW2 9045   5.719   0.388   6.957
 2716SOL     OW 9046   6.218   6.567   2.145
 2716SOL    HW1 9047   6.264   6.603   2.227
 2716SOL    HW2 9048   6.123   6.544   2.168
 2717SOL     OW 9049   0.631   6.695   3.306
 2717SOL    HW1 9050   0.554   6.673   3.246
 2717SOL    HW2 9051   0.654   6.792   3.298
 2718SOL     OW 9052   6.740   3.924   2.971
 2718SOL    HW1 9053   6.831   3.894   2.998
 2718SOL    HW2 9054   6.684   3.941   3.053
 2719SOL     OW 9055   4.714   4.421   3.224
 2719SOL    HW1 9056   4.706   4.392   3.129
 2719SOL    HW2 9057   4.645   4.491   3.244
 2720SOL     OW 9058   0.371   6.767   4.288
 2720SOL    HW1 9059   0.420   6.707   4.225
 2720SOL    HW2 9060   0.283   6.726   4.311
 2721SOL     OW 9061   4.945   6.007   2.633
 2721SOL    HW1 9062   4.858   5.970   2.600
 2721SOL    HW2 9063   4.931   6.054   2.720
 2722SOL     OW 9064   0.683   5.889   2.687
 2722SOL    HW1 9065   0.725   5.803   2.656
 2722SOL    HW2 9066   0.708   5.962   2.624
 2723SOL     OW 9067   2.486   2.221   4.408
 2723SOL    HW1 9068   2.513   2.134   4.450
 2723SOL    HW2 9069   2.530   2.296   4.457
 2724SOL     OW 9070   4.793   6.152   5.477
 2724SOL    HW1 9071   4.695   6.138   5.486
 2724SOL    HW2 9072   4.811   6.216   5.403
 2725SOL     OW 9073   1.690   5.210   2.094
 2725SOL    HW1 9074   1.652   5.294   2.132
 2725SOL    HW2 9075   1.672   5.206   1.996
 2726SOL     OW 9076   4.005   5.931   2.611
 2726SOL    HW1 9077   3.957   5.935   2.523
 2726SOL    HW2 9078   4.099   5.901   2.596
 2727SOL     OW 9079   2.201   5.514   3.787
 2727SOL    HW1 9080   2.244   5.462   3.860
 2727SOL    HW2 9081   2.266   5.581   3.751
 2728SOL     OW 9082   2.149   6.954   5.104
 2728SOL    HW1 9083   2.057   6.993   5.094
 2728SOL    HW2 9084   2.215   7.014   5.059
 2729SOL     OW 9085   6.622   4.183   2.389
 2729SOL    HW1 9086   6.589   4.099   2.432
 2729SOL    HW2 9087   6.684   4.159   2.314
 2730SOL     OW 9088   1.467   3.083   1.884
 2730SOL    HW1 9089   1.370   3.072   1.863
 2730SOL    HW2 9090   1.519   3.005   1.849
 2731SOL     OW 9091   2.112   3.390   6.993
 2731SOL    HW1 9092   2.078   3.473   6.948
 2731SOL    HW2 9093   2.180   3.346   6.935
 2732SOL     OW 9094   5.869   3.197   4.527
 2732SOL    HW1 9095   5.848   3.263   4.598
 2732SOL    HW2 9096   5.817   3.219   4.444
 2733SOL     OW 9097   2.325   0.599   6.612
 2733SOL    HW1 9098   2.247   0.541   6.589
 2733SOL    HW2 9099   2.302   0.655   6.691
 2734SOL     OW 9100   2.170   0.233   3.995
 2734SOL    HW1 9101   2.226   0.306   4.035
 2734SOL    HW2 9102   2.074   0.259   4.000
 2735SOL     OW 9103   1.460   5.579   1.411
 2735SOL    HW1 9104   1.414   5.634   1.342
 2735SOL    HW2 9105   1.544   5.540   1.372
 2736SOL     OW 9106   4.252   0.447   6.788
 2736SOL    HW1 9107   4.306   0.385   6.846
 2736SOL    HW2 9108   4.291   0.448   6.696
 2737SOL     OW 9109   4.183   4.039   5.457
 2737SOL    HW1 9110   4.187   4.118   5.396
 2737SOL    HW2 9111   4.146   4.068   5.546
 2738SOL     OW 9112   0.354   4.069   5.199
 2738SOL    HW1 9113   0.397   4.050   5.288
 2738SOL    HW2 9114   0.283   4.139   5.211
 2739SOL     OW 9115   4.326   3.909   6.594
 2739SOL    HW1 9116   4.311   3.882   6.689
 2739SOL    HW2 9117   4.341   3.827   6.538
 2740SOL     OW 9118   6.602   2.774   4.630
 2740SOL    HW1 9119   6.636   2.820   4.712
 2740SOL    HW2 9120   6.678   2.734   4.580
 2741SOL     OW 9121   2.251   3.377   5.907
 2741SOL    HW1 9122   2.258   3.282   5.937
 2741SOL    HW2 9123   2.274   3.383   5.810
 2742SOL     OW 9124   2.530   6.012   5.444
 2742SOL    HW1 9125   2.582   6.079   5.391
 2742SOL    HW2 9126   2.590   5.969   5.511
 2743SOL     OW 9127   5.352   3.786   6.142
 2743SOL    HW1 9128   5.367   3.699   6.191
 2743SOL    HW2 9129   5.289   3.843   6.196
 2744SOL     OW 9130   5.115   6.535   1.145
 2744SOL    HW1 9131   5.149   6.511   1.053
 2744SOL    HW2 9132   5.108   6.452   1.200
 2745SOL     OW 9133   2.970   5.386   2.606
 2745SOL    HW1 9134   2.939   5.304   2.559
 2745SOL    HW2 9135   2.995   5.363   2.700
 2746SOL     OW 9136   1.037   2.640   0.021
 2746SOL    HW1 9137   1.074   2.550   7.021
 2746SOL    HW2 9138   1.112   2.704   0.036
 2747SOL     OW 9139   5.013   6.381   3.740
 2747SOL    HW1 9140   4.954   6.409   3.664
 2747SOL    HW2 9141   4.976   6.417   3.826
 2748SOL     OW 9142   5.379   1.077   4.771
 2748SOL    HW1 9143   5.285   1.045   4.785
 2748SOL    HW2 9144   5.424   1.088   4.859
 2749SOL     OW 9145   5.353   5.069   3.037
 2749SOL    HW1 9146   5.331   5.038   3.129
 2749SOL    HW2 9147   5.444   5.037   3.012
 2750SOL     OW 9148   0.866   0.299   0.360
 2750SOL    HW1 9149   0.836   0.204   0.376
 2750SOL    HW2 9150   0.921   0.330   0.437
 2751SOL     OW 9151   1.416   0.463   6.878
 2751SOL    HW1 9152   1.426   0.487   6.975
 2751SOL    HW2 9153   1.333   0.408   6.866
 2752SOL     OW 9154   0.004   6.557   6.355
 2752SOL    HW1 9155   6.932   6.541   6.333
 2752SOL    HW2 9156   0.039   6.633   6.301
 2753SOL     OW 9157   3.522   5.297   4.220
 2753SOL    HW1 9158   3.621   5.285   4.224
 2753SOL    HW2 9159   3.490   5.344   4.303
 2754SOL     OW 9160   1.189   5.074   3.847
 2754SOL    HW1 9161   1.241   5.148   3.891
 2754SOL    HW2 9162   1.146   5.109   3.764
 2755SOL     OW 9163   4.478   6.727   2.735
 2755SOL    HW1 9164   4.560   6.783   2.723
 2755SOL    HW2 9165   4.474   6.657   2.664
 2756SOL     OW 9166   0.145   3.151   4.902
 2756SOL    HW1 9167   0.046   3.143   4.891
 2756SOL    HW2 9168   0.167   3.226   4.964
 2757SOL     OW 9169   5.061   4.019   5.650
 2757SOL    HW1 9170   4.969   4.047   5.624
 2757SOL    HW2 9171   5.058   3.974   5.740
 2758SOL     OW 9172   0.072   6.574   1.497
 2758SOL    HW1 9173   0.148   6.635   1.518
 2758SOL    HW2 9174   0.098   6.511   1.424
 2759SOL     OW 9175   3.903   3.984   4.761
 2759SOL    HW1 9176   3.851   4.069   4.753
 2759SOL    HW2 9177   3.935   3.973   4.855
 2760SOL     OW 9178   4.792   5.441   2.943
 2760SOL    HW1 9179   4.769   5.419   2.848
 2760SOL    HW2 9180   4.845   5.366   2.982
 2761SOL     OW 9181   1.889   3.332   3.609
 2761SOL    HW1 9182   1.847   3.309   3.521
 2761SOL    HW2 9183   1.825   3.385   3.664
 2762SOL     OW 9184   4.197   1.564   2.524
 2762SOL    HW1 9185   4.200   1.638   2.458
 2762SOL    HW2 9186   4.162   1.599   2.612
 2763SOL     OW 9187   5.335   0.907   3.992
 2763SOL    HW1 9188   5.308   0.811   3.984
 2763SOL    HW2 9189   5.434   0.913   4.000
 2764SOL     OW 9190   0.007   2.192   2.823
 2764SOL    HW1 9191   0.101   2.207   2.789
 2764SOL    HW2 9192   0.003   2.105   2.872
 2765SOL     OW 9193   6.726   6.704   0.152
 2765SOL    HW1 9194   6.671   6.623   0.174
 2765SOL    HW2 9195   6.823   6.679   0.149
 2766SOL     OW 9196   5.318   0.500   0.192
 2766SOL    HW1 9197   5.242   0.435   0.192
 2766SOL    HW2 9198   5.289   0.586   0.150
 2767SOL     OW 9199   0.515   6.131   6.347
 2767SOL    HW1 9200   0.587   6.072   6.384
 2767SOL    HW2 9201   0.551   6.222   6.332
 2768SOL     OW 9202   4.274   0.346   1.616
 2768SOL    HW1 9203   4.335   0.356   1.694
 2768SOL    HW2 9204   4.232   0.255   1.618
 2769SOL     OW 9205   0.888   5.347   6.003
 2769SOL    HW1 9206   0.856   5.252   6.001
 2769SOL    HW2 9207   0.967   5.354   6.065
 2770SOL     OW 9208   2.407   6.867   0.416
 2770SOL    HW1 9209   2.378   6.773   0.430
 2770SOL    HW2 9210   2.338   6.915   0.362
 2771SOL     OW 9211   3.962   6.113   5.598
 2771SOL    HW1 9212   3.991   6.206   5.619
 2771SOL    HW2 9213   4.039   6.062   5.559
 2772SOL     OW 9214   6.103   1.718   2.958
 2772SOL    HW1 9215   6.123   1.624   2.985
 2772SOL    HW2 9216   6.187   1.761   2.923
 2773SOL     OW 9217   4.746   1.421   6.026
 2773SOL    HW1 9218   4.759   1.495   5.960
 2773SOL    HW2 9219   4.659   1.432   6.072
 2774SOL     OW 9220   6.150   6.914   3.821
 2774SOL    HW1 9221   6.135   7.009   3.795
 2774SOL    HW2 9222   6.065   6.874   3.855
 2775SOL     OW 9223   0.364   2.636   4.567
 2775SOL    HW1 9224   0.451   2.676   4.596
 2775SOL    HW2 9225   0.308   2.706   4.523
 2776SOL     OW 9226   4.963   3.921   5.952
 2776SOL    HW1 9227   5.059   3.947   5.945
 2776SOL    HW2 9228   4.956   3.824   5.975
 2777SOL     OW 9229   1.479   1.408   0.823
 2777SOL    HW1 9230   1.502   1.469   0.746
 2777SOL    HW2 9231   1.404   1.448   0.875
 2778SOL     OW 9232   2.411   6.298   5.950
 2778SOL    HW1 9233   2.385   6.275   6.044
 2778SOL    HW2 9234   2.393   6.220   5.891
 2779SOL     OW 9235   5.247   1.309   3.639
 2779SOL    HW1 9236   5.297   1.237   3.688
 2779SOL    HW2 9237   5.149   1.287   3.640
 2780SOL     OW 9238   0.605   0.272   5.076
 2780SOL    HW1 9239   0.605   0.180   5.117
 2780SOL    HW2 9240   0.603   0.340   5.149
 2781SOL     OW 9241   6.773   6.806   2.916
 2781SOL    HW1 9242   6.808   6.835   3.005
 2781SOL    HW2 9243   6.845   6.814   2.847
 2782SOL     OW 9244   5.416   6.761   5.014
 2782SOL    HW1 9245   5.463   6.739   5.100
 2782SOL    HW2 9246   5.483   6.765   4.940
 2783SOL     OW 9247   0.261   2.072   1.722
 2783SOL    HW1 9248   0.268   2.150   1.785
 2783SOL    HW2 9249   0.167   2.065   1.689
 2784SOL     OW 9250   1.127   2.177   2.324
 2784SOL    HW1 9251   1.092   2.085   2.306
 2784SOL    HW2 9252   1.168   2.213   2.240
 2785SOL     OW 9253   5.307   3.273   3.674
 2785SOL    HW1 9254   5.247   3.248   3.751
 2785SOL    HW2 9255   5.275   3.226   3.591
 2786SOL     OW 9256   0.439   5.856   1.096
 2786SOL    HW1 9257   0.508   5.902   1.041
 2786SOL    HW2 9258   0.393   5.786   1.040
 2787SOL     OW 9259   0.060   6.786   6.204
 2787SOL    HW1 9260   0.029   6.776   6.109
 2787SOL    HW2 9261   0.001   6.851   6.251
 2788SOL     OW 9262   2.828   6.786   6.660
 2788SOL    HW1 9263   2.888   6.784   6.580
 2788SOL    HW2 9264   2.813   6.881   6.688
 2789SOL     OW 9265   2.093   2.113   3.837
 2789SOL    HW1 9266   2.186   2.150   3.847
 2789SOL    HW2 9267   2.096   2.013   3.843
 2790SOL     OW 9268   1.015   4.878   1.296
 2790SOL    HW1 9269   1.017   4.784   1.261
 2790SOL    HW2 9270   0.947   4.931   1.244
 2791SOL     OW 9271   0.317   3.768   5.613
 2791SOL    HW1 9272   0.235   3.716   5.588
 2791SOL    HW2 9273   0.329   3.844   5.549
 2792SOL     OW 9274   3.023   2.600   6.960
 2792SOL    HW1 9275   3.092   2.666   6.931
 2792SOL    HW2 9276   2.981   2.630   0.022
 2793SOL     OW 9277   4.305   3.577   6.244
 2793SOL    HW1 9278   4.331   3.577   6.341
 2793SOL    HW2 9279   4.337   3.494   6.200
 2794SOL     OW 9280   1.350   2.138   6.565
 2794SOL    HW1 9281   1.296   2.215   6.599
 2794SOL    HW2 9282   1.387   2.087   6.642
 2795SOL     OW 9283   1.053   0.079   0.207
 2795SOL    HW1 9284   1.012   7.020   0.245
 2795SOL    HW2 9285   1.025   0.158   0.261
 2796SOL     OW 9286   3.181   5.944   7.006
 2796SOL    HW1 9287   3.130   5.991   6.934
 2796SOL    HW2 9288   3.249   5.883   6.965
 2797SOL     OW 9289   4.692   4.305   4.989
 2797SOL    HW1 9290   4.788   4.329   5.004
 2797SOL    HW2 9291   4.687   4.221   4.935
 2798SOL     OW 9292   5.769   2.103   1.721
 2798SOL    HW1 9293   5.772   2.027   1.657
 2798SOL    HW2 9294   5.851   2.102   1.778
 2799SOL     OW 9295   3.210   0.267   4.252
 2799SOL    HW1 9296   3.262   0.335   4.200
 2799SOL    HW2 9297   3.223   0.283   4.350
 2800SOL     OW 9298   4.476   1.196   0.290
 2800SOL    HW1 9299   4.402   1.130   0.304
 2800SOL    HW2 9300   4.482   1.219   0.192
 2801SOL     OW 9301   0.379   4.207   3.292
 2801SOL    HW1 9302   0.293   4.163   3.264
 2801SOL    HW2 9303   0.456   4.149   3.266
 2802SOL     OW 9304   2.083   4.320   4.287
 2802SOL    HW1 9305   2.013   4.343   4.219
 2802SOL    HW2 9306   2.092   4.396   4.352
 2803SOL     OW 9307   2.796   2.976   6.802
 2803SOL    HW1 9308   2.825   2.959   6.707
 2803SOL    HW2 9309   2.754   2.893   6.839
 2804SOL     OW 9310   5.533   2.673   3.531
 2804SOL    HW1 9311   5.570   2.723   3.452
 2804SOL    HW2 9312   5.443   2.636   3.507
 2805SOL     OW 9313   3.717   5.277   0.288
 2805SOL    HW1 9314   3.667   5.216   0.227
 2805SOL    HW2 9315   3.654   5.349   0.321
 2806SOL     OW 9316   1.022   3.340   4.719
 2806SOL    HW1 9317   1.106   3.299   4.755
 2806SOL    HW2 9318   1.036   3.367   4.624
 2807SOL     OW 9319   4.746   1.622   3.990
 2807SOL    HW1 9320   4.695   1.694   4.036
 2807SOL    HW2 9321   4.812   1.581   4.054
 2808SOL     OW 9322   0.953   6.239   6.666
 2808SOL    HW1 9323   0.884   6.172   6.694
 2808SOL    HW2 9324   1.024   6.193   6.612
 2809SOL     OW 9325   0.774   6.364   0.647
 2809SOL    HW1 9326   0.791   6.320   0.559
 2809SOL    HW2 9327   0.861   6.384   0.692
 2810SOL     OW 9328   0.118   6.751   1.958
 2810SOL    HW1 9329   0.178   6.779   2.033
 2810SOL    HW2 9330   0.128   6.653   1.942
 2811SOL     OW 9331   1.129   6.930   0.589
 2811SOL    HW1 9332   1.095   6.879   0.510
 2811SOL    HW2 9333   1.187   7.005   0.557
 2812SOL     OW 9334   2.092   0.700   0.982
 2812SOL    HW1 9335   2.060   0.687   1.075
 2812SOL    HW2 9336   2.187   0.668   0.974
 2813SOL     OW 9337   5.949   1.882   1.799
 2813SOL    HW1 9338   5.964   1.857   1.704
 2813SOL    HW2 9339   5.859   1.924   1.809
 2814SOL     OW 9340   2.060   4.102   6.727
 2814SOL    HW1 9341   2.068   4.190   6.773
 2814SOL    HW2 9342   2.111   4.104   6.641
 2815SOL     OW 9343   6.169   6.500   4.901
 2815SOL    HW1 9344   6.226   6.576   4.872
 2815SOL    HW2 9345   6.098   6.483   4.833
 2816SOL     OW 9346   0.887   5.252   5.288
 2816SOL    HW1 9347   0.878   5.157   5.258
 2816SOL    HW2 9348   0.972   5.291   5.253
 2817SOL     OW 9349   3.036   1.014   1.195
 2817SOL    HW1 9350   2.948   0.969   1.185
 2817SOL    HW2 9351   3.094   0.959   1.256
 2818SOL     OW 9352   2.274   0.519   0.410
 2818SOL    HW1 9353   2.362   0.548   0.373
 2818SOL    HW2 9354   2.288   0.473   0.498
 2819SOL     OW 9355   5.891   0.463   6.661
 2819SOL    HW1 9356   5.844   0.385   6.620
 2819SOL    HW2 9357   5.989   0.444   6.666
 2820SOL     OW 9358   1.548   1.920   0.187
 2820SOL    HW1 9359   1.478   1.972   0.235
 2820SOL    HW2 9360   1.582   1.973   0.110
 2821SOL     OW 9361   3.850   2.511   6.189
 2821SOL    HW1 9362   3.814   2.459   6.111
 2821SOL    HW2 9363   3.793   2.495   6.269
 2822SOL     OW 9364   4.348   3.521   1.307
 2822SOL    HW1 9365   4.271   3.541   1.367
 2822SOL    HW2 9366   4.415   3.596   1.313
 2823SOL     OW 9367   5.415   4.194   3.416
 2823SOL    HW1 9368   5.490   4.152   3.366
 2823SOL    HW2 9369   5.381   4.273   3.367
 2824SOL     OW 9370   0.721   4.207   5.610
 2824SOL    HW1 9371   0.726   4.127   5.670
 2824SOL    HW2 9372   0.723   4.290   5.666
 2825SOL     OW 9373   4.736   2.814   5.443
 2825SOL    HW1 9374   4.795   2.891   5.467
 2825SOL    HW2 9375   4.643   2.832   5.476
 2826SOL     OW 9376   3.124   2.789   6.367
 2826SOL    HW1 9377   3.046   2.783   6.304
 2826SOL    HW2 9378   3.105   2.733   6.448
 2827SOL     OW 9379   0.284   1.959   0.345
 2827SOL    HW1 9380   0.223   1.976   0.268
 2827SOL    HW2 9381   0.278   2.036   0.410
 2828SOL     OW 9382   2.223   3.715   0.162
 2828SOL    HW1 9383   2.223   3.618   0.185
 2828SOL    HW2 9384   2.136   3.740   0.120
 2829SOL     OW 9385   3.555   4.533   1.015
 2829SOL    HW1 9386   3.606   4.551   0.931
 2829SOL    HW2 9387   3.471   4.483   0.992
 2830SOL     OW 9388   2.616   5.439   4.668
 2830SOL    HW1 9389   2.588   5.367   4.732
 2830SOL    HW2 9390   2.592   5.412   4.575
 2831SOL     OW 9391   5.441   1.604   1.832
 2831SOL    HW1 9392   5.511   1.579   1.766
 2831SOL    HW2 9393   5.474   1.679   1.890
 2832SOL     OW 9394   1.453   3.540   1.689
 2832SOL    HW1 9395   1.386   3.492   1.633
 2832SOL    HW2 9396   1.410   3.570   1.774
 2833SOL     OW 9397   6.259   1.961   3.290
 2833SOL    HW1 9398   6.339   1.906   3.312
 2833SOL    HW2 9399   6.185   1.901   3.260
 2834SOL     OW 9400   3.011   0.449   4.293
 2834SOL    HW1 9401   3.088   0.386   4.278
 2834SOL    HW2 9402   2.925   0.398   4.286
 2835SOL     OW 9403   6.287   1.819   0.600
 2835SOL    HW1 9404   6.293   1.770   0.512
 2835SOL    HW2 9405   6.372   1.869   0.615
 2836SOL     OW 9406   3.026   6.392   2.078
 2836SOL    HW1 9407   3.054   6.367   2.171
 2836SOL    HW2 9408   2.926   6.388   2.072
 2837SOL     OW 9409   5.106   4.262   3.533
 2837SOL    HW1 9410   5.200   4.270   3.567
 2837SOL    HW2 9411   5.042   4.274   3.609
 2838SOL     OW 9412   6.841   4.310   5.960
 2838SOL    HW1 9413   6.848   4.231   5.898
 2838SOL    HW2 9414   6.748   4.346   5.958
 2839SOL     OW 9415   5.708   2.728   6.487
 2839SOL    HW1 9416   5.642   2.802   6.475
 2839SOL    HW2 9417   5.695   2.685   6.576
 2840SOL     OW 9418   6.337   5.839   5.249
 2840SOL    HW1 9419   6.245   5.806   5.273
 2840SOL    HW2 9420   6.405   5.793   5.305
 2841SOL     OW 9421   5.706   3.354   3.028
 2841SOL    HW1 9422   5.783   3.386   3.084
 2841SOL    HW2 9423   5.683   3.261   3.055
 2842SOL     OW 9424   0.907   6.279   3.748
 2842SOL    HW1 9425   0.962   6.252   3.670
 2842SOL    HW2 9426   0.940   6.366   3.784
 2843SOL     OW 9427   0.645   2.866   3.795
 2843SOL    HW1 9428   0.693   2.828   3.874
 2843SOL    HW2 9429   0.598   2.950   3.823
 2844SOL     OW 9430   5.554   4.349   0.096
 2844SOL    HW1 9431   5.479   4.339   0.031
 2844SOL    HW2 9432   5.641   4.340   0.049
 2845SOL     OW 9433   3.863   1.828   1.322
 2845SOL    HW1 9434   3.831   1.865   1.235
 2845SOL    HW2 9435   3.855   1.898   1.393
 2846SOL     OW 9436   5.617   0.837   6.097
 2846SOL    HW1 9437   5.562   0.774   6.042
 2846SOL    HW2 9438   5.595   0.931   6.071
 2847SOL     OW 9439   5.798   4.969   3.097
 2847SOL    HW1 9440   5.721   5.030   3.081
 2847SOL    HW2 9441   5.878   5.005   3.048
 2848SOL     OW 9442   6.992   4.125   0.471
 2848SOL    HW1 9443   6.896   4.138   0.499
 2848SOL    HW2 9444   6.996   4.055   0.399
 2849SOL     OW 9445   5.109   1.208   0.524
 2849SOL    HW1 9446   5.152   1.265   0.454
 2849SOL    HW2 9447   5.023   1.170   0.488
 2850SOL     OW 9448   7.022   1.439   0.884
 2850SOL    HW1 9449   0.003   1.420   0.786
 2850SOL    HW2 9450   0.080   1.403   0.929
 2851SOL     OW 9451   3.184   3.073   1.985
 2851SOL    HW1 9452   3.215   2.981   2.011
 2851SOL    HW2 9453   3.113   3.103   2.048
 2852SOL     OW 9454   1.141   4.690   5.366
 2852SOL    HW1 9455   1.164   4.595   5.390
 2852SOL    HW2 9456   1.214   4.728   5.310
 2853SOL     OW 9457   6.666   5.357   5.793
 2853SOL    HW1 9458   6.575   5.326   5.764
 2853SOL    HW2 9459   6.699   5.426   5.728
 2854SOL     OW 9460   3.221   0.816   6.701
 2854SOL    HW1 9461   3.191   0.876   6.627
 2854SOL    HW2 9462   3.274   0.740   6.663
 2855SOL     OW 9463   2.590   2.501   4.199
 2855SOL    HW1 9464   2.590   2.543   4.108
 2855SOL    HW2 9465   2.518   2.433   4.205
 2856SOL     OW 9466   1.431   5.348   4.843
 2856SOL    HW1 9467   1.517   5.385   4.877
 2856SOL    HW2 9468   1.356   5.408   4.870
 2857SOL     OW 9469   0.930   4.247   0.229
 2857SOL    HW1 9470   0.845   4.220   0.184
 2857SOL    HW2 9471   0.912   4.325   0.290
 2858SOL     OW 9472   5.510   4.130   4.318
 2858SOL    HW1 9473   5.496   4.180   4.404
 2858SOL    HW2 9474   5.607   4.132   4.294
 2859SOL     OW 9475   0.526   5.328   1.935
 2859SOL    HW1 9476   0.433   5.365   1.938
 2859SOL    HW2 9477   0.586   5.384   1.992
 2860SOL     OW 9478   1.344   6.337   2.814
 2860SOL    HW1 9479   1.420   6.401   2.828
 2860SOL    HW2 9480   1.377   6.256   2.764
 2861SOL     OW 9481   6.045   3.138   5.405
 2861SOL    HW1 9482   6.129   3.180   5.371
 2861SOL    HW2 9483   5.992   3.205   5.456
 2862SOL     OW 9484   4.132   1.275   0.763
 2862SOL    HW1 9485   4.102   1.236   0.850
 2862SOL    HW2 9486   4.174   1.204   0.707
 2863SOL     OW 9487   5.507   1.542   6.388
 2863SOL    HW1 9488   5.561   1.567   6.469
 2863SOL    HW2 9489   5.410   1.559   6.406
 2864SOL     OW 9490   4.638   4.885   0.550
 2864SOL    HW1 9491   4.648   4.984   0.550
 2864SOL    HW2 9492   4.686   4.847   0.470
 2865SOL     OW 9493   5.679   4.476   6.459
 2865SOL    HW1 9494   5.654   4.425   6.377
 2865SOL    HW2 9495   5.632   4.437   6.538
 2866SOL     OW 9496   4.969   6.030   0.772
 2866SOL    HW1 9497   4.922   6.014   0.685
 2866SOL    HW2 9498   4.902   6.036   0.846
 2867SOL     OW 9499   0.310   6.326   3.458
 2867SOL    HW1 9500   0.226   6.291   3.498
 2867SOL    HW2 9501   0.370   6.250   3.433
 2868SOL     OW 9502   6.391   6.982   5.036
 2868SOL    HW1 9503   6.439   0.026   5.092
 2868SOL    HW2 9504   6.293   7.003   5.035
 2869SOL     OW 9505   6.121   4.753   5.120
 2869SOL    HW1 9506   6.122   4.853   5.108
 2869SOL    HW2 9507   6.072   4.711   5.044
 2870SOL     OW 9508   0.648   1.220   1.219
 2870SOL    HW1 9509   0.603   1.203   1.131
 2870SOL    HW2 9510   0.637   1.316   1.244
 2871SOL     OW 9511   4.593   1.631   3.512
 2871SOL    HW1 9512   4.683   1.639   3.471
 2871SOL    HW2 9513   4.602   1.621   3.611
 2872SOL     OW 9514   3.382   1.450   2.528
 2872SOL    HW1 9515   3.303   1.429   2.585
 2872SOL    HW2 9516   3.432   1.527   2.568
 2873SOL     OW 9517   0.299   0.256   2.309
 2873SOL    HW1 9518   0.366   0.193   2.270
 2873SOL    HW2 9519   0.208   0.232   2.276
 2874SOL     OW 9520   1.648   0.800   2.024
 2874SOL    HW1 9521   1.621   0.770   2.115
 2874SOL    HW2 9522   1.732   0.754   1.997
 2875SOL     OW 9523   3.099   0.839   2.190
 2875SOL    HW1 9524   3.123   0.798   2.102
 2875SOL    HW2 9525   3.049   0.773   2.246
 2876SOL     OW 9526   1.105   0.121   1.029
 2876SOL    HW1 9527   1.110   0.041   0.968
 2876SOL    HW2 9528   1.040   0.187   0.991
 2877SOL     OW 9529   1.021   3.683   6.659
 2877SOL    HW1 9530   1.079   3.615   6.615
 2877SOL    HW2 9531   0.966   3.640   6.730
 2878SOL     OW 9532   4.132   3.614   4.524
 2878SOL    HW1 9533   4.163   3.564   4.444
 2878SOL    HW2 9534   4.035   3.597   4.539
 2879SOL     OW 9535   6.185   6.475   0.270
 2879SOL    HW1 9536   6.227   6.388   0.297
 2879SOL    HW2 9537   6.194   6.486   0.171
 2880SOL     OW 9538   1.455   1.187   2.444
 2880SOL    HW1 9539   1.404   1.102   2.430
 2880SOL    HW2 9540   1.552   1.171   2.424
 2881SOL     OW 9541   5.243   5.712   6.816
 2881SOL    HW1 9542   5.166   5.775   6.807
 2881SOL    HW2 9543   5.229   5.634   6.755
 2882SOL     OW 9544   4.515   6.207   0.652
 2882SOL    HW1 9545   4.571   6.169   0.726
 2882SOL    HW2 9546   4.573   6.256   0.588
 2883SOL     OW 9547   5.184   6.123   3.075
 2883SOL    HW1 9548   5.159   6.102   3.169
 2883SOL    HW2 9549   5.171   6.042   3.018
 2884SOL     OW 9550   6.255   5.278   3.628
 2884SOL    HW1 9551   6.236   5.242   3.719
 2884SOL    HW2 9552   6.344   5.325   3.628
 2885SOL     OW 9553   0.677   4.016   3.454
 2885SOL    HW1 9554   0.766   4.026   3.410
 2885SOL    HW2 9555   0.621   3.953   3.401
 2886SOL     OW 9556   2.100   4.404   5.199
 2886SOL    HW1 9557   2.165   4.372   5.130
 2886SOL    HW2 9558   2.131   4.375   5.290
 2887SOL     OW 9559   0.530   4.770   2.646
 2887SOL    HW1 9560   0.555   4.865   2.661
 2887SOL    HW2 9561   0.453   4.765   2.581
 2888SOL     OW 9562   4.702   5.961   6.694
 2888SOL    HW1 9563   4.712   5.966   6.595
 2888SOL    HW2 9564   4.665   6.047   6.728
 2889SOL     OW 9565   4.163   5.139   3.720
 2889SOL    HW1 9566   4.095   5.176   3.657
 2889SOL    HW2 9567   4.234   5.091   3.668
 2890SOL     OW 9568   1.279   1.459   1.099
 2890SOL    HW1 9569   1.248   1.514   1.021
 2890SOL    HW2 9570   1.199   1.418   1.144
 2891SOL     OW 9571   1.356   1.843   4.977
 2891SOL    HW1 9572   1.420   1.844   5.054
 2891SOL    HW2 9573   1.333   1.748   4.954
 2892SOL     OW 9574   5.730   4.041   2.433
 2892SOL    HW1 9575   5.670   3.967   2.401
 2892SOL    HW2 9576   5.825   4.021   2.407
 2893SOL     OW 9577   6.551   6.225   5.179
 2893SOL    HW1 9578   6.482   6.272   5.124
 2893SOL    HW2 9579   6.642   6.250   5.148
 2894SOL     OW 9580   1.696   5.456   1.254
 2894SOL    HW1 9581   1.753   5.400   1.313
 2894SOL    HW2 9582   1.738   5.463   1.164
 2895SOL     OW 9583   4.804   6.546   6.333
 2895SOL    HW1 9584   4.738   6.476   6.361
 2895SOL    HW2 9585   4.763   6.607   6.265
 2896SOL     OW 9586   6.828   0.239   6.557
 2896SOL    HW1 9587   6.895   0.263   6.488
 2896SOL    HW2 9588   6.874   0.210   6.641
 2897SOL     OW 9589   2.549   6.407   3.889
 2897SOL    HW1 9590   2.630   6.369   3.844
 2897SOL    HW2 9591   2.523   6.348   3.965
 2898SOL     OW 9592   5.425   2.580   2.645
 2898SOL    HW1 9593   5.406   2.607   2.551
 2898SOL    HW2 9594   5.517   2.609   2.671
 2899SOL     OW 9595   6.110   2.801   1.302
 2899SOL    HW1 9596   6.184   2.748   1.345
 2899SOL    HW2 9597   6.132   2.898   1.306
 2900SOL     OW 9598   2.864   3.135   5.210
 2900SOL    HW1 9599   2.891   3.175   5.122
 2900SOL    HW2 9600   2.770   3.102   5.204
 2901SOL     OW 9601   1.352   2.824   1.424
 2901SOL    HW1 9602   1.445   2.797   1.449
 2901SOL    HW2 9603   1.315   2.759   1.358
 2902SOL     OW 9604   5.261   6.169   3.417
 2902SOL    HW1 9605   5.321   6.156   3.338
 2902SOL    HW2 9606   5.260   6.086   3.473
 2903SOL     OW 9607   0.920   5.458   1.847
 2903SOL    HW1 9608   0.906   5.367   1.885
 2903SOL    HW2 9609   0.989   5.454   1.774
 2904SOL     OW 9610   3.421   4.966   3.962
 2904SOL    HW1 9611   3.354   4.958   4.036
 2904SOL    HW2 9612   3.385   4.920   3.881
 2905SOL     OW 9613   1.996   4.293   1.233
 2905SOL    HW1 9614   2.073   4.248   1.188
 2905SOL    HW2 9615   1.922   4.228   1.247
 2906SOL     OW 9616   6.312   6.551   6.593
 2906SOL    HW1 9617   6.254   6.548   6.674
 2906SOL    HW2 9618   6.327   6.458   6.559
 2907SOL     OW 9619   0.002   1.316   5.989
 2907SOL    HW1 9620   6.978   1.336   5.903
 2907SOL    HW2 9621   0.068   1.389   6.008
 2908SOL     OW 9622   3.846   5.936   3.693
 2908SOL    HW1 9623   3.941   5.923   3.665
 2908SOL    HW2 9624   3.839   6.020   3.747
 2909SOL     OW 9625   0.115   6.412   0.820
 2909SOL    HW1 9626   0.169   6.422   0.736
 2909SOL    HW2 9627   0.075   6.320   0.823
 2910SOL     OW 9628   1.209   0.158   4.339
 2910SOL    HW1 9629   1.200   0.119   4.247
 2910SOL    HW2 9630   1.219   0.084   4.405
 2911SOL     OW 9631   6.806   3.391   3.542
 2911SOL    HW1 9632   6.819   3.303   3.496
 2911SOL    HW2 9633   6.878   3.404   3.610
 2912SOL     OW 9634   6.960   1.599   3.000
 2912SOL    HW1 9635   6.867   1.594   3.034
 2912SOL    HW2 9636   6.982   1.515   2.949
 2913SOL     OW 9637   1.116   6.622   4.071
 2913SOL    HW1 9638   1.027   6.662   4.095
 2913SOL    HW2 9639   1.176   6.625   4.151
 2914SOL     OW 9640   3.852   4.668   0.969
 2914SOL    HW1 9641   3.818   4.635   0.881
 2914SOL    HW2 9642   3.878   4.590   1.026
 2915SOL     OW 9643   2.185   6.864   3.548
 2915SOL    HW1 9644   2.199   6.778   3.597
 2915SOL    HW2 9645   2.219   6.940   3.605
 2916SOL     OW 9646   0.431   5.864   6.563
 2916SOL    HW1 9647   0.398   5.777   6.527
 2916SOL    HW2 9648   0.388   5.940   6.513
 2917SOL     OW 9649   1.904   1.985   3.581
 2917SOL    HW1 9650   1.889   1.992   3.482
 2917SOL    HW2 9651   1.817   1.977   3.628
 2918SOL     OW 9652   4.774   1.031   1.201
 2918SOL    HW1 9653   4.697   1.016   1.263
 2918SOL    HW2 9654   4.770   1.124   1.165
 2919SOL     OW 9655   1.079   4.978   4.860
 2919SOL    HW1 9656   1.039   5.064   4.830
 2919SOL    HW2 9657   1.091   4.980   4.959
 2920SOL     OW 9658   3.093   2.604   1.712
 2920SOL    HW1 9659   3.084   2.699   1.744
 2920SOL    HW2 9660   3.068   2.541   1.785
 2921SOL     OW 9661   0.116   5.157   3.194
 2921SOL    HW1 9662   0.135   5.102   3.112
 2921SOL    HW2 9663   0.196   5.156   3.254
 2922SOL     OW 9664   3.839   5.225   4.008
 2922SOL    HW1 9665   3.827   5.133   3.971
 2922SOL    HW2 9666   3.785   5.290   3.954
 2923SOL     OW 9667   1.283   3.967   3.407
 2923SOL    HW1 9668   1.205   3.930   3.458
 2923SOL    HW2 9669   1.324   3.894   3.353
 2924SOL     OW 9670   4.769   1.293   6.895
 2924SOL    HW1 9671   4.834   1.249   6.833
 2924SOL    HW2 9672   4.819   1.340   6.967
 2925SOL     OW 9673   5.427   6.799   4.610
 2925SOL    HW1 9674   5.506   6.792   4.670
 2925SOL    HW2 9675   5.457   6.804   4.515
 2926SOL     OW 9676   0.132   2.585   5.181
 2926SOL    HW1 9677   0.217   2.533   5.189
 2926SOL    HW2 9678   0.103   2.585   5.085
 2927SOL     OW 9679   1.043   1.822   2.802
 2927SOL    HW1 9680   1.050   1.873   2.716
 2927SOL    HW2 9681   0.972   1.753   2.794
 2928SOL     OW 9682   5.175   4.622   0.343
 2928SOL    HW1 9683   5.238   4.573   0.283
 2928SOL    HW2 9684   5.205   4.717   0.352
 2929SOL     OW 9685   1.797   1.457   2.833
 2929SOL    HW1 9686   1.835   1.516   2.762
 2929SOL    HW2 9687   1.863   1.386   2.857
 2930SOL     OW 9688   0.655   3.031   4.215
 2930SOL    HW1 9689   0.691   2.957   4.158
 2930SOL    HW2 9690   0.667   3.007   4.312
 2931SOL     OW 9691   5.564   4.095   5.527
 2931SOL    HW1 9692   5.608   4.033   5.463
 2931SOL    HW2 9693   5.472   4.061   5.548
 2932SOL     OW 9694   6.818   0.059   0.600
 2932SOL    HW1 9695   6.807   0.020   0.509
 2932SOL    HW2 9696   6.817   0.159   0.594
 2933SOL     OW 9697   0.456   0.531   6.650
 2933SOL    HW1 9698   0.550   0.550   6.677
 2933SOL    HW2 9699   0.393   0.560   6.722
 2934SOL     OW 9700   5.616   5.101   2.888
 2934SOL    HW1 9701   5.674   5.142   2.819
 2934SOL    HW2 9702   5.555   5.171   2.927
 2935SOL     OW 9703   0.579   4.328   6.061
 2935SOL    HW1 9704   0.607   4.338   6.157
 2935SOL    HW2 9705   0.570   4.231   6.039
 2936SOL     OW 9706   4.467   6.239   2.557
 2936SOL    HW1 9707   4.479   6.244   2.656
 2936SOL    HW2 9708   4.375   6.205   2.536
 2937SOL     OW 9709   6.396   3.269   3.309
 2937SOL    HW1 9710   6.338   3.258   3.228
 2937SOL    HW2 9711   6.479   3.319   3.283
 2938SOL     OW 9712   0.120   5.096   1.591
 2938SOL    HW1 9713   0.075   5.088   1.502
 2938SOL    HW2 9714   0.163   5.186   1.599
 2939SOL     OW 9715   6.275   5.935   2.004
 2939SOL    HW1 9716   6.368   5.945   2.038
 2939SOL    HW2 9717   6.223   5.877   2.067
 2940SOL     OW 9718   4.674   5.742   3.168
 2940SOL    HW1 9719   4.592   5.737   3.110
 2940SOL    HW2 9720   4.753   5.764   3.111
 2941SOL     OW 9721   2.861   4.969   1.723
 2941SOL    HW1 9722   2.928   4.915   1.774
 2941SOL    HW2 9723   2.774   4.971   1.773
 2942SOL     OW 9724   2.727   1.609   0.478
 2942SOL    HW1 9725   2.707   1.588   0.383
 2942SOL    HW2 9726   2.647   1.587   0.534
 2943SOL     OW 9727   0.287   4.395   3.714
 2943SOL    HW1 9728   0.193   4.379   3.745
 2943SOL    HW2 9729   0.324   4.476   3.760
 2944SOL     OW 9730   0.585   5.079   3.784
 2944SOL    HW1 9731   0.646   5.117   3.714
 2944SOL    HW2 9732   0.591   4.979   3.782
 2945SOL     OW 9733   5.539   3.526   0.558
 2945SOL    HW1 9734   5.546   3.568   0.467
 2945SOL    HW2 9735   5.446   3.540   0.593
 2946SOL     OW 9736   3.441   3.783   4.595
 2946SOL    HW1 9737   3.397   3.755   4.681
 2946SOL    HW2 9738   3.541   3.778   4.606
 2947SOL     OW 9739   6.588   6.836   0.633
 2947SOL    HW1 9740   6.615   6.904   0.701
 2947SOL    HW2 9741   6.648   6.756   0.641
 2948SOL     OW 9742   6.240   4.532   0.763
 2948SOL    HW1 9743   6.269   4.450   0.812
 2948SOL    HW2 9744   6.317   4.595   0.755
 2949SOL     OW 9745   1.655   6.097   0.796
 2949SOL    HW1 9746   1.576   6.039   0.817
 2949SOL    HW2 9747   1.626   6.170   0.734
 2950SOL     OW 9748   5.064   4.932   2.272
 2950SOL    HW1 9749   5.164   4.925   2.273
 2950SOL    HW2 9750   5.029   4.895   2.186
 2951SOL     OW 9751   0.569   2.629   0.871
 2951SOL    HW1 9752   0.556   2.570   0.951
 2951SOL    HW2 9753   0.664   2.661   0.869
 2952SOL     OW 9754   1.180   1.144   4.653
 2952SOL    HW1 9755   1.188   1.045   4.640
 2952SOL    HW2 9756   1.188   1.190   4.565
 2953SOL     OW 9757   0.921   5.503   3.232
 2953SOL    HW1 9758   0.907   5.596   3.265
 2953SOL    HW2 9759   0.856   5.483   3.159
 2954SOL     OW 9760   0.565   4.641   5.659
 2954SOL    HW1 9761   0.484   4.678   5.706
 2954SOL    HW2 9762   0.562   4.667   5.563
 2955SOL     OW 9763   1.212   5.074   5.919
 2955SOL    HW1 9764   1.183   5.168   5.932
 2955SOL    HW2 9765   1.310   5.072   5.896
 2956SOL     OW 9766   6.424   3.433   5.101
 2956SOL    HW1 9767   6.408   3.484   5.016
 2956SOL    HW2 9768   6.522   3.433   5.121
 2957SOL     OW 9769   1.593   4.923   1.884
 2957SOL    HW1 9770   1.663   4.943   1.953
 2957SOL    HW2 9771   1.637   4.891   1.800
 2958SOL     OW 9772   2.085   3.254   1.158
 2958SOL    HW1 9773   1.988   3.246   1.182
 2958SOL    HW2 9774   2.141   3.209   1.228
 2959SOL     OW 9775   0.684   4.173   3.982
 2959SOL    HW1 9776   0.737   4.257   3.996
 2959SOL    HW2 9777   0.610   4.190   3.917
 2960SOL     OW 9778   5.357   6.357   0.671
 2960SOL    HW1 9779   5.264   6.330   0.696
 2960SOL    HW2 9780   5.422   6.287   0.702
 2961SOL     OW 9781   5.943   1.927   0.838
 2961SOL    HW1 9782   5.857   1.879   0.851
 2961SOL    HW2 9783   5.961   1.937   0.740
 2962SOL     OW 9784   6.495   0.589   4.104
 2962SOL    HW1 9785   6.563   0.660   4.117
 2962SOL    HW2 9786   6.489   0.566   4.006
 2963SOL     OW 9787   1.825   1.446   6.056
 2963SOL    HW1 9788   1.899   1.433   5.990
 2963SOL    HW2 9789   1.779   1.358   6.072
 2964SOL     OW 9790   0.735   0.964   5.701
 2964SOL    HW1 9791   0.726   1.058   5.667
 2964SOL    HW2 9792   0.820   0.924   5.668
 2965SOL     OW 9793   5.899   0.547   6.272
 2965SOL    HW1 9794   5.969   0.553   6.343
 2965SOL    HW2 9795   5.933   0.489   6.197
 2966SOL     OW 9796   3.673   0.004   2.879
 2966SOL    HW1 9797   3.767   7.023   2.912
 2966SOL    HW2 9798   3.610   7.013   2.956
 2967SOL     OW 9799   5.598   0.114   5.157
 2967SOL    HW1 9800   5.624   0.030   5.109
 2967SOL    HW2 9801   5.499   0.120   5.164
 2968SOL     OW 9802   1.935   4.010   1.814
 2968SOL    HW1 9803   1.947   4.109   1.802
 2968SOL    HW2 9804   1.913   3.968   1.725
 2969SOL     OW 9805   4.114   1.953   5.117
 2969SOL    HW1 9806   4.191   1.937   5.055
 2969SOL    HW2 9807   4.090   2.050   5.115
 2970SOL     OW 9808   2.968   2.358   6.367
 2970SOL    HW1 9809   2.982   2.342   6.270
 2970SOL    HW2 9810   2.930   2.450   6.381
 2971SOL     OW 9811   3.815   3.573   5.635
 2971SOL    HW1 9812   3.760   3.543   5.713
 2971SOL    HW2 9813   3.798   3.512   5.557
 2972SOL     OW 9814   0.503   5.951   6.803
 2972SOL    HW1 9815   0.487   5.931   6.706
 2972SOL    HW2 9816   0.477   5.871   6.858
 2973SOL     OW 9817   4.872   0.352   4.304
 2973SOL    HW1 9818   4.845   0.395   4.390
 2973SOL    HW2 9819   4.908   0.261   4.322
 2974SOL     OW 9820   5.183   5.107   2.645
 2974SOL    HW1 9821   5.083   5.108   2.641
 2974SOL    HW2 9822   5.217   5.020   2.611
 2975SOL     OW 9823   0.464   3.318   4.807
 2975SOL    HW1 9824   0.384   3.324   4.866
 2975SOL    HW2 9825   0.497   3.411   4.787
 2976SOL     OW 9826   4.342   0.281   1.259
 2976SOL    HW1 9827   4.386   0.344   1.323
 2976SOL    HW2 9828   4.373   0.188   1.279
 2977SOL     OW 9829   1.330   1.368   2.244
 2977SOL    HW1 9830   1.236   1.334   2.249
 2977SOL    HW2 9831   1.391   1.305   2.293
 2978SOL     OW 9832   3.259   5.972   0.439
 2978SOL    HW1 9833   3.290   5.896   0.381
 2978SOL    HW2 9834   3.338   6.027   0.467
 2979SOL     OW 9835   1.871   1.230   5.357
 2979SOL    HW1 9836   1.921   1.175   5.290
 2979SOL    HW2 9837   1.776   1.241   5.327
 2980SOL     OW 9838   3.438   2.991   2.766
 2980SOL    HW1 9839   3.464   3.074   2.816
 2980SOL    HW2 9840   3.387   2.930   2.828
 2981SOL     OW 9841   2.763   1.693   1.608
 2981SOL    HW1 9842   2.777   1.614   1.548
 2981SOL    HW2 9843   2.752   1.775   1.552
 2982SOL     OW 9844   0.682   0.312   2.500
 2982SOL    HW1 9845   0.773   0.334   2.465
 2982SOL    HW2 9846   0.685   0.303   2.599
 2983SOL     OW 9847   6.464   2.609   6.056
 2983SOL    HW1 9848   6.390   2.601   6.124
 2983SOL    HW2 9849   6.470   2.524   6.004
 2984SOL     OW 9850   0.642   5.996   0.919
 2984SOL    HW1 9851   0.629   6.082   0.870
 2984SOL    HW2 9852   0.729   5.998   0.968
 2985SOL     OW 9853   6.924   6.976   5.534
 2985SOL    HW1 9854   6.951   0.009   5.456
 2985SOL    HW2 9855   6.844   7.017   5.579
 2986SOL     OW 9856   3.899   3.856   2.803
 2986SOL    HW1 9857   3.915   3.840   2.900
 2986SOL    HW2 9858   3.810   3.901   2.791
 2987SOL     OW 9859   2.663   6.368   5.818
 2987SOL    HW1 9860   2.583   6.334   5.868
 2987SOL    HW2 9861   2.743   6.313   5.842
 2988SOL     OW 9862   0.882   2.319   6.578
 2988SOL    HW1 9863   0.877   2.411   6.618
 2988SOL    HW2 9864   0.849   2.321   6.484
 2989SOL     OW 9865   5.840   3.423   6.033
 2989SOL    HW1 9866   5.798   3.470   6.110
 2989SOL    HW2 9867   5.931   3.390   6.059
 2990SOL     OW 9868   4.804   2.281   4.936
 2990SOL    HW1 9869   4.876   2.217   4.964
 2990SOL    HW2 9870   4.835   2.375   4.950
 2991SOL     OW 9871   6.253   2.761   0.184
 2991SOL    HW1 9872   6.323   2.771   0.114
 2991SOL    HW2 9873   6.252   2.842   0.243
 2992SOL     OW 9874   2.300   4.594   4.783
 2992SOL    HW1 9875   2.278   4.601   4.686
 2992SOL    HW2 9876   2.247   4.520   4.824
 2993SOL     OW 9877   3.866   5.254   6.727
 2993SOL    HW1 9878   3.871   5.324   6.656
 2993SOL    HW2 9879   3.816   5.291   6.806
 2994SOL     OW 9880   2.678   5.136   4.831
 2994SOL    HW1 9881   2.767   5.134   4.877
 2994SOL    HW2 9882   2.692   5.141   4.732
 2995SOL     OW 9883   5.477   0.452   2.083
 2995SOL    HW1 9884   5.487   0.523   2.013
 2995SOL    HW2 9885   5.558   0.393   2.082
 2996SOL     OW 9886   0.043   0.478   3.983
 2996SOL    HW1 9887   0.020   0.479   3.885
 2996SOL    HW2 9888   6.993   0.434   4.033
 2997SOL     OW 9889   4.899   6.115   3.774
 2997SOL    HW1 9890   4.937   6.203   3.746
 2997SOL    HW2 9891   4.887   6.056   3.694
 2998SOL     OW 9892   2.992   0.388   1.835
 2998SOL    HW1 9893   3.049   0.464   1.867
 2998SOL    HW2 9894   2.912   0.425   1.786
 2999SOL     OW 9895   2.638   5.247   0.535
 2999SOL    HW1 9896   2.612   5.232   0.439
 2999SOL    HW2 9897   2.618   5.165   0.588
 3000SOL     OW 9898   1.693   4.117   6.614
 3000SOL    HW1 9899   1.778   4.068   6.633
 3000SOL    HW2 9900   1.698   4.157   6.522
 3001SOL     OW 9901   3.082   0.648   5.930
 3001SOL    HW1 9902   3.126   0.699   6.003
 3001SOL    HW2 9903   3.008   0.592   5.967
 3002SOL     OW 9904   1.600   2.250   1.284
 3002SOL    HW1 9905   1.549   2.175   1.242
 3002SOL    HW2 9906   1.681   2.214   1.329
 3003SOL     OW 9907   1.277   5.876   6.825
 3003SOL    HW1 9908   1.246   5.866   6.920
 3003SOL    HW2 9909   1.218   5.822   6.765
 3004SOL     OW 9910   2.965   1.090   4.753
 3004SOL    HW1 9911   2.971   1.120   4.848
 3004SOL    HW2 9912   2.896   1.019   4.745
 3005SOL     OW 9913   2.611   1.531   6.995
 3005SOL    HW1 9914   2.560   1.545   6.910
 3005SOL    HW2 9915   2.708   1.544   6.979
 3006SOL     OW 9916   5.744   0.998   5.783
 3006SOL    HW1 9917   5.832   1.044   5.772
 3006SOL    HW2 9918   5.760   0.901   5.802
 3007SOL     OW 9919   6.229   5.718   6.167
 3007SOL    HW1 9920   6.224   5.783   6.243
 3007SOL    HW2 9921   6.179   5.635   6.190
 3008SOL     OW 9922   5.383   3.643   5.431
 3008SOL    HW1 9923   5.335   3.561   5.399
 3008SOL    HW2 9924   5.398   3.637   5.529
 3009SOL     OW 9925   5.508   3.957   1.444
 3009SOL    HW1 9926   5.534   4.017   1.520
 3009SOL    HW2 9927   5.420   3.914   1.465
 3010SOL     OW 9928   4.461   4.272   1.392
 3010SOL    HW1 9929   4.408   4.284   1.476
 3010SOL    HW2 9930   4.559   4.267   1.415
 3011SOL     OW 9931   5.500   0.611   0.973
 3011SOL    HW1 9932   5.487   0.534   0.911
 3011SOL    HW2 9933   5.434   0.683   0.952
 3012SOL     OW 9934   2.044   2.376   4.598
 3012SOL    HW1 9935   2.128   2.431   4.592
 3012SOL    HW2 9936   2.051   2.297   4.537
 3013SOL     OW 9937   0.598   5.351   5.716
 3013SOL    HW1 9938   0.609   5.261   5.674
 3013SOL    HW2 9939   0.509   5.389   5.690
 3014SOL     OW 9940   3.629   0.068   0.870
 3014SOL    HW1 9941   3.722   0.087   0.902
 3014SOL    HW2 9942   3.627   7.002   0.825
 3015SOL     OW 9943   2.210   6.793   6.089
 3015SOL    HW1 9944   2.111   6.794   6.078
 3015SOL    HW2 9945   2.243   6.699   6.092
 3016SOL     OW 9946   3.159   1.501   4.525
 3016SOL    HW1 9947   3.128   1.596   4.533
 3016SOL    HW2 9948   3.080   1.441   4.517
 3017SOL     OW 9949   1.735   6.184   6.916
 3017SOL    HW1 9950   1.732   6.088   6.888
 3017SOL    HW2 9951   1.743   6.242   6.835
 3018SOL     OW 9952   1.973   2.830   1.927
 3018SOL    HW1 9953   2.055   2.886   1.921
 3018SOL    HW2 9954   1.911   2.869   1.995
 3019SOL     OW 9955   0.788   1.275   5.146
 3019SOL    HW1 9956   0.832   1.208   5.206
 3019SOL    HW2 9957   0.857   1.336   5.108
 3020SOL     OW 9958   5.516   4.160   6.637
 3020SOL    HW1 9959   5.585   4.132   6.571
 3020SOL    HW2 9960   5.555   4.230   6.698
 3021SOL     OW 9961   4.260   6.921   4.368
 3021SOL    HW1 9962   4.281   6.945   4.463
 3021SOL    HW2 9963   4.173   6.872   4.365
 3022SOL     OW 9964   3.935   6.636   2.181
 3022SOL    HW1 9965   3.868   6.670   2.115
 3022SOL    HW2 9966   3.941   6.699   2.258
 3023SOL     OW 9967   5.380   4.650   5.082
 3023SOL    HW1 9968   5.398   4.602   4.996
 3023SOL    HW2 9969   5.390   4.586   5.158
 3024SOL     OW 9970   6.205   1.559   6.245
 3024SOL    HW1 9971   6.193   1.659   6.244
 3024SOL    HW2 9972   6.170   1.523   6.332
 3025SOL     OW 9973   3.828   5.373   0.895
 3025SOL    HW1 9974   3.893   5.450   0.897
 3025SOL    HW2 9975   3.876   5.290   0.869
 3026SOL     OW 9976   6.755   6.310   2.621
 3026SOL    HW1 9977   6.809   6.265   2.550
 3026SOL    HW2 9978   6.814   6.373   2.672
 3027SOL     OW 9979   3.877   0.099   0.971
 3027SOL    HW1 9980   3.947   0.060   0.911
 3027SOL    HW2 9981   3.920   0.160   1.037
 3028SOL     OW 9982   3.687   3.426   3.710
 3028SOL    HW1 9983   3.696   3.452   3.806
 3028SOL    HW2 9984   3.594   3.445   3.679
 3029SOL     OW 9985   0.147   2.252   5.192
 3029SOL    HW1 9986   0.087   2.325   5.225
 3029SOL    HW2 9987   0.225   2.293   5.144
 3030SOL     OW 9988   0.274   4.049   6.098
 3030SOL    HW1 9989   0.270   4.063   6.197
 3030SOL    HW2 9990   0.248   3.955   6.077
 3031SOL     OW 9991   0.250   4.415   0.030
 3031SOL    HW1 9992   0.194   4.333   0.041
 3031SOL    HW2 9993   0.260   4.436   6.956
 3032SOL     OW 9994   3.961   0.383   3.521
 3032SOL    HW1 9995   4.015   0.341   3.594
 3032SOL    HW2 9996   3.988   0.344   3.433
 3033SOL     OW 9997   2.188   0.288   6.561
 3033SOL    HW1 9998   2.147   0.376   6.585
 3033SOL    HW2 9999   2.272   0.275   6.613
 3034SOL     OW10000   4.930   3.380   3.338
 3034SOL    HW110001   4.867   3.456   3.332
 3034SOL    HW210002   5.024   3.414   3.333
 3035SOL     OW10003   5.976   4.083   6.645
 3035SOL    HW110004   5.997   4.096   6.742
 3035SOL    HW210005   6.023   4.153   6.591
 3036SOL     OW10006   2.666   2.744   6.871
 3036SOL    HW110007   2.715   2.660   6.893
 3036SOL    HW210008   2.612   2.773   6.950
 3037SOL     OW10009   0.370   5.417   6.335
 3037SOL    HW110010   0.467   5.400   6.317
 3037SOL    HW210011   0.360   5.455   6.427
 3038SOL     OW10012   5.828   5.137   5.204
 3038SOL    HW110013   5.802   5.201   5.132
 3038SOL    HW210014   5.915   5.164   5.243
 3039SOL     OW10015   6.428   3.445   6.530
 3039SOL    HW110016   6.415   3.511   6.603
 3039SOL    HW210017   6.352   3.450   6.465
 3040SOL     OW10018   3.423   6.948   6.485
 3040SOL    HW110019   3.522   6.961   6.481
 3040SOL    HW210020   3.397   6.916   6.576
 3041SOL     OW10021   2.506   5.824   6.534
 3041SOL    HW110022   2.604   5.813   6.518
 3041SOL    HW210023   2.455   5.804   6.450
 3042SOL     OW10024   7.001   5.719   4.558
 3042SOL    HW110025   6.913   5.690   4.597
 3042SOL    HW210026   7.020   5.666   4.476
 3043SOL     OW10027   2.208   3.555   1.146
 3043SOL    HW110028   2.297   3.512   1.130
 3043SOL    HW210029   2.145   3.486   1.181
 3044SOL     OW10030   3.887   4.010   3.912
 3044SOL    HW110031   3.919   4.028   4.005
 3044SOL    HW210032   3.908   3.916   3.887
 3045SOL     OW10033   5.465   6.988   3.188
 3045SOL    HW110034   5.436   6.936   3.268
 3045SOL    HW210035   5.519   0.043   3.217
 3046SOL     OW10036   6.560   5.686   1.742
 3046SOL    HW110037   6.509   5.603   1.767
 3046SOL    HW210038   6.503   5.766   1.758
 3047SOL     OW10039   4.539   1.905   3.717
 3047SOL    HW110040   4.533   1.812   3.754
 3047SOL    HW210041   4.487   1.967   3.776
 3048SOL     OW10042   4.572   5.217   0.525
 3048SOL    HW110043   4.632   5.201   0.603
 3048SOL    HW210044   4.476   5.208   0.554
 3049SOL     OW10045   0.341   0.770   1.303
 3049SOL    HW110046   0.378   0.686   1.343
 3049SOL    HW210047   0.276   0.812   1.367
 3050SOL     OW10048   3.843   2.929   5.482
 3050SOL    HW110049   3.938   2.939   5.512
 3050SOL    HW210050   3.842   2.900   5.386
 3051SOL     OW10051   2.284   4.463   6.098
 3051SOL    HW110052   2.312   4.367   6.095
 3051SOL    HW210053   2.285   4.501   6.006
 3052SOL     OW10054   6.000   6.652   4.178
 3052SOL    HW110055   5.916   6.608   4.147
 3052SOL    HW210056   6.077   6.590   4.164
 3053SOL     OW10057   0.471   5.351   5.979
 3053SOL    HW110058   0.386   5.300   5.964
 3053SOL    HW210059   0.544   5.310   5.924
 3054SOL     OW10060   6.095   6.344   3.479
 3054SOL    HW110061   6.131   6.300   3.397
 3054SOL    HW210062   6.062   6.436   3.456
 3055SOL     OW10063   5.494   6.110   0.764
 3055SOL    HW110064   5.425   6.052   0.720
 3055SOL    HW210065   5.585   6.076   0.741
 3056SOL     OW10066   4.464   2.600   1.384
 3056SOL    HW110067   4.377   2.558   1.409
 3056SOL    HW210068   4.515   2.624   1.467
 3057SOL     OW10069   6.938   2.397   2.956
 3057SOL    HW110070   6.936   2.355   3.047
 3057SOL    HW210071   6.983   2.334   2.892
 3058SOL     OW10072   5.254   4.124   6.597
 3058SOL    HW110073   5.352   4.140   6.608
 3058SOL    HW210074   5.203   4.200   6.636
 3059SOL     OW10075   1.722   2.691   2.927
 3059SOL    HW110076   1.674   2.603   2.931
 3059SOL    HW210077   1.796   2.692   2.995
 3060SOL     OW10078   6.378   2.945   4.008
 3060SOL    HW110079   6.413   2.855   4.033
 3060SOL    HW210080   6.334   2.987   4.087
 3061SOL     OW10081   5.273   5.793   2.262
 3061SOL    HW110082   5.278   5.884   2.304
 3061SOL    HW210083   5.244   5.726   2.330
 3062SOL     OW10084   4.151   5.033   7.001
 3062SOL    HW110085   4.073   5.060   0.033
 3062SOL    HW210086   4.153   4.933   6.992
 3063SOL     OW10087   6.344   5.861   1.205
 3063SOL    HW110088   6.255   5.899   1.180
 3063SOL    HW210089   6.334   5.805   1.288
 3064SOL     OW10090   4.686   0.792   5.872
 3064SOL    HW110091   4.774   0.836   5.885
 3064SOL    HW210092   4.623   0.854   5.826
 3065SOL     OW10093   4.627   1.734   6.304
 3065SOL    HW110094   4.651   1.799   6.377
 3065SOL    HW210095   4.573   1.659   6.342
 3066SOL     OW10096   5.176   0.043   6.029
 3066SOL    HW110097   5.098   7.018   6.068
 3066SOL    HW210098   5.256   7.007   6.029
 3067SOL     OW10099   1.025   2.147   4.637
 3067SOL    HW110100   1.092   2.221   4.654
 3067SOL    HW210101   1.073   2.059   4.636
 3068SOL     OW10102   6.276   0.766   0.555
 3068SOL    HW110103   6.268   0.784   0.457
 3068SOL    HW210104   6.361   0.717   0.574
 3069SOL     OW10105   5.351   6.072   4.124
 3069SOL    HW110106   5.305   5.987   4.150
 3069SOL    HW210107   5.369   6.071   4.025
 3070SOL     OW10108   2.497   1.782   0.343
 3070SOL    HW110109   2.490   1.795   0.442
 3070SOL    HW210110   2.496   1.684   0.322
 3071SOL     OW10111   6.366   4.182   4.441
 3071SOL    HW110112   6.353   4.137   4.353
 3071SOL    HW210113   6.278   4.214   4.476
 3072SOL     OW10114   1.828   6.895   4.291
 3072SOL    HW110115   1.888   6.973   4.311
 3072SOL    HW210116   1.872   6.811   4.322
 3073SOL     OW10117   0.551   5.081   3.268
 3073SOL    HW110118   0.565   5.080   3.169
 3073SOL    HW210119   0.602   5.006   3.310
 3074SOL     OW10120   3.149   3.715   1.858
 3074SOL    HW110121   3.116   3.809   1.855
 3074SOL    HW210122   3.106   3.662   1.784
 3075SOL     OW10123   3.876   4.940   0.583
 3075SOL    HW110124   3.901   4.843   0.590
 3075SOL    HW210125   3.956   4.997   0.599
 3076SOL     OW10126   2.360   1.211   4.050
 3076SOL    HW110127   2.438   1.270   4.071
 3076SOL    HW210128   2.308   1.193   4.133
 3077SOL     OW10129   6.589   3.498   2.587
 3077SOL    HW110130   6.614   3.412   2.630
 3077SOL    HW210131   6.626   3.574   2.640
 3078SOL     OW10132   6.278   4.653   1.474
 3078SOL    HW110133   6.298   4.744   1.439
 3078SOL    HW210134   6.277   4.655   1.574
 3079SOL     OW10135   7.016   4.279   2.089
 3079SOL    HW110136   6.992   4.284   1.993
 3079SOL    HW210137   7.002   4.367   2.133
 3080SOL     OW10138   3.438   5.016   1.199
 3080SOL    HW110139   3.436   5.026   1.299
 3080SOL    HW210140   3.450   4.919   1.176
 3081SOL     OW10141   2.084   2.321   6.030
 3081SOL    HW110142   2.155   2.356   6.091
 3081SOL    HW210143   2.089   2.221   6.027
 3082SOL     OW10144   6.487   3.441   4.457
 3082SOL    HW110145   6.511   3.406   4.547
 3082SOL    HW210146   6.397   3.404   4.430
 3083SOL     OW10147   4.589   5.616   1.918
 3083SOL    HW110148   4.532   5.615   1.836
 3083SOL    HW210149   4.672   5.669   1.900
 3084SOL     OW10150   0.296   5.635   4.407
 3084SOL    HW110151   0.327   5.542   4.387
 3084SOL    HW210152   0.328   5.663   4.497
 3085SOL     OW10153   6.801   5.661   5.451
 3085SOL    HW110154   6.804   5.719   5.370
 3085SOL    HW210155   6.865   5.586   5.440
 3086SOL     OW10156   6.024   6.575   6.073
 3086SOL    HW110157   6.017   6.485   6.031
 3086SOL    HW210158   6.096   6.627   6.027
 3087SOL     OW10159   3.157   0.348   1.562
 3087SOL    HW110160   3.085   0.294   1.605
 3087SOL    HW210161   3.239   0.347   1.620
 3088SOL     OW10162   2.375   2.902   5.404
 3088SOL    HW110163   2.282   2.940   5.405
 3088SOL    HW210164   2.433   2.958   5.345
 3089SOL     OW10165   4.116   6.691   0.269
 3089SOL    HW110166   4.082   6.627   0.338
 3089SOL    HW210167   4.216   6.698   0.278
 3090SOL     OW10168   0.582   2.143   3.058
 3090SOL    HW110169   0.565   2.077   2.986
 3090SOL    HW210170   0.582   2.236   3.020
 3091SOL     OW10171   1.329   1.890   5.500
 3091SOL    HW110172   1.428   1.902   5.507
 3091SOL    HW210173   1.285   1.940   5.575
 3092SOL     OW10174   5.041   1.701   4.011
 3092SOL    HW110175   5.125   1.666   3.971
 3092SOL    HW210176   4.964   1.683   3.949
 3093SOL     OW10177   6.144   5.799   0.098
 3093SOL    HW110178   6.097   5.821   0.183
 3093SOL    HW210179   6.077   5.780   0.027
 3094SOL     OW10180   1.926   1.221   6.378
 3094SOL    HW110181   2.000   1.229   6.311
 3094SOL    HW210182   1.862   1.297   6.366
 3095SOL     OW10183   1.802   3.586   6.095
 3095SOL    HW110184   1.772   3.547   6.182
 3095SOL    HW210185   1.752   3.543   6.020
 3096SOL     OW10186   2.146   3.643   3.449
 3096SOL    HW110187   2.163   3.625   3.546
 3096SOL    HW210188   2.063   3.698   3.439
 3097SOL     OW10189   5.225   2.195   6.491
 3097SOL    HW110190   5.323   2.190   6.514
 3097SOL    HW210191   5.204   2.129   6.419
 3098SOL     OW10192   1.925   4.191   2.530
 3098SOL    HW110193   1.867   4.261   2.574
 3098SOL    HW210194   1.868   4.112   2.506
 3099SOL     OW10195   0.138   1.006   5.963
 3099SOL    HW110196   0.087   1.027   5.880
 3099SOL    HW210197   0.190   1.086   5.991
 3100SOL     OW10198   5.743   4.084   2.947
 3100SOL    HW110199   5.671   4.044   3.003
 3100SOL    HW210200   5.764   4.022   2.870
 3101SOL     OW10201   4.713   0.471   4.502
 3101SOL    HW110202   4.672   0.561   4.489
 3101SOL    HW210203   4.697   0.440   4.596
 3102SOL     OW10204   5.356   3.035   3.021
 3102SOL    HW110205   5.314   2.969   2.959
 3102SOL    HW210206   5.434   3.079   2.976
 3103SOL     OW10207   1.326   0.963   2.396
 3103SOL    HW110208   1.293   0.871   2.416
 3103SOL    HW210209   1.276   1.000   2.318
 3104SOL     OW10210   5.963   1.523   6.084
 3104SOL    HW110211   5.968   1.618   6.053
 3104SOL    HW210212   6.055   1.488   6.103
 3105SOL     OW10213   5.729   4.706   0.464
 3105SOL    HW110214   5.819   4.703   0.509
 3105SOL    HW210215   5.695   4.613   0.453
 3106SOL     OW10216   5.362   1.789   5.647
 3106SOL    HW110217   5.304   1.742   5.713
 3106SOL    HW210218   5.308   1.857   5.597
 3107SOL     OW10219   4.237   1.640   4.374
 3107SOL    HW110220   4.227   1.727   4.326
 3107SOL    HW210221   4.334   1.622   4.390
 3108SOL     OW10222   2.474   4.861   4.371
 3108SOL    HW110223   2.572   4.858   4.390
 3108SOL    HW210224   2.445   4.772   4.334
 3109SOL     OW10225   7.011   5.166   4.398
 3109SOL    HW110226   0.014   5.116   4.316
 3109SOL    HW210227   6.917   5.200   4.387
 3110SOL     OW10228   1.802   5.191   3.739
 3110SOL    HW110229   1.769   5.173   3.832
 3110SOL    HW210230   1.788   5.287   3.716
 3111SOL     OW10231   7.019   3.633   4.138
 3111SOL    HW110232   0.029   3.612   4.230
 3111SOL    HW210233   6.925   3.668   4.144
 3112SOL     OW10234   4.194   0.033   0.620
 3112SOL    HW110235   4.175   0.061   0.714
 3112SOL    HW210236   4.240   0.108   0.572
 3113SOL     OW10237   1.475   6.310   3.682
 3113SOL    HW110238   1.506   6.382   3.620
 3113SOL    HW210239   1.383   6.332   3.714
 3114SOL     OW10240   5.088   5.080   5.311
 3114SOL    HW110241   5.087   5.099   5.409
 3114SOL    HW210242   5.175   5.112   5.272
 3115SOL     OW10243   5.425   5.745   4.597
 3115SOL    HW110244   5.372   5.662   4.577
 3115SOL    HW210245   5.458   5.785   4.512
 3116SOL     OW10246   0.617   2.738   6.049
 3116SOL    HW110247   0.544   2.700   5.993
 3116SOL    HW210248   0.627   2.683   6.132
 3117SOL     OW10249   4.359   7.016   2.213
 3117SOL    HW110250   4.386   6.991   2.306
 3117SOL    HW210251   4.419   6.970   2.147
 3118SOL     OW10252   0.901   2.084   3.568
 3118SOL    HW110253   0.831   2.153   3.548
 3118SOL    HW210254   0.925   2.036   3.483
 3119SOL     OW10255   4.263   6.375   3.155
 3119SOL    HW110256   4.186   6.344   3.211
 3119SOL    HW210257   4.270   6.475   3.161
 3120SOL     OW10258   3.620   6.504   6.383
 3120SOL    HW110259   3.681   6.580   6.404
 3120SOL    HW210260   3.636   6.429   6.447
 3121SOL     OW10261   3.923   1.477   2.999
 3121SOL    HW110262   4.004   1.508   3.049
 3121SOL    HW210263   3.911   1.379   3.015
 3122SOL     OW10264   5.450   3.364   6.873
 3122SOL    HW110265   5.521   3.322   6.816
 3122SOL    HW210266   5.422   3.451   6.833
 3123SOL     OW10267   2.102   3.292   2.820
 3123SOL    HW110268   2.006   3.284   2.791
 3123SOL    HW210269   2.129   3.388   2.817
 3124SOL     OW10270   5.067   6.878   5.354
 3124SOL    HW110271   5.050   6.900   5.450
 3124SOL    HW210272   4.993   6.915   5.298
 3125SOL     OW10273   2.152   1.618   4.892
 3125SOL    HW110274   2.113   1.641   4.981
 3125SOL    HW210275   2.082   1.575   4.836
 3126SOL     OW10276   5.444   4.067   4.910
 3126SOL    HW110277   5.540   4.050   4.886
 3126SOL    HW210278   5.388   3.991   4.879
 3127SOL     OW10279   6.575   2.085   6.417
 3127SOL    HW110280   6.497   2.036   6.378
 3127SOL    HW210281   6.571   2.080   6.517
 3128SOL     OW10282   4.531   2.056   1.595
 3128SOL    HW110283   4.486   2.104   1.671
 3128SOL    HW210284   4.621   2.098   1.579
 3129SOL     OW10285   4.477   4.762   0.237
 3129SOL    HW110286   4.430   4.680   0.268
 3129SOL    HW210287   4.410   4.829   0.205
 3130SOL     OW10288   6.403   5.330   2.869
 3130SOL    HW110289   6.464   5.403   2.839
 3130SOL    HW210290   6.453   5.267   2.929
 3131SOL     OW10291   0.127   2.302   3.426
 3131SOL    HW110292   0.127   2.261   3.335
 3131SOL    HW210293   0.144   2.231   3.495
 3132SOL     OW10294   4.636   3.864   6.030
 3132SOL    HW110295   4.713   3.905   5.981
 3132SOL    HW210296   4.602   3.785   5.980
 3133SOL     OW10297   5.640   6.565   4.473
 3133SOL    HW110298   5.634   6.485   4.533
 3133SOL    HW210299   5.710   6.628   4.507
 3134SOL     OW10300   3.865   5.254   3.290
 3134SOL    HW110301   3.893   5.244   3.386
 3134SOL    HW210302   3.871   5.351   3.263
 3135SOL     OW10303   4.105   1.148   6.020
 3135SOL    HW110304   4.161   1.144   5.938
 3135SOL    HW210305   4.102   1.057   6.062
 3136SOL     OW10306   6.060   5.446   2.132
 3136SOL    HW110307   6.139   5.402   2.174
 3136SOL    HW210308   5.986   5.379   2.123
 3137SOL     OW10309   5.061   3.747   0.084
 3137SOL    HW110310   5.132   3.806   0.045
 3137SOL    HW210311   5.022   3.690   0.012
 3138SOL     OW10312   6.821   6.269   5.124
 3138SOL    HW110313   6.858   6.220   5.203
 3138SOL    HW210314   6.862   6.361   5.119
 3139SOL     OW10315   1.209   4.847   2.055
 3139SOL    HW110316   1.272   4.908   2.104
 3139SOL    HW210317   1.244   4.832   1.963
 3140SOL     OW10318   4.712   5.565   6.655
 3140SOL    HW110319   4.809   5.542   6.665
 3140SOL    HW210320   4.696   5.604   6.565
 3141SOL     OW10321   6.202   1.918   0.284
 3141SOL    HW110322   6.131   1.983   0.310
 3141SOL    HW210323   6.292   1.958   0.301
 3142SOL     OW10324   4.118   0.803   3.951
 3142SOL    HW110325   4.104   0.704   3.946
 3142SOL    HW210326   4.159   0.826   4.039
 3143SOL     OW10327   6.269   1.468   6.924
 3143SOL    HW110328   6.369   1.479   6.928
 3143SOL    HW210329   6.227   1.557   6.907
 3144SOL     OW10330   3.674   5.162   6.363
 3144SOL    HW110331   3.769   5.151   6.392
 3144SOL    HW210332   3.637   5.247   6.400
 3145SOL     OW10333   0.529   5.863   5.559
 3145SOL    HW110334   0.533   5.814   5.472
 3145SOL    HW210335   0.605   5.927   5.565
 3146SOL     OW10336   6.891   1.410   4.233
 3146SOL    HW110337   6.795   1.435   4.242
 3146SOL    HW210338   6.938   1.422   4.320
 3147SOL     OW10339   5.009   0.226   0.583
 3147SOL    HW110340   4.934   0.176   0.625
 3147SOL    HW210341   5.029   0.188   0.493
 3148SOL     OW10342   5.677   5.141   0.476
 3148SOL    HW110343   5.619   5.070   0.516
 3148SOL    HW210344   5.733   5.101   0.404
 3149SOL     OW10345   4.346   2.981   6.846
 3149SOL    HW110346   4.408   3.052   6.810
 3149SOL    HW210347   4.289   3.020   6.918
 3150SOL     OW10348   6.911   0.430   5.071
 3150SOL    HW110349   6.824   0.451   5.117
 3150SOL    HW210350   6.948   0.345   5.108
 3151SOL     OW10351   0.373   1.611   6.842
 3151SOL    HW110352   0.279   1.584   6.866
 3151SOL    HW210353   0.433   1.531   6.846
 3152SOL     OW10354   2.548   1.728   6.067
 3152SOL    HW110355   2.508   1.783   6.140
 3152SOL    HW210356   2.508   1.755   5.979
 3153SOL     OW10357   5.788   5.656   1.709
 3153SOL    HW110358   5.799   5.728   1.777
 3153SOL    HW210359   5.775   5.568   1.756
 3154SOL     OW10360   3.536   2.288   0.389
 3154SOL    HW110361   3.587   2.295   0.474
 3154SOL    HW210362   3.475   2.367   0.379
 3155SOL     OW10363   6.457   6.150   6.706
 3155SOL    HW110364   6.533   6.199   6.663
 3155SOL    HW210365   6.394   6.215   6.746
 3156SOL     OW10366   2.753   4.477   0.775
 3156SOL    HW110367   2.765   4.555   0.837
 3156SOL    HW210368   2.832   4.472   0.713
 3157SOL     OW10369   1.316   1.071   3.192
 3157SOL    HW110370   1.268   1.157   3.172
 3157SOL    HW210371   1.313   1.054   3.291
 3158SOL     OW10372   2.036   0.729   6.318
 3158SOL    HW110373   1.967   0.801   6.322
 3158SOL    HW210374   2.005   0.657   6.256
 3159SOL     OW10375   4.620   5.460   1.225
 3159SOL    HW110376   4.566   5.452   1.308
 3159SOL    HW210377   4.560   5.449   1.145
 3160SOL     OW10378   2.244   1.143   5.828
 3160SOL    HW110379   2.313   1.183   5.889
 3160SOL    HW210380   2.250   1.044   5.830
 3161SOL     OW10381   2.001   2.475   2.010
 3161SOL    HW110382   2.032   2.449   2.102
 3161SOL    HW210383   2.071   2.453   1.943
 3162SOL     OW10384   1.572   5.744   2.389
 3162SOL    HW110385   1.637   5.802   2.438
 3162SOL    HW210386   1.480   5.758   2.426
 3163SOL     OW10387   5.394   4.569   1.544
 3163SOL    HW110388   5.309   4.595   1.498
 3163SOL    HW210389   5.469   4.625   1.510
 3164SOL     OW10390   2.243   6.927   2.921
 3164SOL    HW110391   2.186   6.945   3.002
 3164SOL    HW210392   2.222   6.995   2.850
 3165SOL     OW10393   0.374   5.344   6.876
 3165SOL    HW110394   0.406   5.278   6.809
 3165SOL    HW210395   0.449   5.367   6.938
 3166SOL     OW10396   3.574   2.085   4.700
 3166SOL    HW110397   3.526   2.124   4.779
 3166SOL    HW210398   3.671   2.077   4.721
 3167SOL     OW10399   6.371   2.997   2.815
 3167SOL    HW110400   6.289   3.052   2.798
 3167SOL    HW210401   6.415   2.976   2.727
 3168SOL     OW10402   5.492   1.432   1.120
 3168SOL    HW110403   5.546   1.514   1.101
 3168SOL    HW210404   5.415   1.428   1.056
 3169SOL     OW10405   1.085   2.494   2.233
 3169SOL    HW110406   1.154   2.428   2.201
 3169SOL    HW210407   0.994   2.464   2.203
 3170SOL     OW10408   2.369   4.774   4.077
 3170SOL    HW110409   2.292   4.711   4.076
 3170SOL    HW210410   2.349   4.851   4.016
 3171SOL     OW10411   6.395   1.919   4.561
 3171SOL    HW110412   6.418   2.009   4.526
 3171SOL    HW210413   6.343   1.928   4.646
 3172SOL     OW10414   5.853   4.138   1.173
 3172SOL    HW110415   5.866   4.139   1.272
 3172SOL    HW210416   5.830   4.230   1.141
 3173SOL     OW10417   5.631   4.487   0.328
 3173SOL    HW110418   5.602   4.435   0.248
 3173SOL    HW210419   5.696   4.433   0.381
 3174SOL     OW10420   2.607   3.221   0.223
 3174SOL    HW110421   2.610   3.208   0.124
 3174SOL    HW210422   2.610   3.132   0.268
 3175SOL     OW10423   5.714   6.111   5.498
 3175SOL    HW110424   5.769   6.162   5.564
 3175SOL    HW210425   5.774   6.053   5.443
 3176SOL     OW10426   6.689   5.130   4.140
 3176SOL    HW110427   6.650   5.056   4.196
 3176SOL    HW210428   6.772   5.097   4.095
 3177SOL     OW10429   5.731   2.473   1.582
 3177SOL    HW110430   5.739   2.460   1.483
 3177SOL    HW210431   5.690   2.391   1.623
 3178SOL     OW10432   1.695   0.475   2.318
 3178SOL    HW110433   1.668   0.566   2.287
 3178SOL    HW210434   1.617   0.429   2.359
 3179SOL     OW10435   0.554   4.256   3.005
 3179SOL    HW110436   0.645   4.226   2.975
 3179SOL    HW210437   0.519   4.194   3.074
 3180SOL     OW10438   6.136   0.048   6.285
 3180SOL    HW110439   6.073   6.997   6.269
 3180SOL    HW210440   6.198   0.024   6.360
 3181SOL     OW10441   6.939   6.888   4.534
 3181SOL    HW110442   6.913   6.835   4.453
 3181SOL    HW210443   6.896   6.848   4.615
 3182SOL     OW10444   1.570   6.842   1.446
 3182SOL    HW110445   1.554   6.937   1.419
 3182SOL    HW210446   1.490   6.807   1.494
 3183SOL     OW10447   4.077   4.021   0.146
 3183SOL    HW110448   3.997   3.963   0.162
 3183SOL    HW210449   4.118   4.045   0.234
 3184SOL     OW10450   6.552   0.554   4.866
 3184SOL    HW110451   6.531   0.492   4.791
 3184SOL    HW210452   6.470   0.570   4.920
 3185SOL     OW10453   1.024   0.903   6.411
 3185SOL    HW110454   1.092   0.855   6.356
 3185SOL    HW210455   0.966   0.958   6.350
 3186SOL     OW10456   0.734   1.999   6.095
 3186SOL    HW110457   0.654   1.998   6.156
 3186SOL    HW210458   0.816   2.016   6.149
 3187SOL     OW10459   5.136   0.292   3.627
 3187SOL    HW110460   5.159   0.260   3.535
 3187SOL    HW210461   5.161   0.389   3.636
 3188SOL     OW10462   1.046   6.004   1.538
 3188SOL    HW110463   1.081   5.991   1.631
 3188SOL    HW210464   1.045   6.101   1.516
 3189SOL     OW10465   2.690   1.895   5.467
 3189SOL    HW110466   2.699   1.969   5.399
 3189SOL    HW210467   2.780   1.861   5.491
 3190SOL     OW10468   6.741   6.150   4.637
 3190SOL    HW110469   6.723   6.238   4.593
 3190SOL    HW210470   6.793   6.165   4.721
 3191SOL     OW10471   4.083   5.140   0.629
 3191SOL    HW110472   4.051   5.194   0.551
 3191SOL    HW210473   4.180   5.117   0.615
 3192SOL     OW10474   5.309   0.730   3.372
 3192SOL    HW110475   5.384   0.784   3.410
 3192SOL    HW210476   5.324   0.717   3.274
 3193SOL     OW10477   3.667   5.846   4.517
 3193SOL    HW110478   3.600   5.876   4.585
 3193SOL    HW210479   3.621   5.793   4.446
 3194SOL     OW10480   2.362   6.212   6.217
 3194SOL    HW110481   2.388   6.247   6.307
 3194SOL    HW210482   2.266   6.185   6.218
 3195SOL     OW10483   0.175   5.761   1.437
 3195SOL    HW110484   0.142   5.693   1.372
 3195SOL    HW210485   0.097   5.802   1.485
 3196SOL     OW10486   5.452   0.596   3.168
 3196SOL    HW110487   5.482   0.566   3.258
 3196SOL    HW210488   5.474   0.693   3.156
 3197SOL     OW10489   3.290   0.874   6.961
 3197SOL    HW110490   3.258   0.862   6.867
 3197SOL    HW210491   3.323   0.968   6.974
 3198SOL     OW10492   6.003   4.061   4.203
 3198SOL    HW110493   6.033   4.047   4.108
 3198SOL    HW210494   6.026   3.980   4.257
 3199SOL     OW10495   5.447   3.293   4.135
 3199SOL    HW110496   5.420   3.337   4.221
 3199SOL    HW210497   5.369   3.287   4.074
 3200SOL     OW10498   6.689   3.267   4.937
 3200SOL    HW110499   6.671   3.220   5.023
 3200SOL    HW210500   6.652   3.360   4.940
 3201SOL     OW10501   6.254   3.221   2.509
 3201SOL    HW110502   6.326   3.188   2.448
 3201SOL    HW210503   6.190   3.147   2.529
 3202SOL     OW10504   3.034   3.038   6.086
 3202SOL    HW110505   3.043   3.069   5.991
 3202SOL    HW210506   3.076   3.105   6.147
 3203SOL     OW10507   3.370   6.614   1.665
 3203SOL    HW110508   3.402   6.521   1.685
 3203SOL    HW210509   3.375   6.670   1.748
 3204SOL     OW10510   5.216   0.457   3.258
 3204SOL    HW110511   5.127   0.477   3.300
 3204SOL    HW210512   5.239   0.530   3.193
 3205SOL     OW10513   5.355   2.769   0.418
 3205SOL    HW110514   5.387   2.864   0.419
 3205SOL    HW210515   5.344   2.736   0.511
 3206SOL     OW10516   3.577   5.121   0.112
 3206SOL    HW110517   3.519   5.117   0.193
 3206SOL    HW210518   3.605   5.028   0.087
 3207SOL     OW10519   1.925   5.955   2.885
 3207SOL    HW110520   1.984   6.031   2.913
 3207SOL    HW210521   1.856   5.988   2.821
 3208SOL     OW10522   6.984   3.822   6.957
 3208SOL    HW110523   7.010   3.730   6.985
 3208SOL    HW210524   6.961   3.822   6.859
 3209SOL     OW10525   5.171   0.083   5.153
 3209SOL    HW110526   5.221   0.169   5.163
 3209SOL    HW210527   5.156   0.041   5.242
 3210SOL     OW10528   4.600   4.912   2.254
 3210SOL    HW110529   4.671   4.881   2.191
 3210SOL    HW210530   4.555   4.833   2.294
 3211SOL     OW10531   2.503   0.352   0.045
 3211SOL    HW110532   2.479   0.442   0.009
 3211SOL    HW210533   2.601   0.336   0.032
 3212SOL     OW10534   3.863   6.841   4.175
 3212SOL    HW110535   3.879   6.853   4.273
 3212SOL    HW210536   3.881   6.927   4.128
 3213SOL     OW10537   1.127   0.243   5.743
 3213SOL    HW110538   1.184   0.204   5.816
 3213SOL    HW210539   1.186   0.288   5.676
 3214SOL     OW10540   2.162   0.056   2.703
 3214SOL    HW110541   2.148   0.104   2.616
 3214SOL    HW210542   2.161   6.981   2.686
 3215SOL     OW10543   2.266   3.337   1.640
 3215SOL    HW110544   2.305   3.384   1.719
 3215SOL    HW210545   2.166   3.337   1.648
 3216SOL     OW10546   0.160   4.157   1.213
 3216SOL    HW110547   0.233   4.114   1.267
 3216SOL    HW210548   0.072   4.137   1.255
 3217SOL     OW10549   6.184   5.893   4.037
 3217SOL    HW110550   6.110   5.958   4.019
 3217SOL    HW210551   6.247   5.892   3.959
 3218SOL     OW10552   5.904   1.221   3.478
 3218SOL    HW110553   5.903   1.317   3.451
 3218SOL    HW210554   5.986   1.202   3.532
 3219SOL     OW10555   4.590   2.136   4.522
 3219SOL    HW110556   4.519   2.202   4.545
 3219SOL    HW210557   4.570   2.094   4.434
 3220SOL     OW10558   0.054   3.868   5.371
 3220SOL    HW110559   6.991   3.898   5.332
 3220SOL    HW210560   0.093   3.941   5.426
 3221SOL     OW10561   4.145   1.874   2.122
 3221SOL    HW110562   4.056   1.896   2.083
 3221SOL    HW210563   4.197   1.958   2.136
 3222SOL     OW10564   2.848   0.924   3.357
 3222SOL    HW110565   2.920   0.886   3.415
 3222SOL    HW210566   2.762   0.926   3.407
 3223SOL     OW10567   1.758   5.659   0.702
 3223SOL    HW110568   1.825   5.714   0.653
 3223SOL    HW210569   1.750   5.691   0.796
 3224SOL     OW10570   4.458   2.475   3.745
 3224SOL    HW110571   4.488   2.522   3.662
 3224SOL    HW210572   4.502   2.516   3.825
 3225SOL     OW10573   3.556   0.866   4.865
 3225SOL    HW110574   3.538   0.960   4.840
 3225SOL    HW210575   3.539   0.806   4.787
 3226SOL     OW10576   5.693   0.994   0.024
 3226SOL    HW110577   5.703   0.928   6.975
 3226SOL    HW210578   5.725   0.955   0.110
 3227SOL     OW10579   6.287   3.923   5.760
 3227SOL    HW110580   6.228   3.977   5.699
 3227SOL    HW210581   6.233   3.891   5.838
 3228SOL     OW10582   1.759   4.386   0.803
 3228SOL    HW110583   1.729   4.391   0.708
 3228SOL    HW210584   1.690   4.428   0.862
 3229SOL     OW10585   1.028   0.787   0.535
 3229SOL    HW110586   1.120   0.769   0.570
 3229SOL    HW210587   0.961   0.737   0.590
 3230SOL     OW10588   3.083   6.214   5.247
 3230SOL    HW110589   3.091   6.121   5.212
 3230SOL    HW210590   3.033   6.212   5.334
 3231SOL     OW10591   2.920   2.126   2.534
 3231SOL    HW110592   2.920   2.149   2.436
 3231SOL    HW210593   2.990   2.179   2.581
 3232SOL     OW10594   3.296   4.875   3.745
 3232SOL    HW110595   3.333   4.923   3.665
 3232SOL    HW210596   3.325   4.779   3.742
 3233SOL     OW10597   2.247   0.212   5.348
 3233SOL    HW110598   2.304   0.134   5.323
 3233SOL    HW210599   2.266   0.239   5.442
 3234SOL     OW10600   3.627   3.902   0.707
 3234SOL    HW110601   3.649   3.882   0.803
 3234SOL    HW210602   3.712   3.905   0.654
 3235SOL     OW10603   0.311   2.064   3.087
 3235SOL    HW110604   0.406   2.090   3.102
 3235SOL    HW210605   0.251   2.134   3.127
 3236SOL     OW10606   6.029   6.511   0.757
 3236SOL    HW110607   6.097   6.449   0.795
 3236SOL    HW210608   6.008   6.582   0.824
 3237SOL     OW10609   6.166   2.378   5.581
 3237SOL    HW110610   6.142   2.346   5.489
 3237SOL    HW210611   6.253   2.428   5.577
 3238SOL     OW10612   0.600   4.807   0.970
 3238SOL    HW110613   0.616   4.726   1.027
 3238SOL    HW210614   0.503   4.830   0.972
 3239SOL     OW10615   6.220   1.407   4.951
 3239SOL    HW110616   6.206   1.308   4.951
 3239SOL    HW210617   6.167   1.448   4.878
 3240SOL     OW10618   0.873   2.014   1.392
 3240SOL    HW110619   0.865   2.090   1.328
 3240SOL    HW210620   0.837   2.042   1.481
 3241SOL     OW10621   0.225   2.804   5.400
 3241SOL    HW110622   0.287   2.882   5.389
 3241SOL    HW210623   0.223   2.752   5.314
 3242SOL     OW10624   0.269   4.811   5.297
 3242SOL    HW110625   0.306   4.721   5.275
 3242SOL    HW210626   0.256   4.819   5.396
 3243SOL     OW10627   6.271   5.018   5.095
 3243SOL    HW110628   6.277   5.061   5.005
 3243SOL    HW210629   6.335   4.941   5.100
 3244SOL     OW10630   5.068   0.024   7.021
 3244SOL    HW110631   5.146   0.086   7.008
 3244SOL    HW210632   5.101   6.955   0.010
 3245SOL     OW10633   2.040   6.455   4.548
 3245SOL    HW110634   2.107   6.413   4.487
 3245SOL    HW210635   1.954   6.404   4.544
 3246SOL     OW10636   6.167   5.281   2.372
 3246SOL    HW110637   6.189   5.278   2.469
 3246SOL    HW210638   6.251   5.293   2.319
 3247SOL     OW10639   2.197   4.346   4.792
 3247SOL    HW110640   2.100   4.327   4.774
 3247SOL    HW210641   2.219   4.319   4.885
 3248SOL     OW10642   6.053   2.582   3.764
 3248SOL    HW110643   6.007   2.532   3.691
 3248SOL    HW210644   6.015   2.554   3.853
 3249SOL     OW10645   3.938   4.004   4.267
 3249SOL    HW110646   3.993   3.973   4.345
 3249SOL    HW210647   3.917   4.101   4.277
 3250SOL     OW10648   4.394   5.650   3.236
 3250SOL    HW110649   4.375   5.728   3.176
 3250SOL    HW210650   4.418   5.570   3.180
 3251SOL     OW10651   1.931   2.138   2.042
 3251SOL    HW110652   2.005   2.195   2.006
 3251SOL    HW210653   1.886   2.186   2.118
 3252SOL     OW10654   1.483   1.449   2.495
 3252SOL    HW110655   1.455   1.355   2.476
 3252SOL    HW210656   1.421   1.489   2.563
 3253SOL     OW10657   6.535   3.170   0.962
 3253SOL    HW110658   6.500   3.200   0.873
 3253SOL    HW210659   6.502   3.232   1.033
 3254SOL     OW10660   5.991   6.906   0.785
 3254SOL    HW110661   6.011   6.930   0.880
 3254SOL    HW210662   5.911   6.957   0.754
 3255SOL     OW10663   3.847   4.908   2.057
 3255SOL    HW110664   3.774   4.852   2.018
 3255SOL    HW210665   3.810   4.965   2.131
 3256SOL     OW10666   5.776   2.124   2.136
 3256SOL    HW110667   5.739   2.194   2.075
 3256SOL    HW210668   5.756   2.033   2.098
 3257SOL     OW10669   2.597   1.286   2.563
 3257SOL    HW110670   2.556   1.375   2.543
 3257SOL    HW210671   2.693   1.297   2.587
 3258SOL     OW10672   0.357   5.239   4.203
 3258SOL    HW110673   0.351   5.263   4.300
 3258SOL    HW210674   0.452   5.239   4.174
 3259SOL     OW10675   6.138   5.187   3.287
 3259SOL    HW110676   6.209   5.118   3.274
 3259SOL    HW210677   6.077   5.159   3.361
 3260SOL     OW10678   2.597   4.717   3.724
 3260SOL    HW110679   2.522   4.777   3.697
 3260SOL    HW210680   2.664   4.712   3.650
 3261SOL     OW10681   6.028   6.896   4.274
 3261SOL    HW110682   6.029   6.807   4.227
 3261SOL    HW210683   6.023   6.881   4.373
 3262SOL     OW10684   2.855   1.595   2.459
 3262SOL    HW110685   2.916   1.575   2.382
 3262SOL    HW210686   2.870   1.689   2.490
 3263SOL     OW10687   5.743   0.193   1.624
 3263SOL    HW110688   5.665   0.237   1.669
 3263SOL    HW210689   5.746   0.223   1.528
 3264SOL     OW10690   1.272   5.052   6.732
 3264SOL    HW110691   1.250   5.141   6.773
 3264SOL    HW210692   1.368   5.051   6.704
 3265SOL     OW10693   6.681   5.920   5.956
 3265SOL    HW110694   6.732   5.929   5.870
 3265SOL    HW210695   6.629   5.835   5.954
 3266SOL     OW10696   3.530   4.653   6.208
 3266SOL    HW110697   3.607   4.600   6.243
 3266SOL    HW210698   3.545   4.750   6.226
 3267SOL     OW10699   3.264   0.108   0.310
 3267SOL    HW110700   3.268   0.207   0.327
 3267SOL    HW210701   3.321   0.060   0.376
 3268SOL     OW10702   5.440   4.167   2.723
 3268SOL    HW110703   5.370   4.102   2.693
 3268SOL    HW210704   5.482   4.134   2.808
 3269SOL     OW10705   2.071   5.508   0.797
 3269SOL    HW110706   2.168   5.527   0.782
 3269SOL    HW210707   2.018   5.533   0.716
 3270SOL     OW10708   1.873   3.029   6.419
 3270SOL    HW110709   1.937   2.972   6.367
 3270SOL    HW210710   1.922   3.105   6.460
 3271SOL     OW10711   1.044   4.271   1.411
 3271SOL    HW110712   0.986   4.190   1.424
 3271SOL    HW210713   1.140   4.242   1.402
 3272SOL     OW10714   3.591   0.155   0.426
 3272SOL    HW110715   3.688   0.144   0.401
 3272SOL    HW210716   3.561   0.247   0.402
 3273SOL     OW10717   4.278   3.711   6.795
 3273SOL    HW110718   4.206   3.661   6.747
 3273SOL    HW210719   4.293   3.670   6.884
 3274SOL     OW10720   4.772   0.028   2.298
 3274SOL    HW110721   4.785   0.012   2.200
 3274SOL    HW210722   4.736   6.969   2.341
 3275SOL     OW10723   4.838   0.561   1.635
 3275SOL    HW110724   4.770   0.633   1.621
 3275SOL    HW210725   4.810   0.503   1.711
 3276SOL     OW10726   5.852   6.067   0.186
 3276SOL    HW110727   5.859   6.162   0.154
 3276SOL    HW210728   5.760   6.051   0.221
 3277SOL     OW10729   4.750   1.165   2.415
 3277SOL    HW110730   4.768   1.252   2.460
 3277SOL    HW210731   4.819   1.098   2.443
 3278SOL     OW10732   5.067   1.053   6.468
 3278SOL    HW110733   4.996   0.992   6.432
 3278SOL    HW210734   5.139   1.065   6.400
 3279SOL     OW10735   4.328   0.252   2.320
 3279SOL    HW110736   4.341   0.163   2.277
 3279SOL    HW210737   4.265   0.307   2.264
 3280SOL     OW10738   0.330   2.501   4.202
 3280SOL    HW110739   0.357   2.595   4.222
 3280SOL    HW210740   0.233   2.489   4.226
 3281SOL     OW10741   5.994   2.593   2.202
 3281SOL    HW110742   5.981   2.683   2.245
 3281SOL    HW210743   6.035   2.605   2.112
 3282SOL     OW10744   6.737   4.943   4.930
 3282SOL    HW110745   6.716   5.009   5.003
 3282SOL    HW210746   6.820   4.893   4.954
 3283SOL     OW10747   3.462   1.179   0.538
 3283SOL    HW110748   3.470   1.275   0.511
 3283SOL    HW210749   3.381   1.167   0.595
 3284SOL     OW10750   2.201   0.755   5.369
 3284SOL    HW110751   2.124   0.719   5.316
 3284SOL    HW210752   2.263   0.680   5.392
 3285SOL     OW10753   4.261   1.352   4.239
 3285SOL    HW110754   4.205   1.392   4.167
 3285SOL    HW210755   4.358   1.363   4.216
 3286SOL     OW10756   1.474   4.023   3.124
 3286SOL    HW110757   1.450   3.928   3.105
 3286SOL    HW210758   1.390   4.078   3.132
 3287SOL     OW10759   3.266   1.221   0.722
 3287SOL    HW110760   3.257   1.316   0.692
 3287SOL    HW210761   3.337   1.215   0.792
 3288SOL     OW10762   2.947   5.505   1.559
 3288SOL    HW110763   2.982   5.411   1.560
 3288SOL    HW210764   2.866   5.510   1.618
 3289SOL     OW10765   5.414   0.358   0.489
 3289SOL    HW110766   5.320   0.389   0.502
 3289SOL    HW210767   5.459   0.413   0.419
 3290SOL     OW10768   0.714   4.166   0.098
 3290SOL    HW110769   0.678   4.104   0.168
 3290SOL    HW210770   0.638   4.208   0.049
 3291SOL     OW10771   4.991   6.957   5.603
 3291SOL    HW110772   5.012   0.019   5.649
 3291SOL    HW210773   5.016   6.880   5.662
 3292SOL     OW10774   0.283   3.032   1.129
 3292SOL    HW110775   0.197   2.986   1.106
 3292SOL    HW210776   0.345   3.026   1.051
 3293SOL     OW10777   6.720   4.734   2.426
 3293SOL    HW110778   6.740   4.789   2.507
 3293SOL    HW210779   6.622   4.712   2.425
 3294SOL     OW10780   4.147   2.993   5.563
 3294SOL    HW110781   4.120   3.063   5.497
 3294SOL    HW210782   4.231   2.948   5.532
 3295SOL     OW10783   1.333   3.523   3.351
 3295SOL    HW110784   1.358   3.446   3.410
 3295SOL    HW210785   1.270   3.491   3.280
 3296SOL     OW10786   2.293   0.902   6.917
 3296SOL    HW110787   2.193   0.894   6.918
 3296SOL    HW210788   2.325   0.896   6.822
 3297SOL     OW10789   2.878   0.854   5.827
 3297SOL    HW110790   2.850   0.937   5.876
 3297SOL    HW210791   2.967   0.824   5.861
 3298SOL     OW10792   4.041   3.668   6.244
 3298SOL    HW110793   4.015   3.749   6.191
 3298SOL    HW210794   4.140   3.656   6.239
 3299SOL     OW10795   2.367   6.711   4.434
 3299SOL    HW110796   2.374   6.614   4.412
 3299SOL    HW210797   2.437   6.761   4.383
 3300SOL     OW10798   1.820   0.952   3.002
 3300SOL    HW110799   1.757   0.912   3.068
 3300SOL    HW210800   1.769   0.984   2.922
 3301SOL     OW10801   1.354   0.641   2.087
 3301SOL    HW110802   1.330   0.552   2.127
 3301SOL    HW210803   1.420   0.687   2.146
 3302SOL     OW10804   1.517   4.916   4.911
 3302SOL    HW110805   1.540   4.822   4.883
 3302SOL    HW210806   1.442   4.950   4.855
 3303SOL     OW10807   4.356   3.917   0.536
 3303SOL    HW110808   4.338   3.890   0.442
 3303SOL    HW210809   4.282   3.974   0.570
 3304SOL     OW10810   2.448   3.941   0.647
 3304SOL    HW110811   2.497   4.007   0.591
 3304SOL    HW210812   2.350   3.964   0.649
 3305SOL     OW10813   3.181   2.788   6.841
 3305SOL    HW110814   3.137   2.873   6.812
 3305SOL    HW210815   3.254   2.765   6.777
 3306SOL     OW10816   2.731   0.505   0.880
 3306SOL    HW110817   2.767   0.590   0.919
 3306SOL    HW210818   2.807   0.442   0.865
 3307SOL     OW10819   2.075   5.658   5.116
 3307SOL    HW110820   2.168   5.656   5.081
 3307SOL    HW210821   2.029   5.740   5.084
 3308SOL     OW10822   5.357   5.290   1.724
 3308SOL    HW110823   5.308   5.365   1.678
 3308SOL    HW210824   5.443   5.273   1.676
 3309SOL     OW10825   5.750   3.269   4.287
 3309SOL    HW110826   5.751   3.369   4.287
 3309SOL    HW210827   5.741   3.236   4.193
 3310SOL     OW10828   6.359   4.407   6.704
 3310SOL    HW110829   6.371   4.506   6.716
 3310SOL    HW210830   6.265   4.382   6.727
 3311SOL     OW10831   1.459   2.837   1.028
 3311SOL    HW110832   1.510   2.897   1.090
 3311SOL    HW210833   1.520   2.807   0.953
 3312SOL     OW10834   5.247   3.706   0.343
 3312SOL    HW110835   5.211   3.756   0.422
 3312SOL    HW210836   5.346   3.715   0.340
 3313SOL     OW10837   1.027   6.506   3.458
 3313SOL    HW110838   1.014   6.601   3.431
 3313SOL    HW210839   1.004   6.495   3.555
 3314SOL     OW10840   3.069   6.348   3.691
 3314SOL    HW110841   3.074   6.284   3.768
 3314SOL    HW210842   3.095   6.440   3.722
 3315SOL     OW10843   1.251   6.450   3.762
 3315SOL    HW110844   1.295   6.471   3.849
 3315SOL    HW210845   1.157   6.484   3.764
 3316SOL     OW10846   3.810   1.717   0.607
 3316SOL    HW110847   3.894   1.768   0.588
 3316SOL    HW210848   3.793   1.651   0.534
 3317SOL     OW10849   5.820   2.376   1.015
 3317SOL    HW110850   5.871   2.460   0.998
 3317SOL    HW210851   5.818   2.321   0.932
 3318SOL     OW10852   4.097   2.490   0.445
 3318SOL    HW110853   4.060   2.490   0.538
 3318SOL    HW210854   4.075   2.404   0.400
 3319SOL     OW10855   6.667   6.179   4.157
 3319SOL    HW110856   6.748   6.237   4.157
 3319SOL    HW210857   6.594   6.223   4.104
 3320SOL     OW10858   6.322   0.625   2.870
 3320SOL    HW110859   6.225   0.647   2.856
 3320SOL    HW210860   6.333   0.526   2.875
 3321SOL     OW10861   4.601   1.507   6.827
 3321SOL    HW110862   4.541   1.498   6.907
 3321SOL    HW210863   4.665   1.431   6.825
 3322SOL     OW10864   6.244   3.516   1.758
 3322SOL    HW110865   6.160   3.552   1.800
 3322SOL    HW210866   6.305   3.483   1.830
 3323SOL     OW10867   0.817   0.125   2.083
 3323SOL    HW110868   0.912   0.093   2.082
 3323SOL    HW210869   0.795   0.167   1.995
 3324SOL     OW10870   6.545   5.446   6.109
 3324SOL    HW110871   6.535   5.447   6.209
 3324SOL    HW210872   6.511   5.359   6.073
 3325SOL     OW10873   2.539   5.334   6.546
 3325SOL    HW110874   2.468   5.400   6.569
 3325SOL    HW210875   2.521   5.248   6.593
 3326SOL     OW10876   4.163   1.544   1.880
 3326SOL    HW110877   4.122   1.474   1.938
 3326SOL    HW210878   4.261   1.550   1.899
 3327SOL     OW10879   1.790   6.150   5.799
 3327SOL    HW110880   1.789   6.201   5.884
 3327SOL    HW210881   1.798   6.213   5.722
 3328SOL     OW10882   4.476   2.856   5.574
 3328SOL    HW110883   4.460   2.817   5.665
 3328SOL    HW210884   4.396   2.840   5.517
 3329SOL     OW10885   6.913   6.678   5.552
 3329SOL    HW110886   6.933   6.775   5.567
 3329SOL    HW210887   6.814   6.667   5.543
 3330SOL     OW10888   6.656   2.756   3.019
 3330SOL    HW110889   6.753   2.739   3.039
 3330SOL    HW210890   6.600   2.709   3.087
 3331SOL     OW10891   1.905   3.303   0.753
 3331SOL    HW110892   1.984   3.278   0.808
 3331SOL    HW210893   1.846   3.223   0.740
 3332SOL     OW10894   6.865   4.380   1.861
 3332SOL    HW110895   6.884   4.284   1.842
 3332SOL    HW210896   6.788   4.386   1.925
 3333SOL     OW10897   3.538   5.956   5.164
 3333SOL    HW110898   3.606   6.006   5.218
 3333SOL    HW210899   3.447   5.972   5.201
 3334SOL     OW10900   1.606   2.964   1.215
 3334SOL    HW110901   1.587   3.041   1.276
 3334SOL    HW210902   1.681   2.988   1.153
 3335SOL     OW10903   5.427   4.556   4.830
 3335SOL    HW110904   5.393   4.462   4.824
 3335SOL    HW210905   5.514   4.563   4.782
 3336SOL     OW10906   3.635   6.227   5.534
 3336SOL    HW110907   3.611   6.201   5.440
 3336SOL    HW210908   3.734   6.224   5.545
 3337SOL     OW10909   4.059   1.153   0.972
 3337SOL    HW110910   3.968   1.170   1.010
 3337SOL    HW210911   4.051   1.088   0.896
 3338SOL     OW10912   6.730   5.425   0.567
 3338SOL    HW110913   6.800   5.359   0.541
 3338SOL    HW210914   6.645   5.406   0.517
 3339SOL     OW10915   0.026   4.199   6.507
 3339SOL    HW110916   0.064   4.114   6.470
 3339SOL    HW210917   0.060   4.276   6.453
 3340SOL     OW10918   3.781   0.678   1.875
 3340SOL    HW110919   3.810   0.736   1.951
 3340SOL    HW210920   3.701   0.625   1.903
 3341SOL     OW10921   0.871   0.331   6.419
 3341SOL    HW110922   0.971   0.330   6.412
 3341SOL    HW210923   0.841   0.415   6.464
 3342SOL     OW10924   1.711   6.740   5.503
 3342SOL    HW110925   1.694   6.838   5.500
 3342SOL    HW210926   1.670   6.702   5.586
 3343SOL     OW10927   0.308   2.384   0.675
 3343SOL    HW110928   0.264   2.445   0.741
 3343SOL    HW210929   0.400   2.418   0.655
 3344SOL     OW10930   1.512   2.231   6.357
 3344SOL    HW110931   1.489   2.170   6.281
 3344SOL    HW210932   1.447   2.217   6.432
 3345SOL     OW10933   2.720   3.208   6.637
 3345SOL    HW110934   2.724   3.112   6.666
 3345SOL    HW210935   2.731   3.213   6.537
 3346SOL     OW10936   2.572   5.789   2.579
 3346SOL    HW110937   2.651   5.729   2.587
 3346SOL    HW210938   2.501   5.744   2.527
 3347SOL     OW10939   5.933   4.183   3.873
 3347SOL    HW110940   5.948   4.085   3.879
 3347SOL    HW210941   5.841   4.201   3.840
 3348SOL     OW10942   3.709   3.711   3.390
 3348SOL    HW110943   3.726   3.655   3.308
 3348SOL    HW210944   3.612   3.731   3.397
 3349SOL     OW10945   5.024   2.431   0.750
 3349SOL    HW110946   5.048   2.343   0.793
 3349SOL    HW210947   4.962   2.414   0.673
 3350SOL     OW10948   2.559   3.040   1.650
 3350SOL    HW110949   2.465   3.046   1.684
 3350SOL    HW210950   2.566   3.090   1.564
 3351SOL     OW10951   5.952   2.872   1.031
 3351SOL    HW110952   5.970   2.806   1.104
 3351SOL    HW210953   6.039   2.909   0.997
 3352SOL     OW10954   0.038   3.700   0.666
 3352SOL    HW110955   6.981   3.745   0.705
 3352SOL    HW210956   0.116   3.711   0.728
 3353SOL     OW10957   1.326   6.381   6.390
 3353SOL    HW110958   1.348   6.413   6.482
 3353SOL    HW210959   1.398   6.409   6.327
 3354SOL     OW10960   0.789   6.444   1.951
 3354SOL    HW110961   0.775   6.450   1.852
 3354SOL    HW210962   0.851   6.518   1.980
 3355SOL     OW10963   5.493   0.907   2.522
 3355SOL    HW110964   5.407   0.857   2.512
 3355SOL    HW210965   5.570   0.846   2.499
 3356SOL     OW10966   1.437   3.892   6.939
 3356SOL    HW110967   1.444   3.899   6.839
 3356SOL    HW210968   1.341   3.904   6.966
 3357SOL     OW10969   2.884   5.853   2.380
 3357SOL    HW110970   2.831   5.801   2.313
 3357SOL    HW210971   2.869   5.814   2.472
 3358SOL     OW10972   6.979   3.799   3.032
 3358SOL    HW110973   7.017   3.729   3.093
 3358SOL    HW210974   0.016   3.812   2.954
 3359SOL     OW10975   2.380   1.610   1.505
 3359SOL    HW110976   2.368   1.681   1.435
 3359SOL    HW210977   2.301   1.548   1.502
 3360SOL     OW10978   2.571   0.981   6.384
 3360SOL    HW110979   2.484   1.020   6.414
 3360SOL    HW210980   2.622   1.050   6.332
 3361SOL     OW10981   2.112   0.957   2.524
 3361SOL    HW110982   2.151   1.005   2.445
 3361SOL    HW210983   2.183   0.944   2.593
 3362SOL     OW10984   2.958   2.154   4.356
 3362SOL    HW110985   2.869   2.200   4.346
 3362SOL    HW210986   3.022   2.192   4.289
 3363SOL     OW10987   6.441   0.620   0.321
 3363SOL    HW110988   6.469   0.624   0.417
 3363SOL    HW210989   6.520   0.598   0.264
 3364SOL     OW10990   1.349   5.187   5.113
 3364SOL    HW110991   1.372   5.228   5.025
 3364SOL    HW210992   1.411   5.111   5.132
 3365SOL     OW10993   6.479   2.119   5.155
 3365SOL    HW110994   6.536   2.198   5.133
 3365SOL    HW210995   6.527   2.035   5.129
 3366SOL     OW10996   5.035   0.754   0.244
 3366SOL    HW110997   5.080   0.718   0.326
 3366SOL    HW210998   5.069   0.846   0.225
 3367SOL     OW10999   2.045   0.218   2.000
 3367SOL    HW111000   1.974   0.196   1.933
 3367SOL    HW211001   2.085   0.133   2.034
 3368SOL     OW11002   6.312   1.347   4.539
 3368SOL    HW111003   6.232   1.345   4.479
 3368SOL    HW211004   6.308   1.428   4.597
 3369SOL     OW11005   3.952   5.247   6.361
 3369SOL    HW111006   3.925   5.318   6.426
 3369SOL    HW211007   3.912   5.267   6.272
 3370SOL     OW11008   6.226   0.679   5.602
 3370SOL    HW111009   6.140   0.731   5.609
 3370SOL    HW211010   6.286   0.725   5.536
 3371SOL     OW11011   6.595   4.588   1.365
 3371SOL    HW111012   6.598   4.656   1.438
 3371SOL    HW211013   6.500   4.562   1.346
 3372SOL     OW11014   1.356   2.920   3.113
 3372SOL    HW111015   1.446   2.964   3.112
 3372SOL    HW211016   1.363   2.828   3.076
 3373SOL     OW11017   1.151   2.635   5.874
 3373SOL    HW111018   1.163   2.681   5.786
 3373SOL    HW211019   1.079   2.681   5.926
 3374SOL     OW11020   3.659   5.931   4.890
 3374SOL    HW111021   3.617   5.954   4.978
 3374SOL    HW211022   3.587   5.922   4.821
 3375SOL     OW11023   3.099   4.107   5.086
 3375SOL    HW111024   3.024   4.044   5.106
 3375SOL    HW211025   3.108   4.117   4.987
 3376SOL     OW11026   3.672   2.976   1.320
 3376SOL    HW111027   3.630   2.909   1.381
 3376SOL    HW211028   3.652   3.068   1.352
 3377SOL     OW11029   2.596   5.301   6.206
 3377SOL    HW111030   2.655   5.221   6.199
 3377SOL    HW211031   2.620   5.353   6.288
 3378SOL     OW11032   6.949   1.118   0.649
 3378SOL    HW111033   6.978   1.034   0.695
 3378SOL    HW211034   6.854   1.108   0.618
 3379SOL     OW11035   5.784   5.240   5.629
 3379SOL    HW111036   5.799   5.141   5.633
 3379SOL    HW211037   5.686   5.259   5.641
 3380SOL     OW11038   0.894   3.841   5.164
 3380SOL    HW111039   0.986   3.812   5.137
 3380SOL    HW211040   0.829   3.768   5.144
 3381SOL     OW11041   2.980   2.128   1.078
 3381SOL    HW111042   2.989   2.028   1.074
 3381SOL    HW211043   2.948   2.163   0.990
 3382SOL     OW11044   6.810   6.942   0.364
 3382SOL    HW111045   6.845   6.849   0.354
 3382SOL    HW211046   6.714   6.940   0.391
 3383SOL     OW11047   0.684   4.202   1.510
 3383SOL    HW111048   0.682   4.142   1.430
 3383SOL    HW211049   0.743   4.163   1.580
 3384SOL     OW11050   3.321   3.762   2.921
 3384SOL    HW111051   3.253   3.786   2.990
 3384SOL    HW211052   3.400   3.719   2.965
 3385SOL     OW11053   6.846   3.867   3.823
 3385SOL    HW111054   6.835   3.907   3.914
 3385SOL    HW211055   6.920   3.800   3.825
 3386SOL     OW11056   5.848   4.462   4.248
 3386SOL    HW111057   5.754   4.497   4.248
 3386SOL    HW211058   5.892   4.488   4.334
 3387SOL     OW11059   3.592   1.552   2.139
 3387SOL    HW111060   3.646   1.477   2.103
 3387SOL    HW211061   3.508   1.515   2.181
 3388SOL     OW11062   5.735   1.704   1.347
 3388SOL    HW111063   5.663   1.635   1.357
 3388SOL    HW211064   5.823   1.659   1.336
 3389SOL     OW11065   4.046   5.586   2.536
 3389SOL    HW111066   3.985   5.581   2.616
 3389SOL    HW211067   3.994   5.614   2.456
 3390SOL     OW11068   4.509   1.715   5.684
 3390SOL    HW111069   4.567   1.656   5.741
 3390SOL    HW211070   4.447   1.658   5.630
 3391SOL     OW11071   2.929   1.743   4.047
 3391SOL    HW111072   2.882   1.815   3.995
 3391SOL    HW211073   2.862   1.694   4.103
 3392SOL     OW11074   5.503   6.111   3.894
 3392SOL    HW111075   5.479   6.206   3.872
 3392SOL    HW211076   5.510   6.058   3.810
 3393SOL     OW11077   6.825   6.893   6.365
 3393SOL    HW111078   6.726   6.910   6.359
 3393SOL    HW211079   6.843   6.828   6.439
 3394SOL     OW11080   5.157   1.655   1.849
 3394SOL    HW111081   5.247   1.614   1.860
 3394SOL    HW211082   5.165   1.755   1.847
 3395SOL     OW11083   1.823   3.824   5.185
 3395SOL    HW111084   1.917   3.855   5.171
 3395SOL    HW211085   1.808   3.807   5.282
 3396SOL     OW11086   6.164   3.756   4.193
 3396SOL    HW111087   6.245   3.772   4.249
 3396SOL    HW211088   6.108   3.684   4.235
 3397SOL     OW11089   3.339   5.750   6.276
 3397SOL    HW111090   3.325   5.653   6.292
 3397SOL    HW211091   3.260   5.787   6.226
 3398SOL     OW11092   0.649   1.482   3.802
 3398SOL    HW111093   0.660   1.424   3.883
 3398SOL    HW211094   0.560   1.466   3.761
 3399SOL     OW11095   4.126   5.638   4.468
 3399SOL    HW111096   4.079   5.550   4.469
 3399SOL    HW211097   4.119   5.678   4.377
 3400SOL     OW11098   5.110   1.896   0.518
 3400SOL    HW111099   5.047   1.971   0.536
 3400SOL    HW211100   5.177   1.890   0.593
 3401SOL     OW11101   6.736   4.839   6.975
 3401SOL    HW111102   6.676   4.851   0.030
 3401SOL    HW211103   6.718   4.750   6.933
 3402SOL     OW11104   4.061   4.757   2.141
 3402SOL    HW111105   3.978   4.797   2.103
 3402SOL    HW211106   4.084   4.673   2.090
 3403SOL     OW11107   3.971   1.822   6.397
 3403SOL    HW111108   3.906   1.746   6.396
 3403SOL    HW211109   3.958   1.876   6.480
 3404SOL     OW11110   4.782   5.822   2.023
 3404SOL    HW111111   4.713   5.894   2.031
 3404SOL    HW211112   4.789   5.774   2.110
 3405SOL     OW11113   6.139   4.241   0.056
 3405SOL    HW111114   6.111   4.288   0.140
 3405SOL    HW211115   6.154   4.144   0.076
 3406SOL     OW11116   1.199   3.042   1.806
 3406SOL    HW111117   1.152   3.114   1.754
 3406SOL    HW211118   1.179   2.953   1.765
 3407SOL     OW11119   0.889   5.670   2.665
 3407SOL    HW111120   0.855   5.620   2.745
 3407SOL    HW211121   0.950   5.743   2.695
 3408SOL     OW11122   5.422   3.631   2.437
 3408SOL    HW111123   5.355   3.617   2.510
 3408SOL    HW211124   5.419   3.726   2.406
 3409SOL     OW11125   2.754   1.343   0.225
 3409SOL    HW111126   2.789   1.333   0.131
 3409SOL    HW211127   2.760   1.439   0.252
 3410SOL     OW11128   0.404   1.759   0.171
 3410SOL    HW111129   0.387   1.834   0.235
 3410SOL    HW211130   0.398   1.794   0.077
 3411SOL     OW11131   4.708   2.045   2.739
 3411SOL    HW111132   4.670   2.118   2.682
 3411SOL    HW211133   4.648   1.965   2.736
 3412SOL     OW11134   4.243   5.168   6.769
 3412SOL    HW111135   4.230   5.093   6.834
 3412SOL    HW211136   4.339   5.195   6.768
 3413SOL     OW11137   5.166   1.242   2.675
 3413SOL    HW111138   5.171   1.189   2.760
 3413SOL    HW211139   5.252   1.290   2.660
 3414SOL     OW11140   3.649   0.478   5.364
 3414SOL    HW111141   3.646   0.529   5.450
 3414SOL    HW211142   3.707   0.526   5.299
 3415SOL     OW11143   2.020   6.137   5.571
 3415SOL    HW111144   2.050   6.073   5.642
 3415SOL    HW211145   2.041   6.230   5.598
 3416SOL     OW11146   1.382   4.489   5.713
 3416SOL    HW111147   1.407   4.493   5.616
 3416SOL    HW211148   1.425   4.565   5.761
 3417SOL     OW11149   5.197   0.871   1.155
 3417SOL    HW111150   5.116   0.826   1.191
 3417SOL    HW211151   5.270   0.869   1.223
 3418SOL     OW11152   2.924   1.756   5.528
 3418SOL    HW111153   2.976   1.677   5.497
 3418SOL    HW211154   2.987   1.829   5.556
 3419SOL     OW11155   4.739   3.521   6.262
 3419SOL    HW111156   4.643   3.495   6.251
 3419SOL    HW211157   4.794   3.476   6.192
 3420SOL     OW11158   2.904   0.649   5.182
 3420SOL    HW111159   2.965   0.652   5.260
 3420SOL    HW211160   2.884   0.742   5.151
 3421SOL     OW11161   0.832   6.753   2.905
 3421SOL    HW111162   0.817   6.689   2.829
 3421SOL    HW211163   0.887   6.709   2.976
 3422SOL     OW11164   3.397   2.061   2.862
 3422SOL    HW111165   3.350   1.987   2.813
 3422SOL    HW211166   3.356   2.071   2.953
 3423SOL     OW11167   3.564   1.031   1.671
 3423SOL    HW111168   3.663   1.017   1.669
 3423SOL    HW211169   3.545   1.125   1.698
 3424SOL     OW11170   4.691   1.555   1.038
 3424SOL    HW111171   4.644   1.543   0.951
 3424SOL    HW211172   4.788   1.535   1.026
 3425SOL     OW11173   4.376   3.895   1.531
 3425SOL    HW111174   4.445   3.967   1.532
 3425SOL    HW211175   4.336   3.887   1.623
 3426SOL     OW11176   4.863   3.810   0.687
 3426SOL    HW111177   4.832   3.811   0.782
 3426SOL    HW211178   4.795   3.855   0.629
 3427SOL     OW11179   0.899   1.771   0.650
 3427SOL    HW111180   0.936   1.712   0.579
 3427SOL    HW211181   0.814   1.732   0.686
 3428SOL     OW11182   4.513   4.584   3.269
 3428SOL    HW111183   4.529   4.680   3.246
 3428SOL    HW211184   4.415   4.570   3.284
 3429SOL     OW11185   0.456   2.908   0.859
 3429SOL    HW111186   0.520   2.848   0.907
 3429SOL    HW211187   0.457   2.887   0.761
 3430SOL     OW11188   0.910   5.283   6.603
 3430SOL    HW111189   0.925   5.372   6.560
 3430SOL    HW211190   0.833   5.237   6.558
 3431SOL     OW11191   1.373   5.896   6.299
 3431SOL    HW111192   1.324   5.821   6.255
 3431SOL    HW211193   1.356   5.981   6.249
 3432SOL     OW11194   3.943   1.887   6.138
 3432SOL    HW111195   3.927   1.874   6.236
 3432SOL    HW211196   3.890   1.966   6.106
 3433SOL     OW11197   3.951   1.370   4.843
 3433SOL    HW111198   3.944   1.454   4.896
 3433SOL    HW211199   3.879   1.369   4.773
 3434SOL     OW11200   4.229   1.700   3.562
 3434SOL    HW111201   4.293   1.741   3.497
 3434SOL    HW211202   4.257   1.606   3.581
 3435SOL     OW11203   0.841   1.130   6.673
 3435SOL    HW111204   0.834   1.172   6.764
 3435SOL    HW211205   0.920   1.167   6.625
 3436SOL     OW11206   4.305   6.462   1.828
 3436SOL    HW111207   4.228   6.523   1.849
 3436SOL    HW211208   4.271   6.370   1.812
 3437SOL     OW11209   3.905   0.124   0.323
 3437SOL    HW111210   3.928   0.043   0.269
 3437SOL    HW211211   3.976   0.193   0.310
 3438SOL     OW11212   0.630   5.226   6.488
 3438SOL    HW111213   0.584   5.295   6.543
 3438SOL    HW211214   0.599   5.135   6.515
 3439SOL     OW11215   2.480   0.466   3.914
 3439SOL    HW111216   2.486   0.558   3.876
 3439SOL    HW211217   2.565   0.445   3.963
 3440SOL     OW11218   3.595   2.034   0.646
 3440SOL    HW111219   3.512   2.014   0.593
 3440SOL    HW211220   3.634   2.120   0.614
 3441SOL     OW11221   4.613   0.540   4.156
 3441SOL    HW111222   4.545   0.533   4.229
 3441SOL    HW211223   4.685   0.473   4.171
 3442SOL     OW11224   0.698   5.352   3.086
 3442SOL    HW111225   0.614   5.363   3.139
 3442SOL    HW211226   0.725   5.256   3.087
 3443SOL     OW11227   5.613   6.698   4.183
 3443SOL    HW111228   5.673   6.671   4.108
 3443SOL    HW211229   5.606   6.622   4.249
 3444SOL     OW11230   3.892   5.419   6.968
 3444SOL    HW111231   3.793   5.405   6.960
 3444SOL    HW211232   3.910   5.512   6.999
 3445SOL     OW11233   6.149   5.095   5.338
 3445SOL    HW111234   6.173   5.051   5.252
 3445SOL    HW211235   6.171   5.192   5.333
 3446SOL     OW11236   2.301   6.198   1.813
 3446SOL    HW111237   2.250   6.214   1.728
 3446SOL    HW211238   2.355   6.278   1.836
 3447SOL     OW11239   6.072   4.584   5.498
 3447SOL    HW111240   6.048   4.668   5.448
 3447SOL    HW211241   6.128   4.608   5.577
 3448SOL     OW11242   4.101   3.184   0.365
 3448SOL    HW111243   4.106   3.232   0.453
 3448SOL    HW211244   4.034   3.110   0.371
 3449SOL     OW11245   6.185   6.339   3.151
 3449SOL    HW111246   6.248   6.416   3.156
 3449SOL    HW211247   6.235   6.257   3.122
 3450SOL     OW11248   0.480   2.020   0.923
 3450SOL    HW111249   0.434   2.100   0.963
 3450SOL    HW211250   0.513   2.044   0.831
 3451SOL     OW11251   1.980   4.897   4.393
 3451SOL    HW111252   1.953   4.849   4.310
 3451SOL    HW211253   1.962   4.839   4.472
 3452SOL     OW11254   6.494   2.035   0.781
 3452SOL    HW111255   6.408   2.013   0.827
 3452SOL    HW211256   6.545   2.101   0.836
 3453SOL     OW11257   6.040   5.427   5.049
 3453SOL    HW111258   6.086   5.381   4.973
 3453SOL    HW211259   5.951   5.384   5.065
 3454SOL     OW11260   0.251   1.225   0.661
 3454SOL    HW111261   0.170   1.178   0.696
 3454SOL    HW211262   0.273   1.302   0.721
 3455SOL     OW11263   1.178   2.879   3.299
 3455SOL    HW111264   1.242   2.851   3.228
 3455SOL    HW211265   1.088   2.896   3.258
 3456SOL     OW11266   6.030   0.441   0.430
 3456SOL    HW111267   5.997   0.395   0.513
 3456SOL    HW211268   6.025   0.540   0.442
 3457SOL     OW11269   1.713   6.579   3.354
 3457SOL    HW111270   1.792   6.617   3.402
 3457SOL    HW211271   1.740   6.498   3.303
 3458SOL     OW11272   4.952   5.269   0.219
 3458SOL    HW111273   4.860   5.304   0.232
 3458SOL    HW211274   4.987   5.298   0.130
 3459SOL     OW11275   6.276   0.221   3.162
 3459SOL    HW111276   6.204   0.170   3.210
 3459SOL    HW211277   6.321   0.283   3.225
 3460SOL     OW11278   4.272   2.962   0.705
 3460SOL    HW111279   4.366   2.929   0.705
 3460SOL    HW211280   4.264   3.041   0.766
 3461SOL     OW11281   2.591   5.910   3.479
 3461SOL    HW111282   2.618   5.828   3.529
 3461SOL    HW211283   2.634   5.990   3.520
 3462SOL     OW11284   4.826   2.586   2.615
 3462SOL    HW111285   4.905   2.640   2.586
 3462SOL    HW211286   4.857   2.498   2.651
 3463SOL     OW11287   1.075   3.402   1.129
 3463SOL    HW111288   1.070   3.302   1.131
 3463SOL    HW211289   0.987   3.440   1.154
 3464SOL     OW11290   5.364   1.306   6.329
 3464SOL    HW111291   5.404   1.227   6.376
 3464SOL    HW211292   5.435   1.375   6.315
 3465SOL     OW11293   2.307   4.475   1.365
 3465SOL    HW111294   2.352   4.549   1.416
 3465SOL    HW211295   2.208   4.482   1.378
 3466SOL     OW11296   6.558   3.919   4.269
 3466SOL    HW111297   6.487   3.877   4.325
 3466SOL    HW211298   6.517   3.964   4.190
 3467SOL     OW11299   3.724   3.324   0.285
 3467SOL    HW111300   3.721   3.326   0.385
 3467SOL    HW211301   3.724   3.229   0.254
 3468SOL     OW11302   4.357   1.322   1.748
 3468SOL    HW111303   4.316   1.347   1.660
 3468SOL    HW211304   4.369   1.405   1.803
 3469SOL     OW11305   4.046   5.598   5.126
 3469SOL    HW111306   3.994   5.668   5.077
 3469SOL    HW211307   4.001   5.578   5.214
 3470SOL     OW11308   1.223   2.934   0.731
 3470SOL    HW111309   1.252   3.020   0.689
 3470SOL    HW211310   1.303   2.877   0.749
 3471SOL     OW11311   5.210   3.187   4.734
 3471SOL    HW111312   5.225   3.091   4.711
 3471SOL    HW211313   5.245   3.245   4.661
 3472SOL     OW11314   4.804   1.853   2.385
 3472SOL    HW111315   4.715   1.897   2.394
 3472SOL    HW211316   4.845   1.878   2.297
 3473SOL     OW11317   6.090   4.583   1.956
 3473SOL    HW111318   6.048   4.664   1.915
 3473SOL    HW211319   6.184   4.574   1.923
 3474SOL     OW11320   5.083   3.847   3.560
 3474SOL    HW111321   5.027   3.891   3.490
 3474SOL    HW211322   5.024   3.797   3.623
 3475SOL     OW11323   0.020   4.147   4.254
 3475SOL    HW111324   6.950   4.123   4.280
 3475SOL    HW211325   0.079   4.146   4.335
 3476SOL     OW11326   2.123   2.752   3.373
 3476SOL    HW111327   2.106   2.703   3.458
 3476SOL    HW211328   2.209   2.802   3.380
 3477SOL     OW11329   1.123   4.205   1.729
 3477SOL    HW111330   1.163   4.296   1.741
 3477SOL    HW211331   1.114   4.160   1.817
 3478SOL     OW11332   2.787   0.507   1.711
 3478SOL    HW111333   2.721   0.466   1.649
 3478SOL    HW211334   2.821   0.593   1.672
 3479SOL     OW11335   1.143   4.416   5.418
 3479SOL    HW111336   1.153   4.318   5.401
 3479SOL    HW211337   1.125   4.432   5.515
 3480SOL     OW11338   1.145   4.834   6.585
 3480SOL    HW111339   1.052   4.812   6.616
 3480SOL    HW211340   1.183   4.905   6.644
 3481SOL     OW11341   6.043   0.899   4.727
 3481SOL    HW111342   6.034   0.900   4.627
 3481SOL    HW211343   6.127   0.852   4.753
 3482SOL     OW11344   6.254   2.726   6.437
 3482SOL    HW111345   6.304   2.813   6.445
 3482SOL    HW211346   6.165   2.734   6.482
 3483SOL     OW11347   5.223   2.488   4.817
 3483SOL    HW111348   5.180   2.573   4.788
 3483SOL    HW211349   5.234   2.489   4.917
 3484SOL     OW11350   1.031   2.853   4.567
 3484SOL    HW111351   1.056   2.793   4.643
 3484SOL    HW211352   0.972   2.927   4.601
 3485SOL     OW11353   6.510   4.069   6.860
 3485SOL    HW111354   6.435   4.033   6.805
 3485SOL    HW211355   6.575   4.116   6.801
 3486SOL     OW11356   1.541   6.584   5.057
 3486SOL    HW111357   1.536   6.551   5.151
 3486SOL    HW211358   1.637   6.601   5.033
 3487SOL     OW11359   4.376   1.592   6.678
 3487SOL    HW111360   4.463   1.565   6.719
 3487SOL    HW211361   4.300   1.556   6.731
 3488SOL     OW11362   4.887   6.627   5.032
 3488SOL    HW111363   4.984   6.609   5.015
 3488SOL    HW211364   4.850   6.554   5.089
 3489SOL     OW11365   3.528   6.320   0.631
 3489SOL    HW111366   3.512   6.254   0.704
 3489SOL    HW211367   3.508   6.412   0.664
 3490SOL     OW11368   3.948   6.889   0.802
 3490SOL    HW111369   3.850   6.874   0.794
 3490SOL    HW211370   3.983   6.933   0.719
 3491SOL     OW11371   4.621   4.601   5.657
 3491SOL    HW111372   4.655   4.511   5.684
 3491SOL    HW211373   4.626   4.663   5.736
 3492SOL     OW11374   5.640   3.636   3.602
 3492SOL    HW111375   5.599   3.647   3.512
 3492SOL    HW211376   5.568   3.625   3.670
 3493SOL     OW11377   0.095   3.647   5.522
 3493SOL    HW111378   0.059   3.713   5.456
 3493SOL    HW211379   0.030   3.572   5.533
 3494SOL     OW11380   4.231   1.366   2.325
 3494SOL    HW111381   4.188   1.284   2.362
 3494SOL    HW211382   4.199   1.446   2.376
 3495SOL     OW11383   1.826   3.717   3.805
 3495SOL    HW111384   1.775   3.642   3.848
 3495SOL    HW211385   1.762   3.786   3.773
 3496SOL     OW11386   6.156   5.264   1.145
 3496SOL    HW111387   6.121   5.344   1.095
 3496SOL    HW211388   6.208   5.295   1.225
 3497SOL     OW11389   3.442   0.252   1.566
 3497SOL    HW111390   3.432   0.291   1.474
 3497SOL    HW211391   3.487   0.318   1.625
 3498SOL     OW11392   2.600   2.639   1.203
 3498SOL    HW111393   2.688   2.593   1.216
 3498SOL    HW211394   2.596   2.721   1.259
 3499SOL     OW11395   5.625   6.863   4.794
 3499SOL    HW111396   5.711   6.878   4.842
 3499SOL    HW211397   5.570   6.946   4.797
 3500SOL     OW11398   2.975   2.186   3.849
 3500SOL    HW111399   3.011   2.093   3.844
 3500SOL    HW211400   3.021   2.243   3.781
 3501SOL     OW11401   1.622   6.928   6.116
 3501SOL    HW111402   1.567   6.894   6.192
 3501SOL    HW211403   1.600   0.000   6.099
 3502SOL     OW11404   5.468   2.350   2.031
 3502SOL    HW111405   5.424   2.440   2.031
 3502SOL    HW211406   5.399   2.279   2.043
 3503SOL     OW11407   0.722   5.930   6.366
 3503SOL    HW111408   0.690   5.850   6.316
 3503SOL    HW211409   0.814   5.954   6.335
 3504SOL     OW11410   2.066   1.091   6.798
 3504SOL    HW111411   2.099   1.148   6.873
 3504SOL    HW211412   2.046   0.999   6.832
 3505SOL     OW11413   5.256   2.887   5.229
 3505SOL    HW111414   5.239   2.846   5.319
 3505SOL    HW211415   5.192   2.849   5.163
 3506SOL     OW11416   4.203   4.802   4.975
 3506SOL    HW111417   4.156   4.825   5.060
 3506SOL    HW211418   4.228   4.706   4.976
 3507SOL     OW11419   3.038   1.667   1.193
 3507SOL    HW111420   3.059   1.599   1.263
 3507SOL    HW211421   3.106   1.740   1.197
 3508SOL     OW11422   3.933   1.366   6.542
 3508SOL    HW111423   3.848   1.314   6.552
 3508SOL    HW211424   3.917   1.443   6.479
 3509SOL     OW11425   4.431   5.541   6.668
 3509SOL    HW111426   4.390   5.583   6.749
 3509SOL    HW211427   4.531   5.547   6.675
 3510SOL     OW11428   2.475   1.522   1.193
 3510SOL    HW111429   2.511   1.473   1.272
 3510SOL    HW211430   2.542   1.520   1.119
 3511SOL     OW11431   2.690   4.805   1.880
 3511SOL    HW111432   2.701   4.757   1.793
 3511SOL    HW211433   2.752   4.765   1.948
 3512SOL     OW11434   6.777   5.105   6.213
 3512SOL    HW111435   6.699   5.061   6.256
 3512SOL    HW211436   6.843   5.133   6.283
 3513SOL     OW11437   5.376   1.386   0.017
 3513SOL    HW111438   5.407   1.457   6.978
 3513SOL    HW211439   5.438   1.308   0.014
 3514SOL     OW11440   3.100   1.737   2.090
 3514SOL    HW111441   3.124   1.735   1.993
 3514SOL    HW211442   3.181   1.761   2.143
 3515SOL     OW11443   0.322   4.112   3.979
 3515SOL    HW111444   0.390   4.158   3.922
 3515SOL    HW211445   0.294   4.026   3.936
 3516SOL     OW11446   4.399   0.635   1.187
 3516SOL    HW111447   4.398   0.695   1.107
 3516SOL    HW211448   4.333   0.668   1.254
 3517SOL     OW11449   4.812   1.043   2.109
 3517SOL    HW111450   4.781   1.111   2.175
 3517SOL    HW211451   4.757   1.051   2.025
 3518SOL     OW11452   6.120   1.586   5.457
 3518SOL    HW111453   6.068   1.552   5.535
 3518SOL    HW211454   6.068   1.571   5.373
 3519SOL     OW11455   3.355   1.411   1.460
 3519SOL    HW111456   3.446   1.439   1.491
 3519SOL    HW211457   3.312   1.354   1.531
 3520SOL     OW11458   2.298   6.081   4.364
 3520SOL    HW111459   2.308   6.036   4.453
 3520SOL    HW211460   2.223   6.039   4.313
 3521SOL     OW11461   2.499   2.673   6.275
 3521SOL    HW111462   2.549   2.609   6.216
 3521SOL    HW211463   2.560   2.746   6.304
 3522SOL     OW11464   1.162   6.138   6.524
 3522SOL    HW111465   1.208   6.077   6.588
 3522SOL    HW211466   1.230   6.186   6.469
 3523SOL     OW11467   3.470   5.605   0.109
 3523SOL    HW111468   3.428   5.519   0.081
 3523SOL    HW211469   3.569   5.597   0.103
 3524SOL     OW11470   4.525   0.877   3.959
 3524SOL    HW111471   4.493   0.802   3.901
 3524SOL    HW211472   4.460   0.953   3.953
 3525SOL     OW11473   0.146   3.039   3.702
 3525SOL    HW111474   0.166   3.136   3.690
 3525SOL    HW211475   0.217   2.985   3.656
 3526SOL     OW11476   0.312   6.710   1.552
 3526SOL    HW111477   0.377   6.779   1.520
 3526SOL    HW211478   0.327   6.692   1.649
 3527SOL     OW11479   6.312   3.015   0.282
 3527SOL    HW111480   6.408   3.010   0.257
 3527SOL    HW211481   6.260   3.054   0.206
 3528SOL     OW11482   2.612   4.898   4.981
 3528SOL    HW111483   2.636   4.992   4.956
 3528SOL    HW211484   2.643   4.880   5.074
 3529SOL     OW11485   4.560   4.394   0.213
 3529SOL    HW111486   4.660   4.392   0.205
 3529SOL    HW211487   4.525   4.301   0.211
 3530SOL     OW11488   6.488   0.508   1.009
 3530SOL    HW111489   6.553   0.555   0.949
 3530SOL    HW211490   6.532   0.426   1.047
 3531SOL     OW11491   4.620   2.061   0.454
 3531SOL    HW111492   4.546   1.993   0.456
 3531SOL    HW211493   4.646   2.079   0.360
 3532SOL     OW11494   2.310   0.698   1.316
 3532SOL    HW111495   2.362   0.778   1.345
 3532SOL    HW211496   2.218   0.726   1.287
 3533SOL     OW11497   2.054   2.771   2.965
 3533SOL    HW111498   2.005   2.858   2.962
 3533SOL    HW211499   2.006   2.708   3.027
 3534SOL     OW11500   0.635   1.454   0.836
 3534SOL    HW111501   0.661   1.407   0.752
 3534SOL    HW211502   0.570   1.398   0.887
 3535SOL     OW11503   3.888   6.854   3.480
 3535SOL    HW111504   3.809   6.801   3.448
 3535SOL    HW211505   3.892   6.941   3.431
 3536SOL     OW11506   4.102   1.898   4.019
 3536SOL    HW111507   4.153   1.881   3.935
 3536SOL    HW211508   4.025   1.834   4.025
 3537SOL     OW11509   1.791   6.415   2.894
 3537SOL    HW111510   1.758   6.504   2.862
 3537SOL    HW211511   1.717   6.348   2.885
 3538SOL     OW11512   3.297   5.816   1.581
 3538SOL    HW111513   3.317   5.731   1.532
 3538SOL    HW211514   3.202   5.813   1.614
 3539SOL     OW11515   3.403   3.749   4.315
 3539SOL    HW111516   3.310   3.785   4.322
 3539SOL    HW211517   3.443   3.741   4.407
 3540SOL     OW11518   1.712   2.398   2.895
 3540SOL    HW111519   1.760   2.355   2.818
 3540SOL    HW211520   1.679   2.327   2.957
 3541SOL     OW11521   3.714   4.116   4.533
 3541SOL    HW111522   3.692   4.121   4.436
 3541SOL    HW211523   3.634   4.143   4.587
 3542SOL     OW11524   6.960   5.400   1.610
 3542SOL    HW111525   0.022   5.366   1.571
 3542SOL    HW211526   6.977   5.486   1.658
 3543SOL     OW11527   5.321   2.221   4.475
 3543SOL    HW111528   5.341   2.169   4.559
 3543SOL    HW211529   5.259   2.296   4.497
 3544SOL     OW11530   3.142   6.864   6.654
 3544SOL    HW111531   3.133   6.952   6.701
 3544SOL    HW211532   3.079   6.862   6.576
 3545SOL     OW11533   3.198   5.446   0.504
 3545SOL    HW111534   3.110   5.400   0.508
 3545SOL    HW211535   3.261   5.405   0.571
 3546SOL     OW11536   1.068   4.477   2.669
 3546SOL    HW111537   1.078   4.546   2.597
 3546SOL    HW211538   0.986   4.423   2.651
 3547SOL     OW11539   5.160   4.462   4.431
 3547SOL    HW111540   5.106   4.435   4.352
 3547SOL    HW211541   5.119   4.543   4.474
 3548SOL     OW11542   5.472   3.151   5.818
 3548SOL    HW111543   5.459   3.249   5.831
 3548SOL    HW211544   5.383   3.105   5.821
 3549SOL     OW11545   5.026   3.202   2.164
 3549SOL    HW111546   4.952   3.176   2.101
 3549SOL    HW211547   4.995   3.189   2.258
 3550SOL     OW11548   5.286   1.618   3.656
 3550SOL    HW111549   5.193   1.651   3.641
 3550SOL    HW211550   5.291   1.521   3.634
 3551SOL     OW11551   1.865   0.249   2.403
 3551SOL    HW111552   1.923   0.260   2.484
 3551SOL    HW211553   1.830   0.338   2.375
 3552SOL     OW11554   6.439   4.546   3.397
 3552SOL    HW111555   6.516   4.514   3.452
 3552SOL    HW211556   6.372   4.473   3.388
 3553SOL     OW11557   5.853   1.840   3.490
 3553SOL    HW111558   5.785   1.841   3.417
 3553SOL    HW211559   5.927   1.904   3.468
 3554SOL     OW11560   4.148   5.421   6.870
 3554SOL    HW111561   4.057   5.419   6.910
 3554SOL    HW211562   4.172   5.330   6.836
 3555SOL     OW11563   0.959   2.214   4.072
 3555SOL    HW111564   1.051   2.221   4.034
 3555SOL    HW211565   0.936   2.118   4.087
 3556SOL     OW11566   4.517   1.475   6.153
 3556SOL    HW111567   4.499   1.478   6.251
 3556SOL    HW211568   4.535   1.567   6.120
 3557SOL     OW11569   1.176   0.434   4.001
 3557SOL    HW111570   1.152   0.525   3.966
 3557SOL    HW211571   1.108   0.405   4.068
 3558SOL     OW11572   0.507   6.690   1.171
 3558SOL    HW111573   0.582   6.724   1.227
 3558SOL    HW211574   0.425   6.745   1.189
 3559SOL     OW11575   0.600   0.257   6.075
 3559SOL    HW111576   0.681   0.286   6.126
 3559SOL    HW211577   0.523   0.316   6.100
 3560SOL     OW11578   6.719   6.838   1.838
 3560SOL    HW111579   6.773   6.795   1.766
 3560SOL    HW211580   6.704   6.934   1.816
 3561SOL     OW11581   5.480   4.685   3.733
 3561SOL    HW111582   5.445   4.673   3.640
 3561SOL    HW211583   5.556   4.621   3.749
 3562SOL     OW11584   4.341   2.060   2.528
 3562SOL    HW111585   4.268   2.020   2.583
 3562SOL    HW211586   4.304   2.134   2.472
 3563SOL     OW11587   4.359   6.566   1.567
 3563SOL    HW111588   4.278   6.604   1.521
 3563SOL    HW211589   4.332   6.525   1.654
 3564SOL     OW11590   6.336   4.372   2.249
 3564SOL    HW111591   6.265   4.307   2.221
 3564SOL    HW211592   6.297   4.443   2.307
 3565SOL     OW11593   0.733   0.646   5.390
 3565SOL    HW111594   0.813   0.697   5.358
 3565SOL    HW211595   0.665   0.711   5.424
 3566SOL     OW11596   0.710   4.738   6.147
 3566SOL    HW111597   0.731   4.787   6.063
 3566SOL    HW211598   0.782   4.755   6.215
 3567SOL     OW11599   6.887   2.376   0.981
 3567SOL    HW111600   6.799   2.406   0.944
 3567SOL    HW211601   6.893   2.404   1.077
 3568SOL     OW11602   4.946   4.061   3.721
 3568SOL    HW111603   4.990   4.151   3.731
 3568SOL    HW211604   4.872   4.067   3.654
 3569SOL     OW11605   4.121   3.413   3.709
 3569SOL    HW111606   4.193   3.478   3.683
 3569SOL    HW211607   4.156   3.320   3.699
 3570SOL     OW11608   0.267   2.393   5.605
 3570SOL    HW111609   0.225   2.318   5.554
 3570SOL    HW211610   0.355   2.417   5.562
 3571SOL     OW11611   2.914   6.992   4.642
 3571SOL    HW111612   2.930   0.001   4.735
 3571SOL    HW211613   2.839   6.926   4.642
 3572SOL     OW11614   5.074   4.385   2.687
 3572SOL    HW111615   5.171   4.406   2.670
 3572SOL    HW211616   5.030   4.463   2.732
 3573SOL     OW11617   0.265   4.830   3.945
 3573SOL    HW111618   0.348   4.828   4.002
 3573SOL    HW211619   0.214   4.914   3.964
 3574SOL     OW11620   2.079   1.765   5.925
 3574SOL    HW111621   2.065   1.668   5.941
 3574SOL    HW211622   2.154   1.778   5.859
 3575SOL     OW11623   4.834   0.366   6.412
 3575SOL    HW111624   4.859   0.325   6.324
 3575SOL    HW211625   4.737   0.391   6.410
 3576SOL     OW11626   0.781   2.752   0.705
 3576SOL    HW111627   0.821   2.663   0.683
 3576SOL    HW211628   0.854   2.816   0.729
 3577SOL     OW11629   2.139   3.588   4.571
 3577SOL    HW111630   2.074   3.602   4.646
 3577SOL    HW211631   2.101   3.625   4.486
 3578SOL     OW11632   4.593   2.275   0.611
 3578SOL    HW111633   4.598   2.186   0.564
 3578SOL    HW211634   4.511   2.324   0.580
 3579SOL     OW11635   0.814   3.361   2.217
 3579SOL    HW111636   0.893   3.312   2.254
 3579SOL    HW211637   0.801   3.335   2.121
 3580SOL     OW11638   6.480   4.091   2.105
 3580SOL    HW111639   6.489   4.149   2.186
 3580SOL    HW211640   6.465   4.148   2.025
 3581SOL     OW11641   1.596   0.256   2.901
 3581SOL    HW111642   1.615   0.310   2.983
 3581SOL    HW211643   1.683   0.225   2.862
 3582SOL     OW11644   4.888   6.296   6.675
 3582SOL    HW111645   4.951   6.373   6.668
 3582SOL    HW211646   4.933   6.219   6.719
 3583SOL     OW11647   1.870   6.249   0.485
 3583SOL    HW111648   1.791   6.216   0.538
 3583SOL    HW211649   1.950   6.254   0.544
 3584SOL     OW11650   5.532   4.916   4.808
 3584SOL    HW111651   5.480   5.001   4.799
 3584SOL    HW211652   5.470   4.838   4.797
 3585SOL     OW11653   4.299   2.264   3.859
 3585SOL    HW111654   4.336   2.342   3.809
 3585SOL    HW211655   4.248   2.206   3.796
 3586SOL     OW11656   6.574   2.663   5.294
 3586SOL    HW111657   6.527   2.751   5.301
 3586SOL    HW211658   6.668   2.678   5.265
 3587SOL     OW11659   2.399   0.464   6.219
 3587SOL    HW111660   2.375   0.377   6.263
 3587SOL    HW211661   2.460   0.516   6.279
 3588SOL     OW11662   6.121   3.730   3.915
 3588SOL    HW111663   6.079   3.640   3.902
 3588SOL    HW211664   6.148   3.741   4.010
 3589SOL     OW11665   0.093   0.922   6.230
 3589SOL    HW111666   0.113   0.843   6.288
 3589SOL    HW211667   0.126   0.904   6.137
 3590SOL     OW11668   6.009   5.061   5.944
 3590SOL    HW111669   5.978   5.051   6.039
 3590SOL    HW211670   5.946   5.013   5.884
 3591SOL     OW11671   4.716   1.449   0.638
 3591SOL    HW111672   4.661   1.502   0.703
 3591SOL    HW211673   4.669   1.364   0.616
 3592SOL     OW11674   0.766   6.359   1.083
 3592SOL    HW111675   0.700   6.375   1.157
 3592SOL    HW211676   0.841   6.424   1.090
 3593SOL     OW11677   4.035   3.394   5.693
 3593SOL    HW111678   4.031   3.346   5.781
 3593SOL    HW211679   3.978   3.476   5.697
 3594SOL     OW11680   4.565   4.431   5.198
 3594SOL    HW111681   4.604   4.369   5.131
 3594SOL    HW211682   4.466   4.439   5.184
 3595SOL     OW11683   4.751   0.097   5.775
 3595SOL    HW111684   4.783   0.017   5.827
 3595SOL    HW211685   4.798   0.179   5.808
 3596SOL     OW11686   3.384   1.505   1.842
 3596SOL    HW111687   3.472   1.550   1.860
 3596SOL    HW211688   3.313   1.574   1.828
 3597SOL     OW11689   4.143   4.614   5.301
 3597SOL    HW111690   4.190   4.538   5.258
 3597SOL    HW211691   4.060   4.580   5.346
 3598SOL     OW11692   6.610   5.685   4.147
 3598SOL    HW111693   6.707   5.675   4.124
 3598SOL    HW211694   6.587   5.782   4.153
 3599SOL     OW11695   2.158   1.030   5.371
 3599SOL    HW111696   2.092   1.053   5.299
 3599SOL    HW211697   2.185   0.935   5.361
 3600SOL     OW11698   2.130   4.055   1.151
 3600SOL    HW111699   2.192   4.012   1.085
 3600SOL    HW211700   2.059   4.105   1.102
 3601SOL     OW11701   3.220   0.195   5.001
 3601SOL    HW111702   3.260   0.109   5.032
 3601SOL    HW211703   3.162   0.233   5.074
 3602SOL     OW11704   1.546   2.140   0.644
 3602SOL    HW111705   1.475   2.182   0.700
 3602SOL    HW211706   1.593   2.069   0.697
 3603SOL     OW11707   1.323   6.653   6.054
 3603SOL    HW111708   1.258   6.729   6.047
 3603SOL    HW211709   1.363   6.651   6.146
 3604SOL     OW11710   0.139   1.115   4.536
 3604SOL    HW111711   0.044   1.145   4.532
 3604SOL    HW211712   0.155   1.064   4.620
 3605SOL     OW11713   1.295   0.077   4.728
 3605SOL    HW111714   1.394   0.068   4.727
 3605SOL    HW211715   1.257   0.032   4.646
 3606SOL     OW11716   1.953   6.945   3.133
 3606SOL    HW111717   1.883   6.877   3.156
 3606SOL    HW211718   2.033   6.931   3.191
 3607SOL     OW11719   5.904   1.681   4.346
 3607SOL    HW111720   5.921   1.778   4.360
 3607SOL    HW211721   5.949   1.651   4.261
 3608SOL     OW11722   3.994   1.765   5.422
 3608SOL    HW111723   3.927   1.838   5.409
 3608SOL    HW211724   4.085   1.800   5.398
 3609SOL     OW11725   2.865   6.804   5.002
 3609SOL    HW111726   2.946   6.806   4.944
 3609SOL    HW211727   2.839   6.709   5.020
 3610SOL     OW11728   1.249   0.217   6.019
 3610SOL    HW111729   1.314   0.253   6.086
 3610SOL    HW211730   1.185   0.155   6.065
 3611SOL     OW11731   5.342   3.387   2.758
 3611SOL    HW111732   5.276   3.385   2.833
 3611SOL    HW211733   5.299   3.427   2.677
 3612SOL     OW11734   4.894   1.398   0.888
 3612SOL    HW111735   4.886   1.413   0.789
 3612SOL    HW211736   4.940   1.311   0.905
 3613SOL     OW11737   4.079   0.627   2.746
 3613SOL    HW111738   4.001   0.656   2.802
 3613SOL    HW211739   4.046   0.574   2.668
 3614SOL     OW11740   3.328   5.810   0.226
 3614SOL    HW111741   3.385   5.734   0.194
 3614SOL    HW211742   3.293   5.861   0.148
 3615SOL     OW11743   5.771   2.508   4.809
 3615SOL    HW111744   5.772   2.570   4.888
 3615SOL    HW211745   5.678   2.502   4.773
 3616SOL     OW11746   1.614   1.164   1.138
 3616SOL    HW111747   1.648   1.135   1.048
 3616SOL    HW211748   1.686   1.151   1.206
 3617SOL     OW11749   4.169   5.172   4.791
 3617SOL    HW111750   4.232   5.197   4.718
 3617SOL    HW211751   4.159   5.250   4.854
 3618SOL     OW11752   1.161   5.249   4.287
 3618SOL    HW111753   1.177   5.192   4.367
 3618SOL    HW211754   1.062   5.255   4.270
 3619SOL     OW11755   0.180   2.104   2.108
 3619SOL    HW111756   0.158   2.036   2.038
 3619SOL    HW211757   0.278   2.098   2.130
 3620SOL     OW11758   4.712   6.382   5.733
 3620SOL    HW111759   4.757   6.450   5.676
 3620SOL    HW211760   4.614   6.400   5.735
 3621SOL     OW11761   3.411   3.015   3.075
 3621SOL    HW111762   3.343   3.003   3.147
 3621SOL    HW211763   3.483   2.946   3.085
 3622SOL     OW11764   2.363   5.816   6.295
 3622SOL    HW111765   2.282   5.813   6.236
 3622SOL    HW211766   2.433   5.873   6.252
 3623SOL     OW11767   1.969   5.933   5.801
 3623SOL    HW111768   1.918   5.886   5.873
 3623SOL    HW211769   1.911   6.005   5.761
 3624SOL     OW11770   2.653   1.933   2.694
 3624SOL    HW111771   2.593   1.944   2.615
 3624SOL    HW211772   2.741   1.894   2.665
 3625SOL     OW11773   6.292   1.675   1.245
 3625SOL    HW111774   6.319   1.670   1.341
 3625SOL    HW211775   6.244   1.761   1.228
 3626SOL     OW11776   0.631   3.307   5.767
 3626SOL    HW111777   0.656   3.350   5.854
 3626SOL    HW211778   0.536   3.327   5.745
 3627SOL     OW11779   3.186   1.375   2.710
 3627SOL    HW111780   3.191   1.371   2.810
 3627SOL    HW211781   3.090   1.371   2.681
 3628SOL     OW11782   0.119   1.134   1.707
 3628SOL    HW111783   0.193   1.125   1.640
 3628SOL    HW211784   0.039   1.084   1.675
 3629SOL     OW11785   1.674   0.848   4.557
 3629SOL    HW111786   1.600   0.849   4.491
 3629SOL    HW211787   1.641   0.809   4.643
 3630SOL     OW11788   6.921   1.757   2.638
 3630SOL    HW111789   6.863   1.684   2.676
 3630SOL    HW211790   6.871   1.843   2.639
 3631SOL     OW11791   2.110   5.147   2.460
 3631SOL    HW111792   2.169   5.195   2.394
 3631SOL    HW211793   2.015   5.173   2.445
 3632SOL     OW11794   5.054   3.014   2.591
 3632SOL    HW111795   5.079   3.067   2.671
 3632SOL    HW211796   5.129   3.015   2.525
 3633SOL     OW11797   4.733   5.120   6.004
 3633SOL    HW111798   4.781   5.047   6.053
 3633SOL    HW211799   4.655   5.151   6.059
 3634SOL     OW11800   2.947   5.221   6.546
 3634SOL    HW111801   2.889   5.262   6.616
 3634SOL    HW211802   2.890   5.185   6.472
 3635SOL     OW11803   1.738   6.639   2.775
 3635SOL    HW111804   1.711   6.698   2.699
 3635SOL    HW211805   1.824   6.594   2.754
 3636SOL     OW11806   6.824   6.389   4.437
 3636SOL    HW111807   6.838   6.330   4.357
 3636SOL    HW211808   6.912   6.410   4.479
 3637SOL     OW11809   5.516   2.305   6.751
 3637SOL    HW111810   5.466   2.384   6.714
 3637SOL    HW211811   5.476   2.280   6.839
 3638SOL     OW11812   0.543   2.599   3.796
 3638SOL    HW111813   0.597   2.683   3.794
 3638SOL    HW211814   0.571   2.543   3.874
 3639SOL     OW11815   3.664   3.312   4.180
 3639SOL    HW111816   3.711   3.385   4.132
 3639SOL    HW211817   3.565   3.328   4.177
 3640SOL     OW11818   4.505   1.809   2.674
 3640SOL    HW111819   4.509   1.709   2.676
 3640SOL    HW211820   4.425   1.838   2.623
 3641SOL     OW11821   0.113   3.351   1.436
 3641SOL    HW111822   0.145   3.306   1.353
 3641SOL    HW211823   0.083   3.444   1.414
 3642SOL     OW11824   3.983   4.572   6.387
 3642SOL    HW111825   3.990   4.672   6.388
 3642SOL    HW211826   3.922   4.544   6.312
 3643SOL     OW11827   4.565   5.159   4.767
 3643SOL    HW111828   4.638   5.154   4.835
 3643SOL    HW211829   4.504   5.080   4.778
 3644SOL     OW11830   3.457   1.752   1.486
 3644SOL    HW111831   3.358   1.738   1.497
 3644SOL    HW211832   3.476   1.782   1.392
 3645SOL     OW11833   1.492   3.560   3.940
 3645SOL    HW111834   1.583   3.559   3.982
 3645SOL    HW211835   1.425   3.526   4.006
 3646SOL     OW11836   2.871   4.923   5.355
 3646SOL    HW111837   2.822   5.008   5.335
 3646SOL    HW211838   2.808   4.846   5.352
 3647SOL     OW11839   3.693   0.690   0.785
 3647SOL    HW111840   3.667   0.721   0.877
 3647SOL    HW211841   3.700   0.591   0.785
 3648SOL     OW11842   5.763   5.444   3.756
 3648SOL    HW111843   5.747   5.434   3.658
 3648SOL    HW211844   5.743   5.358   3.803
 3649SOL     OW11845   5.305   3.048   0.030
 3649SOL    HW111846   5.298   3.044   6.954
 3649SOL    HW211847   5.342   3.137   0.056
 3650SOL     OW11848   5.225   6.500   0.117
 3650SOL    HW111849   5.293   6.558   0.071
 3650SOL    HW211850   5.135   6.516   0.077
 3651SOL     OW11851   0.960   1.682   5.766
 3651SOL    HW111852   0.891   1.732   5.817
 3651SOL    HW211853   0.934   1.679   5.669
 3652SOL     OW11854   6.019   2.143   2.542
 3652SOL    HW111855   6.043   2.221   2.601
 3652SOL    HW211856   6.078   2.066   2.564
 3653SOL     OW11857   1.905   1.702   0.357
 3653SOL    HW111858   2.001   1.711   0.329
 3653SOL    HW211859   1.901   1.664   0.449
 3654SOL     OW11860   4.004   6.175   0.668
 3654SOL    HW111861   3.942   6.100   0.691
 3654SOL    HW211862   4.095   6.155   0.705
 3655SOL     OW11863   1.095   7.021   3.856
 3655SOL    HW111864   1.141   0.020   3.771
 3655SOL    HW211865   1.029   0.069   3.879
 3656SOL     OW11866   0.354   0.949   0.821
 3656SOL    HW111867   0.426   1.014   0.797
 3656SOL    HW211868   0.275   0.998   0.856
 3657SOL     OW11869   6.544   4.836   6.282
 3657SOL    HW111870   6.636   4.809   6.256
 3657SOL    HW211871   6.523   4.800   6.373
 3658SOL     OW11872   2.045   4.630   5.817
 3658SOL    HW111873   2.027   4.685   5.899
 3658SOL    HW211874   2.115   4.676   5.762
 3659SOL     OW11875   0.968   2.362   0.168
 3659SOL    HW111876   0.869   2.378   0.169
 3659SOL    HW211877   0.992   2.296   0.239
 3660SOL     OW11878   4.535   4.656   4.245
 3660SOL    HW111879   4.477   4.649   4.327
 3660SOL    HW211880   4.503   4.730   4.187
 3661SOL     OW11881   0.993   0.804   5.353
 3661SOL    HW111882   1.019   0.807   5.449
 3661SOL    HW211883   1.050   0.737   5.305
 3662SOL     OW11884   3.825   2.726   5.689
 3662SOL    HW111885   3.918   2.744   5.720
 3662SOL    HW211886   3.814   2.758   5.594
 3663SOL     OW11887   1.659   2.716   5.922
 3663SOL    HW111888   1.571   2.678   5.895
 3663SOL    HW211889   1.680   2.688   6.015
 3664SOL     OW11890   2.061   2.376   0.891
 3664SOL    HW111891   1.980   2.386   0.833
 3664SOL    HW211892   2.106   2.464   0.900
 3665SOL     OW11893   6.890   6.191   4.867
 3665SOL    HW111894   6.987   6.180   4.847
 3665SOL    HW211895   6.879   6.225   4.960
 3666SOL     OW11896   2.112   3.975   4.803
 3666SOL    HW111897   2.055   4.002   4.880
 3666SOL    HW211898   2.200   4.023   4.807
 3667SOL     OW11899   2.489   6.348   1.206
 3667SOL    HW111900   2.550   6.358   1.127
 3667SOL    HW211901   2.394   6.347   1.174
 3668SOL     OW11902   4.352   0.643   0.770
 3668SOL    HW111903   4.258   0.651   0.803
 3668SOL    HW211904   4.380   0.729   0.728
 3669SOL     OW11905   6.624   1.183   2.260
 3669SOL    HW111906   6.648   1.100   2.310
 3669SOL    HW211907   6.549   1.230   2.305
 3670SOL     OW11908   2.020   6.644   2.156
 3670SOL    HW111909   1.991   6.737   2.138
 3670SOL    HW211910   1.960   6.602   2.224
 3671SOL     OW11911   0.448   0.616   5.716
 3671SOL    HW111912   0.390   0.537   5.698
 3671SOL    HW211913   0.515   0.593   5.787
 3672SOL     OW11914   2.635   0.383   2.855
 3672SOL    HW111915   2.722   0.385   2.904
 3672SOL    HW211916   2.579   0.307   2.889
 3673SOL     OW11917   3.601   1.505   1.498
 3673SOL    HW111918   3.608   1.604   1.511
 3673SOL    HW211919   3.654   1.478   1.418
 3674SOL     OW11920   6.695   5.788   6.294
 3674SOL    HW111921   6.739   5.847   6.227
 3674SOL    HW211922   6.754   5.778   6.374
 3675SOL     OW11923   5.791   0.795   5.236
 3675SOL    HW111924   5.711   0.740   5.260
 3675SOL    HW211925   5.844   0.748   5.165
 3676SOL     OW11926   2.244   0.715   6.143
 3676SOL    HW111927   2.326   0.700   6.199
 3676SOL    HW211928   2.163   0.690   6.195
 3677SOL     OW11929   1.494   0.192   5.261
 3677SOL    HW111930   1.478   0.095   5.243
 3677SOL    HW211931   1.406   0.238   5.276
 3678SOL     OW11932   2.682   1.086   3.568
 3678SOL    HW111933   2.625   1.143   3.627
 3678SOL    HW211934   2.774   1.081   3.605
 3679SOL     OW11935   3.178   1.230   1.602
 3679SOL    HW111936   3.085   1.260   1.620
 3679SOL    HW211937   3.184   1.131   1.618
 3680SOL     OW11938   4.507   1.610   4.187
 3680SOL    HW111939   4.498   1.593   4.285
 3680SOL    HW211940   4.420   1.590   4.142
 3681SOL     OW11941   1.130   5.331   3.510
 3681SOL    HW111942   1.137   5.376   3.421
 3681SOL    HW211943   1.123   5.232   3.497
 3682SOL     OW11944   5.258   1.199   2.078
 3682SOL    HW111945   5.196   1.125   2.051
 3682SOL    HW211946   5.295   1.179   2.169
 3683SOL     OW11947   6.262   2.349   1.291
 3683SOL    HW111948   6.186   2.286   1.305
 3683SOL    HW211949   6.273   2.367   1.193
 3684SOL     OW11950   2.398   6.066   5.805
 3684SOL    HW111951   2.475   6.005   5.787
 3684SOL    HW211952   2.321   6.013   5.840
 3685SOL     OW11953   1.511   6.551   2.861
 3685SOL    HW111954   1.591   6.592   2.817
 3685SOL    HW211955   1.443   6.622   2.880
 3686SOL     OW11956   1.011   5.187   0.553
 3686SOL    HW111957   1.007   5.094   0.590
 3686SOL    HW211958   0.958   5.192   0.469
 3687SOL     OW11959   0.202   4.772   4.428
 3687SOL    HW111960   0.229   4.752   4.523
 3687SOL    HW211961   0.237   4.700   4.368
 3688SOL     OW11962   0.242   2.545   1.564
 3688SOL    HW111963   0.321   2.487   1.588
 3688SOL    HW211964   0.230   2.615   1.634
 3689SOL     OW11965   2.821   2.260   5.634
 3689SOL    HW111966   2.754   2.285   5.564
 3689SOL    HW211967   2.774   2.238   5.719
 3690SOL     OW11968   6.899   5.480   2.306
 3690SOL    HW111969   6.962   5.507   2.379
 3690SOL    HW211970   6.821   5.543   2.305
 3691SOL     OW11971   2.798   1.876   6.904
 3691SOL    HW111972   2.893   1.889   6.874
 3691SOL    HW211973   2.737   1.918   6.837
 3692SOL     OW11974   1.082   2.657   5.580
 3692SOL    HW111975   1.133   2.572   5.575
 3692SOL    HW211976   0.988   2.639   5.608
 3693SOL     OW11977   0.269   1.249   2.837
 3693SOL    HW111978   0.257   1.334   2.787
 3693SOL    HW211979   0.180   1.207   2.854
 3694SOL     OW11980   0.182   6.470   1.921
 3694SOL    HW111981   0.121   6.427   1.988
 3694SOL    HW211982   0.197   6.407   1.845
 3695SOL     OW11983   5.999   3.635   4.654
 3695SOL    HW111984   5.931   3.561   4.659
 3695SOL    HW211985   6.006   3.680   4.744
 3696SOL     OW11986   4.265   0.297   4.237
 3696SOL    HW111987   4.347   0.271   4.288
 3696SOL    HW211988   4.184   0.259   4.283
 3697SOL     OW11989   6.953   4.900   2.660
 3697SOL    HW111990   7.016   4.904   2.583
 3697SOL    HW211991   6.977   4.971   2.726
 3698SOL     OW11992   1.389   0.553   3.769
 3698SOL    HW111993   1.370   0.530   3.864
 3698SOL    HW211994   1.485   0.581   3.760
 3699SOL     OW11995   3.352   1.751   3.363
 3699SOL    HW111996   3.314   1.804   3.286
 3699SOL    HW211997   3.379   1.814   3.436
 3700SOL     OW11998   0.887   5.170   4.779
 3700SOL    HW111999   0.803   5.183   4.831
 3700SOL    HW212000   0.871   5.104   4.705
 3701SOL     OW12001   6.489   0.606   2.439
 3701SOL    HW112002   6.460   0.657   2.520
 3701SOL    HW212003   6.410   0.561   2.397
 3702SOL     OW12004   6.771   4.773   3.517
 3702SOL    HW112005   6.785   4.808   3.424
 3702SOL    HW212006   6.715   4.837   3.569
 3703SOL     OW12007   0.924   2.006   3.265
 3703SOL    HW112008   0.831   2.014   3.231
 3703SOL    HW212009   0.988   2.040   3.196
 3704SOL     OW12010   6.559   6.796   0.974
 3704SOL    HW112011   6.509   6.840   1.049
 3704SOL    HW212012   6.507   6.717   0.942
 3705SOL     OW12013   6.701   4.179   3.981
 3705SOL    HW112014   6.609   4.145   4.000
 3705SOL    HW212015   6.766   4.104   3.994
 3706SOL     OW12016   0.359   6.198   6.853
 3706SOL    HW112017   0.411   6.114   6.842
 3706SOL    HW212018   0.364   6.251   6.768
 3707SOL     OW12019   6.613   4.265   3.650
 3707SOL    HW112020   6.631   4.320   3.568
 3707SOL    HW212021   6.700   4.246   3.696
 3708SOL     OW12022   0.602   5.675   0.140
 3708SOL    HW112023   0.686   5.717   0.106
 3708SOL    HW212024   0.590   5.699   0.236
 3709SOL     OW12025   0.589   1.662   1.126
 3709SOL    HW112026   0.650   1.606   1.181
 3709SOL    HW212027   0.640   1.738   1.085
 3710SOL     OW12028   1.795   3.633   4.994
 3710SOL    HW112029   1.793   3.709   5.059
 3710SOL    HW212030   1.745   3.555   5.031
 3711SOL     OW12031   1.216   4.814   5.921
 3711SOL    HW112032   1.227   4.913   5.911
 3711SOL    HW212033   1.280   4.767   5.861
 3712SOL     OW12034   3.468   4.928   3.512
 3712SOL    HW112035   3.403   4.986   3.463
 3712SOL    HW212036   3.525   4.879   3.446
 3713SOL     OW12037   6.534   0.549   6.492
 3713SOL    HW112038   6.628   0.547   6.524
 3713SOL    HW212039   6.509   0.459   6.455
 3714SOL     OW12040   0.167   5.448   0.229
 3714SOL    HW112041   0.130   5.470   0.319
 3714SOL    HW212042   0.217   5.361   0.233
 3715SOL     OW12043   5.499   4.229   2.022
 3715SOL    HW112044   5.572   4.291   2.048
 3715SOL    HW212045   5.536   4.154   1.967
 3716SOL     OW12046   5.232   5.111   5.595
 3716SOL    HW112047   5.138   5.089   5.617
 3716SOL    HW212048   5.249   5.208   5.614
 3717SOL     OW12049   4.632   0.081   1.249
 3717SOL    HW112050   4.630   0.015   1.175
 3717SOL    HW212051   4.705   0.148   1.233
 3718SOL     OW12052   5.244   6.386   6.392
 3718SOL    HW112053   5.153   6.381   6.349
 3718SOL    HW212054   5.246   6.461   6.458
 3719SOL     OW12055   2.988   4.017   0.578
 3719SOL    HW112056   3.021   3.928   0.608
 3719SOL    HW212057   2.962   4.013   0.482
 3720SOL     OW12058   1.033   2.194   0.378
 3720SOL    HW112059   0.965   2.123   0.398
 3720SOL    HW212060   1.074   2.226   0.464
 3721SOL     OW12061   6.621   0.420   5.928
 3721SOL    HW112062   6.617   0.473   5.843
 3721SOL    HW212063   6.545   0.448   5.987
 3722SOL     OW12064   5.274   6.546   1.530
 3722SOL    HW112065   5.228   6.616   1.475
 3722SOL    HW212066   5.249   6.558   1.626
 3723SOL     OW12067   4.178   4.285   6.311
 3723SOL    HW112068   4.138   4.212   6.365
 3723SOL    HW212069   4.111   4.360   6.301
 3724SOL     OW12070   5.970   3.926   5.252
 3724SOL    HW112071   5.964   4.024   5.268
 3724SOL    HW212072   5.971   3.908   5.154
 3725SOL     OW12073   6.852   6.071   1.290
 3725SOL    HW112074   6.870   5.990   1.234
 3725SOL    HW212075   6.854   6.153   1.233
 3726SOL     OW12076   6.130   3.611   5.381
 3726SOL    HW112077   6.066   3.687   5.390
 3726SOL    HW212078   6.114   3.544   5.453
 3727SOL     OW12079   6.073   1.735   4.127
 3727SOL    HW112080   6.128   1.818   4.121
 3727SOL    HW212081   6.037   1.712   4.036
 3728SOL     OW12082   1.952   4.586   0.578
 3728SOL    HW112083   2.006   4.650   0.633
 3728SOL    HW212084   1.866   4.629   0.551
 3729SOL     OW12085   6.971   0.068   6.299
 3729SOL    HW112086   6.905   0.002   6.333
 3729SOL    HW212087   6.949   0.091   6.204
 3730SOL     OW12088   5.943   4.666   4.891
 3730SOL    HW112089   5.913   4.743   4.948
 3730SOL    HW212090   5.870   4.643   4.826
 3731SOL     OW12091   6.555   1.456   1.924
 3731SOL    HW112092   6.614   1.412   1.856
 3731SOL    HW212093   6.512   1.386   1.981
 3732SOL     OW12094   4.390   2.392   6.846
 3732SOL    HW112095   4.315   2.410   6.909
 3732SOL    HW212096   4.459   2.464   6.854
 3733SOL     OW12097   2.132   1.134   2.758
 3733SOL    HW112098   2.034   1.124   2.740
 3733SOL    HW212099   2.177   1.046   2.746
 3734SOL     OW12100   4.572   1.254   1.928
 3734SOL    HW112101   4.501   1.290   1.869
 3734SOL    HW212102   4.632   1.328   1.958
 3735SOL     OW12103   3.761   0.865   2.516
 3735SOL    HW112104   3.840   0.925   2.531
 3735SOL    HW212105   3.722   0.839   2.604
 3736SOL     OW12106   0.918   0.850   6.707
 3736SOL    HW112107   0.941   0.819   6.615
 3736SOL    HW212108   0.902   0.948   6.707
 3737SOL     OW12109   4.924   1.927   4.620
 3737SOL    HW112110   5.020   1.916   4.593
 3737SOL    HW212111   4.879   1.992   4.559
 3738SOL     OW12112   0.900   1.033   0.422
 3738SOL    HW112113   0.980   1.079   0.384
 3738SOL    HW212114   0.928   0.949   0.467
 3739SOL     OW12115   3.364   5.052   6.745
 3739SOL    HW112116   3.279   5.044   6.694
 3739SOL    HW212117   3.366   4.984   6.819
 3740SOL     OW12118   6.661   6.919   6.826
 3740SOL    HW112119   6.671   7.018   6.824
 3740SOL    HW212120   6.565   6.894   6.825
 3741SOL     OW12121   6.068   4.701   0.088
 3741SOL    HW112122   6.041   4.797   0.086
 3741SOL    HW212123   6.118   4.682   0.173
 3742SOL     OW12124   4.669   5.060   1.393
 3742SOL    HW112125   4.684   5.062   1.492
 3742SOL    HW212126   4.581   5.103   1.372
 3743SOL     OW12127   2.244   4.038   1.402
 3743SOL    HW112128   2.274   3.945   1.419
 3743SOL    HW212129   2.194   4.042   1.315
 3744SOL     OW12130   6.148   5.815   2.215
 3744SOL    HW112131   6.225   5.857   2.264
 3744SOL    HW212132   6.074   5.797   2.279
 3745SOL     OW12133   6.023   0.919   2.803
 3745SOL    HW112134   6.050   0.999   2.749
 3745SOL    HW212135   6.008   0.947   2.898
 3746SOL     OW12136   5.566   0.118   5.843
 3746SOL    HW112137   5.616   0.111   5.756
 3746SOL    HW212138   5.484   0.174   5.829
 3747SOL     OW12139   2.056   4.851   5.542
 3747SOL    HW112140   2.082   4.756   5.526
 3747SOL    HW212141   2.126   4.911   5.503
 3748SOL     OW12142   4.770   1.589   3.292
 3748SOL    HW112143   4.713   1.644   3.231
 3748SOL    HW212144   4.866   1.603   3.268
 3749SOL     OW12145   5.885   5.246   0.780
 3749SOL    HW112146   5.934   5.322   0.737
 3749SOL    HW212147   5.787   5.266   0.781
 3750SOL     OW12148   0.263   4.540   1.455
 3750SOL    HW112149   0.309   4.580   1.534
 3750SOL    HW212150   0.324   4.474   1.411
 3751SOL     OW12151   1.694   5.164   0.810
 3751SOL    HW112152   1.639   5.112   0.744
 3751SOL    HW212153   1.778   5.195   0.765
 3752SOL     OW12154   1.354   0.081   6.402
 3752SOL    HW112155   1.375   0.157   6.341
 3752SOL    HW212156   1.439   0.044   6.440
 3753SOL     OW12157   0.725   1.137   5.962
 3753SOL    HW112158   0.665   1.062   5.932
 3753SOL    HW212159   0.713   1.152   6.060
 3754SOL     OW12160   6.882   6.338   1.149
 3754SOL    HW112161   6.892   6.428   1.191
 3754SOL    HW212162   6.964   6.316   1.095
 3755SOL     OW12163   4.610   2.567   3.022
 3755SOL    HW112164   4.579   2.588   2.930
 3755SOL    HW212165   4.639   2.652   3.067
 3756SOL     OW12166   3.282   6.872   0.141
 3756SOL    HW112167   3.191   6.913   0.133
 3756SOL    HW212168   3.304   6.822   0.057
 3757SOL     OW12169   2.996   3.963   5.731
 3757SOL    HW112170   2.959   3.956   5.639
 3757SOL    HW212171   2.930   4.008   5.791
 3758SOL     OW12172   0.643   0.673   1.607
 3758SOL    HW112173   0.690   0.589   1.633
 3758SOL    HW212174   0.710   0.746   1.591
 3759SOL     OW12175   5.791   4.330   0.509
 3759SOL    HW112176   5.694   4.338   0.531
 3759SOL    HW212177   5.844   4.386   0.572
 3760SOL     OW12178   1.743   1.458   5.701
 3760SOL    HW112179   1.837   1.485   5.718
 3760SOL    HW212180   1.722   1.467   5.604
 3761SOL     OW12181   0.203   6.353   4.341
 3761SOL    HW112182   0.213   6.253   4.344
 3761SOL    HW212183   0.121   6.379   4.393
 3762SOL     OW12184   0.173   3.871   1.521
 3762SOL    HW112185   0.197   3.841   1.613
 3762SOL    HW212186   0.243   3.935   1.488
 3763SOL     OW12187   0.362   2.393   5.060
 3763SOL    HW112188   0.354   2.458   4.985
 3763SOL    HW212189   0.399   2.439   5.141
 3764SOL     OW12190   2.242   0.327   2.825
 3764SOL    HW112191   2.272   0.412   2.782
 3764SOL    HW212192   2.317   0.261   2.825
 3765SOL     OW12193   6.168   1.226   3.750
 3765SOL    HW112194   6.160   1.267   3.659
 3765SOL    HW212195   6.165   1.298   3.820
 3766SOL     OW12196   2.265   1.298   4.318
 3766SOL    HW112197   2.329   1.310   4.394
 3766SOL    HW212198   2.222   1.386   4.297
 3767SOL     OW12199   6.753   4.363   1.586
 3767SOL    HW112200   6.778   4.430   1.656
 3767SOL    HW212201   6.657   4.376   1.561
 3768SOL     OW12202   4.812   6.956   1.421
 3768SOL    HW112203   4.721   6.992   1.400
 3768SOL    HW212204   4.817   6.860   1.394
 3769SOL     OW12205   4.282   6.954   4.626
 3769SOL    HW112206   4.357   6.892   4.652
 3769SOL    HW212207   4.194   6.908   4.643
 3770SOL     OW12208   1.671   2.973   0.276
 3770SOL    HW112209   1.647   3.019   0.361
 3770SOL    HW212210   1.770   2.976   0.263
 3771SOL     OW12211   4.859   1.349   5.236
 3771SOL    HW112212   4.770   1.372   5.195
 3771SOL    HW212213   4.845   1.314   5.328
 3772SOL     OW12214   5.183   0.277   2.879
 3772SOL    HW112215   5.219   0.283   2.786
 3772SOL    HW212216   5.154   0.183   2.897
 3773SOL     OW12217   5.786   2.444   1.302
 3773SOL    HW112218   5.789   2.544   1.294
 3773SOL    HW212219   5.799   2.403   1.212
 3774SOL     OW12220   2.152   1.187   1.677
 3774SOL    HW112221   2.143   1.146   1.768
 3774SOL    HW212222   2.238   1.159   1.636
 3775SOL     OW12223   5.474   2.686   3.808
 3775SOL    HW112224   5.496   2.714   3.714
 3775SOL    HW212225   5.387   2.638   3.809
 3776SOL     OW12226   3.279   1.762   6.808
 3776SOL    HW112227   3.357   1.823   6.809
 3776SOL    HW212228   3.301   1.680   6.755
 3777SOL     OW12229   1.767   4.119   3.324
 3777SOL    HW112230   1.729   4.205   3.289
 3777SOL    HW212231   1.787   4.058   3.247
 3778SOL     OW12232   2.079   0.515   1.697
 3778SOL    HW112233   2.118   0.519   1.789
 3778SOL    HW212234   2.151   0.527   1.629
 3779SOL     OW12235   2.017   3.991   0.342
 3779SOL    HW112236   1.974   4.001   0.252
 3779SOL    HW212237   1.947   3.996   0.413
 3780SOL     OW12238   2.302   0.419   4.115
 3780SOL    HW112239   2.382   0.406   4.056
 3780SOL    HW212240   2.323   0.488   4.184
 3781SOL     OW12241   3.176   4.837   4.449
 3781SOL    HW112242   3.093   4.781   4.455
 3781SOL    HW212243   3.159   4.926   4.493
 3782SOL     OW12244   2.965   1.122   2.121
 3782SOL    HW112245   3.036   1.191   2.122
 3782SOL    HW212246   2.995   1.042   2.173
 3783SOL     OW12247   5.111   4.325   5.388
 3783SOL    HW112248   5.065   4.252   5.338
 3783SOL    HW212249   5.199   4.345   5.343
 3784SOL     OW12250   4.813   2.886   5.063
 3784SOL    HW112251   4.736   2.875   5.127
 3784SOL    HW212252   4.786   2.947   4.989
 3785SOL     OW12253   6.984   6.995   1.498
 3785SOL    HW112254   6.993   6.909   1.549
 3785SOL    HW212255   6.999   0.048   1.560
 3786SOL     OW12256   2.871   6.233   1.520
 3786SOL    HW112257   2.957   6.255   1.566
 3786SOL    HW212258   2.862   6.134   1.513
 3787SOL     OW12259   4.145   1.289   3.251
 3787SOL    HW112260   4.094   1.231   3.314
 3787SOL    HW212261   4.242   1.263   3.252
 3788SOL     OW12262   0.238   2.925   2.739
 3788SOL    HW112263   0.173   2.887   2.673
 3788SOL    HW212264   0.281   3.006   2.701
 3789SOL     OW12265   1.925   5.504   2.055
 3789SOL    HW112266   2.025   5.502   2.046
 3789SOL    HW212267   1.899   5.478   2.148
 3790SOL     OW12268   2.123   3.558   2.708
 3790SOL    HW112269   2.159   3.582   2.617
 3790SOL    HW212270   2.088   3.641   2.752
 3791SOL     OW12271   6.848   0.344   2.629
 3791SOL    HW112272   6.898   0.265   2.594
 3791SOL    HW212273   6.762   0.355   2.579
 3792SOL     OW12274   1.469   5.164   5.859
 3792SOL    HW112275   1.533   5.117   5.798
 3792SOL    HW212276   1.482   5.262   5.852
 3793SOL     OW12277   6.264   6.165   2.790
 3793SOL    HW112278   6.355   6.171   2.750
 3793SOL    HW212279   6.200   6.222   2.737
 3794SOL     OW12280   3.995   6.846   4.895
 3794SOL    HW112281   4.048   6.929   4.881
 3794SOL    HW212282   4.047   6.767   4.863
 3795SOL     OW12283   5.751   0.534   0.716
 3795SOL    HW112284   5.739   0.571   0.624
 3795SOL    HW212285   5.665   0.494   0.747
 3796SOL     OW12286   0.315   2.372   1.321
 3796SOL    HW112287   0.280   2.417   1.403
 3796SOL    HW212288   0.369   2.292   1.347
 3797SOL     OW12289   6.351   5.962   2.302
 3797SOL    HW112290   6.411   5.981   2.224
 3797SOL    HW212291   6.403   5.968   2.387
 3798SOL     OW12292   1.452   4.145   0.145
 3798SOL    HW112293   1.369   4.103   0.181
 3798SOL    HW212294   1.447   4.151   0.046
 3799SOL     OW12295   0.521   0.468   5.267
 3799SOL    HW112296   0.550   0.399   5.333
 3799SOL    HW212297   0.423   0.485   5.278
 3800SOL     OW12298   4.724   2.565   5.048
 3800SOL    HW112299   4.629   2.581   5.074
 3800SOL    HW212300   4.733   2.574   4.949
 3801SOL     OW12301   6.879   0.692   5.901
 3801SOL    HW112302   6.831   0.681   5.814
 3801SOL    HW212303   6.971   0.655   5.893
 3802SOL     OW12304   1.946   2.282   4.854
 3802SOL    HW112305   2.031   2.229   4.857
 3802SOL    HW212306   1.957   2.359   4.792
 3803SOL     OW12307   4.504   1.027   1.308
 3803SOL    HW112308   4.490   1.116   1.264
 3803SOL    HW212309   4.418   0.978   1.315
 3804SOL     OW12310   5.164   4.033   4.504
 3804SOL    HW112311   5.206   3.992   4.424
 3804SOL    HW212312   5.131   3.960   4.565
 3805SOL     OW12313   1.855   3.544   1.295
 3805SOL    HW112314   1.874   3.543   1.393
 3805SOL    HW212315   1.849   3.451   1.261
 3806SOL     OW12316   4.065   0.351   0.296
 3806SOL    HW112317   4.010   0.435   0.305
 3806SOL    HW212318   4.159   0.376   0.272
 3807SOL     OW12319   1.963   6.569   2.623
 3807SOL    HW112320   1.980   6.667   2.618
 3807SOL    HW212321   2.022   6.521   2.559
 3808SOL     OW12322   3.672   1.121   0.698
 3808SOL    HW112323   3.733   1.056   0.652
 3808SOL    HW212324   3.607   1.159   0.631
 3809SOL     OW12325   3.996   1.186   0.373
 3809SOL    HW112326   3.900   1.161   0.384
 3809SOL    HW212327   4.022   1.177   0.277
 3810SOL     OW12328   1.764   3.593   6.927
 3810SOL    HW112329   1.769   3.496   6.950
 3810SOL    HW212330   1.672   3.628   6.948
 3811SOL     OW12331   6.792   0.945   5.514
 3811SOL    HW112332   6.792   1.025   5.573
 3811SOL    HW212333   6.883   0.933   5.475
 3812SOL     OW12334   4.170   0.399   5.838
 3812SOL    HW112335   4.180   0.395   5.938
 3812SOL    HW212336   4.117   0.480   5.814
 3813SOL     OW12337   3.961   5.009   1.763
 3813SOL    HW112338   3.975   5.035   1.859
 3813SOL    HW212339   3.909   4.924   1.760
 3814SOL     OW12340   2.234   0.105   1.771
 3814SOL    HW112341   2.282   0.166   1.707
 3814SOL    HW212342   2.148   0.147   1.799
 3815SOL     OW12343   5.161   2.256   2.123
 3815SOL    HW112344   5.085   2.317   2.101
 3815SOL    HW212345   5.138   2.202   2.204
 3816SOL     OW12346   0.012   5.825   0.406
 3816SOL    HW112347   0.077   5.834   0.482
 3816SOL    HW212348   7.014   5.729   0.392
 3817SOL     OW12349   5.586   1.951   4.922
 3817SOL    HW112350   5.676   1.963   4.881
 3817SOL    HW212351   5.562   1.854   4.924
 3818SOL     OW12352   3.720   6.994   3.199
 3818SOL    HW112353   3.669   6.944   3.129
 3818SOL    HW212354   3.656   0.017   3.260
 3819SOL     OW12355   5.852   3.454   6.450
 3819SOL    HW112356   5.771   3.426   6.501
 3819SOL    HW212357   5.930   3.398   6.477
 3820SOL     OW12358   4.059   6.278   3.304
 3820SOL    HW112359   3.975   6.272   3.249
 3820SOL    HW212360   4.073   6.193   3.353
 3821SOL     OW12361   1.036   4.506   1.518
 3821SOL    HW112362   1.026   4.415   1.478
 3821SOL    HW212363   1.025   4.501   1.617
 3822SOL     OW12364   1.046   3.602   1.774
 3822SOL    HW112365   1.089   3.580   1.686
 3822SOL    HW212366   1.108   3.579   1.848
 3823SOL     OW12367   2.193   3.621   5.212
 3823SOL    HW112368   2.095   3.633   5.194
 3823SOL    HW212369   2.226   3.700   5.264
 3824SOL     OW12370   0.286   2.660   6.151
 3824SOL    HW112371   0.257   2.697   6.062
 3824SOL    HW212372   0.226   2.583   6.175
 3825SOL     OW12373   0.195   6.075   6.528
 3825SOL    HW112374   0.168   6.115   6.440
 3825SOL    HW212375   0.250   6.142   6.579
 3826SOL     OW12376   0.185   1.642   1.569
 3826SOL    HW112377   0.085   1.635   1.576
 3826SOL    HW212378   0.225   1.638   1.660
 3827SOL     OW12379   4.571   1.881   1.869
 3827SOL    HW112380   4.512   1.930   1.806
 3827SOL    HW212381   4.667   1.905   1.852
 3828SOL     OW12382   3.818   1.428   0.992
 3828SOL    HW112383   3.850   1.458   0.903
 3828SOL    HW212384   3.789   1.333   0.988
 3829SOL     OW12385   0.992   5.261   3.720
 3829SOL    HW112386   0.922   5.211   3.668
 3829SOL    HW212387   1.029   5.335   3.664
 3830SOL     OW12388   1.606   0.153   5.996
 3830SOL    HW112389   1.590   0.204   5.912
 3830SOL    HW212390   1.688   0.188   6.041
 3831SOL     OW12391   4.734   2.178   2.307
 3831SOL    HW112392   4.750   2.104   2.241
 3831SOL    HW212393   4.817   2.232   2.316
 3832SOL     OW12394   6.141   0.214   2.670
 3832SOL    HW112395   6.228   0.166   2.683
 3832SOL    HW212396   6.133   0.241   2.574
 3833SOL     OW12397   1.358   6.066   2.364
 3833SOL    HW112398   1.437   6.049   2.306
 3833SOL    HW212399   1.274   6.056   2.311
 3834SOL     OW12400   2.919   2.543   0.488
 3834SOL    HW112401   2.931   2.621   0.427
 3834SOL    HW212402   2.883   2.465   0.436
 3835SOL     OW12403   3.356   4.937   3.187
 3835SOL    HW112404   3.331   4.889   3.103
 3835SOL    HW212405   3.455   4.951   3.189
 3836SOL     OW12406   1.476   2.682   6.202
 3836SOL    HW112407   1.450   2.585   6.204
 3836SOL    HW212408   1.521   2.706   6.288
 3837SOL     OW12409   3.469   4.757   6.598
 3837SOL    HW112410   3.384   4.717   6.632
 3837SOL    HW212411   3.521   4.688   6.548
 3838SOL     OW12412   0.171   3.547   5.197
 3838SOL    HW112413   0.224   3.631   5.186
 3838SOL    HW212414   0.199   3.501   5.282
 3839SOL     OW12415   0.793   6.244   7.014
 3839SOL    HW112416   0.832   6.334   6.999
 3839SOL    HW212417   0.701   6.253   0.028
 3840SOL     OW12418   3.565   1.931   3.121
 3840SOL    HW112419   3.467   1.943   3.138
 3840SOL    HW212420   3.579   1.846   3.069
 3841SOL     OW12421   1.674   2.944   3.768
 3841SOL    HW112422   1.720   2.956   3.856
 3841SOL    HW212423   1.649   3.033   3.731
 3842SOL     OW12424   1.230   4.913   6.943
 3842SOL    HW112425   1.242   4.940   6.847
 3842SOL    HW212426   1.294   4.840   6.966
 3843SOL     OW12427   6.544   5.377   0.143
 3843SOL    HW112428   6.449   5.383   0.172
 3843SOL    HW212429   6.582   5.289   0.169
 3844SOL     OW12430   2.993   4.402   5.679
 3844SOL    HW112431   3.083   4.370   5.648
 3844SOL    HW212432   2.935   4.323   5.699
 3845SOL     OW12433   3.292   3.740   4.804
 3845SOL    HW112434   3.225   3.783   4.865
 3845SOL    HW212435   3.344   3.672   4.855
 3846SOL     OW12436   6.790   4.283   4.753
 3846SOL    HW112437   6.693   4.284   4.728
 3846SOL    HW212438   6.836   4.208   4.706
 3847SOL     OW12439   1.407   6.561   0.886
 3847SOL    HW112440   1.455   6.595   0.806
 3847SOL    HW212441   1.384   6.638   0.946
 3848SOL     OW12442   2.762   6.266   2.878
 3848SOL    HW112443   2.789   6.314   2.795
 3848SOL    HW212444   2.807   6.177   2.881
 3849SOL     OW12445   2.592   1.520   4.717
 3849SOL    HW112446   2.539   1.565   4.789
 3849SOL    HW212447   2.665   1.466   4.759
 3850SOL     OW12448   1.813   3.081   1.773
 3850SOL    HW112449   1.783   3.176   1.759
 3850SOL    HW212450   1.853   3.071   1.864
 3851SOL     OW12451   2.574   2.966   0.315
 3851SOL    HW112452   2.485   2.983   0.358
 3851SOL    HW212453   2.625   2.900   0.370
 3852SOL     OW12454   4.033   0.550   5.459
 3852SOL    HW112455   4.012   0.463   5.415
 3852SOL    HW212456   3.967   0.619   5.429
 3853SOL     OW12457   0.380   3.295   2.261
 3853SOL    HW112458   0.460   3.304   2.321
 3853SOL    HW212459   0.324   3.218   2.291
 3854SOL     OW12460   1.022   4.104   4.114
 3854SOL    HW112461   0.946   4.113   4.179
 3854SOL    HW212462   1.097   4.164   4.142
 3855SOL     OW12463   0.025   2.065   4.739
 3855SOL    HW112464   0.073   2.143   4.780
 3855SOL    HW212465   0.090   2.010   4.687
 3856SOL     OW12466   1.084   6.401   6.047
 3856SOL    HW112467   1.115   6.389   6.141
 3856SOL    HW212468   1.130   6.479   6.006
 3857SOL     OW12469   0.396   0.362   6.448
 3857SOL    HW112470   0.413   0.440   6.508
 3857SOL    HW212471   0.432   0.279   6.491
 3858SOL     OW12472   4.131   4.920   6.645
 3858SOL    HW112473   4.177   4.879   6.724
 3858SOL    HW212474   4.037   4.945   6.671
 3859SOL     OW12475   6.781   2.241   2.744
 3859SOL    HW112476   6.878   2.221   2.761
 3859SOL    HW212477   6.733   2.248   2.831
 3860SOL     OW12478   2.387   6.272   5.228
 3860SOL    HW112479   2.336   6.356   5.209
 3860SOL    HW212480   2.327   6.193   5.216
 3861SOL     OW12481   3.494   3.746   0.420
 3861SOL    HW112482   3.431   3.704   0.355
 3861SOL    HW212483   3.442   3.796   0.489
 3862SOL     OW12484   0.530   6.353   5.494
 3862SOL    HW112485   0.601   6.287   5.517
 3862SOL    HW212486   0.441   6.316   5.521
 3863SOL     OW12487   2.373   3.107   0.578
 3863SOL    HW112488   2.387   3.039   0.649
 3863SOL    HW212489   2.446   3.176   0.583
 3864SOL     OW12490   3.572   1.869   1.702
 3864SOL    HW112491   3.583   1.808   1.781
 3864SOL    HW212492   3.525   1.820   1.628
 3865SOL     OW12493   4.362   0.888   2.205
 3865SOL    HW112494   4.279   0.909   2.153
 3865SOL    HW212495   4.433   0.854   2.142
 3866SOL     OW12496   4.460   6.189   6.247
 3866SOL    HW112497   4.508   6.271   6.216
 3866SOL    HW212498   4.521   6.134   6.304
 3867SOL     OW12499   2.201   5.026   2.893
 3867SOL    HW112500   2.129   5.068   2.949
 3867SOL    HW212501   2.216   5.082   2.811
 3868SOL     OW12502   2.773   5.048   2.732
 3868SOL    HW112503   2.821   5.089   2.810
 3868SOL    HW212504   2.675   5.046   2.751
 3869SOL     OW12505   1.361   1.089   3.488
 3869SOL    HW112506   1.279   1.093   3.545
 3869SOL    HW212507   1.411   1.005   3.508
 3870SOL     OW12508   3.930   3.653   0.603
 3870SOL    HW112509   3.996   3.616   0.668
 3870SOL    HW212510   3.848   3.597   0.603
 3871SOL     OW12511   2.720   0.796   4.700
 3871SOL    HW112512   2.705   0.706   4.658
 3871SOL    HW212513   2.666   0.804   4.784
 3872SOL     OW12514   4.816   3.771   0.238
 3872SOL    HW112515   4.909   3.769   0.201
 3872SOL    HW212516   4.808   3.703   0.311
 3873SOL     OW12517   6.069   5.083   2.089
 3873SOL    HW112518   6.033   5.144   2.018
 3873SOL    HW212519   6.003   5.077   2.164
 3874SOL     OW12520   5.611   6.473   5.565
 3874SOL    HW112521   5.617   6.431   5.655
 3874SOL    HW212522   5.548   6.551   5.569
 3875SOL     OW12523   3.253   3.157   0.847
 3875SOL    HW112524   3.177   3.122   0.902
 3875SOL    HW212525   3.321   3.084   0.834
 3876SOL     OW12526   5.525   3.964   3.134
 3876SOL    HW112527   5.435   3.985   3.095
 3876SOL    HW212528   5.520   3.877   3.183
 3877SOL     OW12529   4.592   2.201   2.035
 3877SOL    HW112530   4.579   2.288   1.987
 3877SOL    HW212531   4.605   2.218   2.133
 3878SOL     OW12532   6.233   5.359   5.260
 3878SOL    HW112533   6.177   5.421   5.206
 3878SOL    HW212534   6.323   5.349   5.218
 3879SOL     OW12535   2.167   6.787   0.716
 3879SOL    HW112536   2.139   6.869   0.667
 3879SOL    HW212537   2.116   6.708   0.680
 3880SOL     OW12538   5.660   1.846   4.606
 3880SOL    HW112539   5.647   1.748   4.596
 3880SOL    HW212540   5.726   1.864   4.679
 3881SOL     OW12541   6.983   6.516   6.022
 3881SOL    HW112542   6.995   6.611   5.992
 3881SOL    HW212543   0.045   6.467   6.013
 3882SOL     OW12544   6.805   6.040   0.115
 3882SOL    HW112545   6.772   6.002   0.202
 3882SOL    HW212546   6.898   6.075   0.127
 3883SOL     OW12547   4.032   1.905   0.528
 3883SOL    HW112548   4.021   1.888   0.430
 3883SOL    HW212549   4.004   1.998   0.550
 3884SOL     OW12550   2.814   6.150   6.094
 3884SOL    HW112551   2.883   6.167   6.164
 3884SOL    HW212552   2.835   6.064   6.046
 3885SOL     OW12553   0.888   1.185   4.212
 3885SOL    HW112554   0.963   1.122   4.229
 3885SOL    HW212555   0.828   1.188   4.293
 3886SOL     OW12556   6.973   5.827   4.242
 3886SOL    HW112557   6.930   5.887   4.310
 3886SOL    HW212558   7.017   5.751   4.289
 3887SOL     OW12559   0.626   3.036   5.083
 3887SOL    HW112560   0.565   3.047   5.004
 3887SOL    HW212561   0.716   3.072   5.060
 3888SOL     OW12562   4.656   2.219   3.261
 3888SOL    HW112563   4.729   2.153   3.281
 3888SOL    HW212564   4.577   2.170   3.223
 3889SOL     OW12565   6.272   5.501   0.760
 3889SOL    HW112566   6.260   5.579   0.822
 3889SOL    HW212567   6.280   5.533   0.666
 3890SOL     OW12568   5.969   2.944   3.418
 3890SOL    HW112569   5.935   2.940   3.512
 3890SOL    HW212570   6.046   3.008   3.413
 3891SOL     OW12571   3.599   4.362   6.364
 3891SOL    HW112572   3.619   4.442   6.420
 3891SOL    HW212573   3.640   4.281   6.406
 3892SOL     OW12574   4.995   6.007   4.496
 3892SOL    HW112575   4.998   6.008   4.396
 3892SOL    HW212576   4.963   5.918   4.527
 3893SOL     OW12577   2.700   5.808   5.015
 3893SOL    HW112578   2.645   5.739   4.968
 3893SOL    HW212579   2.797   5.790   4.999
 3894SOL     OW12580   5.778   5.541   6.009
 3894SOL    HW112581   5.829   5.542   6.095
 3894SOL    HW212582   5.788   5.452   5.965
 3895SOL     OW12583   1.462   1.949   4.629
 3895SOL    HW112584   1.530   1.878   4.608
 3895SOL    HW212585   1.397   1.913   4.696
 3896SOL     OW12586   6.150   3.054   1.270
 3896SOL    HW112587   6.090   3.119   1.223
 3896SOL    HW212588   6.237   3.100   1.292
 3897SOL     OW12589   2.298   0.915   2.746
 3897SOL    HW112590   2.384   0.946   2.707
 3897SOL    HW212591   2.311   0.896   2.844
 3898SOL     OW12592   3.318   3.856   2.645
 3898SOL    HW112593   3.326   3.831   2.742
 3898SOL    HW212594   3.363   3.943   2.629
 3899SOL     OW12595   4.494   1.066   6.235
 3899SOL    HW112596   4.455   1.128   6.167
 3899SOL    HW212597   4.523   0.981   6.190
 3900SOL     OW12598   1.149   2.553   4.052
 3900SOL    HW112599   1.202   2.635   4.076
 3900SOL    HW212600   1.072   2.579   3.994
 3901SOL     OW12601   4.299   6.574   4.328
 3901SOL    HW112602   4.351   6.594   4.411
 3901SOL    HW212603   4.342   6.498   4.280
 3902SOL     OW12604   2.934   4.902   3.252
 3902SOL    HW112605   2.893   4.992   3.257
 3902SOL    HW212606   2.928   4.867   3.159
 3903SOL     OW12607   2.549   4.175   6.157
 3903SOL    HW112608   2.451   4.185   6.140
 3903SOL    HW212609   2.566   4.175   6.256
 3904SOL     OW12610   2.697   6.314   0.686
 3904SOL    HW112611   2.648   6.314   0.773
 3904SOL    HW212612   2.689   6.224   0.643
 3905SOL     OW12613   4.327   6.548   5.034
 3905SOL    HW112614   4.378   6.465   5.008
 3905SOL    HW212615   4.303   6.543   5.131
 3906SOL     OW12616   6.734   5.781   3.606
 3906SOL    HW112617   6.752   5.767   3.509
 3906SOL    HW212618   6.756   5.875   3.631
 3907SOL     OW12619   1.332   0.632   4.888
 3907SOL    HW112620   1.247   0.610   4.840
 3907SOL    HW212621   1.382   0.702   4.837
 3908SOL     OW12622   2.291   1.869   4.508
 3908SOL    HW112623   2.311   1.879   4.410
 3908SOL    HW212624   2.317   1.777   4.538
 3909SOL     OW12625   6.620   3.194   2.788
 3909SOL    HW112626   6.564   3.262   2.835
 3909SOL    HW212627   6.675   3.239   2.718
 3910SOL     OW12628   1.502   2.335   6.980
 3910SOL    HW112629   1.445   2.338   6.898
 3910SOL    HW212630   1.594   2.304   6.957
 3911SOL     OW12631   6.632   0.898   2.814
 3911SOL    HW112632   6.684   0.930   2.894
 3911SOL    HW212633   6.682   0.921   2.731
 3912SOL     OW12634   4.886   4.154   0.785
 3912SOL    HW112635   4.817   4.172   0.715
 3912SOL    HW212636   4.843   4.159   0.875
 3913SOL     OW12637   4.187   4.666   0.737
 3913SOL    HW112638   4.278   4.705   0.729
 3913SOL    HW212639   4.139   4.707   0.814
 3914SOL     OW12640   0.527   0.957   0.234
 3914SOL    HW112641   0.582   0.979   0.154
 3914SOL    HW212642   0.432   0.986   0.219
 3915SOL     OW12643   5.227   6.988   4.719
 3915SOL    HW112644   5.296   0.003   4.779
 3915SOL    HW212645   5.270   6.924   4.656
 3916SOL     OW12646   1.751   2.667   2.186
 3916SOL    HW112647   1.845   2.682   2.216
 3916SOL    HW212648   1.747   2.587   2.126
 3917SOL     OW12649   3.289   5.488   1.846
 3917SOL    HW112650   3.203   5.539   1.852
 3917SOL    HW212651   3.359   5.533   1.901
 3918SOL     OW12652   3.854   6.413   0.112
 3918SOL    HW112653   3.789   6.376   0.046
 3918SOL    HW212654   3.894   6.338   0.165
 3919SOL     OW12655   5.428   4.397   3.630
 3919SOL    HW112656   5.425   4.471   3.563
 3919SOL    HW212657   5.452   4.311   3.584
 3920SOL     OW12658   4.220   0.398   5.564
 3920SOL    HW112659   4.144   0.461   5.547
 3920SOL    HW212660   4.218   0.369   5.660
 3921SOL     OW12661   1.603   3.973   5.411
 3921SOL    HW112662   1.599   3.873   5.415
 3921SOL    HW212663   1.599   4.003   5.315
 3922SOL     OW12664   5.451   1.326   3.980
 3922SOL    HW112665   5.524   1.346   3.914
 3922SOL    HW212666   5.368   1.374   3.954
 3923SOL     OW12667   5.870   0.993   1.516
 3923SOL    HW112668   5.828   1.047   1.590
 3923SOL    HW212669   5.890   1.054   1.439
 3924SOL     OW12670   5.497   4.813   4.166
 3924SOL    HW112671   5.429   4.740   4.181
 3924SOL    HW212672   5.504   4.868   4.249
 3925SOL     OW12673   3.742   4.425   1.720
 3925SOL    HW112674   3.686   4.491   1.771
 3925SOL    HW212675   3.738   4.446   1.622
 3926SOL     OW12676   0.657   5.946   5.187
 3926SOL    HW112677   0.674   6.044   5.201
 3926SOL    HW212678   0.739   5.903   5.151
 3927SOL     OW12679   6.298   6.107   5.290
 3927SOL    HW112680   6.313   6.009   5.302
 3927SOL    HW212681   6.382   6.156   5.314
 3928SOL     OW12682   4.359   5.530   2.325
 3928SOL    HW112683   4.406   5.531   2.414
 3928SOL    HW212684   4.400   5.599   2.265
 3929SOL     OW12685   1.880   0.745   5.291
 3929SOL    HW112686   1.943   0.677   5.254
 3929SOL    HW212687   1.893   0.751   5.390
 3930SOL     OW12688   2.036   5.855   4.738
 3930SOL    HW112689   1.988   5.845   4.825
 3930SOL    HW212690   2.027   5.771   4.685
 3931SOL     OW12691   0.242   2.184   0.474
 3931SOL    HW112692   0.267   2.250   0.545
 3931SOL    HW212693   0.167   2.220   0.419
 3932SOL     OW12694   1.680   4.684   2.996
 3932SOL    HW112695   1.751   4.748   3.027
 3932SOL    HW212696   1.720   4.592   2.986
 3933SOL     OW12697   1.205   6.981   1.498
 3933SOL    HW112698   1.255   7.002   1.414
 3933SOL    HW212699   1.116   6.940   1.474
 3934SOL     OW12700   1.191   6.575   1.687
 3934SOL    HW112701   1.230   6.498   1.737
 3934SOL    HW212702   1.263   6.624   1.639
 3935SOL     OW12703   6.845   1.101   4.836
 3935SOL    HW112704   6.808   1.079   4.926
 3935SOL    HW212705   6.859   1.017   4.784
 3936SOL     OW12706   6.423   4.765   4.310
 3936SOL    HW112707   6.392   4.691   4.368
 3936SOL    HW212708   6.349   4.795   4.250
 3937SOL     OW12709   1.555   6.813   6.889
 3937SOL    HW112710   1.560   6.713   6.892
 3937SOL    HW212711   1.623   6.852   6.950
 3938SOL     OW12712   1.370   4.635   6.945
 3938SOL    HW112713   1.336   4.556   6.895
 3938SOL    HW212714   1.439   4.607   7.011
 3939SOL     OW12715   2.102   5.701   4.485
 3939SOL    HW112716   2.199   5.690   4.506
 3939SOL    HW212717   2.071   5.624   4.430
 3940SOL     OW12718   2.051   5.977   6.826
 3940SOL    HW112719   2.060   5.913   6.902
 3940SOL    HW212720   2.130   5.969   6.765
 3941SOL     OW12721   5.385   4.924   3.260
 3941SOL    HW112722   5.421   4.833   3.238
 3941SOL    HW212723   5.406   4.946   3.356
 3942SOL     OW12724   0.766   0.050   0.390
 3942SOL    HW112725   0.808   7.022   0.316
 3942SOL    HW212726   0.692   7.020   0.430
 3943SOL     OW12727   0.422   4.681   0.408
 3943SOL    HW112728   0.329   4.716   0.405
 3943SOL    HW212729   0.438   4.624   0.327
 3944SOL     OW12730   5.622   2.859   0.717
 3944SOL    HW112731   5.545   2.889   0.773
 3944SOL    HW212732   5.632   2.760   0.726
 3945SOL     OW12733   0.539   0.717   2.816
 3945SOL    HW112734   0.606   0.646   2.836
 3945SOL    HW212735   0.469   0.680   2.755
 3946SOL     OW12736   5.013   0.913   0.872
 3946SOL    HW112737   4.958   0.850   0.817
 3946SOL    HW212738   5.095   0.866   0.904
 3947SOL     OW12739   5.120   0.125   0.845
 3947SOL    HW112740   5.176   0.043   0.834
 3947SOL    HW212741   5.049   0.126   0.775
 3948SOL     OW12742   1.833   1.629   3.916
 3948SOL    HW112743   1.743   1.670   3.901
 3948SOL    HW212744   1.822   1.540   3.961
 3949SOL     OW12745   6.084   6.813   2.424
 3949SOL    HW112746   6.060   6.784   2.332
 3949SOL    HW212747   6.001   6.822   2.479
 3950SOL     OW12748   2.331   4.604   1.761
 3950SOL    HW112749   2.395   4.550   1.815
 3950SOL    HW212750   2.376   4.635   1.677
 3951SOL     OW12751   0.111   2.780   3.111
 3951SOL    HW112752   0.181   2.768   3.040
 3951SOL    HW212753   0.078   2.874   3.108
 3952SOL     OW12754   5.865   5.283   6.875
 3952SOL    HW112755   5.951   5.249   6.837
 3952SOL    HW212756   5.865   5.383   6.873
 3953SOL     OW12757   3.229   3.017   4.872
 3953SOL    HW112758   3.223   3.106   4.827
 3953SOL    HW212759   3.214   3.029   4.970
 3954SOL     OW12760   0.755   5.120   6.283
 3954SOL    HW112761   0.704   5.162   6.358
 3954SOL    HW212762   0.852   5.114   6.307
 3955SOL     OW12763   5.995   3.190   0.308
 3955SOL    HW112764   6.012   3.113   0.370
 3955SOL    HW212765   6.027   3.166   0.216
 3956SOL     OW12766   6.906   3.172   4.803
 3956SOL    HW112767   6.917   3.239   4.730
 3956SOL    HW212768   6.834   3.202   4.866
 3957SOL     OW12769   1.557   2.576   1.804
 3957SOL    HW112770   1.640   2.628   1.781
 3957SOL    HW212771   1.523   2.530   1.722
 3958SOL     OW12772   5.081   5.378   1.045
 3958SOL    HW112773   5.146   5.303   1.057
 3958SOL    HW212774   5.015   5.378   1.120
 3959SOL     OW12775   2.761   4.785   0.577
 3959SOL    HW112776   2.747   4.686   0.566
 3959SOL    HW212777   2.856   4.807   0.556
 3960SOL     OW12778   5.876   3.451   1.181
 3960SOL    HW112779   5.894   3.479   1.275
 3960SOL    HW212780   5.915   3.519   1.118
 3961SOL     OW12781   0.145   1.277   2.131
 3961SOL    HW112782   0.072   1.345   2.130
 3961SOL    HW212783   0.109   1.190   2.166
 3962SOL     OW12784   0.343   6.702   0.060
 3962SOL    HW112785   0.249   6.671   0.046
 3962SOL    HW212786   0.355   6.793   0.021
 3963SOL     OW12787   6.475   2.751   4.984
 3963SOL    HW112788   6.505   2.822   4.920
 3963SOL    HW212789   6.429   2.793   5.061
 3964SOL     OW12790   5.900   5.299   6.575
 3964SOL    HW112791   5.978   5.300   6.637
 3964SOL    HW212792   5.821   5.256   6.621
 3965SOL     OW12793   2.081   5.273   1.870
 3965SOL    HW112794   2.024   5.298   1.792
 3965SOL    HW212795   2.073   5.175   1.888
 3966SOL     OW12796   6.685   4.465   5.574
 3966SOL    HW112797   6.720   4.439   5.484
 3966SOL    HW212798   6.643   4.555   5.568
 3967SOL     OW12799   2.909   0.321   0.772
 3967SOL    HW112800   2.919   0.237   0.718
 3967SOL    HW212801   2.925   0.400   0.714
 3968SOL     OW12802   4.712   2.517   0.821
 3968SOL    HW112803   4.739   2.583   0.891
 3968SOL    HW212804   4.739   2.425   0.850
 3969SOL     OW12805   6.405   6.499   1.603
 3969SOL    HW112806   6.440   6.492   1.696
 3969SOL    HW212807   6.329   6.565   1.601
 3970SOL     OW12808   5.877   3.892   3.441
 3970SOL    HW112809   5.801   3.943   3.480
 3970SOL    HW212810   5.904   3.819   3.503
 3971SOL     OW12811   6.880   5.649   4.030
 3971SOL    HW112812   6.869   5.562   4.078
 3971SOL    HW212813   6.935   5.712   4.085
 3972SOL     OW12814   0.543   0.718   6.391
 3972SOL    HW112815   0.531   0.718   6.291
 3972SOL    HW212816   0.454   0.708   6.435
 3973SOL     OW12817   3.942   3.136   1.590
 3973SOL    HW112818   3.931   3.226   1.546
 3973SOL    HW212819   3.989   3.074   1.527
 3974SOL     OW12820   5.329   0.891   6.863
 3974SOL    HW112821   5.376   0.976   6.885
 3974SOL    HW212822   5.309   0.841   6.948
 3975SOL     OW12823   0.078   6.557   3.578
 3975SOL    HW112824   0.153   6.493   3.560
 3975SOL    HW212825   0.006   6.544   3.510
 3976SOL     OW12826   0.898   3.046   5.019
 3976SOL    HW112827   0.884   3.006   5.110
 3976SOL    HW212828   0.985   3.096   5.018
 3977SOL     OW12829   2.221   4.758   6.127
 3977SOL    HW112830   2.265   4.832   6.179
 3977SOL    HW212831   2.252   4.670   6.162
 3978SOL     OW12832   4.241   3.232   6.378
 3978SOL    HW112833   4.300   3.274   6.447
 3978SOL    HW212834   4.195   3.153   6.418
 3979SOL     OW12835   0.047   5.710   2.795
 3979SOL    HW112836   6.979   5.702   2.755
 3979SOL    HW212837   0.050   5.789   2.857
 3980SOL     OW12838   5.371   4.192   3.855
 3980SOL    HW112839   5.331   4.175   3.946
 3980SOL    HW212840   5.365   4.289   3.834
 3981SOL     OW12841   7.012   1.021   7.001
 3981SOL    HW112842   0.017   1.112   6.970
 3981SOL    HW212843   6.920   1.002   6.965
 3982SOL     OW12844   2.182   2.855   3.691
 3982SOL    HW112845   2.109   2.800   3.649
 3982SOL    HW212846   2.151   2.949   3.702
 3983SOL     OW12847   2.574   1.404   3.465
 3983SOL    HW112848   2.597   1.326   3.408
 3983SOL    HW212849   2.511   1.376   3.538
 3984SOL     OW12850   1.466   6.263   2.550
 3984SOL    HW112851   1.404   6.250   2.472
 3984SOL    HW212852   1.536   6.329   2.525
 3985SOL     OW12853   1.138   2.445   1.001
 3985SOL    HW112854   1.191   2.489   1.074
 3985SOL    HW212855   1.150   2.496   0.916
 3986SOL     OW12856   0.737   0.920   3.178
 3986SOL    HW112857   0.739   0.893   3.082
 3986SOL    HW212858   0.831   0.931   3.211
 3987SOL     OW12859   1.710   4.228   5.466
 3987SOL    HW112860   1.630   4.286   5.453
 3987SOL    HW212861   1.680   4.134   5.486
 3988SOL     OW12862   4.898   5.518   2.157
 3988SOL    HW112863   4.864   5.499   2.065
 3988SOL    HW212864   4.990   5.483   2.167
 3989SOL     OW12865   4.533   0.709   6.417
 3989SOL    HW112866   4.535   0.747   6.325
 3989SOL    HW212867   4.584   0.768   6.479
 3990SOL     OW12868   6.381   6.232   4.034
 3990SOL    HW112869   6.406   6.319   3.992
 3990SOL    HW212870   6.299   6.196   3.990
 3991SOL     OW12871   0.456   2.070   4.107
 3991SOL    HW112872   0.430   2.158   4.067
 3991SOL    HW212873   0.382   2.004   4.093
 3992SOL     OW12874   6.045   3.582   5.720
 3992SOL    HW112875   5.973   3.639   5.680
 3992SOL    HW212876   6.132   3.631   5.714
 3993SOL     OW12877   1.973   0.664   4.532
 3993SOL    HW112878   1.973   0.715   4.617
 3993SOL    HW212879   1.936   0.572   4.548
 3994SOL     OW12880   3.139   2.030   3.655
 3994SOL    HW112881   3.164   1.935   3.672
 3994SOL    HW212882   3.143   2.049   3.557
 3995SOL     OW12883   1.907   3.794   2.065
 3995SOL    HW112884   1.907   3.818   1.968
 3995SOL    HW212885   1.953   3.705   2.077
 3996SOL     OW12886   0.354   5.526   5.432
 3996SOL    HW112887   0.341   5.443   5.377
 3996SOL    HW212888   0.422   5.585   5.389
 3997SOL     OW12889   6.066   3.025   4.933
 3997SOL    HW112890   6.117   3.109   4.918
 3997SOL    HW212891   6.090   2.986   5.022
 3998SOL     OW12892   4.453   2.449   2.778
 3998SOL    HW112893   4.533   2.395   2.804
 3998SOL    HW212894   4.458   2.471   2.680
 3999SOL     OW12895   4.386   3.619   0.937
 3999SOL    HW112896   4.288   3.599   0.936
 3999SOL    HW212897   4.436   3.538   0.969
 4000SOL     OW12898   2.802   4.799   2.692
 4000SOL    HW112899   2.713   4.760   2.668
 4000SOL    HW212900   2.797   4.899   2.686
 4001SOL     OW12901   0.719   5.531   3.949
 4001SOL    HW112902   0.804   5.582   3.963
 4001SOL    HW212903   0.684   5.550   3.857
 4002SOL     OW12904   3.936   3.942   5.033
 4002SOL    HW112905   3.919   4.018   5.096
 4002SOL    HW212906   3.991   3.872   5.079
 4003SOL     OW12907   3.115   1.910   4.376
 4003SOL    HW112908   3.169   1.896   4.292
 4003SOL    HW212909   3.062   1.994   4.368
 4004SOL     OW12910   2.009   3.693   4.824
 4004SOL    HW112911   2.064   3.776   4.831
 4004SOL    HW212912   1.952   3.682   4.905
 4005SOL     OW12913   5.663   1.959   1.316
 4005SOL    HW112914   5.704   1.984   1.229
 4005SOL    HW212915   5.691   1.867   1.341
 4006SOL     OW12916   6.719   5.831   2.042
 4006SOL    HW112917   6.767   5.900   1.987
 4006SOL    HW212918   6.764   5.742   2.029
 4007SOL     OW12919   0.913   1.546   1.406
 4007SOL    HW112920   0.903   1.635   1.449
 4007SOL    HW212921   0.961   1.484   1.468
 4008SOL     OW12922   4.084   0.504   1.464
 4008SOL    HW112923   4.169   0.459   1.492
 4008SOL    HW212924   4.034   0.445   1.400
 4009SOL     OW12925   3.620   2.488   1.425
 4009SOL    HW112926   3.594   2.445   1.512
 4009SOL    HW212927   3.625   2.587   1.437
 4010SOL     OW12928   0.988   5.239   0.948
 4010SOL    HW112929   1.028   5.253   1.038
 4010SOL    HW212930   1.052   5.268   0.877
 4011SOL     OW12931   5.948   6.904   0.044
 4011SOL    HW112932   5.973   6.841   6.994
 4011SOL    HW212933   6.013   6.894   0.119
 4012SOL     OW12934   5.655   4.633   1.918
 4012SOL    HW112935   5.656   4.593   1.826
 4012SOL    HW212936   5.739   4.684   1.934
 4013SOL     OW12937   6.909   1.960   6.771
 4013SOL    HW112938   6.898   2.019   6.851
 4013SOL    HW212939   6.999   1.975   6.731
 4014SOL     OW12940   3.718   6.125   2.920
 4014SOL    HW112941   3.727   6.142   3.018
 4014SOL    HW212942   3.798   6.160   2.872
 4015SOL     OW12943   3.294   6.415   4.989
 4015SOL    HW112944   3.387   6.430   4.955
 4015SOL    HW212945   3.248   6.349   4.931
 4016SOL     OW12946   4.462   4.844   4.063
 4016SOL    HW112947   4.450   4.944   4.063
 4016SOL    HW212948   4.372   4.801   4.054
 4017SOL     OW12949   1.833   5.788   5.975
 4017SOL    HW112950   1.737   5.762   5.988
 4017SOL    HW212951   1.890   5.743   6.044
 4018SOL     OW12952   5.505   5.644   6.865
 4018SOL    HW112953   5.561   5.702   6.806
 4018SOL    HW212954   5.409   5.672   6.858
 4019SOL     OW12955   0.920   2.177   3.022
 4019SOL    HW112956   0.865   2.099   2.992
 4019SOL    HW212957   0.889   2.260   2.976
 4020SOL     OW12958   6.843   5.906   4.860
 4020SOL    HW112959   6.939   5.896   4.835
 4020SOL    HW212960   6.828   5.998   4.897
 4021SOL     OW12961   4.769   5.734   5.720
 4021SOL    HW112962   4.713   5.781   5.788
 4021SOL    HW212963   4.710   5.700   5.646
 4022SOL     OW12964   3.868   0.153   1.597
 4022SOL    HW112965   3.960   0.126   1.567
 4022SOL    HW212966   3.821   0.201   1.523
 4023SOL     OW12967   1.148   2.221   3.662
 4023SOL    HW112968   1.093   2.297   3.697
 4023SOL    HW212969   1.087   2.149   3.629
 4024SOL     OW12970   0.715   6.666   6.587
 4024SOL    HW112971   0.755   6.643   6.499
 4024SOL    HW212972   0.713   6.585   6.645
 4025SOL     OW12973   1.161   4.796   4.552
 4025SOL    HW112974   1.180   4.892   4.570
 4025SOL    HW212975   1.138   4.784   4.455
 4026SOL     OW12976   0.855   6.459   4.158
 4026SOL    HW112977   0.930   6.427   4.100
 4026SOL    HW212978   0.809   6.380   4.199
 4027SOL     OW12979   3.221   5.798   4.698
 4027SOL    HW112980   3.202   5.782   4.795
 4027SOL    HW212981   3.241   5.711   4.654
 4028SOL     OW12982   4.582   2.000   4.763
 4028SOL    HW112983   4.633   1.917   4.738
 4028SOL    HW212984   4.565   2.054   4.681
 4029SOL     OW12985   2.262   6.780   1.157
 4029SOL    HW112986   2.294   6.816   1.245
 4029SOL    HW212987   2.165   6.757   1.164
 4030SOL     OW12988   0.579   1.193   1.908
 4030SOL    HW112989   0.493   1.144   1.892
 4030SOL    HW212990   0.600   1.193   2.005
 4031SOL     OW12991   6.294   5.946   0.825
 4031SOL    HW112992   6.253   5.998   0.899
 4031SOL    HW212993   6.392   5.963   0.822
 4032SOL     OW12994   4.863   2.027   2.114
 4032SOL    HW112995   4.954   1.998   2.083
 4032SOL    HW212996   4.801   2.033   2.035
 4033SOL     OW12997   1.201   4.053   2.899
 4033SOL    HW112998   1.175   4.095   2.985
 4033SOL    HW212999   1.242   3.963   2.916
 4034SOL     OW13000   2.753   1.936   4.221
 4034SOL    HW113001   2.843   1.969   4.250
 4034SOL    HW213002   2.744   1.945   4.122
 4035SOL     OW13003   3.253   2.350   1.376
 4035SOL    HW113004   3.345   2.315   1.354
 4035SOL    HW213005   3.213   2.291   1.447
 4036SOL     OW13006   4.646   0.039   3.366
 4036SOL    HW113007   4.597   0.051   3.452
 4036SOL    HW213008   4.732   0.090   3.369
 4037SOL     OW13009   1.848   0.698   5.581
 4037SOL    HW113010   1.927   0.648   5.616
 4037SOL    HW213011   1.847   0.790   5.619
 4038SOL     OW13012   4.103   4.857   5.590
 4038SOL    HW113013   4.196   4.872   5.558
 4038SOL    HW213014   4.038   4.886   5.519
 4039SOL     OW13015   5.981   4.453   2.167
 4039SOL    HW113016   6.017   4.495   2.084
 4039SOL    HW213017   6.037   4.373   2.191
 4040SOL     OW13018   2.557   6.675   5.379
 4040SOL    HW113019   2.501   6.726   5.314
 4040SOL    HW213020   2.595   6.594   5.335
 4041SOL     OW13021   1.592   6.020   1.295
 4041SOL    HW113022   1.606   6.025   1.394
 4041SOL    HW213023   1.595   6.112   1.256
 4042SOL     OW13024   1.419   1.742   4.388
 4042SOL    HW113025   1.439   1.766   4.293
 4042SOL    HW213026   1.504   1.731   4.439
 4043SOL     OW13027   3.616   2.780   6.044
 4043SOL    HW113028   3.573   2.715   5.981
 4043SOL    HW213029   3.605   2.873   6.009
 4044SOL     OW13030   4.750   4.147   3.550
 4044SOL    HW113031   4.696   4.189   3.477
 4044SOL    HW213032   4.726   4.189   3.637
 4045SOL     OW13033   4.397   1.286   5.069
 4045SOL    HW113034   4.334   1.320   5.000
 4045SOL    HW213035   4.386   1.339   5.154
 4046SOL     OW13036   5.063   0.982   4.268
 4046SOL    HW113037   4.971   0.945   4.277
 4046SOL    HW213038   5.089   1.028   4.353
 4047SOL     OW13039   2.781   2.536   6.533
 4047SOL    HW113040   2.698   2.590   6.547
 4047SOL    HW213041   2.856   2.577   6.586
 4048SOL     OW13042   4.690   2.373   3.476
 4048SOL    HW113043   4.680   2.292   3.418
 4048SOL    HW213044   4.764   2.357   3.542
 4049SOL     OW13045   3.916   3.933   2.531
 4049SOL    HW113046   3.910   3.954   2.628
 4049SOL    HW213047   3.843   3.981   2.482
 4050SOL     OW13048   0.353   4.825   2.834
 4050SOL    HW113049   0.432   4.792   2.782
 4050SOL    HW213050   0.269   4.799   2.787
 4051SOL     OW13051   6.027   0.412   3.913
 4051SOL    HW113052   5.955   0.350   3.945
 4051SOL    HW213053   6.025   0.496   3.966
 4052SOL     OW13054   4.402   1.116   4.665
 4052SOL    HW113055   4.491   1.072   4.674
 4052SOL    HW213056   4.330   1.046   4.670
 4053SOL     OW13057   0.823   4.648   2.877
 4053SOL    HW113058   0.752   4.698   2.928
 4053SOL    HW213059   0.780   4.594   2.805
 4054SOL     OW13060   5.490   3.770   1.785
 4054SOL    HW113061   5.452   3.759   1.693
 4054SOL    HW213062   5.418   3.754   1.852
 4055SOL     OW13063   6.887   4.267   7.020
 4055SOL    HW113064   6.832   4.344   0.027
 4055SOL    HW213065   6.853   4.182   0.037
 4056SOL     OW13066   4.691   4.191   0.026
 4056SOL    HW113067   4.769   4.224   0.078
 4056SOL    HW213068   4.672   4.096   0.051
 4057SOL     OW13069   6.942   4.860   5.809
 4057SOL    HW113070   6.940   4.959   5.820
 4057SOL    HW213071   6.869   4.819   5.864
 4058SOL     OW13072   3.164   0.879   3.855
 4058SOL    HW113073   3.243   0.819   3.853
 4058SOL    HW213074   3.191   0.971   3.829
 4059SOL     OW13075   1.763   1.402   3.601
 4059SOL    HW113076   1.760   1.476   3.535
 4059SOL    HW213077   1.704   1.424   3.679
 4060SOL     OW13078   0.106   6.674   3.967
 4060SOL    HW113079   0.140   6.704   3.878
 4060SOL    HW213080   0.160   6.596   3.999
 4061SOL     OW13081   1.559   4.347   2.693
 4061SOL    HW113082   1.475   4.296   2.672
 4061SOL    HW213083   1.617   4.292   2.752
 4062SOL     OW13084   2.644   4.094   0.487
 4062SOL    HW113085   2.741   4.090   0.508
 4062SOL    HW213086   2.603   4.173   0.532
 4063SOL     OW13087   3.602   0.834   1.219
 4063SOL    HW113088   3.701   0.827   1.206
 4063SOL    HW213089   3.578   0.807   1.312
 4064SOL     OW13090   2.527   6.695   4.988
 4064SOL    HW113091   2.610   6.652   5.022
 4064SOL    HW213092   2.506   6.659   4.897
 4065SOL     OW13093   2.172   1.442   1.513
 4065SOL    HW113094   2.203   1.364   1.567
 4065SOL    HW213095   2.128   1.409   1.429
 4066SOL     OW13096   0.521   4.052   4.799
 4066SOL    HW113097   0.577   3.971   4.819
 4066SOL    HW213098   0.427   4.024   4.781
 4067SOL     OW13099   5.913   4.196   1.423
 4067SOL    HW113100   6.005   4.181   1.460
 4067SOL    HW213101   5.896   4.295   1.414
 4068SOL     OW13102   2.342   2.484   5.893
 4068SOL    HW113103   2.377   2.421   5.962
 4068SOL    HW213104   2.280   2.550   5.936
 4069SOL     OW13105   3.985   0.212   6.228
 4069SOL    HW113106   3.933   0.291   6.261
 4069SOL    HW213107   3.965   0.196   6.131
 4070SOL     OW13108   1.726   3.787   4.252
 4070SOL    HW113109   1.635   3.821   4.274
 4070SOL    HW213110   1.789   3.864   4.238
 4071SOL     OW13111   1.286   0.510   5.429
 4071SOL    HW113112   1.291   0.421   5.475
 4071SOL    HW213113   1.217   0.507   5.357
 4072SOL     OW13114   2.809   6.413   2.668
 4072SOL    HW113115   2.795   6.511   2.653
 4072SOL    HW213116   2.800   6.365   2.581
 4073SOL     OW13117   4.734   5.235   6.899
 4073SOL    HW113118   4.651   5.245   6.844
 4073SOL    HW213119   4.810   5.205   6.841
 4074SOL     OW13120   1.620   5.499   2.143
 4074SOL    HW113121   1.620   5.533   2.237
 4074SOL    HW213122   1.714   5.482   2.114
 4075SOL     OW13123   5.323   0.411   6.776
 4075SOL    HW113124   5.397   0.444   6.719
 4075SOL    HW213125   5.267   0.488   6.806
 4076SOL     OW13126   2.416   5.679   3.657
 4076SOL    HW113127   2.437   5.773   3.683
 4076SOL    HW213128   2.497   5.638   3.616
 4077SOL     OW13129   2.476   1.977   1.485
 4077SOL    HW113130   2.493   1.879   1.494
 4077SOL    HW213131   2.557   2.028   1.514
 4078SOL     OW13132   4.473   4.944   1.998
 4078SOL    HW113133   4.517   4.954   2.088
 4078SOL    HW213134   4.506   5.016   1.938
 4079SOL     OW13135   0.794   2.367   4.203
 4079SOL    HW113136   0.845   2.300   4.149
 4079SOL    HW213137   0.827   2.367   4.297
 4080SOL     OW13138   6.093   2.367   4.622
 4080SOL    HW113139   6.008   2.334   4.663
 4080SOL    HW213140   6.107   2.324   4.533
 4081SOL     OW13141   6.322   3.509   2.454
 4081SOL    HW113142   6.417   3.491   2.479
 4081SOL    HW213143   6.268   3.425   2.462
 4082SOL     OW13144   0.549   3.856   0.683
 4082SOL    HW113145   0.606   3.935   0.707
 4082SOL    HW213146   0.453   3.883   0.686
 4083SOL     OW13147   6.653   3.441   5.501
 4083SOL    HW113148   6.640   3.344   5.521
 4083SOL    HW213149   6.726   3.478   5.558
 4084SOL     OW13150   4.902   0.607   3.993
 4084SOL    HW113151   4.961   0.586   4.071
 4084SOL    HW213152   4.864   0.699   4.003
 4085SOL     OW13153   2.801   5.308   6.762
 4085SOL    HW113154   2.862   5.386   6.775
 4085SOL    HW213155   2.711   5.329   6.801
 4086SOL     OW13156   7.023   2.172   1.668
 4086SOL    HW113157   6.935   2.200   1.709
 4086SOL    HW213158   7.013   2.167   1.569
 4087SOL     OW13159   1.080   0.798   3.239
 4087SOL    HW113160   1.068   0.870   3.171
 4087SOL    HW213161   1.110   0.839   3.325
 4088SOL     OW13162   0.211   2.787   6.420
 4088SOL    HW113163   0.294   2.843   6.428
 4088SOL    HW213164   0.231   2.694   6.451
 4089SOL     OW13165   0.350   1.775   5.518
 4089SOL    HW113166   0.371   1.688   5.474
 4089SOL    HW213167   0.422   1.799   5.583
 4090SOL     OW13168   3.581   5.335   6.569
 4090SOL    HW113169   3.597   5.270   6.644
 4090SOL    HW213170   3.499   5.389   6.588
 4091SOL     OW13171   4.142   6.304   1.381
 4091SOL    HW113172   4.112   6.288   1.287
 4091SOL    HW213173   4.062   6.312   1.440
 4092SOL     OW13174   1.231   1.335   3.818
 4092SOL    HW113175   1.225   1.295   3.726
 4092SOL    HW213176   1.142   1.373   3.844
 4093SOL     OW13177   4.533   6.933   3.968
 4093SOL    HW113178   4.606   6.955   4.032
 4093SOL    HW213179   4.522   6.833   3.963
 4094SOL     OW13180   3.006   3.195   6.447
 4094SOL    HW113181   3.059   3.202   6.363
 4094SOL    HW213182   3.061   3.154   6.519
 4095SOL     OW13183   1.728   3.805   5.948
 4095SOL    HW113184   1.744   3.896   5.986
 4095SOL    HW213185   1.768   3.737   6.009
 4096SOL     OW13186   4.547   4.571   1.539
 4096SOL    HW113187   4.604   4.607   1.613
 4096SOL    HW213188   4.602   4.514   1.479
 4097SOL     OW13189   3.539   3.607   3.004
 4097SOL    HW113190   3.535   3.535   3.073
 4097SOL    HW213191   3.629   3.650   3.005
 4098SOL     OW13192   1.293   3.260   2.423
 4098SOL    HW113193   1.303   3.236   2.519
 4098SOL    HW213194   1.378   3.302   2.390
 4099SOL     OW13195   2.290   6.486   1.490
 4099SOL    HW113196   2.353   6.462   1.416
 4099SOL    HW213197   2.232   6.562   1.462
 4100SOL     OW13198   3.468   0.192   3.028
 4100SOL    HW113199   3.496   0.251   2.952
 4100SOL    HW213200   3.465   0.245   3.112
 4101SOL     OW13201   4.875   1.756   0.139
 4101SOL    HW113202   4.817   1.818   0.087
 4101SOL    HW213203   4.822   1.677   0.169
 4102SOL     OW13204   4.687   1.523   5.747
 4102SOL    HW113205   4.762   1.500   5.685
 4102SOL    HW213206   4.614   1.455   5.738
 4103SOL     OW13207   6.852   6.752   2.060
 4103SOL    HW113208   6.949   6.732   2.049
 4103SOL    HW213209   6.814   6.777   1.971
 4104SOL     OW13210   2.287   4.451   2.144
 4104SOL    HW113211   2.304   4.426   2.239
 4104SOL    HW213212   2.288   4.368   2.088
 4105SOL     OW13213   6.288   4.945   0.904
 4105SOL    HW113214   6.193   4.913   0.894
 4105SOL    HW213215   6.288   5.044   0.917
 4106SOL     OW13216   0.253   3.137   4.457
 4106SOL    HW113217   0.177   3.095   4.407
 4106SOL    HW213218   0.217   3.204   4.522
 4107SOL     OW13219   6.802   0.581   0.870
 4107SOL    HW113220   6.898   0.556   0.881
 4107SOL    HW213221   6.763   0.605   0.959
 4108SOL     OW13222   6.217   2.185   5.083
 4108SOL    HW113223   6.315   2.162   5.087
 4108SOL    HW213224   6.207   2.283   5.067
 4109SOL     OW13225   2.060   6.376   3.839
 4109SOL    HW113226   1.967   6.380   3.876
 4109SOL    HW213227   2.057   6.337   3.747
 4110SOL     OW13228   4.911   3.327   5.085
 4110SOL    HW113229   4.882   3.281   5.002
 4110SOL    HW213230   4.850   3.405   5.103
 4111SOL     OW13231   3.848   3.293   6.528
 4111SOL    HW113232   3.885   3.202   6.543
 4111SOL    HW213233   3.767   3.287   6.469
 4112SOL     OW13234   3.777   0.866   5.798
 4112SOL    HW113235   3.764   0.913   5.885
 4112SOL    HW213236   3.804   0.933   5.728
 4113SOL     OW13237   3.635   5.430   3.989
 4113SOL    HW113238   3.576   5.351   4.004
 4113SOL    HW213239   3.619   5.498   4.061
 4114SOL     OW13240   3.628   1.613   3.304
 4114SOL    HW113241   3.660   1.552   3.231
 4114SOL    HW213242   3.528   1.616   3.303
 4115SOL     OW13243   5.143   3.623   3.272
 4115SOL    HW113244   5.232   3.582   3.293
 4115SOL    HW213245   5.141   3.653   3.177
 4116SOL     OW13246   2.685   1.439   1.407
 4116SOL    HW113247   2.717   1.505   1.340
 4116SOL    HW213248   2.682   1.348   1.366
 4117SOL     OW13249   1.466   5.940   1.869
 4117SOL    HW113250   1.386   5.954   1.810
 4117SOL    HW213251   1.487   5.843   1.876
 4118SOL     OW13252   1.824   0.878   5.913
 4118SOL    HW113253   1.876   0.950   5.959
 4118SOL    HW213254   1.883   0.797   5.901
 4119SOL     OW13255   5.065   1.483   3.232
 4119SOL    HW113256   5.043   1.400   3.284
 4119SOL    HW213257   5.085   1.460   3.137
 4120SOL     OW13258   5.803   0.854   2.012
 4120SOL    HW113259   5.743   0.867   1.933
 4120SOL    HW213260   5.771   0.910   2.088
 4121SOL     OW13261   5.326   2.153   3.838
 4121SOL    HW113262   5.243   2.100   3.858
 4121SOL    HW213263   5.389   2.147   3.916
 4122SOL     OW13264   2.226   5.119   0.255
 4122SOL    HW113265   2.242   5.216   0.273
 4122SOL    HW213266   2.256   5.064   0.333
 4123SOL     OW13267   3.824   3.642   5.209
 4123SOL    HW113268   3.917   3.626   5.178
 4123SOL    HW213269   3.824   3.713   5.280
 4124SOL     OW13270   4.583   6.216   2.860
 4124SOL    HW113271   4.540   6.284   2.920
 4124SOL    HW213272   4.682   6.230   2.859
 4125SOL     OW13273   4.828   1.872   1.511
 4125SOL    HW113274   4.760   1.886   1.438
 4125SOL    HW213275   4.833   1.775   1.532
 4126SOL     OW13276   1.862   4.174   4.832
 4126SOL    HW113277   1.827   4.149   4.923
 4126SOL    HW213278   1.859   4.093   4.773
 4127SOL     OW13279   5.076   4.722   3.993
 4127SOL    HW113280   5.082   4.768   4.081
 4127SOL    HW213281   5.146   4.651   3.988
 4128SOL     OW13282   0.189   1.878   1.935
 4128SOL    HW113283   0.233   1.788   1.941
 4128SOL    HW213284   0.204   1.917   1.845
 4129SOL     OW13285   0.086   2.928   0.361
 4129SOL    HW113286   0.073   2.873   0.278
 4129SOL    HW213287   0.102   2.867   0.439
 4130SOL     OW13288   6.682   1.813   1.213
 4130SOL    HW113289   6.611   1.881   1.229
 4130SOL    HW213290   6.770   1.849   1.244
 4131SOL     OW13291   6.986   3.607   3.435
 4131SOL    HW113292   6.946   3.695   3.460
 4131SOL    HW213293   6.914   3.539   3.428
 4132SOL     OW13294   4.470   1.503   4.439
 4132SOL    HW113295   4.489   1.411   4.403
 4132SOL    HW213296   4.451   1.497   4.537
 4133SOL     OW13297   2.688   2.783   0.518
 4133SOL    HW113298   2.778   2.789   0.562
 4133SOL    HW213299   2.665   2.687   0.503
 4134SOL     OW13300   2.366   1.326   0.087
 4134SOL    HW113301   2.410   1.239   0.067
 4134SOL    HW213302   2.431   1.401   0.070
 4135SOL     OW13303   1.731   0.326   0.677
 4135SOL    HW113304   1.724   0.403   0.740
 4135SOL    HW213305   1.819   0.281   0.688
 4136SOL     OW13306   1.379   1.924   3.266
 4136SOL    HW113307   1.400   1.963   3.355
 4136SOL    HW213308   1.455   1.941   3.204
 4137SOL     OW13309   3.731   3.015   4.872
 4137SOL    HW113310   3.692   2.958   4.800
 4137SOL    HW213311   3.813   3.061   4.837
 4138SOL     OW13312   4.999   5.249   1.450
 4138SOL    HW113313   4.934   5.273   1.378
 4138SOL    HW213314   5.082   5.211   1.408
 4139SOL     OW13315   2.854   1.604   6.855
 4139SOL    HW113316   2.821   1.698   6.844
 4139SOL    HW213317   2.936   1.591   6.800
 4140SOL     OW13318   4.778   2.545   4.773
 4140SOL    HW113319   4.720   2.608   4.721
 4140SOL    HW213320   4.796   2.463   4.718
 4141SOL     OW13321   5.257   6.144   1.025
 4141SOL    HW113322   5.345   6.134   1.072
 4141SOL    HW213323   5.254   6.232   0.977
 4142SOL     OW13324   6.087   3.112   1.738
 4142SOL    HW113325   6.051   3.194   1.784
 4142SOL    HW213326   6.030   3.092   1.658
 4143SOL     OW13327   1.844   2.679   1.745
 4143SOL    HW113328   1.906   2.605   1.717
 4143SOL    HW213329   1.872   2.713   1.835
 4144SOL     OW13330   4.187   0.840   2.453
 4144SOL    HW113331   4.248   0.774   2.498
 4144SOL    HW213332   4.235   0.882   2.376
 4145SOL     OW13333   2.956   0.108   3.588
 4145SOL    HW113334   2.921   0.062   3.669
 4145SOL    HW213335   2.879   0.136   3.530
 4146SOL     OW13336   5.099   4.852   0.583
 4146SOL    HW113337   5.169   4.789   0.617
 4146SOL    HW213338   5.111   4.864   0.484
 4147SOL     OW13339   2.766   1.611   5.676
 4147SOL    HW113340   2.827   1.672   5.625
 4147SOL    HW213341   2.748   1.650   5.767
 4148SOL     OW13342   6.796   6.587   2.314
 4148SOL    HW113343   6.770   6.647   2.239
 4148SOL    HW213344   6.886   6.615   2.348
 4149SOL     OW13345   4.757   4.198   2.176
 4149SOL    HW113346   4.675   4.215   2.122
 4149SOL    HW213347   4.738   4.213   2.273
 4150SOL     OW13348   3.330   0.534   4.810
 4150SOL    HW113349   3.262   0.555   4.880
 4150SOL    HW213350   3.284   0.497   4.729
 4151SOL     OW13351   0.411   5.760   6.984
 4151SOL    HW113352   0.339   5.694   6.962
 4151SOL    HW213353   0.463   5.727   0.039
 4152SOL     OW13354   3.701   4.250   0.947
 4152SOL    HW113355   3.750   4.336   0.965
 4152SOL    HW213356   3.743   4.176   0.998
 4153SOL     OW13357   6.138   5.936   6.356
 4153SOL    HW113358   6.201   5.922   6.432
 4153SOL    HW213359   6.069   5.863   6.356
 4154SOL     OW13360   4.575   2.555   4.481
 4154SOL    HW113361   4.503   2.490   4.507
 4154SOL    HW213362   4.645   2.507   4.427
 4155SOL     OW13363   1.836   3.057   0.589
 4155SOL    HW113364   1.869   3.136   0.537
 4155SOL    HW213365   1.914   3.000   0.615
 4156SOL     OW13366   6.140   1.242   5.624
 4156SOL    HW113367   6.156   1.250   5.525
 4156SOL    HW213368   6.101   1.327   5.658
 4157SOL     OW13369   3.551   1.004   3.800
 4157SOL    HW113370   3.642   1.007   3.841
 4157SOL    HW213371   3.543   0.923   3.741
 4158SOL     OW13372   0.644   0.173   3.137
 4158SOL    HW113373   0.632   0.270   3.159
 4158SOL    HW213374   0.601   0.152   3.050
 4159SOL     OW13375   0.673   4.805   5.465
 4159SOL    HW113376   0.694   4.724   5.409
 4159SOL    HW213377   0.758   4.845   5.498
 4160SOL     OW13378   6.584   0.880   1.665
 4160SOL    HW113379   6.659   0.879   1.598
 4160SOL    HW213380   6.511   0.819   1.635
 4161SOL     OW13381   6.571   0.947   1.946
 4161SOL    HW113382   6.541   1.041   1.930
 4161SOL    HW213383   6.584   0.901   1.858
 4162SOL     OW13384   0.965   6.852   4.867
 4162SOL    HW113385   0.975   6.753   4.860
 4162SOL    HW213386   1.052   6.893   4.894
 4163SOL     OW13387   0.378   1.958   5.159
 4163SOL    HW113388   0.359   1.860   5.165
 4163SOL    HW213389   0.381   1.986   5.063
 4164SOL     OW13390   2.711   6.779   5.615
 4164SOL    HW113391   2.806   6.801   5.593
 4164SOL    HW213392   2.669   6.731   5.539
 4165SOL     OW13393   1.161   6.345   1.182
 4165SOL    HW113394   1.245   6.339   1.127
 4165SOL    HW213395   1.086   6.379   1.125
 4166SOL     OW13396   6.195   1.943   2.637
 4166SOL    HW113397   6.264   1.995   2.588
 4166SOL    HW213398   6.176   1.858   2.589
 4167SOL     OW13399   1.714   2.725   1.286
 4167SOL    HW113400   1.775   2.687   1.217
 4167SOL    HW213401   1.699   2.822   1.268
 4168SOL     OW13402   2.396   6.110   0.612
 4168SOL    HW113403   2.489   6.093   0.579
 4168SOL    HW213404   2.400   6.170   0.692
 4169SOL     OW13405   6.274   3.745   6.437
 4169SOL    HW113406   6.354   3.732   6.496
 4169SOL    HW213407   6.238   3.656   6.410
 4170SOL     OW13408   3.212   0.885   5.521
 4170SOL    HW113409   3.185   0.804   5.573
 4170SOL    HW213410   3.131   0.930   5.485
 4171SOL     OW13411   6.349   2.963   1.689
 4171SOL    HW113412   6.367   2.967   1.591
 4171SOL    HW213413   6.266   3.014   1.711
 4172SOL     OW13414   3.040   0.521   1.143
 4172SOL    HW113415   3.055   0.425   1.118
 4172SOL    HW213416   3.030   0.528   1.243
 4173SOL     OW13417   4.219   4.136   5.748
 4173SOL    HW113418   4.310   4.096   5.757
 4173SOL    HW213419   4.172   4.134   5.836
 4174SOL     OW13420   4.599   0.981   3.653
 4174SOL    HW113421   4.628   0.891   3.622
 4174SOL    HW213422   4.578   0.979   3.750
 4175SOL     OW13423   2.312   1.529   2.246
 4175SOL    HW113424   2.386   1.564   2.188
 4175SOL    HW213425   2.259   1.606   2.283
 4176SOL     OW13426   5.772   4.804   3.328
 4176SOL    HW113427   5.790   4.856   3.244
 4176SOL    HW213428   5.841   4.826   3.396
 4177SOL     OW13429   0.155   6.121   2.776
 4177SOL    HW113430   0.056   6.117   2.761
 4177SOL    HW213431   0.195   6.031   2.763
 4178SOL     OW13432   4.253   2.752   5.430
 4178SOL    HW113433   4.227   2.685   5.500
 4178SOL    HW213434   4.224   2.719   5.340
 4179SOL     OW13435   0.093   1.545   7.017
 4179SOL    HW113436   0.140   1.506   0.073
 4179SOL    HW213437   0.069   1.640   0.012
 4180SOL     OW13438   5.626   4.154   1.638
 4180SOL    HW113439   5.564   4.222   1.600
 4180SOL    HW213440   5.721   4.186   1.629
 4181SOL     OW13441   6.228   1.087   0.070
 4181SOL    HW113442   6.236   1.066   6.996
 4181SOL    HW213443   6.139   1.128   0.088
 4182SOL     OW13444   5.901   0.889   4.035
 4182SOL    HW113445   5.944   0.835   4.108
 4182SOL    HW213446   5.966   0.957   4.002
 4183SOL     OW13447   0.787   0.451   1.691
 4183SOL    HW113448   0.824   0.530   1.741
 4183SOL    HW213449   0.863   0.398   1.653
 4184SOL     OW13450   4.314   4.826   6.091
 4184SOL    HW113451   4.263   4.754   6.043
 4184SOL    HW213452   4.250   4.888   6.136
 4185SOL     OW13453   0.084   0.876   4.687
 4185SOL    HW113454   0.116   0.781   4.690
 4185SOL    HW213455   7.015   0.879   4.651
 4186SOL     OW13456   3.322   3.972   1.889
 4186SOL    HW113457   3.377   3.948   1.969
 4186SOL    HW213458   3.237   4.015   1.918
 4187SOL     OW13459   4.821   5.394   5.634
 4187SOL    HW113460   4.792   5.459   5.564
 4187SOL    HW213461   4.920   5.383   5.630
 4188SOL     OW13462   5.443   5.601   2.551
 4188SOL    HW113463   5.364   5.610   2.490
 4188SOL    HW213464   5.488   5.513   2.533
 4189SOL     OW13465   1.177   3.131   3.032
 4189SOL    HW113466   1.233   3.052   3.057
 4189SOL    HW213467   1.155   3.126   2.934
 4190SOL     OW13468   2.439   6.438   1.858
 4190SOL    HW113469   2.389   6.479   1.933
 4190SOL    HW213470   2.482   6.509   1.803
 4191SOL     OW13471   0.296   2.075   3.843
 4191SOL    HW113472   0.338   2.157   3.881
 4191SOL    HW213473   0.364   2.003   3.835
 4192SOL     OW13474   5.996   6.443   3.850
 4192SOL    HW113475   6.032   6.363   3.802
 4192SOL    HW213476   6.065   6.515   3.851
 4193SOL     OW13477   1.395   6.810   3.953
 4193SOL    HW113478   1.404   6.792   4.051
 4193SOL    HW213479   1.474   6.862   3.922
 4194SOL     OW13480   4.991   0.121   3.094
 4194SOL    HW113481   5.066   0.057   3.114
 4194SOL    HW213482   4.998   0.200   3.155
 4195SOL     OW13483   4.558   0.354   3.362
 4195SOL    HW113484   4.550   0.346   3.262
 4195SOL    HW213485   4.505   0.282   3.406
 4196SOL     OW13486   4.955   2.857   2.951
 4196SOL    HW113487   4.879   2.813   2.903
 4196SOL    HW213488   5.018   2.787   2.986
 4197SOL     OW13489   5.695   4.614   4.801
 4197SOL    HW113490   5.709   4.515   4.792
 4197SOL    HW213491   5.688   4.655   4.710
 4198SOL     OW13492   6.461   3.450   5.892
 4198SOL    HW113493   6.438   3.524   5.829
 4198SOL    HW213494   6.432   3.363   5.853
 4199SOL     OW13495   3.167   4.462   5.998
 4199SOL    HW113496   3.137   4.368   6.015
 4199SOL    HW213497   3.091   4.515   5.961
 4200SOL     OW13498   2.866   0.616   5.691
 4200SOL    HW113499   2.869   0.654   5.598
 4200SOL    HW213500   2.874   0.690   5.758
 4201SOL     OW13501   6.163   0.292   5.130
 4201SOL    HW113502   6.165   0.348   5.213
 4201SOL    HW213503   6.128   0.201   5.152
 4202SOL     OW13504   5.795   3.351   4.974
 4202SOL    HW113505   5.859   3.414   5.018
 4202SOL    HW213506   5.725   3.324   5.040
 4203SOL     OW13507   3.482   5.790   4.737
 4203SOL    HW113508   3.522   5.698   4.745
 4203SOL    HW213509   3.384   5.782   4.722
 4204SOL     OW13510   1.812   4.384   0.364
 4204SOL    HW113511   1.761   4.389   0.278
 4204SOL    HW213512   1.909   4.399   0.346
 4205SOL     OW13513   2.433   6.483   3.477
 4205SOL    HW113514   2.473   6.524   3.559
 4205SOL    HW213515   2.350   6.532   3.452
 4206SOL     OW13516   4.681   6.500   3.745
 4206SOL    HW113517   4.769   6.538   3.772
 4206SOL    HW213518   4.665   6.519   3.648
 4207SOL     OW13519   1.674   6.390   0.058
 4207SOL    HW113520   1.715   6.313   0.009
 4207SOL    HW213521   1.718   6.400   0.147
 4208SOL     OW13522   0.881   1.808   1.961
 4208SOL    HW113523   0.904   1.722   2.008
 4208SOL    HW213524   0.956   1.833   1.900
 4209SOL     OW13525   2.572   0.407   5.645
 4209SOL    HW113526   2.549   0.348   5.722
 4209SOL    HW213527   2.645   0.469   5.671
 4210SOL     OW13528   3.760   3.282   0.548
 4210SOL    HW113529   3.734   3.350   0.616
 4210SOL    HW213530   3.859   3.284   0.535
 4211SOL     OW13531   6.303   3.320   3.843
 4211SOL    HW113532   6.257   3.250   3.788
 4211SOL    HW213533   6.392   3.341   3.801
 4212SOL     OW13534   6.051   6.923   1.917
 4212SOL    HW113535   5.999   6.953   1.837
 4212SOL    HW213536   6.125   6.862   1.888
 4213SOL     OW13537   0.843   0.075   0.725
 4213SOL    HW113538   0.870   0.024   0.643
 4213SOL    HW213539   0.749   0.106   0.715
 4214SOL     OW13540   3.077   5.373   3.643
 4214SOL    HW113541   3.172   5.357   3.672
 4214SOL    HW213542   3.018   5.302   3.683
 4215SOL     OW13543   1.506   5.996   6.761
 4215SOL    HW113544   1.419   5.966   6.799
 4215SOL    HW213545   1.578   5.932   6.787
 4216SOL     OW13546   2.412   2.744   5.182
 4216SOL    HW113547   2.427   2.759   5.280
 4216SOL    HW213548   2.395   2.831   5.137
 4217SOL     OW13549   6.319   0.598   4.980
 4217SOL    HW113550   6.319   0.505   5.017
 4217SOL    HW213551   6.267   0.658   5.040
 4218SOL     OW13552   3.400   5.441   2.575
 4218SOL    HW113553   3.310   5.473   2.546
 4218SOL    HW213554   3.431   5.495   2.653
 4219SOL     OW13555   5.293   0.313   2.632
 4219SOL    HW113556   5.270   0.400   2.588
 4219SOL    HW213557   5.333   0.251   2.564
 4220SOL     OW13558   0.413   4.526   3.042
 4220SOL    HW113559   0.483   4.457   3.023
 4220SOL    HW213560   0.338   4.516   2.977
 4221SOL     OW13561   5.227   6.171   5.859
 4221SOL    HW113562   5.313   6.152   5.907
 4221SOL    HW213563   5.226   6.267   5.828
 4222SOL     OW13564   2.269   3.055   0.207
 4222SOL    HW113565   2.320   3.081   0.125
 4222SOL    HW213566   2.254   2.956   0.206
 4223SOL     OW13567   3.695   4.024   2.738
 4223SOL    HW113568   3.610   4.047   2.692
 4223SOL    HW213569   3.718   4.095   2.804
 4224SOL     OW13570   3.363   2.147   5.204
 4224SOL    HW113571   3.295   2.209   5.164
 4224SOL    HW213572   3.317   2.082   5.265
 4225SOL     OW13573   4.901   6.807   4.613
 4225SOL    HW113574   4.898   6.733   4.680
 4225SOL    HW213575   4.975   6.789   4.548
 4226SOL     OW13576   2.407   1.901   1.887
 4226SOL    HW113577   2.422   1.876   1.982
 4226SOL    HW213578   2.494   1.912   1.841
 4227SOL     OW13579   5.543   3.717   0.359
 4227SOL    HW113580   5.562   3.813   0.381
 4227SOL    HW213581   5.575   3.697   0.267
 4228SOL     OW13582   4.521   5.494   3.053
 4228SOL    HW113583   4.481   5.551   2.981
 4228SOL    HW213584   4.613   5.467   3.027
 4229SOL     OW13585   4.555   4.839   4.559
 4229SOL    HW113586   4.619   4.811   4.631
 4229SOL    HW213587   4.478   4.776   4.558
 4230SOL     OW13588   1.560   1.270   5.257
 4230SOL    HW113589   1.478   1.216   5.275
 4230SOL    HW213590   1.571   1.282   5.158
 4231SOL     OW13591   3.832   6.672   6.477
 4231SOL    HW113592   3.815   6.767   6.449
 4231SOL    HW213593   3.827   6.666   6.577
 4232SOL     OW13594   1.579   3.948   1.345
 4232SOL    HW113595   1.481   3.927   1.339
 4232SOL    HW213596   1.611   3.926   1.437
 4233SOL     OW13597   4.879   5.305   1.209
 4233SOL    HW113598   4.853   5.219   1.163
 4233SOL    HW213599   4.805   5.372   1.197
 4234SOL     OW13600   3.718   3.535   5.889
 4234SOL    HW113601   3.791   3.522   5.956
 4234SOL    HW213602   3.634   3.561   5.937
 4235SOL     OW13603   0.693   4.114   4.586
 4235SOL    HW113604   0.615   4.136   4.644
 4235SOL    HW213605   0.760   4.061   4.639
 4236SOL     OW13606   1.096   3.500   4.500
 4236SOL    HW113607   1.099   3.495   4.400
 4236SOL    HW213608   1.029   3.568   4.528
 4237SOL     OW13609   5.071   3.555   5.467
 4237SOL    HW113610   5.041   3.589   5.378
 4237SOL    HW213611   5.135   3.479   5.454
 4238SOL     OW13612   4.969   4.678   4.953
 4238SOL    HW113613   4.891   4.670   5.015
 4238SOL    HW213614   5.044   4.724   5.000
 4239SOL     OW13615   5.021   4.845   5.167
 4239SOL    HW113616   5.059   4.911   5.231
 4239SOL    HW213617   4.942   4.800   5.209
 4240SOL     OW13618   2.069   4.388   6.235
 4240SOL    HW113619   2.005   4.326   6.189
 4240SOL    HW213620   2.140   4.416   6.171
 4241SOL     OW13621   3.249   2.254   0.421
 4241SOL    HW113622   3.204   2.166   0.403
 4241SOL    HW213623   3.328   2.264   0.360
 4242SOL     OW13624   2.616   0.623   1.922
 4242SOL    HW113625   2.686   0.578   1.866
 4242SOL    HW213626   2.654   0.645   2.011
 4243SOL     OW13627   1.851   1.936   1.892
 4243SOL    HW113628   1.939   1.893   1.910
 4243SOL    HW213629   1.850   2.027   1.934
 4244SOL     OW13630   2.607   0.165   1.035
 4244SOL    HW113631   2.507   0.169   1.046
 4244SOL    HW213632   2.632   0.082   0.986
 4245SOL     OW13633   0.667   1.485   1.328
 4245SOL    HW113634   0.764   1.505   1.344
 4245SOL    HW213635   0.612   1.528   1.400
 4246SOL     OW13636   3.435   2.145   3.342
 4246SOL    HW113637   3.508   2.110   3.283
 4246SOL    HW213638   3.471   2.157   3.434
 4247SOL     OW13639   2.488   5.110   6.668
 4247SOL    HW113640   2.554   5.072   6.732
 4247SOL    HW213641   2.396   5.105   6.706
 4248SOL     OW13642   2.634   6.707   1.958
 4248SOL    HW113643   2.563   6.758   2.005
 4248SOL    HW213644   2.722   6.754   1.968
 4249SOL     OW13645   6.254   1.212   5.356
 4249SOL    HW113646   6.346   1.251   5.357
 4249SOL    HW213647   6.249   1.138   5.289
 4250SOL     OW13648   0.804   5.421   4.368
 4250SOL    HW113649   0.889   5.442   4.415
 4250SOL    HW213650   0.746   5.365   4.427
 4251SOL     OW13651   4.559   1.924   5.226
 4251SOL    HW113652   4.596   1.831   5.228
 4251SOL    HW213653   4.618   1.983   5.171
 4252SOL     OW13654   0.476   6.737   6.691
 4252SOL    HW113655   0.561   6.728   6.640
 4252SOL    HW213656   0.484   6.688   6.779
 4253SOL     OW13657   3.537   0.310   2.796
 4253SOL    HW113658   3.584   0.286   2.712
 4253SOL    HW213659   3.565   0.402   2.825
 4254SOL     OW13660   0.987   0.641   4.933
 4254SOL    HW113661   0.941   0.626   4.845
 4254SOL    HW213662   0.944   0.719   4.979
 4255SOL     OW13663   1.518   3.066   4.341
 4255SOL    HW113664   1.546   3.141   4.281
 4255SOL    HW213665   1.451   3.099   4.407
 4256SOL     OW13666   6.093   5.898   1.147
 4256SOL    HW113667   6.044   5.845   1.217
 4256SOL    HW213668   6.027   5.944   1.088
 4257SOL     OW13669   0.171   1.437   2.416
 4257SOL    HW113670   0.255   1.399   2.376
 4257SOL    HW213671   0.094   1.376   2.396
 4258SOL     OW13672   2.550   6.476   0.869
 4258SOL    HW113673   2.557   6.508   0.775
 4258SOL    HW213674   2.476   6.526   0.916
 4259SOL     OW13675   1.114   0.489   0.162
 4259SOL    HW113676   1.064   0.544   0.230
 4259SOL    HW213677   1.064   0.488   0.076
 4260SOL     OW13678   6.957   0.498   5.580
 4260SOL    HW113679   6.990   0.404   5.585
 4260SOL    HW213680   6.997   0.551   5.655
 4261SOL     OW13681   2.041   6.292   3.275
 4261SOL    HW113682   2.064   6.313   3.180
 4261SOL    HW213683   1.943   6.275   3.283
 4262SOL     OW13684   1.505   3.960   4.338
 4262SOL    HW113685   1.574   3.975   4.408
 4262SOL    HW213686   1.428   4.023   4.352
 4263SOL     OW13687   3.222   0.961   2.401
 4263SOL    HW113688   3.147   0.945   2.465
 4263SOL    HW213689   3.192   0.941   2.308
 4264SOL     OW13690   4.081   2.289   6.261
 4264SOL    HW113691   4.064   2.275   6.359
 4264SOL    HW213692   3.997   2.320   6.217
 4265SOL     OW13693   3.375   6.055   6.452
 4265SOL    HW113694   3.319   6.100   6.382
 4265SOL    HW213695   3.440   5.993   6.409
 4266SOL     OW13696   1.263   3.779   2.962
 4266SOL    HW113697   1.180   3.725   2.946
 4266SOL    HW213698   1.328   3.764   2.887
 4267SOL     OW13699   1.525   3.541   3.661
 4267SOL    HW113700   1.512   3.533   3.760
 4267SOL    HW213701   1.436   3.557   3.617
 4268SOL     OW13702   1.414   4.460   5.402
 4268SOL    HW113703   1.436   4.557   5.396
 4268SOL    HW213704   1.314   4.449   5.408
 4269SOL     OW13705   2.159   1.800   4.187
 4269SOL    HW113706   2.061   1.782   4.200
 4269SOL    HW213707   2.176   1.897   4.203
 4270SOL     OW13708   4.039   4.216   1.121
 4270SOL    HW113709   4.111   4.206   1.189
 4270SOL    HW213710   3.960   4.160   1.147
 4271SOL     OW13711   6.321   0.243   7.000
 4271SOL    HW113712   6.242   0.188   6.972
 4271SOL    HW213713   6.329   0.241   0.076
 4272SOL     OW13714   6.534   2.013   5.666
 4272SOL    HW113715   6.634   2.009   5.677
 4272SOL    HW213716   6.510   2.093   5.612
 4273SOL     OW13717   3.375   6.357   3.750
 4273SOL    HW113718   3.404   6.268   3.713
 4273SOL    HW213719   3.367   6.423   3.676
 4274SOL     OW13720   6.299   0.454   2.319
 4274SOL    HW113721   6.304   0.456   2.219
 4274SOL    HW213722   6.252   0.371   2.348
 4275SOL     OW13723   5.669   1.678   4.210
 4275SOL    HW113724   5.620   1.663   4.296
 4275SOL    HW213725   5.767   1.680   4.228
 4276SOL     OW13726   2.079   0.880   2.973
 4276SOL    HW113727   1.979   0.880   2.977
 4276SOL    HW213728   2.115   0.929   3.052
 4277SOL     OW13729   6.434   4.604   2.918
 4277SOL    HW113730   6.470   4.514   2.894
 4277SOL    HW213731   6.467   4.629   3.009
 4278SOL     OW13732   0.646   6.814   1.384
 4278SOL    HW113733   0.581   6.888   1.401
 4278SOL    HW213734   0.649   6.753   1.463
 4279SOL     OW13735   1.451   3.676   2.780
 4279SOL    HW113736   1.421   3.660   2.686
 4279SOL    HW213737   1.547   3.648   2.789
 4280SOL     OW13738   2.564   6.823   6.189
 4280SOL    HW113739   2.535   6.765   6.112
 4280SOL    HW213740   2.557   6.771   6.274
 4281SOL     OW13741   6.584   6.597   2.987
 4281SOL    HW113742   6.656   6.651   2.943
 4281SOL    HW213743   6.523   6.560   2.917
 4282SOL     OW13744   5.044   4.790   2.545
 4282SOL    HW113745   5.041   4.823   2.450
 4282SOL    HW213746   5.005   4.698   2.548
 4283SOL     OW13747   6.909   2.002   5.387
 4283SOL    HW113748   6.853   2.014   5.469
 4283SOL    HW213749   6.932   1.905   5.377
 4284SOL     OW13750   4.893   6.271   0.108
 4284SOL    HW113751   4.890   6.190   0.050
 4284SOL    HW213752   4.888   6.243   0.204
 4285SOL     OW13753   2.978   1.686   6.119
 4285SOL    HW113754   3.055   1.667   6.180
 4285SOL    HW213755   2.964   1.609   6.058
 4286SOL     OW13756   5.275   6.858   6.758
 4286SOL    HW113757   5.357   6.915   6.757
 4286SOL    HW213758   5.264   6.816   6.848
 4287SOL     OW13759   4.466   0.064   0.808
 4287SOL    HW113760   4.480   0.115   0.722
 4287SOL    HW213761   4.511   0.113   0.883
 4288SOL     OW13762   6.437   6.557   2.736
 4288SOL    HW113763   6.396   6.496   2.668
 4288SOL    HW213764   6.500   6.621   2.690
 4289SOL     OW13765   0.079   4.661   5.732
 4289SOL    HW113766   0.021   4.729   5.777
 4289SOL    HW213767   0.055   4.570   5.764
 4290SOL     OW13768   0.169   0.948   2.851
 4290SOL    HW113769   0.162   0.890   2.931
 4290SOL    HW213770   0.117   1.033   2.867
 4291SOL     OW13771   4.771   5.000   5.670
 4291SOL    HW113772   4.742   4.933   5.739
 4291SOL    HW213773   4.737   4.972   5.580
 4292SOL     OW13774   6.356   0.141   0.248
 4292SOL    HW113775   6.429   0.088   0.291
 4292SOL    HW213776   6.279   0.149   0.311
 4293SOL     OW13777   4.192   2.145   6.000
 4293SOL    HW113778   4.230   2.211   6.066
 4293SOL    HW213779   4.254   2.067   5.991
 4294SOL     OW13780   3.070   1.650   0.240
 4294SOL    HW113781   3.121   1.640   0.155
 4294SOL    HW213782   2.977   1.681   0.219
 4295SOL     OW13783   4.078   6.910   2.720
 4295SOL    HW113784   3.987   6.881   2.691
 4295SOL    HW213785   4.118   6.970   2.651
 4296SOL     OW13786   1.788   5.176   1.619
 4296SOL    HW113787   1.842   5.096   1.646
 4296SOL    HW213788   1.765   5.229   1.701
 4297SOL     OW13789   5.113   4.192   0.179
 4297SOL    HW113790   5.097   4.102   0.138
 4297SOL    HW213791   5.101   4.186   0.278
 4298SOL     OW13792   2.002   6.411   0.770
 4298SOL    HW113793   1.963   6.503   0.761
 4298SOL    HW213794   2.102   6.417   0.768
 4299SOL     OW13795   0.010   3.562   0.014
 4299SOL    HW113796   0.063   3.556   6.953
 4299SOL    HW213797   6.936   3.554   7.016
 4300SOL     OW13798   3.822   0.741   2.253
 4300SOL    HW113799   3.797   0.827   2.208
 4300SOL    HW213800   3.812   0.751   2.351
 4301SOL     OW13801   1.856   6.101   4.547
 4301SOL    HW113802   1.882   6.152   4.629
 4301SOL    HW213803   1.789   6.030   4.571
 4302SOL     OW13804   3.679   4.866   0.046
 4302SOL    HW113805   3.617   4.827   7.002
 4302SOL    HW213806   3.773   4.862   0.013
 4303SOL     OW13807   4.800   5.165   3.606
 4303SOL    HW113808   4.862   5.104   3.555
 4303SOL    HW213809   4.739   5.212   3.543
 4304SOL     OW13810   3.072   4.299   1.373
 4304SOL    HW113811   3.155   4.272   1.422
 4304SOL    HW213812   3.095   4.359   1.297
 4305SOL     OW13813   0.862   6.939   5.962
 4305SOL    HW113814   0.795   6.990   5.907
 4305SOL    HW213815   0.845   6.841   5.952
 4306SOL     OW13816   6.457   3.945   4.982
 4306SOL    HW113817   6.392   3.940   4.906
 4306SOL    HW213818   6.452   4.035   5.025
 4307SOL     OW13819   6.744   1.784   4.187
 4307SOL    HW113820   6.791   1.765   4.101
 4307SOL    HW213821   6.671   1.717   4.201
 4308SOL     OW13822   4.804   5.602   6.078
 4308SOL    HW113823   4.747   5.681   6.102
 4308SOL    HW213824   4.893   5.612   6.122
 4309SOL     OW13825   2.438   1.881   0.601
 4309SOL    HW113826   2.525   1.924   0.576
 4309SOL    HW213827   2.364   1.947   0.588
 4310SOL     OW13828   6.304   1.163   4.840
 4310SOL    HW113829   6.384   1.182   4.782
 4310SOL    HW213830   6.221   1.193   4.793
 4311SOL     OW13831   1.143   6.642   0.756
 4311SOL    HW113832   1.148   6.738   0.784
 4311SOL    HW213833   1.234   6.600   0.766
 4312SOL     OW13834   0.462   3.407   2.639
 4312SOL    HW113835   0.532   3.358   2.588
 4312SOL    HW213836   0.468   3.505   2.618
 4313SOL     OW13837   0.309   3.587   0.518
 4313SOL    HW113838   0.331   3.597   0.615
 4313SOL    HW213839   0.228   3.642   0.496
 4314SOL     OW13840   2.539   2.006   5.677
 4314SOL    HW113841   2.455   2.034   5.632
 4314SOL    HW213842   2.600   1.963   5.611
 4315SOL     OW13843   2.627   2.348   5.460
 4315SOL    HW113844   2.559   2.419   5.478
 4315SOL    HW213845   2.581   2.265   5.430
 4316SOL     OW13846   5.105   4.229   1.185
 4316SOL    HW113847   5.101   4.149   1.126
 4316SOL    HW213848   5.199   4.243   1.216
 4317SOL     OW13849   4.906   0.554   3.708
 4317SOL    HW113850   4.858   0.470   3.685
 4317SOL    HW213851   4.889   0.577   3.804
 4318SOL     OW13852   2.130   5.740   4.021
 4318SOL    HW113853   2.111   5.695   3.934
 4318SOL    HW213854   2.176   5.827   4.005
 4319SOL     OW13855   2.221   4.679   1.172
 4319SOL    HW113856   2.299   4.617   1.174
 4319SOL    HW213857   2.199   4.707   1.266
 4320SOL     OW13858   4.464   1.569   1.832
 4320SOL    HW113859   4.524   1.616   1.897
 4320SOL    HW213860   4.505   1.572   1.741
 4321SOL     OW13861   6.776   6.205   3.469
 4321SOL    HW113862   6.757   6.132   3.535
 4321SOL    HW213863   6.713   6.281   3.485
 4322SOL     OW13864   2.507   2.233   4.137
 4322SOL    HW113865   2.599   2.223   4.097
 4322SOL    HW213866   2.513   2.225   4.236
 4323SOL     OW13867   5.720   3.600   1.872
 4323SOL    HW113868   5.684   3.681   1.919
 4323SOL    HW213869   5.671   3.587   1.786
 4324SOL     OW13870   6.421   3.953   5.375
 4324SOL    HW113871   6.485   3.892   5.329
 4324SOL    HW213872   6.341   3.901   5.406
 4325SOL     OW13873   1.546   0.671   0.355
 4325SOL    HW113874   1.476   0.718   0.303
 4325SOL    HW213875   1.556   0.577   0.321
 4326SOL     OW13876   5.434   2.755   2.145
 4326SOL    HW113877   5.441   2.853   2.165
 4326SOL    HW213878   5.415   2.705   2.229
 4327SOL     OW13879   3.434   6.551   3.944
 4327SOL    HW113880   3.377   6.484   3.895
 4327SOL    HW213881   3.530   6.538   3.918
 4328SOL     OW13882   5.931   7.017   1.680
 4328SOL    HW113883   5.849   0.037   1.643
 4328SOL    HW213884   6.008   0.056   1.675
 4329SOL     OW13885   6.410   4.004   0.516
 4329SOL    HW113886   6.371   4.065   0.585
 4329SOL    HW213887   6.509   4.016   0.512
 4330SOL     OW13888   2.851   6.023   5.176
 4330SOL    HW113889   2.772   5.965   5.156
 4330SOL    HW213890   2.843   6.060   5.269
 4331SOL     OW13891   6.034   1.284   3.082
 4331SOL    HW113892   6.050   1.210   3.147
 4331SOL    HW213893   5.964   1.255   3.017
 4332SOL     OW13894   6.802   5.895   1.749
 4332SOL    HW113895   6.710   5.856   1.734
 4332SOL    HW213896   6.797   5.995   1.743
 4333SOL     OW13897   3.334   3.118   6.010
 4333SOL    HW113898   3.412   3.082   5.959
 4333SOL    HW213899   3.266   3.155   5.947
 4334SOL     OW13900   0.834   1.648   3.977
 4334SOL    HW113901   0.824   1.654   4.077
 4334SOL    HW213902   0.745   1.631   3.936
 4335SOL     OW13903   2.283   2.493   1.604
 4335SOL    HW113904   2.334   2.508   1.688
 4335SOL    HW213905   2.289   2.396   1.578
 4336SOL     OW13906   2.661   5.585   5.271
 4336SOL    HW113907   2.583   5.523   5.278
 4336SOL    HW213908   2.640   5.657   5.206
 4337SOL     OW13909   6.814   4.671   4.324
 4337SOL    HW113910   6.878   4.700   4.253
 4337SOL    HW213911   6.856   4.682   4.414
 4338SOL     OW13912   3.264   3.337   5.580
 4338SOL    HW113913   3.345   3.387   5.549
 4338SOL    HW213914   3.269   3.243   5.547
 4339SOL     OW13915   3.823   3.774   5.448
 4339SOL    HW113916   3.843   3.716   5.527
 4339SOL    HW213917   3.726   3.767   5.426
 4340SOL     OW13918   0.126   4.346   0.369
 4340SOL    HW113919   0.089   4.269   0.422
 4340SOL    HW213920   0.154   4.313   0.279
 4341SOL     OW13921   6.182   6.684   1.642
 4341SOL    HW113922   6.227   6.719   1.725
 4341SOL    HW213923   6.083   6.680   1.657
 4342SOL     OW13924   5.092   3.677   2.242
 4342SOL    HW113925   5.063   3.665   2.337
 4342SOL    HW213926   5.017   3.650   2.181
 4343SOL     OW13927   4.733   6.914   6.282
 4343SOL    HW113928   4.664   6.845   6.261
 4343SOL    HW213929   4.730   6.936   6.379
 4344SOL     OW13930   1.475   4.273   2.303
 4344SOL    HW113931   1.466   4.370   2.327
 4344SOL    HW213932   1.557   4.260   2.248
 4345SOL     OW13933   4.042   3.557   2.147
 4345SOL    HW113934   3.950   3.521   2.161
 4345SOL    HW213935   4.080   3.586   2.235
 4346SOL     OW13936   1.285   3.246   2.062
 4346SOL    HW113937   1.202   3.192   2.071
 4346SOL    HW213938   1.340   3.210   1.986
 4347SOL     OW13939   5.878   5.919   0.959
 4347SOL    HW113940   5.898   5.863   0.879
 4347SOL    HW213941   5.794   5.888   1.002
 4348SOL     OW13942   6.557   4.366   5.932
 4348SOL    HW113943   6.547   4.466   5.932
 4348SOL    HW213944   6.516   4.329   5.849
 4349SOL     OW13945   0.646   3.554   3.747
 4349SOL    HW113946   0.671   3.460   3.768
 4349SOL    HW213947   0.711   3.616   3.791
 4350SOL     OW13948   4.926   0.039   4.326
 4350SOL    HW113949   4.974   0.047   4.414
 4350SOL    HW213950   4.984   7.012   4.262
 4351SOL     OW13951   0.138   6.299   1.068
 4351SOL    HW113952   0.207   6.228   1.055
 4351SOL    HW213953   0.154   6.374   1.004
 4352SOL     OW13954   3.974   4.585   1.321
 4352SOL    HW113955   4.047   4.567   1.387
 4352SOL    HW213956   4.008   4.647   1.250
 4353SOL     OW13957   2.198   3.446   0.238
 4353SOL    HW113958   2.218   3.403   0.326
 4353SOL    HW213959   2.146   3.382   0.181
 4354SOL     OW13960   6.059   4.503   3.164
 4354SOL    HW113961   6.084   4.413   3.129
 4354SOL    HW213962   6.115   4.524   3.244
 4355SOL     OW13963   2.035   5.288   3.882
 4355SOL    HW113964   2.073   5.356   3.820
 4355SOL    HW213965   1.942   5.263   3.851
 4356SOL     OW13966   5.617   1.677   5.620
 4356SOL    HW113967   5.538   1.732   5.593
 4356SOL    HW213968   5.606   1.646   5.714
 4357SOL     OW13969   5.233   5.712   3.041
 4357SOL    HW113970   5.272   5.651   2.972
 4357SOL    HW213971   5.172   5.778   2.997
 4358SOL     OW13972   3.671   0.526   1.442
 4358SOL    HW113973   3.575   0.554   1.449
 4358SOL    HW213974   3.711   0.522   1.533
 4359SOL     OW13975   3.236   3.971   1.617
 4359SOL    HW113976   3.268   4.065   1.607
 4359SOL    HW213977   3.247   3.943   1.712
 4360SOL     OW13978   2.522   6.611   3.690
 4360SOL    HW113979   2.526   6.550   3.769
 4360SOL    HW213980   2.499   6.703   3.721
 4361SOL     OW13981   2.060   0.534   6.528
 4361SOL    HW113982   2.066   0.623   6.482
 4361SOL    HW213983   1.967   0.498   6.520
 4362SOL     OW13984   5.927   5.146   2.330
 4362SOL    HW113985   5.899   5.100   2.414
 4362SOL    HW213986   6.012   5.197   2.347
 4363SOL     OW13987   4.513   0.394   2.782
 4363SOL    HW113988   4.601   0.435   2.760
 4363SOL    HW213989   4.489   0.326   2.713
 4364SOL     OW13990   3.745   3.219   2.999
 4364SOL    HW113991   3.646   3.234   2.990
 4364SOL    HW213992   3.791   3.250   2.916
 4365SOL     OW13993   2.188   1.195   0.878
 4365SOL    HW113994   2.133   1.140   0.941
 4365SOL    HW213995   2.250   1.253   0.930
 4366SOL     OW13996   4.837   5.507   4.788
 4366SOL    HW113997   4.795   5.477   4.702
 4366SOL    HW213998   4.836   5.432   4.854
 4367SOL     OW13999   1.571   0.145   1.762
 4367SOL    HW114000   1.529   0.218   1.708
 4367SOL    HW214001   1.560   0.058   1.714
 4368SOL     OW14002   5.220   5.411   4.310
 4368SOL    HW114003   5.157   5.475   4.354
 4368SOL    HW214004   5.170   5.358   4.241
 4369SOL     OW14005   6.817   4.065   4.374
 4369SOL    HW114006   6.833   4.034   4.467
 4369SOL    HW214007   6.730   4.028   4.341
 4370SOL     OW14008   5.400   4.304   1.253
 4370SOL    HW114009   5.455   4.254   1.187
 4370SOL    HW214010   5.428   4.278   1.346
 4371SOL     OW14011   3.162   0.672   3.612
 4371SOL    HW114012   3.262   0.673   3.623
 4371SOL    HW214013   3.137   0.611   3.537
 4372SOL     OW14014   2.227   4.323   5.807
 4372SOL    HW114015   2.311   4.317   5.754
 4372SOL    HW214016   2.160   4.377   5.757
 4373SOL     OW14017   4.319   0.238   0.511
 4373SOL    HW114018   4.392   0.299   0.481
 4373SOL    HW214019   4.245   0.292   0.550
 4374SOL     OW14020   1.775   6.452   0.295
 4374SOL    HW114021   1.791   6.389   0.371
 4374SOL    HW214022   1.695   6.508   0.315
 4375SOL     OW14023   4.450   0.532   5.530
 4375SOL    HW114024   4.481   0.506   5.438
 4375SOL    HW214025   4.359   0.492   5.546
 4376SOL     OW14026   2.582   4.708   0.188
 4376SOL    HW114027   2.569   4.738   0.093
 4376SOL    HW214028   2.493   4.690   0.230
 4377SOL     OW14029   5.562   6.296   0.203
 4377SOL    HW114030   5.475   6.328   0.241
 4377SOL    HW214031   5.637   6.351   0.240
 4378SOL     OW14032   2.978   5.246   1.633
 4378SOL    HW114033   3.052   5.194   1.676
 4378SOL    HW214034   2.922   5.185   1.578
 4379SOL     OW14035   5.936   6.180   1.087
 4379SOL    HW114036   5.901   6.099   1.039
 4379SOL    HW214037   6.025   6.204   1.049
 4380SOL     OW14038   1.726   5.980   5.113
 4380SOL    HW114039   1.707   6.078   5.104
 4380SOL    HW214040   1.643   5.928   5.096
 4381SOL     OW14041   3.221   6.288   4.747
 4381SOL    HW114042   3.249   6.195   4.724
 4381SOL    HW214043   3.218   6.343   4.664
 4382SOL     OW14044   5.917   3.681   3.593
 4382SOL    HW114045   5.823   3.653   3.574
 4382SOL    HW214046   5.969   3.602   3.627
 4383SOL     OW14047   1.550   0.111   6.765
 4383SOL    HW114048   1.585   0.197   6.730
 4383SOL    HW214049   1.613   0.074   6.834
 4384SOL     OW14050   3.832   6.811   1.571
 4384SOL    HW114051   3.829   6.805   1.671
 4384SOL    HW214052   3.753   6.861   1.538
 4385SOL     OW14053   5.885   2.218   4.241
 4385SOL    HW114054   5.829   2.233   4.160
 4385SOL    HW214055   5.905   2.305   4.285
 4386SOL     OW14056   1.658   5.283   0.314
 4386SOL    HW114057   1.632   5.187   0.324
 4386SOL    HW214058   1.682   5.301   0.219
 4387SOL     OW14059   6.275   2.591   0.614
 4387SOL    HW114060   6.205   2.635   0.671
 4387SOL    HW214061   6.244   2.589   0.519
 4388SOL     OW14062   4.014   0.647   5.745
 4388SOL    HW114063   4.031   0.673   5.650
 4388SOL    HW214064   3.938   0.703   5.781
 4389SOL     OW14065   0.891   2.734   2.326
 4389SOL    HW114066   0.961   2.791   2.282
 4389SOL    HW214067   0.827   2.793   2.376
 4390SOL     OW14068   5.215   4.007   1.008
 4390SOL    HW114069   5.308   4.001   1.045
 4390SOL    HW214070   5.166   3.922   1.026
 4391SOL     OW14071   0.611   5.554   1.500
 4391SOL    HW114072   0.591   5.610   1.581
 4391SOL    HW214073   0.695   5.587   1.457
 4392SOL     OW14074   5.281   5.511   4.613
 4392SOL    HW114075   5.219   5.506   4.692
 4392SOL    HW214076   5.294   5.420   4.575
 4393SOL     OW14077   4.752   6.862   2.694
 4393SOL    HW114078   4.709   6.951   2.679
 4393SOL    HW214079   4.832   6.854   2.634
 4394SOL     OW14080   4.627   1.017   2.884
 4394SOL    HW114081   4.616   0.949   2.812
 4394SOL    HW214082   4.688   0.981   2.955
 4395SOL     OW14083   4.945   2.630   0.928
 4395SOL    HW114084   4.929   2.587   1.017
 4395SOL    HW214085   4.959   2.559   0.859
 4396SOL     OW14086   1.556   0.715   2.271
 4396SOL    HW114087   1.621   0.785   2.301
 4396SOL    HW214088   1.492   0.696   2.345
 4397SOL     OW14089   3.726   2.001   0.055
 4397SOL    HW114090   3.741   1.904   0.036
 4397SOL    HW214091   3.773   2.056   7.011
 4398SOL     OW14092   0.614   5.261   4.553
 4398SOL    HW114093   0.632   5.255   4.651
 4398SOL    HW214094   0.602   5.169   4.516
 4399SOL     OW14095   2.852   0.752   1.580
 4399SOL    HW114096   2.815   0.812   1.509
 4399SOL    HW214097   2.915   0.805   1.638
 4400SOL     OW14098   3.533   4.948   2.765
 4400SOL    HW114099   3.460   4.953   2.833
 4400SOL    HW214100   3.494   4.930   2.675
 4401SOL     OW14101   4.686   6.445   4.618
 4401SOL    HW114102   4.743   6.500   4.680
 4401SOL    HW214103   4.739   6.367   4.585
 4402SOL     OW14104   0.081   6.723   1.021
 4402SOL    HW114105   0.026   6.662   0.964
 4402SOL    HW214106   0.021   6.786   1.070
 4403SOL     OW14107   6.369   1.520   3.481
 4403SOL    HW114108   6.402   1.545   3.389
 4403SOL    HW214109   6.411   1.580   3.549
 4404SOL     OW14110   1.447   3.627   2.492
 4404SOL    HW114111   1.450   3.703   2.427
 4404SOL    HW214112   1.510   3.555   2.463
 4405SOL     OW14113   3.347   4.155   6.586
 4405SOL    HW114114   3.439   4.154   6.546
 4405SOL    HW214115   3.324   4.064   6.620
 4406SOL     OW14116   6.132   2.346   2.684
 4406SOL    HW114117   6.070   2.424   2.684
 4406SOL    HW214118   6.227   2.379   2.683
 4407SOL     OW14119   0.944   0.668   0.283
 4407SOL    HW114120   0.971   0.717   0.366
 4407SOL    HW214121   0.853   0.628   0.296
 4408SOL     OW14122   5.035   6.039   1.117
 4408SOL    HW114123   5.124   6.051   1.073
 4408SOL    HW214124   4.964   6.079   1.059
 4409SOL     OW14125   3.623   1.713   2.948
 4409SOL    HW114126   3.712   1.759   2.941
 4409SOL    HW214127   3.624   1.629   2.894
 4410SOL     OW14128   2.109   6.113   0.603
 4410SOL    HW114129   2.052   6.037   0.636
 4410SOL    HW214130   2.203   6.099   0.632
 4411SOL     OW14131   3.623   2.942   1.959
 4411SOL    HW114132   3.600   3.039   1.973
 4411SOL    HW214133   3.682   2.934   1.879
 4412SOL     OW14134   3.540   1.343   6.472
 4412SOL    HW114135   3.459   1.285   6.465
 4412SOL    HW214136   3.599   1.309   6.546
 4413SOL     OW14137   3.608   5.899   4.010
 4413SOL    HW114138   3.620   5.992   3.977
 4413SOL    HW214139   3.587   5.838   3.934
 4414SOL     OW14140   3.324   4.748   1.749
 4414SOL    HW114141   3.418   4.735   1.780
 4414SOL    HW214142   3.290   4.662   1.710
 4415SOL     OW14143   4.973   0.897   1.700
 4415SOL    HW114144   4.936   0.858   1.785
 4415SOL    HW214145   4.923   0.860   1.622
 4416SOL     OW14146   2.779   2.339   4.590
 4416SOL    HW114147   2.761   2.423   4.641
 4416SOL    HW214148   2.868   2.302   4.617
 4417SOL     OW14149   5.220   0.623   1.427
 4417SOL    HW114150   5.293   0.585   1.370
 4417SOL    HW214151   5.132   0.610   1.381
 4418SOL     OW14152   4.355   0.434   3.130
 4418SOL    HW114153   4.287   0.418   3.058
 4418SOL    HW214154   4.442   0.393   3.104
 4419SOL     OW14155   6.563   5.572   6.371
 4419SOL    HW114156   6.597   5.663   6.346
 4419SOL    HW214157   6.466   5.578   6.396
 4420SOL     OW14158   5.561   1.350   0.778
 4420SOL    HW114159   5.564   1.358   0.877
 4420SOL    HW214160   5.475   1.306   0.750
 4421SOL     OW14161   0.632   1.630   3.165
 4421SOL    HW114162   0.581   1.581   3.236
 4421SOL    HW214163   0.721   1.657   3.201
 4422SOL     OW14164   1.903   4.060   5.554
 4422SOL    HW114165   1.847   4.016   5.624
 4422SOL    HW214166   1.860   4.146   5.526
 4423SOL     OW14167   6.804   2.052   5.751
 4423SOL    HW114168   6.790   2.096   5.839
 4423SOL    HW214169   6.884   2.092   5.706
 4424SOL     OW14170   2.024   5.117   3.099
 4424SOL    HW114171   2.111   5.086   3.139
 4424SOL    HW214172   1.948   5.074   3.147
 4425SOL     OW14173   5.350   4.449   2.671
 4425SOL    HW114174   5.414   4.373   2.677
 4425SOL    HW214175   5.377   4.510   2.596
 4426SOL     OW14176   0.090   6.540   0.016
 4426SOL    HW114177   0.067   6.448   0.045
 4426SOL    HW214178   0.081   6.547   6.941
 4427SOL     OW14179   0.184   5.092   4.019
 4427SOL    HW114180   0.248   5.127   4.087
 4427SOL    HW214181   0.217   5.115   3.927
 4428SOL     OW14182   1.894   6.976   2.480
 4428SOL    HW114183   1.838   7.021   2.550
 4428SOL    HW214184   1.872   7.015   2.390
 4429SOL     OW14185   2.547   0.116   1.505
 4429SOL    HW114186   2.558   0.213   1.528
 4429SOL    HW214187   2.451   0.090   1.518
 4430SOL     OW14188   1.905   0.304   1.763
 4430SOL    HW114189   1.827   0.335   1.818
 4430SOL    HW214190   1.973   0.377   1.757
 4431SOL     OW14191   1.885   1.954   2.569
 4431SOL    HW114192   1.964   1.964   2.509
 4431SOL    HW214193   1.808   2.004   2.529
 4432SOL     OW14194   3.547   4.143   4.777
 4432SOL    HW114195   3.578   4.069   4.836
 4432SOL    HW214196   3.499   4.105   4.698
 4433SOL     OW14197   6.497   0.236   1.497
 4433SOL    HW114198   6.432   0.244   1.422
 4433SOL    HW214199   6.569   0.171   1.472
 4434SOL     OW14200   5.469   1.914   5.883
 4434SOL    HW114201   5.387   1.936   5.830
 4434SOL    HW214202   5.486   1.815   5.877
 4435SOL     OW14203   3.368   2.820   1.801
 4435SOL    HW114204   3.314   2.764   1.864
 4435SOL    HW214205   3.448   2.856   1.848
 4436SOL     OW14206   5.866   0.072   0.349
 4436SOL    HW114207   5.871   7.007   0.396
 4436SOL    HW214208   5.773   0.088   0.318
 4437SOL     OW14209   2.765   6.825   5.886
 4437SOL    HW114210   2.751   6.745   5.944
 4437SOL    HW214211   2.708   6.816   5.804
 4438SOL     OW14212   3.929   2.694   6.663
 4438SOL    HW114213   3.922   2.746   6.578
 4438SOL    HW214214   4.007   2.726   6.716
 4439SOL     OW14215   1.334   5.019   2.971
 4439SOL    HW114216   1.356   5.113   2.999
 4439SOL    HW214217   1.416   4.973   2.940
 4440SOL     OW14218   6.450   1.200   0.291
 4440SOL    HW114219   6.463   1.164   0.383
 4440SOL    HW214220   6.419   1.295   0.296
 4441SOL     OW14221   6.377   1.044   4.113
 4441SOL    HW114222   6.282   1.037   4.080
 4441SOL    HW214223   6.410   1.137   4.099
 4442SOL     OW14224   2.308   6.090   2.267
 4442SOL    HW114225   2.233   6.124   2.211
 4442SOL    HW214226   2.301   6.127   2.359
 4443SOL     OW14227   1.836   1.089   1.273
 4443SOL    HW114228   1.875   1.029   1.343
 4443SOL    HW214229   1.874   1.181   1.283
 4444SOL     OW14230   5.152   2.131   2.735
 4444SOL    HW114231   5.085   2.062   2.709
 4444SOL    HW214232   5.225   2.134   2.666
 4445SOL     OW14233   1.258   2.048   6.074
 4445SOL    HW114234   1.315   2.129   6.059
 4445SOL    HW214235   1.289   1.974   6.014
 4446SOL     OW14236   6.789   5.402   4.596
 4446SOL    HW114237   6.771   5.399   4.497
 4446SOL    HW214238   6.766   5.493   4.631
 4447SOL     OW14239   4.876   3.821   4.921
 4447SOL    HW114240   4.863   3.728   4.956
 4447SOL    HW214241   4.787   3.862   4.904
 4448SOL     OW14242   2.654   3.704   6.750
 4448SOL    HW114243   2.643   3.689   6.652
 4448SOL    HW214244   2.692   3.795   6.767
 4449SOL     OW14245   0.092   1.709   5.557
 4449SOL    HW114246   0.047   1.720   5.469
 4449SOL    HW214247   0.184   1.748   5.552
 4450SOL     OW14248   4.091   3.407   3.048
 4450SOL    HW114249   4.178   3.372   3.082
 4450SOL    HW214250   4.061   3.352   2.970
 4451SOL     OW14251   0.647   5.392   1.129
 4451SOL    HW114252   0.656   5.478   1.179
 4451SOL    HW214253   0.693   5.400   1.040
 4452SOL     OW14254   1.091   3.920   6.535
 4452SOL    HW114255   1.069   3.914   6.438
 4452SOL    HW214256   1.074   3.832   6.579
 4453SOL     OW14257   5.730   0.976   1.067
 4453SOL    HW114258   5.656   1.041   1.086
 4453SOL    HW214259   5.812   1.026   1.040
 4454SOL     OW14260   6.360   3.465   2.005
 4454SOL    HW114261   6.314   3.522   2.074
 4454SOL    HW214262   6.360   3.370   2.035
 4455SOL     OW14263   5.018   2.754   2.486
 4455SOL    HW114264   4.989   2.806   2.405
 4455SOL    HW214265   5.058   2.816   2.553
 4456SOL     OW14266   6.928   5.981   2.736
 4456SOL    HW114267   6.958   5.961   2.829
 4456SOL    HW214268   6.829   5.997   2.735
 4457SOL     OW14269   5.261   2.475   6.184
 4457SOL    HW114270   5.314   2.557   6.162
 4457SOL    HW214271   5.319   2.394   6.172
 4458SOL     OW14272   4.568   1.956   1.221
 4458SOL    HW114273   4.502   1.980   1.291
 4458SOL    HW214274   4.600   1.862   1.235
 4459SOL     OW14275   6.312   5.276   6.289
 4459SOL    HW114276   6.353   5.252   6.201
 4459SOL    HW214277   6.238   5.211   6.310
 4460SOL     OW14278   1.915   0.112   0.393
 4460SOL    HW114279   2.000   0.066   0.366
 4460SOL    HW214280   1.936   0.187   0.456
 4461SOL     OW14281   2.189   0.217   3.064
 4461SOL    HW114282   2.090   0.210   3.069
 4461SOL    HW214283   2.215   0.275   2.987
 4462SOL     OW14284   0.377   2.824   1.292
 4462SOL    HW114285   0.373   2.915   1.251
 4462SOL    HW214286   0.316   2.820   1.371
 4463SOL     OW14287   0.652   4.029   6.749
 4463SOL    HW114288   0.739   3.980   6.746
 4463SOL    HW214289   0.666   4.122   6.784
 4464SOL     OW14290   6.778   2.996   0.702
 4464SOL    HW114291   6.727   2.947   0.631
 4464SOL    HW214292   6.873   3.009   0.671
 4465SOL     OW14293   5.955   5.035   1.412
 4465SOL    HW114294   6.007   5.015   1.494
 4465SOL    HW214295   6.016   5.034   1.332
 4466SOL     OW14296   6.746   3.211   3.781
 4466SOL    HW114297   6.839   3.250   3.780
 4466SOL    HW214298   6.731   3.163   3.868
 4467SOL     OW14299   1.262   0.559   4.299
 4467SOL    HW114300   1.325   0.483   4.317
 4467SOL    HW214301   1.170   0.535   4.331
 4468SOL     OW14302   1.091   1.311   0.801
 4468SOL    HW114303   1.012   1.335   0.744
 4468SOL    HW214304   1.098   1.212   0.808
 4469SOL     OW14305   4.900   6.564   0.374
 4469SOL    HW114306   4.959   6.508   0.432
 4469SOL    HW214307   4.927   6.553   0.278
 4470SOL     OW14308   4.780   4.216   1.040
 4470SOL    HW114309   4.710   4.287   1.035
 4470SOL    HW214310   4.855   4.247   1.099
 4471SOL     OW14311   6.149   2.041   1.926
 4471SOL    HW114312   6.071   1.988   1.891
 4471SOL    HW214313   6.129   2.071   2.019
 4472SOL     OW14314   2.370   5.404   1.402
 4472SOL    HW114315   2.330   5.412   1.311
 4472SOL    HW214316   2.365   5.493   1.448
 4473SOL     OW14317   5.987   0.956   0.517
 4473SOL    HW114318   6.075   0.994   0.545
 4473SOL    HW214319   5.915   0.990   0.578
 4474SOL     OW14320   6.587   1.624   5.180
 4474SOL    HW114321   6.555   1.666   5.264
 4474SOL    HW214322   6.614   1.695   5.115
 4475SOL     OW14323   1.592   3.145   0.522
 4475SOL    HW114324   1.678   3.100   0.545
 4475SOL    HW214325   1.607   3.244   0.516
 4476SOL     OW14326   3.663   6.761   2.639
 4476SOL    HW114327   3.627   6.671   2.665
 4476SOL    HW214328   3.587   6.820   2.612
 4477SOL     OW14329   1.666   1.903   0.819
 4477SOL    HW114330   1.695   1.955   0.899
 4477SOL    HW214331   1.566   1.891   0.821
 4478SOL     OW14332   1.160   4.658   0.679
 4478SOL    HW114333   1.147   4.685   0.775
 4478SOL    HW214334   1.256   4.634   0.664
 4479SOL     OW14335   1.212   5.715   6.170
 4479SOL    HW114336   1.114   5.717   6.148
 4479SOL    HW214337   1.264   5.689   6.088
 4480SOL     OW14338   6.957   2.977   3.176
 4480SOL    HW114339   6.967   2.973   3.275
 4480SOL    HW214340   6.860   2.978   3.152
 4481SOL     OW14341   0.929   0.690   4.148
 4481SOL    HW114342   1.005   0.652   4.200
 4481SOL    HW214343   0.961   0.720   4.058
 4482SOL     OW14344   0.575   4.040   3.185
 4482SOL    HW114345   0.661   4.048   3.134
 4482SOL    HW214346   0.573   3.952   3.232
 4483SOL     OW14347   6.296   4.085   1.068
 4483SOL    HW114348   6.308   4.007   1.130
 4483SOL    HW214349   6.384   4.130   1.055
 4484SOL     OW14350   3.398   3.886   6.418
 4484SOL    HW114351   3.443   3.884   6.508
 4484SOL    HW214352   3.303   3.856   6.428
 4485SOL     OW14353   4.299   6.747   5.953
 4485SOL    HW114354   4.286   6.653   5.923
 4485SOL    HW214355   4.287   6.753   6.052
 4486SOL     OW14356   6.006   3.527   4.235
 4486SOL    HW114357   5.927   3.554   4.289
 4486SOL    HW214358   6.034   3.434   4.259
 4487SOL     OW14359   3.331   2.919   6.276
 4487SOL    HW114360   3.260   2.866   6.322
 4487SOL    HW214361   3.308   2.930   6.179
 4488SOL     OW14362   6.985   2.316   6.890
 4488SOL    HW114363   6.903   2.338   6.837
 4488SOL    HW214364   0.042   2.331   6.833
 4489SOL     OW14365   0.422   1.433   3.658
 4489SOL    HW114366   0.376   1.355   3.615
 4489SOL    HW214367   0.354   1.490   3.703
 4490SOL     OW14368   6.870   2.083   3.623
 4490SOL    HW114369   6.962   2.117   3.645
 4490SOL    HW214370   6.804   2.156   3.635
 4491SOL     OW14371   2.040   4.875   2.183
 4491SOL    HW114372   2.026   4.803   2.251
 4491SOL    HW214373   2.138   4.898   2.180
 4492SOL     OW14374   5.573   3.682   5.210
 4492SOL    HW114375   5.491   3.646   5.254
 4492SOL    HW214376   5.607   3.761   5.262
 4493SOL     OW14377   5.923   4.870   3.802
 4493SOL    HW114378   5.823   4.869   3.808
 4493SOL    HW214379   5.955   4.963   3.786
 4494SOL     OW14380   5.238   2.939   1.788
 4494SOL    HW114381   5.270   3.017   1.734
 4494SOL    HW214382   5.229   2.967   1.884
 4495SOL     OW14383   5.925   4.546   2.416
 4495SOL    HW114384   5.958   4.522   2.325
 4495SOL    HW214385   5.870   4.470   2.452
 4496SOL     OW14386   5.871   3.226   6.255
 4496SOL    HW114387   5.958   3.189   6.223
 4496SOL    HW214388   5.889   3.294   6.326
 4497SOL     OW14389   6.375   0.131   0.827
 4497SOL    HW114390   6.350   0.088   0.915
 4497SOL    HW214391   6.320   0.092   0.754
 4498SOL     OW14392   1.420   4.420   5.976
 4498SOL    HW114393   1.404   4.327   5.943
 4498SOL    HW214394   1.432   4.481   5.898
 4499SOL     OW14395   5.836   3.836   0.636
 4499SOL    HW114396   5.779   3.769   0.684
 4499SOL    HW214397   5.779   3.911   0.603
 4500SOL     OW14398   3.489   4.207   1.888
 4500SOL    HW114399   3.439   4.128   1.853
 4500SOL    HW214400   3.459   4.289   1.839
 4501SOL     OW14401   1.681   5.416   5.033
 4501SOL    HW114402   1.780   5.414   5.026
 4501SOL    HW214403   1.654   5.444   5.125
 4502SOL     OW14404   5.458   2.566   0.277
 4502SOL    HW114405   5.494   2.611   0.195
 4502SOL    HW214406   5.431   2.635   0.344
 4503SOL     OW14407   0.908   4.007   2.673
 4503SOL    HW114408   0.968   3.932   2.644
 4503SOL    HW214409   0.829   3.969   2.722
 4504SOL     OW14410   4.285   1.915   4.271
 4504SOL    HW114411   4.245   1.990   4.325
 4504SOL    HW214412   4.247   1.917   4.178
 4505SOL     OW14413   2.321   5.389   0.250
 4505SOL    HW114414   2.346   5.409   0.344
 4505SOL    HW214415   2.301   5.475   0.202
 4506SOL     OW14416   3.367   6.208   6.008
 4506SOL    HW114417   3.393   6.282   5.946
 4506SOL    HW214418   3.431   6.132   5.999
 4507SOL     OW14419   6.132   4.016   2.776
 4507SOL    HW114420   6.062   4.084   2.754
 4507SOL    HW214421   6.115   3.932   2.724
 4508SOL     OW14422   2.047   4.509   1.386
 4508SOL    HW114423   2.023   4.431   1.328
 4508SOL    HW214424   1.971   4.530   1.447
 4509SOL     OW14425   1.085   2.687   3.610
 4509SOL    HW114426   1.004   2.689   3.551
 4509SOL    HW214427   1.107   2.780   3.639
 4510SOL     OW14428   2.959   0.293   6.689
 4510SOL    HW114429   2.877   0.297   6.746
 4510SOL    HW214430   2.964   0.375   6.632
 4511SOL     OW14431   0.173   2.835   0.064
 4511SOL    HW114432   0.171   2.735   0.073
 4511SOL    HW214433   0.261   2.869   0.096
 4512SOL     OW14434   2.148   3.592   0.641
 4512SOL    HW114435   2.167   3.663   0.572
 4512SOL    HW214436   2.188   3.506   0.612
 4513SOL     OW14437   6.135   1.674   2.560
 4513SOL    HW114438   6.122   1.636   2.468
 4513SOL    HW214439   6.163   1.602   2.622
 4514SOL     OW14440   1.868   0.155   4.426
 4514SOL    HW114441   1.932   0.157   4.349
 4514SOL    HW214442   1.792   0.216   4.408
 4515SOL     OW14443   0.142   4.432   0.668
 4515SOL    HW114444   0.109   4.377   0.744
 4515SOL    HW214445   0.096   4.405   0.583
 4516SOL     OW14446   0.448   6.851   3.843
 4516SOL    HW114447   0.436   6.950   3.855
 4516SOL    HW214448   0.374   6.815   3.786
 4517SOL     OW14449   2.947   0.633   0.312
 4517SOL    HW114450   3.009   0.566   0.273
 4517SOL    HW214451   2.949   0.717   0.257
 4518SOL     OW14452   1.162   0.880   3.502
 4518SOL    HW114453   1.078   0.867   3.555
 4518SOL    HW214454   1.238   0.834   3.547
 4519SOL     OW14455   0.065   2.324   4.142
 4519SOL    HW114456   0.052   2.400   4.078
 4519SOL    HW214457   0.055   2.237   4.093
 4520SOL     OW14458   6.716   3.662   2.841
 4520SOL    HW114459   6.751   3.737   2.898
 4520SOL    HW214460   6.617   3.668   2.835
 4521SOL     OW14461   5.228   1.618   6.430
 4521SOL    HW114462   5.147   1.602   6.374
 4521SOL    HW214463   5.225   1.711   6.467
 4522SOL     OW14464   5.216   6.884   3.572
 4522SOL    HW114465   5.136   6.942   3.563
 4522SOL    HW214466   5.299   6.940   3.574
 4523SOL     OW14467   4.885   2.079   5.493
 4523SOL    HW114468   4.913   2.175   5.500
 4523SOL    HW214469   4.787   2.072   5.509
 4524SOL     OW14470   5.760   1.547   5.384
 4524SOL    HW114471   5.698   1.611   5.430
 4524SOL    HW214472   5.822   1.597   5.325
 4525SOL     OW14473   0.197   1.242   3.981
 4525SOL    HW114474   0.105   1.250   4.019
 4525SOL    HW214475   0.260   1.299   4.035
 4526SOL     OW14476   2.696   1.989   0.880
 4526SOL    HW114477   2.626   1.919   0.871
 4526SOL    HW214478   2.688   2.054   0.805
 4527SOL     OW14479   4.669   6.800   3.416
 4527SOL    HW114480   4.659   6.894   3.383
 4527SOL    HW214481   4.707   6.801   3.509
 4528SOL     OW14482   4.202   0.349   6.473
 4528SOL    HW114483   4.190   0.279   6.543
 4528SOL    HW214484   4.138   0.332   6.397
 4529SOL     OW14485   2.760   0.152   4.387
 4529SOL    HW114486   2.848   0.105   4.382
 4529SOL    HW214487   2.704   0.110   4.459
 4530SOL     OW14488   6.718   2.225   4.022
 4530SOL    HW114489   6.679   2.181   4.103
 4530SOL    HW214490   6.703   2.323   4.026
 4531SOL     OW14491   0.173   4.254   3.479
 4531SOL    HW114492   0.176   4.237   3.577
 4531SOL    HW214493   0.254   4.213   3.435
 4532SOL     OW14494   0.488   2.073   0.664
 4532SOL    HW114495   0.413   2.116   0.613
 4532SOL    HW214496   0.574   2.120   0.641
 4533SOL     OW14497   3.684   6.027   2.227
 4533SOL    HW114498   3.705   5.937   2.188
 4533SOL    HW214499   3.723   6.098   2.168
 4534SOL     OW14500   6.660   4.026   6.355
 4534SOL    HW114501   6.560   4.024   6.357
 4534SOL    HW214502   6.693   4.119   6.371
 4535SOL     OW14503   4.587   2.205   2.536
 4535SOL    HW114504   4.502   2.153   2.540
 4535SOL    HW214505   4.633   2.189   2.449
 4536SOL     OW14506   6.743   0.161   3.475
 4536SOL    HW114507   6.705   0.155   3.383
 4536SOL    HW214508   6.732   0.073   3.522
 4537SOL     OW14509   5.146   3.197   5.580
 4537SOL    HW114510   5.119   3.106   5.611
 4537SOL    HW214511   5.191   3.190   5.491
 4538SOL     OW14512   3.718   2.019   1.480
 4538SOL    HW114513   3.652   2.011   1.554
 4538SOL    HW214514   3.790   2.083   1.505
 4539SOL     OW14515   2.485   3.781   1.165
 4539SOL    HW114516   2.499   3.769   1.263
 4539SOL    HW214517   2.574   3.782   1.119
 4540SOL     OW14518   3.820   3.339   4.398
 4540SOL    HW114519   3.811   3.424   4.449
 4540SOL    HW214520   3.748   3.335   4.328
 4541SOL     OW14521   6.187   0.987   1.491
 4541SOL    HW114522   6.167   0.896   1.528
 4541SOL    HW214523   6.269   1.024   1.534
 4542SOL     OW14524   5.474   6.516   3.410
 4542SOL    HW114525   5.427   6.450   3.468
 4542SOL    HW214526   5.530   6.468   3.343
 4543SOL     OW14527   5.157   2.584   2.738
 4543SOL    HW114528   5.252   2.571   2.711
 4543SOL    HW214529   5.097   2.542   2.670
 4544SOL     OW14530   5.453   4.717   0.272
 4544SOL    HW114531   5.501   4.643   0.320
 4544SOL    HW214532   5.498   4.804   0.291
 4545SOL     OW14533   4.466   3.423   0.600
 4545SOL    HW114534   4.405   3.502   0.605
 4545SOL    HW214535   4.485   3.402   0.504
 4546SOL     OW14536   0.821   6.002   0.286
 4546SOL    HW114537   0.870   5.968   0.366
 4546SOL    HW214538   0.832   5.937   0.210
 4547SOL     OW14539   4.446   1.489   2.635
 4547SOL    HW114540   4.377   1.530   2.575
 4547SOL    HW214541   4.425   1.391   2.646
 4548SOL     OW14542   0.965   3.193   4.405
 4548SOL    HW114543   0.878   3.147   4.423
 4548SOL    HW214544   1.029   3.171   4.479
 4549SOL     OW14545   5.869   1.511   2.854
 4549SOL    HW114546   5.849   1.423   2.895
 4549SOL    HW214547   5.830   1.584   2.910
 4550SOL     OW14548   2.277   5.272   5.318
 4550SOL    HW114549   2.225   5.356   5.305
 4550SOL    HW214550   2.249   5.205   5.249
 4551SOL     OW14551   6.128   3.351   0.644
 4551SOL    HW114552   6.096   3.439   0.681
 4551SOL    HW214553   6.108   3.279   0.710
 4552SOL     OW14554   0.076   3.928   4.963
 4552SOL    HW114555   0.009   3.912   5.035
 4552SOL    HW214556   0.114   4.020   4.972
 4553SOL     OW14557   5.461   5.385   6.752
 4553SOL    HW114558   5.500   5.462   6.803
 4553SOL    HW214559   5.367   5.407   6.725
 4554SOL     OW14560   6.891   6.049   3.930
 4554SOL    HW114561   6.843   6.060   4.017
 4554SOL    HW214562   6.941   6.132   3.908
 4555SOL     OW14563   3.922   2.652   0.022
 4555SOL    HW114564   4.013   2.690   0.038
 4555SOL    HW214565   3.854   2.725   0.018
 4556SOL     OW14566   3.971   0.658   4.708
 4556SOL    HW114567   3.961   0.608   4.793
 4556SOL    HW214568   3.975   0.594   4.631
 4557SOL     OW14569   5.106   1.112   4.044
 4557SOL    HW114570   5.090   1.066   4.132
 4557SOL    HW214571   5.187   1.074   4.001
 4558SOL     OW14572   0.149   3.773   6.645
 4558SOL    HW114573   0.160   3.862   6.600
 4558SOL    HW214574   0.056   3.764   6.679
 4559SOL     OW14575   1.741   6.415   1.605
 4559SOL    HW114576   1.729   6.486   1.675
 4559SOL    HW214577   1.742   6.325   1.649
 4560SOL     OW14578   5.763   2.202   3.621
 4560SOL    HW114579   5.693   2.271   3.602
 4560SOL    HW214580   5.721   2.112   3.622
 4561SOL     OW14581   2.468   6.089   6.691
 4561SOL    HW114582   2.546   6.118   6.746
 4561SOL    HW214583   2.388   6.078   6.749
 4562SOL     OW14584   3.373   4.320   5.635
 4562SOL    HW114585   3.285   4.288   5.601
 4562SOL    HW214586   3.382   4.418   5.617
 4563SOL     OW14587   5.499   2.944   6.685
 4563SOL    HW114588   5.429   2.983   6.745
 4563SOL    HW214589   5.519   2.850   6.713
 4564SOL     OW14590   6.676   5.118   0.127
 4564SOL    HW114591   6.772   5.119   0.099
 4564SOL    HW214592   6.652   5.027   0.159
 4565SOL     OW14593   3.748   0.949   4.356
 4565SOL    HW114594   3.769   0.854   4.331
 4565SOL    HW214595   3.651   0.966   4.340
 4566SOL     OW14596   1.905   0.462   1.198
 4566SOL    HW114597   1.987   0.417   1.233
 4566SOL    HW214598   1.897   0.553   1.238
 4567SOL     OW14599   5.648   2.534   0.509
 4567SOL    HW114600   5.568   2.538   0.449
 4567SOL    HW214601   5.630   2.589   0.591
 4568SOL     OW14602   4.206   4.734   4.074
 4568SOL    HW114603   4.118   4.777   4.052
 4568SOL    HW214604   4.195   4.677   4.156
 4569SOL     OW14605   1.977   1.698   3.692
 4569SOL    HW114606   1.927   1.671   3.774
 4569SOL    HW214607   1.944   1.787   3.660
 4570SOL     OW14608   5.382   6.088   5.080
 4570SOL    HW114609   5.370   6.030   5.161
 4570SOL    HW214610   5.296   6.134   5.060
 4571SOL     OW14611   3.822   2.977   3.925
 4571SOL    HW114612   3.907   3.021   3.955
 4571SOL    HW214613   3.790   2.914   3.997
 4572SOL     OW14614   2.743   5.437   0.949
 4572SOL    HW114615   2.748   5.339   0.967
 4572SOL    HW214616   2.828   5.467   0.905
 4573SOL     OW14617   5.035   6.955   1.656
 4573SOL    HW114618   5.085   0.004   1.609
 4573SOL    HW214619   5.081   6.932   1.741
 4574SOL     OW14620   0.201   5.099   2.167
 4574SOL    HW114621   0.286   5.055   2.197
 4574SOL    HW214622   0.220   5.193   2.140
 4575SOL     OW14623   6.316   5.749   1.470
 4575SOL    HW114624   6.243   5.751   1.539
 4575SOL    HW214625   6.363   5.661   1.475
 4576SOL     OW14626   3.523   6.229   4.396
 4576SOL    HW114627   3.570   6.218   4.308
 4576SOL    HW214628   3.482   6.320   4.400
 4577SOL     OW14629   2.401   4.432   3.422
 4577SOL    HW114630   2.414   4.357   3.358
 4577SOL    HW214631   2.414   4.399   3.516
 4578SOL     OW14632   5.752   6.548   3.671
 4578SOL    HW114633   5.838   6.552   3.722
 4578SOL    HW214634   5.713   6.456   3.679
 4579SOL     OW14635   4.091   1.611   2.804
 4579SOL    HW114636   4.142   1.531   2.834
 4579SOL    HW214637   4.025   1.636   2.875
 4580SOL     OW14638   0.634   4.824   7.011
 4580SOL    HW114639   0.605   4.849   0.080
 4580SOL    HW214640   0.679   4.902   6.969
 4581SOL     OW14641   3.109   5.449   4.262
 4581SOL    HW114642   3.158   5.363   4.246
 4581SOL    HW214643   3.016   5.429   4.293
 4582SOL     OW14644   4.962   6.457   2.980
 4582SOL    HW114645   5.030   6.420   3.044
 4582SOL    HW214646   4.880   6.484   3.032
 4583SOL     OW14647   3.664   6.804   5.296
 4583SOL    HW114648   3.693   6.831   5.204
 4583SOL    HW214649   3.589   6.738   5.288
 4584SOL     OW14650   6.764   5.074   5.726
 4584SOL    HW114651   6.723   5.157   5.764
 4584SOL    HW214652   6.700   4.998   5.731
 4585SOL     OW14653   2.973   6.748   2.241
 4585SOL    HW114654   2.964   6.833   2.292
 4585SOL    HW214655   2.899   6.685   2.267
 4586SOL     OW14656   1.663   6.057   1.581
 4586SOL    HW114657   1.652   5.966   1.619
 4586SOL    HW214658   1.687   6.121   1.655
 4587SOL     OW14659   3.497   4.749   1.168
 4587SOL    HW114660   3.525   4.748   1.264
 4587SOL    HW214661   3.535   4.670   1.120
 4588SOL     OW14662   3.408   4.049   4.555
 4588SOL    HW114663   3.412   4.088   4.463
 4588SOL    HW214664   3.421   3.950   4.549
 4589SOL     OW14665   2.071   2.102   3.356
 4589SOL    HW114666   2.035   2.195   3.354
 4589SOL    HW214667   2.164   2.103   3.393
 4590SOL     OW14668   4.310   6.208   2.826
 4590SOL    HW114669   4.246   6.132   2.828
 4590SOL    HW214670   4.395   6.180   2.871
 4591SOL     OW14671   4.671   5.711   4.830
 4591SOL    HW114672   4.733   5.633   4.832
 4591SOL    HW214673   4.578   5.679   4.813
 4592SOL     OW14674   3.253   2.440   5.967
 4592SOL    HW114675   3.249   2.446   5.867
 4592SOL    HW214676   3.347   2.417   5.994
 4593SOL     OW14677   4.893   5.124   1.656
 4593SOL    HW114678   4.938   5.169   1.579
 4593SOL    HW214679   4.795   5.145   1.654
 4594SOL     OW14680   4.240   2.260   2.394
 4594SOL    HW114681   4.240   2.320   2.314
 4594SOL    HW214682   4.243   2.316   2.477
 4595SOL     OW14683   4.083   3.249   5.459
 4595SOL    HW114684   4.041   3.299   5.535
 4595SOL    HW214685   4.165   3.297   5.429
 4596SOL     OW14686   4.501   1.077   2.428
 4596SOL    HW114687   4.467   1.029   2.347
 4596SOL    HW214688   4.595   1.107   2.411
 4597SOL     OW14689   0.072   3.646   6.401
 4597SOL    HW114690   0.115   3.685   6.482
 4597SOL    HW214691   6.998   3.666   6.402
 4598SOL     OW14692   2.701   3.967   6.799
 4598SOL    HW114693   2.657   4.036   6.856
 4598SOL    HW214694   2.785   4.004   6.760
 4599SOL     OW14695   3.092   4.648   0.848
 4599SOL    HW114696   3.062   4.735   0.808
 4599SOL    HW214697   3.189   4.655   0.871
 4600SOL     OW14698   2.448   3.596   0.961
 4600SOL    HW114699   2.428   3.687   0.999
 4600SOL    HW214700   2.482   3.537   1.034
 4601SOL     OW14701   1.838   5.319   3.141
 4601SOL    HW114702   1.897   5.242   3.116
 4601SOL    HW214703   1.796   5.300   3.230
 4602SOL     OW14704   1.516   0.379   1.615
 4602SOL    HW114705   1.416   0.370   1.617
 4602SOL    HW214706   1.544   0.455   1.673
 4603SOL     OW14707   2.804   1.655   1.302
 4603SOL    HW114708   2.732   1.702   1.251
 4603SOL    HW214709   2.891   1.666   1.254
 4604SOL     OW14710   1.179   6.891   3.215
 4604SOL    HW114711   1.232   6.974   3.198
 4604SOL    HW214712   1.104   6.910   3.279
 4605SOL     OW14713   5.150   6.759   5.720
 4605SOL    HW114714   5.235   6.741   5.769
 4605SOL    HW214715   5.155   6.719   5.628
 4606SOL     OW14716   5.976   6.498   4.696
 4606SOL    HW114717   5.919   6.572   4.662
 4606SOL    HW214718   5.957   6.414   4.644
 4607SOL     OW14719   3.058   3.250   0.690
 4607SOL    HW114720   3.051   3.176   0.623
 4607SOL    HW214721   3.142   3.239   0.744
 4608SOL     OW14722   1.717   3.426   5.877
 4608SOL    HW114723   1.643   3.391   5.934
 4608SOL    HW214724   1.801   3.375   5.896
 4609SOL     OW14725   3.400   6.988   0.497
 4609SOL    HW114726   3.421   6.891   0.484
 4609SOL    HW214727   3.483   0.018   0.481
 4610SOL     OW14728   6.447   3.718   0.652
 4610SOL    HW114729   6.437   3.817   0.656
 4610SOL    HW214730   6.497   3.693   0.569
 4611SOL     OW14731   1.663   4.710   6.071
 4611SOL    HW114732   1.640   4.697   6.167
 4611SOL    HW214733   1.763   4.717   6.062
 4612SOL     OW14734   1.602   0.571   6.350
 4612SOL    HW114735   1.639   0.662   6.335
 4612SOL    HW214736   1.543   0.546   6.272
 4613SOL     OW14737   4.065   4.894   1.372
 4613SOL    HW114738   4.138   4.913   1.307
 4613SOL    HW214739   4.068   4.960   1.447
 4614SOL     OW14740   1.980   4.167   0.919
 4614SOL    HW114741   1.938   4.255   0.897
 4614SOL    HW214742   2.046   4.143   0.848
 4615SOL     OW14743   6.061   3.047   6.603
 4615SOL    HW114744   5.971   3.014   6.630
 4615SOL    HW214745   6.078   3.136   6.646
 4616SOL     OW14746   5.247   0.736   6.669
 4616SOL    HW114747   5.271   0.747   6.766
 4616SOL    HW214748   5.313   0.785   6.612
 4617SOL     OW14749   0.594   4.102   1.848
 4617SOL    HW114750   0.675   4.091   1.789
 4617SOL    HW214751   0.587   4.197   1.877
 4618SOL     OW14752   1.379   2.925   6.064
 4618SOL    HW114753   1.367   2.826   6.075
 4618SOL    HW214754   1.464   2.953   6.107
 4619SOL     OW14755   3.832   0.982   3.844
 4619SOL    HW114756   3.915   0.928   3.856
 4619SOL    HW214757   3.855   1.067   3.796
 4620SOL     OW14758   1.704   5.976   0.493
 4620SOL    HW114759   1.618   5.933   0.521
 4620SOL    HW214760   1.780   5.915   0.513
 4621SOL     OW14761   6.731   1.001   6.957
 4621SOL    HW114762   6.777   1.089   6.962
 4621SOL    HW214763   6.664   0.994   0.007
 4622SOL     OW14764   1.732   4.735   0.582
 4622SOL    HW114765   1.718   4.751   0.484
 4622SOL    HW214766   1.771   4.816   0.624
 4623SOL     OW14767   6.062   3.455   3.682
 4623SOL    HW114768   6.044   3.453   3.781
 4623SOL    HW214769   6.098   3.367   3.653
 4624SOL     OW14770   4.432   6.459   5.687
 4624SOL    HW114771   4.357   6.488   5.628
 4624SOL    HW214772   4.410   6.477   5.782
 4625SOL     OW14773   1.192   4.227   6.098
 4625SOL    HW114774   1.266   4.164   6.122
 4625SOL    HW214775   1.108   4.199   6.144
 4626SOL     OW14776   6.920   4.886   2.310
 4626SOL    HW114777   6.854   4.826   2.356
 4626SOL    HW214778   6.935   4.852   2.217
 4627SOL     OW14779   2.126   6.839   4.460
 4627SOL    HW114780   2.084   6.776   4.395
 4627SOL    HW214781   2.220   6.811   4.478
 4628SOL     OW14782   6.496   2.359   1.818
 4628SOL    HW114783   6.472   2.406   1.902
 4628SOL    HW214784   6.568   2.410   1.771
 4629SOL     OW14785   4.479   5.208   3.806
 4629SOL    HW114786   4.417   5.189   3.882
 4629SOL    HW214787   4.511   5.121   3.766
 4630SOL     OW14788   2.902   5.986   3.005
 4630SOL    HW114789   2.843   5.988   3.086
 4630SOL    HW214790   2.994   6.015   3.030
 4631SOL     OW14791   1.729   0.502   2.723
 4631SOL    HW114792   1.806   0.516   2.662
 4631SOL    HW214793   1.761   0.466   2.811
 4632SOL     OW14794   5.946   6.228   4.641
 4632SOL    HW114795   5.924   6.140   4.599
 4632SOL    HW214796   5.963   6.216   4.739
 4633SOL     OW14797   5.218   3.274   6.261
 4633SOL    HW114798   5.230   3.291   6.163
 4633SOL    HW214799   5.200   3.360   6.309
 4634SOL     OW14800   2.825   3.759   0.487
 4634SOL    HW114801   2.799   3.824   0.558
 4634SOL    HW214802   2.747   3.702   0.462
 4635SOL     OW14803   4.615   3.042   1.405
 4635SOL    HW114804   4.656   3.003   1.488
 4635SOL    HW214805   4.564   3.125   1.429
 4636SOL     OW14806   1.101   5.074   1.927
 4636SOL    HW114807   1.167   5.067   1.853
 4636SOL    HW214808   1.120   5.005   1.997
 4637SOL     OW14809   0.540   0.802   5.527
 4637SOL    HW114810   0.617   0.816   5.589
 4637SOL    HW214811   0.488   0.722   5.556
 4638SOL     OW14812   4.510   5.201   5.758
 4638SOL    HW114813   4.439   5.169   5.821
 4638SOL    HW214814   4.478   5.191   5.664
 4639SOL     OW14815   6.685   2.413   5.308
 4639SOL    HW114816   6.676   2.357   5.225
 4639SOL    HW214817   6.612   2.482   5.309
 4640SOL     OW14818   0.328   5.808   3.149
 4640SOL    HW114819   0.399   5.853   3.203
 4640SOL    HW214820   0.238   5.837   3.183
 4641SOL     OW14821   2.270   3.880   5.347
 4641SOL    HW114822   2.222   3.961   5.382
 4641SOL    HW214823   2.347   3.910   5.289
 4642SOL     OW14824   5.953   5.312   4.590
 4642SOL    HW114825   6.008   5.385   4.548
 4642SOL    HW214826   5.917   5.252   4.519
 4643SOL     OW14827   4.511   3.843   1.073
 4643SOL    HW114828   4.472   3.763   1.027
 4643SOL    HW214829   4.527   3.915   1.006
 4644SOL     OW14830   3.412   5.132   5.472
 4644SOL    HW114831   3.336   5.100   5.416
 4644SOL    HW214832   3.394   5.109   5.568
 4645SOL     OW14833   1.938   6.238   4.804
 4645SOL    HW114834   1.886   6.225   4.888
 4645SOL    HW214835   1.955   6.336   4.790
 4646SOL     OW14836   3.375   1.509   1.059
 4646SOL    HW114837   3.292   1.453   1.052
 4646SOL    HW214838   3.440   1.465   1.122
 4647SOL     OW14839   6.399   0.508   5.750
 4647SOL    HW114840   6.375   0.563   5.670
 4647SOL    HW214841   6.398   0.566   5.832
 4648SOL     OW14842   2.475   6.352   3.241
 4648SOL    HW114843   2.489   6.257   3.269
 4648SOL    HW214844   2.462   6.409   3.322
 4649SOL     OW14845   5.882   5.019   6.172
 4649SOL    HW114846   5.798   4.965   6.162
 4649SOL    HW214847   5.869   5.088   6.243
 4650SOL     OW14848   6.363   4.675   1.859
 4650SOL    HW114849   6.459   4.669   1.832
 4650SOL    HW214850   6.347   4.762   1.906
 4651SOL     OW14851   6.105   1.495   1.108
 4651SOL    HW114852   6.188   1.529   1.153
 4651SOL    HW214853   6.052   1.441   1.174
 4652SOL     OW14854   0.394   6.542   5.664
 4652SOL    HW114855   0.452   6.474   5.620
 4652SOL    HW214856   0.332   6.581   5.596
 4653SOL     OW14857   1.698   4.769   0.331
 4653SOL    HW114858   1.796   4.790   0.343
 4653SOL    HW214859   1.684   4.726   0.241
 4654SOL     OW14860   1.705   1.256   0.627
 4654SOL    HW114861   1.607   1.270   0.640
 4654SOL    HW214862   1.744   1.213   0.708
 4655SOL     OW14863   0.375   5.345   4.463
 4655SOL    HW114864   0.346   5.384   4.550
 4655SOL    HW214865   0.472   5.320   4.468
 4656SOL     OW14866   2.616   0.383   2.582
 4656SOL    HW114867   2.531   0.339   2.556
 4656SOL    HW214868   2.625   0.382   2.681
 4657SOL     OW14869   6.565   1.344   5.580
 4657SOL    HW114870   6.499   1.409   5.543
 4657SOL    HW214871   6.576   1.267   5.517
 4658SOL     OW14872   5.445   0.088   3.895
 4658SOL    HW114873   5.488   0.149   3.829
 4658SOL    HW214874   5.346   0.101   3.894
 4659SOL     OW14875   2.139   3.127   3.778
 4659SOL    HW114876   2.077   3.190   3.733
 4659SOL    HW214877   2.115   3.119   3.875
 4660SOL     OW14878   6.734   1.386   4.922
 4660SOL    HW114879   6.715   1.415   4.828
 4660SOL    HW214880   6.717   1.288   4.930
 4661SOL     OW14881   3.433   3.172   3.712
 4661SOL    HW114882   3.504   3.141   3.776
 4661SOL    HW214883   3.466   3.161   3.618
 4662SOL     OW14884   6.308   6.714   4.845
 4662SOL    HW114885   6.335   6.789   4.785
 4662SOL    HW214886   6.382   6.694   4.909
 4663SOL     OW14887   0.577   2.048   2.783
 4663SOL    HW114888   0.587   1.959   2.739
 4663SOL    HW214889   0.589   2.120   2.714
 4664SOL     OW14890   3.423   5.080   0.333
 4664SOL    HW114891   3.346   5.037   0.285
 4664SOL    HW214892   3.389   5.151   0.394
 4665SOL     OW14893   5.949   0.955   6.460
 4665SOL    HW114894   5.909   0.926   6.373
 4665SOL    HW214895   6.009   0.882   6.495
 4666SOL     OW14896   1.735   1.117   0.887
 4666SOL    HW114897   1.766   1.210   0.905
 4666SOL    HW214898   1.804   1.051   0.919
 4667SOL     OW14899   0.256   6.067   3.984
 4667SOL    HW114900   0.238   5.998   4.054
 4667SOL    HW214901   0.346   6.106   3.998
 4668SOL     OW14902   5.730   1.181   5.192
 4668SOL    HW114903   5.823   1.206   5.166
 4668SOL    HW214904   5.721   1.188   5.291
 4669SOL     OW14905   2.199   1.961   2.190
 4669SOL    HW114906   2.154   1.977   2.102
 4669SOL    HW214907   2.291   1.925   2.174
 4670SOL     OW14908   2.608   1.982   4.471
 4670SOL    HW114909   2.661   1.984   4.387
 4670SOL    HW214910   2.613   1.891   4.513
 4671SOL     OW14911   6.403   2.434   2.618
 4671SOL    HW114912   6.466   2.490   2.672
 4671SOL    HW214913   6.419   2.451   2.520
 4672SOL     OW14914   2.986   2.251   5.354
 4672SOL    HW114915   2.924   2.326   5.333
 4672SOL    HW214916   3.066   2.257   5.293
 4673SOL     OW14917   5.429   0.891   2.057
 4673SOL    HW114918   5.384   0.808   2.023
 4673SOL    HW214919   5.425   0.962   1.987
 4674SOL     OW14920   4.385   6.992   5.600
 4674SOL    HW114921   4.390   0.019   5.686
 4674SOL    HW214922   4.335   0.021   5.532
 4675SOL     OW14923   0.843   4.091   5.871
 4675SOL    HW114924   0.916   4.061   5.932
 4675SOL    HW214925   0.850   4.189   5.856
 4676SOL     OW14926   1.307   4.241   3.890
 4676SOL    HW114927   1.257   4.162   3.855
 4676SOL    HW214928   1.333   4.300   3.814
 4677SOL     OW14929   1.440   3.451   0.791
 4677SOL    HW114930   1.445   3.548   0.812
 4677SOL    HW214931   1.510   3.428   0.723
 4678SOL     OW14932   1.453   2.053   1.132
 4678SOL    HW114933   1.377   2.118   1.124
 4678SOL    HW214934   1.422   1.963   1.102
 4679SOL     OW14935   4.634   0.139   1.986
 4679SOL    HW114936   4.721   0.100   2.016
 4679SOL    HW214937   4.628   0.134   1.886
 4680SOL     OW14938   2.756   1.222   6.931
 4680SOL    HW114939   2.818   1.297   6.956
 4680SOL    HW214940   2.692   1.254   6.861
 4681SOL     OW14941   5.060   5.299   2.066
 4681SOL    HW114942   5.076   5.272   2.161
 4681SOL    HW214943   5.039   5.217   2.012
 4682SOL     OW14944   3.647   3.413   6.359
 4682SOL    HW114945   3.610   3.506   6.353
 4682SOL    HW214946   3.622   3.362   6.276
 4683SOL     OW14947   6.892   3.981   4.067
 4683SOL    HW114948   6.888   3.903   4.130
 4683SOL    HW214949   6.954   4.050   4.104
 4684SOL     OW14950   5.076   0.510   5.684
 4684SOL    HW114951   5.068   0.411   5.672
 4684SOL    HW214952   5.038   0.536   5.772
 4685SOL     OW14953   2.999   3.691   4.085
 4685SOL    HW114954   2.994   3.621   4.014
 4685SOL    HW214955   2.959   3.656   4.170
 4686SOL     OW14956   1.454   6.808   6.295
 4686SOL    HW114957   1.440   6.738   6.366
 4686SOL    HW214958   1.378   6.873   6.297
 4687SOL     OW14959   1.313   6.997   2.355
 4687SOL    HW114960   1.228   6.959   2.318
 4687SOL    HW214961   1.291   0.037   2.429
 4688SOL     OW14962   5.101   2.644   4.492
 4688SOL    HW114963   5.173   2.647   4.422
 4688SOL    HW214964   5.136   2.685   4.576
 4689SOL     OW14965   6.846   1.142   1.584
 4689SOL    HW114966   6.910   1.164   1.511
 4689SOL    HW214967   6.833   1.043   1.588
 4690SOL     OW14968   3.471   2.146   1.321
 4690SOL    HW114969   3.544   2.174   1.383
 4690SOL    HW214970   3.428   2.062   1.354
 4691SOL     OW14971   6.208   2.666   2.006
 4691SOL    HW114972   6.206   2.592   1.939
 4691SOL    HW214973   6.155   2.744   1.972
 4692SOL     OW14974   6.235   2.626   3.098
 4692SOL    HW114975   6.254   2.692   3.026
 4692SOL    HW214976   6.164   2.563   3.068
 4693SOL     OW14977   6.855   0.170   3.853
 4693SOL    HW114978   6.831   0.074   3.870
 4693SOL    HW214979   6.775   0.227   3.869
 4694SOL     OW14980   1.986   6.813   5.718
 4694SOL    HW114981   1.951   6.758   5.642
 4694SOL    HW214982   2.009   6.905   5.684
 4695SOL     OW14983   1.715   4.548   1.961
 4695SOL    HW114984   1.789   4.616   1.952
 4695SOL    HW214985   1.755   4.458   1.979
 4696SOL     OW14986   2.072   6.145   6.223
 4696SOL    HW114987   2.081   6.123   6.125
 4696SOL    HW214988   2.027   6.233   6.233
 4697SOL     OW14989   4.606   5.840   1.475
 4697SOL    HW114990   4.551   5.856   1.556
 4697SOL    HW214991   4.547   5.839   1.394
 4698SOL     OW14992   5.608   1.568   4.612
 4698SOL    HW114993   5.562   1.524   4.689
 4698SOL    HW214994   5.552   1.557   4.530
 4699SOL     OW14995   0.809   1.660   2.844
 4699SOL    HW114996   0.866   1.579   2.832
 4699SOL    HW214997   0.765   1.658   2.933
 4700SOL     OW14998   6.585   1.998   3.882
 4700SOL    HW114999   6.662   2.062   3.892
 4700SOL    HW215000   6.538   2.016   3.795
 4701SOL     OW15001   2.613   2.713   1.728
 4701SOL    HW115002   2.672   2.663   1.665
 4701SOL    HW215003   2.605   2.808   1.698
 4702SOL     OW15004   6.159   4.960   1.238
 4702SOL    HW115005   6.245   4.957   1.289
 4702SOL    HW215006   6.152   5.048   1.191
 4703SOL     OW15007   6.748   5.242   4.367
 4703SOL    HW115008   6.736   5.188   4.284
 4703SOL    HW215009   6.705   5.195   4.444
 4704SOL     OW15010   1.358   4.818   4.309
 4704SOL    HW115011   1.416   4.770   4.243
 4704SOL    HW215012   1.268   4.774   4.312
 4705SOL     OW15013   2.925   2.272   1.315
 4705SOL    HW115014   2.950   2.206   1.244
 4705SOL    HW215015   2.990   2.265   1.391
 4706SOL     OW15016   2.047   1.769   1.019
 4706SOL    HW115017   1.964   1.718   0.996
 4706SOL    HW215018   2.093   1.726   1.097
 4707SOL     OW15019   2.232   5.822   2.257
 4707SOL    HW115020   2.259   5.916   2.237
 4707SOL    HW215021   2.133   5.817   2.263
 4708SOL     OW15022   1.953   2.792   6.745
 4708SOL    HW115023   1.894   2.721   6.783
 4708SOL    HW215024   2.001   2.757   6.665
 4709SOL     OW15025   6.286   3.389   4.697
 4709SOL    HW115026   6.273   3.378   4.598
 4709SOL    HW215027   6.267   3.303   4.744
 4710SOL     OW15028   6.035   4.868   5.438
 4710SOL    HW115029   5.954   4.864   5.379
 4710SOL    HW215030   6.081   4.956   5.426
 4711SOL     OW15031   4.750   4.209   2.724
 4711SOL    HW115032   4.842   4.171   2.733
 4711SOL    HW215033   4.725   4.255   2.810
 4712SOL     OW15034   4.330   5.129   5.949
 4712SOL    HW115035   4.232   5.134   5.968
 4712SOL    HW215036   4.366   5.042   5.983
 4713SOL     OW15037   5.674   4.541   1.674
 4713SOL    HW115038   5.606   4.490   1.622
 4713SOL    HW215039   5.663   4.639   1.657
 4714SOL     OW15040   4.786   2.333   5.786
 4714SOL    HW115041   4.847   2.280   5.845
 4714SOL    HW215042   4.764   2.420   5.832
 4715SOL     OW15043   0.393   1.387   1.768
 4715SOL    HW115044   0.345   1.299   1.768
 4715SOL    HW215045   0.473   1.382   1.708
 4716SOL     OW15046   3.921   4.459   5.381
 4716SOL    HW115047   3.882   4.413   5.461
 4716SOL    HW215048   3.909   4.401   5.301
 4717SOL     OW15049   1.685   4.383   6.100
 4717SOL    HW115050   1.740   4.361   6.019
 4717SOL    HW215051   1.593   4.409   6.071
 4718SOL     OW15052   4.901   3.461   2.369
 4718SOL    HW115053   4.873   3.472   2.274
 4718SOL    HW215054   4.899   3.363   2.393
 4719SOL     OW15055   5.687   3.892   3.679
 4719SOL    HW115056   5.677   3.798   3.647
 4719SOL    HW215057   5.598   3.937   3.680
 4720SOL     OW15058   0.946   1.721   6.167
 4720SOL    HW115059   1.031   1.685   6.129
 4720SOL    HW215060   0.869   1.685   6.114
 4721SOL     OW15061   0.249   2.485   2.861
 4721SOL    HW115062   0.159   2.476   2.819
 4721SOL    HW215063   0.263   2.581   2.889
 4722SOL     OW15064   1.670   5.054   5.725
 4722SOL    HW115065   1.662   5.049   5.625
 4722SOL    HW215066   1.753   5.103   5.750
 4723SOL     OW15067   3.409   4.602   5.962
 4723SOL    HW115068   3.456   4.635   6.044
 4723SOL    HW215069   3.343   4.531   5.986
 4724SOL     OW15070   0.425   0.601   4.358
 4724SOL    HW115071   0.388   0.508   4.345
 4724SOL    HW215072   0.503   0.615   4.297
 4725SOL     OW15073   5.720   5.546   1.471
 4725SOL    HW115074   5.768   5.458   1.475
 4725SOL    HW215075   5.730   5.594   1.557
 4726SOL     OW15076   2.161   2.712   6.035
 4726SOL    HW115077   2.090   2.684   6.100
 4726SOL    HW215078   2.118   2.742   5.950
 4727SOL     OW15079   6.216   5.226   1.751
 4727SOL    HW115080   6.128   5.221   1.799
 4727SOL    HW215081   6.245   5.133   1.727
 4728SOL     OW15082   4.129   0.994   3.571
 4728SOL    HW115083   4.063   1.001   3.497
 4728SOL    HW215084   4.158   0.898   3.581
 4729SOL     OW15085   0.452   0.903   3.011
 4729SOL    HW115086   0.383   0.856   3.066
 4729SOL    HW215087   0.486   0.841   2.940
 4730SOL     OW15088   2.810   0.951   3.083
 4730SOL    HW115089   2.884   0.951   3.016
 4730SOL    HW215090   2.842   0.912   3.169
 4731SOL     OW15091   3.917   6.810   2.456
 4731SOL    HW115092   3.858   6.798   2.536
 4731SOL    HW215093   3.860   6.823   2.375
 4732SOL     OW15094   0.329   4.955   4.281
 4732SOL    HW115095   0.292   4.896   4.352
 4732SOL    HW215096   0.292   5.047   4.291
 4733SOL     OW15097   2.207   3.930   3.386
 4733SOL    HW115098   2.210   3.834   3.361
 4733SOL    HW215099   2.170   3.939   3.478
 4734SOL     OW15100   4.494   4.574   6.423
 4734SOL    HW115101   4.414   4.515   6.412
 4734SOL    HW215102   4.465   4.663   6.460
 4735SOL     OW15103   0.069   0.867   5.454
 4735SOL    HW115104   0.081   0.910   5.543
 4735SOL    HW215105   0.133   0.906   5.389
 4736SOL     OW15106   6.001   0.127   4.839
 4736SOL    HW115107   5.971   0.145   4.933
 4736SOL    HW215108   6.009   0.214   4.790
 4737SOL     OW15109   1.876   5.095   0.416
 4737SOL    HW115110   1.916   5.125   0.503
 4737SOL    HW215111   1.822   5.169   0.376
 4738SOL     OW15112   0.166   5.982   3.613
 4738SOL    HW115113   0.127   6.074   3.615
 4738SOL    HW215114   0.107   5.920   3.665
 4739SOL     OW15115   5.904   3.515   3.094
 4739SOL    HW115116   5.985   3.512   3.152
 4739SOL    HW215117   5.852   3.598   3.113
 4740SOL     OW15118   1.890   6.695   0.660
 4740SOL    HW115119   1.843   6.761   0.720
 4740SOL    HW215120   1.876   6.722   0.565
 4741SOL     OW15121   5.884   4.827   2.239
 4741SOL    HW115122   5.981   4.806   2.226
 4741SOL    HW215123   5.831   4.742   2.236
 4742SOL     OW15124   2.297   5.648   2.046
 4742SOL    HW115125   2.264   5.707   2.120
 4742SOL    HW215126   2.258   5.557   2.057
 4743SOL     OW15127   2.774   3.273   0.603
 4743SOL    HW115128   2.805   3.261   0.509
 4743SOL    HW215129   2.853   3.268   0.665
 4744SOL     OW15130   3.165   1.565   5.732
 4744SOL    HW115131   3.095   1.567   5.803
 4744SOL    HW215132   3.130   1.518   5.651
 4745SOL     OW15133   4.296   5.882   4.336
 4745SOL    HW115134   4.320   5.801   4.390
 4745SOL    HW215135   4.355   5.887   4.255
 4746SOL     OW15136   5.608   1.480   0.530
 4746SOL    HW115137   5.641   1.574   0.540
 4746SOL    HW215138   5.611   1.434   0.619
 4747SOL     OW15139   1.114   2.828   2.025
 4747SOL    HW115140   1.197   2.883   2.032
 4747SOL    HW215141   1.123   2.762   1.950
 4748SOL     OW15142   1.845   6.801   0.399
 4748SOL    HW115143   1.944   6.799   0.384
 4748SOL    HW215144   1.814   6.896   0.402
 4749SOL     OW15145   3.776   1.315   6.963
 4749SOL    HW115146   3.781   1.327   0.039
 4749SOL    HW215147   3.736   1.225   6.943
 4750SOL     OW15148   1.062   2.233   5.088
 4750SOL    HW115149   0.984   2.173   5.104
 4750SOL    HW215150   1.118   2.196   5.014
 4751SOL     OW15151   1.566   3.700   6.546
 4751SOL    HW115152   1.603   3.732   6.459
 4751SOL    HW215153   1.530   3.779   6.597
 4752SOL     OW15154   1.476   5.839   0.831
 4752SOL    HW115155   1.396   5.855   0.889
 4752SOL    HW215156   1.540   5.780   0.879
 4753SOL     OW15157   0.142   1.130   6.588
 4753SOL    HW115158   0.065   1.071   6.609
 4753SOL    HW215159   0.109   1.221   6.564
 4754SOL     OW15160   1.571   0.763   6.783
 4754SOL    HW115161   1.557   0.668   6.754
 4754SOL    HW215162   1.592   0.764   6.881
 4755SOL     OW15163   3.031   6.746   3.169
 4755SOL    HW115164   2.979   6.824   3.204
 4755SOL    HW215165   2.970   6.668   3.155
 4756SOL     OW15166   5.739   2.020   1.076
 4756SOL    HW115167   5.816   2.020   1.012
 4756SOL    HW215168   5.682   2.100   1.060
 4757SOL     OW15169   2.406   2.937   1.066
 4757SOL    HW115170   2.365   3.023   1.033
 4757SOL    HW215171   2.333   2.872   1.086
 4758SOL     OW15172   6.398   3.973   6.348
 4758SOL    HW115173   6.396   4.002   6.253
 4758SOL    HW215174   6.364   3.879   6.355
 4759SOL     OW15175   6.794   4.139   6.723
 4759SOL    HW115176   6.839   4.175   6.805
 4759SOL    HW215177   6.734   4.209   6.685
 4760SOL     OW15178   0.654   2.861   0.311
 4760SOL    HW115179   0.713   2.786   0.281
 4760SOL    HW215180   0.665   2.939   0.249
 4761SOL     OW15181   2.822   6.196   6.431
 4761SOL    HW115182   2.772   6.269   6.385
 4761SOL    HW215183   2.790   6.189   6.526
 4762SOL     OW15184   3.266   0.649   2.850
 4762SOL    HW115185   3.195   0.583   2.827
 4762SOL    HW215186   3.271   0.719   2.779
 4763SOL     OW15187   5.011   4.925   4.767
 4763SOL    HW115188   5.072   4.918   4.845
 4763SOL    HW215189   5.038   5.002   4.710
 4764SOL     OW15190   3.277   3.563   3.832
 4764SOL    HW115191   3.247   3.469   3.818
 4764SOL    HW215192   3.313   3.573   3.925
 4765SOL     OW15193   6.279   5.530   6.440
 4765SOL    HW115194   6.199   5.509   6.496
 4765SOL    HW215195   6.310   5.447   6.393
 4766SOL     OW15196   3.278   1.496   3.422
 4766SOL    HW115197   3.264   1.485   3.521
 4766SOL    HW215198   3.306   1.589   3.402
 4767SOL     OW15199   4.721   0.930   6.506
 4767SOL    HW115200   4.719   1.024   6.470
 4767SOL    HW215201   4.811   0.913   6.548
 4768SOL     OW15202   2.091   0.525   5.653
 4768SOL    HW115203   2.086   0.425   5.657
 4768SOL    HW215204   2.178   0.552   5.612
 4769SOL     OW15205   4.565   0.789   2.002
 4769SOL    HW115206   4.491   0.738   1.957
 4769SOL    HW215207   4.579   0.877   1.956
 4770SOL     OW15208   2.835   1.807   3.713
 4770SOL    HW115209   2.807   1.712   3.698
 4770SOL    HW215210   2.932   1.817   3.693
 4771SOL     OW15211   4.057   4.885   6.209
 4771SOL    HW115212   4.019   4.859   6.298
 4771SOL    HW215213   4.097   4.977   6.216
 4772SOL     OW15214   3.652   2.701   6.708
 4772SOL    HW115215   3.749   2.725   6.705
 4772SOL    HW215216   3.635   2.644   6.788
 4773SOL     OW15217   6.986   4.703   4.554
 4773SOL    HW115218   0.041   4.733   4.501
 4773SOL    HW215219   6.924   4.780   4.568
 4774SOL     OW15220   2.332   4.180   0.239
 4774SOL    HW115221   2.361   4.086   0.220
 4774SOL    HW215222   2.310   4.189   0.337
 4775SOL     OW15223   1.943   3.046   2.678
 4775SOL    HW115224   1.985   2.956   2.685
 4775SOL    HW215225   1.977   3.093   2.596
 4776SOL     OW15226   4.408   5.404   1.399
 4776SOL    HW115227   4.322   5.359   1.373
 4776SOL    HW215228   4.413   5.411   1.498
 4777SOL     OW15229   1.830   3.900   1.576
 4777SOL    HW115230   1.808   3.823   1.636
 4777SOL    HW215231   1.844   3.867   1.483
 4778SOL     OW15232   5.547   3.193   2.850
 4778SOL    HW115233   5.503   3.267   2.800
 4778SOL    HW215234   5.629   3.227   2.895
 4779SOL     OW15235   5.889   1.483   2.537
 4779SOL    HW115236   5.851   1.489   2.629
 4779SOL    HW215237   5.941   1.566   2.517
 4780SOL     OW15238   1.487   1.521   5.335
 4780SOL    HW115239   1.391   1.531   5.362
 4780SOL    HW215240   1.507   1.425   5.319
 4781SOL     OW15241   2.826   5.743   2.851
 4781SOL    HW115242   2.864   5.834   2.866
 4781SOL    HW215243   2.823   5.692   2.937
 4782SOL     OW15244   6.178   6.088   6.903
 4782SOL    HW115245   6.133   6.078   6.991
 4782SOL    HW215246   6.275   6.065   6.912
 4783SOL     OW15247   5.544   4.693   3.267
 4783SOL    HW115248   5.541   4.710   3.169
 4783SOL    HW215249   5.625   4.736   3.306
 4784SOL     OW15250   5.144   4.276   4.638
 4784SOL    HW115251   5.133   4.179   4.616
 4784SOL    HW215252   5.138   4.330   4.554
 4785SOL     OW15253   5.625   5.940   0.548
 4785SOL    HW115254   5.623   5.957   0.449
 4785SOL    HW215255   5.539   5.896   0.575
 4786SOL     OW15256   1.350   4.418   3.060
 4786SOL    HW115257   1.267   4.395   3.008
 4786SOL    HW215258   1.334   4.400   3.157
 4787SOL     OW15259   4.150   1.951   2.661
 4787SOL    HW115260   4.090   2.026   2.688
 4787SOL    HW215261   4.158   1.886   2.736
 4788SOL     OW15262   2.408   0.423   4.651
 4788SOL    HW115263   2.407   0.397   4.554
 4788SOL    HW215264   2.495   0.468   4.672
 4789SOL     OW15265   4.955   5.810   6.819
 4789SOL    HW115266   4.911   5.775   6.902
 4789SOL    HW215267   4.885   5.851   6.760
 4790SOL     OW15268   5.687   6.953   6.968
 4790SOL    HW115269   5.700   0.006   6.906
 4790SOL    HW215270   5.768   6.942   0.002
 4791SOL     OW15271   4.461   2.416   3.200
 4791SOL    HW115272   4.492   2.480   3.129
 4791SOL    HW215273   4.535   2.353   3.222
 4792SOL     OW15274   3.319   3.251   0.361
 4792SOL    HW115275   3.234   3.199   0.356
 4792SOL    HW215276   3.395   3.191   0.336
 4793SOL     OW15277   0.674   0.953   7.021
 4793SOL    HW115278   0.723   1.036   6.995
 4793SOL    HW215279   0.740   0.883   0.025
 4794SOL     OW15280   5.654   1.322   1.814
 4794SOL    HW115281   5.708   1.349   1.894
 4794SOL    HW215282   5.559   1.307   1.841
 4795SOL     OW15283   6.162   2.295   4.367
 4795SOL    HW115284   6.218   2.352   4.308
 4795SOL    HW215285   6.116   2.225   4.312
 4796SOL     OW15286   4.757   3.601   0.444
 4796SOL    HW115287   4.790   3.506   0.451
 4796SOL    HW215288   4.702   3.623   0.524
 4797SOL     OW15289   1.445   5.866   5.039
 4797SOL    HW115290   1.474   5.836   5.129
 4797SOL    HW215291   1.429   5.964   5.040
 4798SOL     OW15292   0.340   5.722   6.240
 4798SOL    HW115293   0.338   5.655   6.315
 4798SOL    HW215294   0.321   5.813   6.277
 4799SOL     OW15295   5.171   1.294   4.340
 4799SOL    HW115296   5.202   1.382   4.375
 4799SOL    HW215297   5.134   1.306   4.248
 4800SOL     OW15298   1.173   3.116   3.964
 4800SOL    HW115299   1.074   3.124   3.975
 4800SOL    HW215300   1.219   3.158   4.042
 4801SOL     OW15301   0.109   2.043   0.788
 4801SOL    HW115302   0.073   1.969   0.846
 4801SOL    HW215303   0.200   2.017   0.755
 4802SOL     OW15304   1.935   0.026   1.819
 4802SOL    HW115305   1.860   6.984   1.817
 4802SOL    HW215306   1.913   0.103   1.759
 4803SOL     OW15307   0.847   6.923   0.992
 4803SOL    HW115308   0.871   6.977   0.912
 4803SOL    HW215309   0.784   6.850   0.966
 4804SOL     OW15310   4.358   5.034   0.150
 4804SOL    HW115311   4.297   5.047   0.072
 4804SOL    HW215312   4.453   5.035   0.118
 4805SOL     OW15313   6.892   6.673   1.687
 4805SOL    HW115314   6.941   6.659   1.602
 4805SOL    HW215315   6.842   6.590   1.712
 4806SOL     OW15316   0.484   1.894   3.730
 4806SOL    HW115317   0.569   1.884   3.783
 4806SOL    HW215318   0.504   1.881   3.633
 4807SOL     OW15319   0.971   0.230   3.189
 4807SOL    HW115320   0.931   0.216   3.280
 4807SOL    HW215321   0.967   0.144   3.138
 4808SOL     OW15322   6.641   1.754   0.735
 4808SOL    HW115323   6.730   1.764   0.690
 4808SOL    HW215324   6.596   1.844   0.739
 4809SOL     OW15325   4.812   6.681   0.704
 4809SOL    HW115326   4.822   6.777   0.730
 4809SOL    HW215327   4.897   6.649   0.662
 4810SOL     OW15328   2.319   6.545   6.116
 4810SOL    HW115329   2.279   6.466   6.069
 4810SOL    HW215330   2.406   6.569   6.072
 4811SOL     OW15331   5.007   4.231   4.078
 4811SOL    HW115332   4.964   4.143   4.057
 4811SOL    HW215333   5.098   4.214   4.116
 4812SOL     OW15334   6.595   4.976   3.432
 4812SOL    HW115335   6.654   4.965   3.352
 4812SOL    HW215336   6.508   4.929   3.416
 4813SOL     OW15337   5.921   3.496   2.613
 4813SOL    HW115338   5.866   3.539   2.542
 4813SOL    HW215339   5.933   3.560   2.689
 4814SOL     OW15340   0.198   2.916   1.499
 4814SOL    HW115341   0.116   2.899   1.444
 4814SOL    HW215342   0.189   3.003   1.547
 4815SOL     OW15343   4.672   0.713   3.637
 4815SOL    HW115344   4.704   0.663   3.556
 4815SOL    HW215345   4.719   0.677   3.718
 4816SOL     OW15346   6.029   4.264   4.396
 4816SOL    HW115347   6.084   4.320   4.334
 4816SOL    HW215348   5.989   4.188   4.345
 4817SOL     OW15349   5.832   1.768   6.685
 4817SOL    HW115350   5.741   1.795   6.718
 4817SOL    HW215351   5.859   1.829   6.611
 4818SOL     OW15352   6.901   6.472   3.429
 4818SOL    HW115353   6.934   6.402   3.365
 4818SOL    HW215354   6.820   6.516   3.391
 4819SOL     OW15355   1.262   3.048   1.279
 4819SOL    HW115356   1.319   2.969   1.304
 4819SOL    HW215357   1.306   3.098   1.205
 4820SOL     OW15358   6.378   3.193   2.094
 4820SOL    HW115359   6.431   3.138   2.029
 4820SOL    HW215360   6.378   3.148   2.183
 4821SOL     OW15361   0.166   5.609   3.858
 4821SOL    HW115362   0.259   5.605   3.821
 4821SOL    HW215363   0.138   5.705   3.868
 4822SOL     OW15364   2.938   5.431   4.576
 4822SOL    HW115365   2.942   5.523   4.536
 4822SOL    HW215366   2.843   5.405   4.590
 4823SOL     OW15367   1.361   2.031   0.440
 4823SOL    HW115368   1.443   2.060   0.488
 4823SOL    HW215369   1.329   2.105   0.380
 4824SOL     OW15370   6.267   2.381   7.007
 4824SOL    HW115371   6.193   2.331   0.029
 4824SOL    HW215372   6.352   2.329   7.016
 4825SOL     OW15373   1.297   5.716   3.432
 4825SOL    HW115374   1.329   5.788   3.494
 4825SOL    HW215375   1.242   5.757   3.360
 4826SOL     OW15376   4.666   6.698   0.351
 4826SOL    HW115377   4.727   6.622   0.329
 4826SOL    HW215378   4.702   6.748   0.429
 4827SOL     OW15379   5.647   0.995   2.224
 4827SOL    HW115380   5.582   0.952   2.162
 4827SOL    HW215381   5.598   1.045   2.296
 4828SOL     OW15382   4.870   1.202   5.878
 4828SOL    HW115383   4.796   1.190   5.811
 4828SOL    HW215384   4.840   1.264   5.950
 4829SOL     OW15385   4.782   5.901   4.998
 4829SOL    HW115386   4.751   5.894   5.092
 4829SOL    HW215387   4.747   5.824   4.945
 4830SOL     OW15388   1.732   6.275   3.293
 4830SOL    HW115389   1.665   6.241   3.359
 4830SOL    HW215390   1.728   6.218   3.210
 4831SOL     OW15391   2.849   4.488   6.147
 4831SOL    HW115392   2.862   4.392   6.173
 4831SOL    HW215393   2.811   4.493   6.055
 4832SOL     OW15394   3.938   3.111   3.709
 4832SOL    HW115395   3.987   3.138   3.792
 4832SOL    HW215396   3.847   3.076   3.734
 4833SOL     OW15397   5.685   2.394   5.400
 4833SOL    HW115398   5.716   2.320   5.340
 4833SOL    HW215399   5.751   2.469   5.397
 4834SOL     OW15400   1.024   4.703   0.942
 4834SOL    HW115401   1.012   4.635   1.015
 4834SOL    HW215402   0.954   4.687   0.871
 4835SOL     OW15403   0.694   3.449   6.014
 4835SOL    HW115404   0.746   3.533   6.000
 4835SOL    HW215405   0.614   3.468   6.071
 4836SOL     OW15406   4.247   0.882   5.840
 4836SOL    HW115407   4.239   0.969   5.791
 4836SOL    HW215408   4.183   0.815   5.801
 4837SOL     OW15409   1.496   3.715   4.642
 4837SOL    HW115410   1.488   3.746   4.736
 4837SOL    HW215411   1.566   3.769   4.595
 4838SOL     OW15412   1.795   4.353   5.843
 4838SOL    HW115413   1.872   4.374   5.783
 4838SOL    HW215414   1.722   4.311   5.790
 4839SOL     OW15415   2.508   0.968   1.785
 4839SOL    HW115416   2.525   0.975   1.883
 4839SOL    HW215417   2.579   1.018   1.736
 4840SOL     OW15418   5.033   2.071   3.578
 4840SOL    HW115419   5.119   2.054   3.529
 4840SOL    HW215420   4.989   2.153   3.543
 4841SOL     OW15421   2.904   5.140   2.983
 4841SOL    HW115422   2.977   5.124   3.050
 4841SOL    HW215423   2.820   5.095   3.014
 4842SOL     OW15424   4.178   5.220   3.209
 4842SOL    HW115425   4.098   5.164   3.188
 4842SOL    HW215426   4.163   5.268   3.295
 4843SOL     OW15427   5.991   2.652   0.104
 4843SOL    HW115428   6.075   2.682   0.149
 4843SOL    HW215429   5.919   2.639   0.172
 4844SOL     OW15430   0.969   4.508   6.465
 4844SOL    HW115431   0.957   4.592   6.517
 4844SOL    HW215432   0.970   4.529   6.367
 4845SOL     OW15433   5.910   4.402   5.132
 4845SOL    HW115434   5.860   4.489   5.130
 4845SOL    HW215435   5.997   4.415   5.180
 4846SOL     OW15436   6.389   3.754   4.378
 4846SOL    HW115437   6.433   3.666   4.396
 4846SOL    HW215438   6.347   3.788   4.462
 4847SOL     OW15439   2.444   6.973   6.595
 4847SOL    HW115440   2.414   6.936   6.683
 4847SOL    HW215441   2.381   6.944   6.523
 4848SOL     OW15442   4.717   1.898   3.145
 4848SOL    HW115443   4.621   1.870   3.140
 4848SOL    HW215444   4.744   1.908   3.241
 4849SOL     OW15445   1.476   5.556   1.693
 4849SOL    HW115446   1.454   5.568   1.596
 4849SOL    HW215447   1.407   5.496   1.735
 4850SOL     OW15448   3.414   0.469   2.371
 4850SOL    HW115449   3.386   0.415   2.450
 4850SOL    HW215450   3.514   0.473   2.367
 4851SOL     OW15451   4.652   4.904   6.653
 4851SOL    HW115452   4.705   4.876   6.573
 4851SOL    HW215453   4.708   4.898   6.735
 4852SOL     OW15454   4.462   3.997   5.711
 4852SOL    HW115455   4.482   3.953   5.624
 4852SOL    HW215456   4.546   4.040   5.746
 4853SOL     OW15457   4.252   0.428   2.845
 4853SOL    HW115458   4.211   0.499   2.787
 4853SOL    HW215459   4.352   0.433   2.837
 4854SOL     OW15460   3.882   6.633   1.788
 4854SOL    HW115461   3.943   6.664   1.861
 4854SOL    HW215462   3.931   6.631   1.701
 4855SOL     OW15463   4.642   4.971   5.411
 4855SOL    HW115464   4.676   4.968   5.317
 4855SOL    HW215465   4.563   4.910   5.420
 4856SOL     OW15466   0.697   2.532   2.731
 4856SOL    HW115467   0.760   2.509   2.657
 4856SOL    HW215468   0.709   2.628   2.756
 4857SOL     OW15469   2.714   1.488   5.972
 4857SOL    HW115470   2.702   1.566   6.033
 4857SOL    HW215471   2.635   1.482   5.910
 4858SOL     OW15472   2.729   5.172   5.361
 4858SOL    HW115473   2.654   5.226   5.325
 4858SOL    HW215474   2.812   5.227   5.364
 4859SOL     OW15475   6.852   5.472   3.229
 4859SOL    HW115476   6.761   5.431   3.230
 4859SOL    HW215477   6.903   5.443   3.310
 4860SOL     OW15478   4.000   5.145   0.904
 4860SOL    HW115479   4.007   5.054   0.946
 4860SOL    HW215480   3.990   5.135   0.805
 4861SOL     OW15481   5.326   4.749   4.457
 4861SOL    HW115482   5.423   4.734   4.473
 4861SOL    HW215483   5.303   4.845   4.474
 4862SOL     OW15484   1.683   5.365   4.105
 4862SOL    HW115485   1.651   5.457   4.130
 4862SOL    HW215486   1.655   5.345   4.011
 4863SOL     OW15487   5.834   1.598   1.878
 4863SOL    HW115488   5.849   1.678   1.821
 4863SOL    HW215489   5.920   1.569   1.919
 4864SOL     OW15490   2.924   3.218   1.885
 4864SOL    HW115491   2.959   3.305   1.851
 4864SOL    HW215492   2.963   3.199   1.975
 4865SOL     OW15493   3.750   6.875   5.053
 4865SOL    HW115494   3.663   6.902   5.012
 4865SOL    HW215495   3.820   6.869   4.982
 4866SOL     OW15496   1.385   4.776   1.822
 4866SOL    HW115497   1.474   4.808   1.854
 4866SOL    HW215498   1.342   4.847   1.766
 4867SOL     OW15499   5.757   4.460   5.952
 4867SOL    HW115500   5.664   4.465   5.988
 4867SOL    HW215501   5.762   4.389   5.882
 4868SOL     OW15502   2.224   5.901   1.617
 4868SOL    HW115503   2.295   5.971   1.628
 4868SOL    HW215504   2.237   5.829   1.685
 4869SOL     OW15505   0.505   1.889   1.486
 4869SOL    HW115506   0.516   1.974   1.433
 4869SOL    HW215507   0.514   1.909   1.583
 4870SOL     OW15508   6.073   1.328   1.704
 4870SOL    HW115509   6.062   1.243   1.756
 4870SOL    HW215510   6.065   1.406   1.766
 4871SOL     OW15511   1.581   2.094   5.427
 4871SOL    HW115512   1.609   2.189   5.439
 4871SOL    HW215513   1.485   2.092   5.399
 4872SOL     OW15514   2.385   2.691   2.612
 4872SOL    HW115515   2.372   2.790   2.616
 4872SOL    HW215516   2.336   2.648   2.689
 4873SOL     OW15517   1.279   6.189   5.843
 4873SOL    HW115518   1.331   6.256   5.896
 4873SOL    HW215519   1.326   6.169   5.757
 4874SOL     OW15520   6.226   1.756   4.398
 4874SOL    HW115521   6.132   1.783   4.379
 4874SOL    HW215522   6.271   1.828   4.451
 4875SOL     OW15523   6.755   3.252   0.575
 4875SOL    HW115524   6.765   3.153   0.586
 4875SOL    HW215525   6.833   3.298   0.617
 4876SOL     OW15526   6.798   1.261   6.898
 4876SOL    HW115527   6.752   1.278   6.812
 4876SOL    HW215528   6.896   1.279   6.888
 4877SOL     OW15529   4.348   2.063   1.818
 4877SOL    HW115530   4.264   2.016   1.791
 4877SOL    HW215531   4.344   2.085   1.915
 4878SOL     OW15532   1.200   2.710   2.335
 4878SOL    HW115533   1.141   2.638   2.299
 4878SOL    HW215534   1.219   2.776   2.263
 4879SOL     OW15535   3.492   6.341   3.255
 4879SOL    HW115536   3.505   6.281   3.176
 4879SOL    HW215537   3.403   6.387   3.247
 4880SOL     OW15538   0.058   2.201   6.197
 4880SOL    HW115539   0.059   2.168   6.103
 4880SOL    HW215540   0.026   2.127   6.257
 4881SOL     OW15541   3.116   6.240   5.906
 4881SOL    HW115542   3.078   6.329   5.928
 4881SOL    HW215543   3.206   6.230   5.949
 4882SOL     OW15544   5.762   6.361   6.375
 4882SOL    HW115545   5.663   6.354   6.366
 4882SOL    HW215546   5.806   6.291   6.319
 4883SOL     OW15547   6.236   6.005   0.578
 4883SOL    HW115548   6.247   5.960   0.667
 4883SOL    HW215549   6.141   5.996   0.548
 4884SOL     OW15550   4.507   6.345   2.101
 4884SOL    HW115551   4.410   6.346   2.076
 4884SOL    HW215552   4.562   6.315   2.023
 4885SOL     OW15553   1.252   0.074   1.776
 4885SOL    HW115554   1.297   7.014   1.808
 4885SOL    HW215555   1.218   0.060   1.683
 4886SOL     OW15556   6.278   1.144   5.898
 4886SOL    HW115557   6.252   1.132   5.802
 4886SOL    HW215558   6.283   1.241   5.920
 4887SOL     OW15559   0.071   2.587   5.524
 4887SOL    HW115560   0.102   2.682   5.520
 4887SOL    HW215561   0.150   2.527   5.541
 4888SOL     OW15562   4.483   5.855   1.223
 4888SOL    HW115563   4.428   5.773   1.235
 4888SOL    HW215564   4.443   5.911   1.150
 4889SOL     OW15565   1.093   3.253   6.450
 4889SOL    HW115566   1.076   3.260   6.352
 4889SOL    HW215567   1.120   3.160   6.473
 4890SOL     OW15568   6.777   0.568   4.427
 4890SOL    HW115569   6.783   0.629   4.506
 4890SOL    HW215570   6.701   0.504   4.441
 4891SOL     OW15571   0.552   4.952   0.658
 4891SOL    HW115572   0.576   4.954   0.755
 4891SOL    HW215573   0.485   4.880   0.643
 4892SOL     OW15574   2.016   5.561   1.625
 4892SOL    HW115575   2.012   5.568   1.526
 4892SOL    HW215576   1.948   5.494   1.657
 4893SOL     OW15577   6.776   4.269   6.438
 4893SOL    HW115578   6.858   4.222   6.470
 4893SOL    HW215579   6.725   4.304   6.516
 4894SOL     OW15580   0.019   6.937   3.600
 4894SOL    HW115581   7.016   7.010   3.663
 4894SOL    HW215582   0.036   6.976   3.509
 4895SOL     OW15583   6.540   3.732   6.587
 4895SOL    HW115584   6.594   3.813   6.611
 4895SOL    HW215585   6.511   3.686   6.671
 4896SOL     OW15586   4.432   0.822   5.236
 4896SOL    HW115587   4.445   0.882   5.157
 4896SOL    HW215588   4.520   0.782   5.263
 4897SOL     OW15589   2.583   5.728   0.392
 4897SOL    HW115590   2.638   5.728   0.475
 4897SOL    HW215591   2.500   5.783   0.407
 4898SOL     OW15592   5.056   2.954   4.544
 4898SOL    HW115593   5.121   2.909   4.606
 4898SOL    HW215594   5.102   2.974   4.457
 4899SOL     OW15595   0.196   3.308   4.645
 4899SOL    HW115596   0.227   3.291   4.739
 4899SOL    HW215597   0.099   3.334   4.646
 4900SOL     OW15598   0.226   6.560   6.517
 4900SOL    HW115599   0.306   6.606   6.481
 4900SOL    HW215600   0.153   6.560   6.449
 4901SOL     OW15601   6.380   6.529   3.184
 4901SOL    HW115602   6.467   6.548   3.140
 4901SOL    HW215603   6.327   6.613   3.192
 4902SOL     OW15604   3.157   5.464   0.206
 4902SOL    HW115605   3.201   5.489   0.292
 4902SOL    HW215606   3.225   5.428   0.142
 4903SOL     OW15607   5.801   4.612   6.690
 4903SOL    HW115608   5.862   4.574   6.620
 4903SOL    HW215609   5.760   4.697   6.655
 4904SOL     OW15610   2.914   0.672   3.791
 4904SOL    HW115611   3.000   0.712   3.760
 4904SOL    HW215612   2.904   0.580   3.752
 4905SOL     OW15613   6.083   4.102   3.414
 4905SOL    HW115614   6.006   4.163   3.433
 4905SOL    HW215615   6.058   4.008   3.438
 4906SOL     OW15616   5.046   0.502   2.091
 4906SOL    HW115617   4.983   0.447   2.147
 4906SOL    HW215618   5.094   0.442   2.027
 4907SOL     OW15619   3.052   2.476   0.869
 4907SOL    HW115620   3.102   2.463   0.954
 4907SOL    HW215621   2.974   2.413   0.866
 4908SOL     OW15622   5.462   4.434   6.021
 4908SOL    HW115623   5.409   4.383   6.089
 4908SOL    HW215624   5.445   4.396   5.930
 4909SOL     OW15625   6.368   6.605   5.345
 4909SOL    HW115626   6.341   6.668   5.418
 4909SOL    HW215627   6.293   6.593   5.281
 4910SOL     OW15628   5.770   0.135   5.646
 4910SOL    HW115629   5.795   0.084   5.563
 4910SOL    HW215630   5.834   0.210   5.661
 4911SOL     OW15631   6.765   3.899   6.595
 4911SOL    HW115632   6.722   3.941   6.515
 4911SOL    HW215633   6.809   3.969   6.651
 4912SOL     OW15634   1.860   3.076   2.052
 4912SOL    HW115635   1.936   3.130   2.088
 4912SOL    HW215636   1.793   3.061   2.124
 4913SOL     OW15637   2.955   3.488   2.019
 4913SOL    HW115638   2.922   3.509   2.112
 4913SOL    HW215639   3.030   3.550   1.995
 4914SOL     OW15640   1.266   0.136   2.554
 4914SOL    HW115641   1.316   0.211   2.597
 4914SOL    HW215642   1.246   0.066   2.623
 4915SOL     OW15643   3.909   6.177   3.819
 4915SOL    HW115644   3.932   6.215   3.909
 4915SOL    HW215645   3.969   6.216   3.749
 4916SOL     OW15646   1.658   1.764   1.916
 4916SOL    HW115647   1.598   1.790   1.991
 4916SOL    HW215648   1.735   1.828   1.911
 4917SOL     OW15649   0.737   5.643   6.528
 4917SOL    HW115650   0.670   5.670   6.459
 4917SOL    HW215651   0.818   5.606   6.482
 4918SOL     OW15652   2.072   6.594   4.097
 4918SOL    HW115653   2.151   6.545   4.060
 4918SOL    HW215654   2.076   6.690   4.067
 4919SOL     OW15655   2.291   2.883   1.409
 4919SOL    HW115656   2.195   2.890   1.380
 4919SOL    HW215657   2.312   2.788   1.429
 4920SOL     OW15658   3.607   2.278   6.223
 4920SOL    HW115659   3.520   2.319   6.253
 4920SOL    HW215660   3.594   2.237   6.133
 4921SOL     OW15661   6.602   4.345   1.978
 4921SOL    HW115662   6.579   4.417   2.043
 4921SOL    HW215663   6.533   4.343   1.905
 4922SOL     OW15664   1.005   3.641   5.716
 4922SOL    HW115665   1.017   3.740   5.707
 4922SOL    HW215666   1.094   3.598   5.733
 4923SOL     OW15667   3.567   2.517   6.963
 4923SOL    HW115668   3.613   2.442   7.010
 4923SOL    HW215669   3.470   2.496   6.954
 4924SOL     OW15670   0.755   2.980   4.498
 4924SOL    HW115671   0.767   2.886   4.529
 4924SOL    HW215672   0.688   3.026   4.556
 4925SOL     OW15673   4.791   5.005   4.940
 4925SOL    HW115674   4.819   5.077   5.003
 4925SOL    HW215675   4.872   4.963   4.898
 4926SOL     OW15676   4.081   3.542   0.811
 4926SOL    HW115677   4.160   3.577   0.760
 4926SOL    HW215678   4.088   3.571   0.906
 4927SOL     OW15679   2.866   3.487   2.337
 4927SOL    HW115680   2.811   3.403   2.338
 4927SOL    HW215681   2.898   3.507   2.429
 4928SOL     OW15682   6.934   1.759   6.062
 4928SOL    HW115683   6.879   1.685   6.023
 4928SOL    HW215684   6.873   1.829   6.099
 4929SOL     OW15685   1.023   4.485   4.215
 4929SOL    HW115686   1.040   4.576   4.177
 4929SOL    HW215687   1.102   4.458   4.270
 4930SOL     OW15688   0.811   3.646   0.074
 4930SOL    HW115689   0.761   3.702   0.008
 4930SOL    HW215690   0.871   3.705   0.129
 4931SOL     OW15691   5.398   6.442   0.969
 4931SOL    HW115692   5.491   6.418   0.944
 4931SOL    HW215693   5.398   6.499   1.051
 4932SOL     OW15694   3.245   2.024   0.908
 4932SOL    HW115695   3.249   2.103   0.847
 4932SOL    HW215696   3.152   1.987   0.908
 4933SOL     OW15697   2.098   0.053   4.859
 4933SOL    HW115698   2.079   0.077   4.764
 4933SOL    HW215699   2.188   0.089   4.885
 4934SOL     OW15700   1.955   6.480   6.124
 4934SOL    HW115701   2.037   6.503   6.177
 4934SOL    HW215702   1.900   6.563   6.113
 4935SOL     OW15703   1.367   3.172   1.066
 4935SOL    HW115704   1.278   3.172   1.020
 4935SOL    HW215705   1.437   3.143   1.002
 4936SOL     OW15706   6.698   4.084   1.632
 4936SOL    HW115707   6.774   4.026   1.603
 4936SOL    HW215708   6.727   4.179   1.635
 4937SOL     OW15709   0.671   3.811   5.547
 4937SOL    HW115710   0.725   3.776   5.623
 4937SOL    HW215711   0.726   3.874   5.492
 4938SOL     OW15712   3.111   3.971   0.934
 4938SOL    HW115713   3.104   3.890   0.876
 4938SOL    HW215714   3.031   4.029   0.920
 4939SOL     OW15715   1.223   1.692   1.668
 4939SOL    HW115716   1.295   1.653   1.609
 4939SOL    HW215717   1.183   1.620   1.724
 4940SOL     OW15718   1.807   1.576   5.133
 4940SOL    HW115719   1.720   1.602   5.091
 4940SOL    HW215720   1.827   1.480   5.111
 4941SOL     OW15721   3.494   2.111   5.993
 4941SOL    HW115722   3.400   2.083   6.009
 4941SOL    HW215723   3.504   2.140   5.897
 4942SOL     OW15724   0.212   0.836   2.342
 4942SOL    HW115725   0.297   0.783   2.343
 4942SOL    HW215726   0.228   0.926   2.382
 4943SOL     OW15727   5.131   2.256   6.739
 4943SOL    HW115728   5.171   2.232   6.650
 4943SOL    HW215729   5.167   2.345   6.768
 4944SOL     OW15730   0.699   4.573   0.506
 4944SOL    HW115731   0.694   4.613   0.597
 4944SOL    HW215732   0.611   4.586   0.459
 4945SOL     OW15733   2.531   0.846   6.789
 4945SOL    HW115734   2.567   0.763   6.746
 4945SOL    HW215735   2.589   0.871   6.867
 4946SOL     OW15736   1.957   5.956   0.093
 4946SOL    HW115737   1.938   5.973   0.190
 4946SOL    HW215738   1.955   6.042   0.043
 4947SOL     OW15739   1.367   0.608   1.328
 4947SOL    HW115740   1.339   0.647   1.416
 4947SOL    HW215741   1.467   0.598   1.327
 4948SOL     OW15742   1.561   3.462   2.160
 4948SOL    HW115743   1.581   3.545   2.108
 4948SOL    HW215744   1.569   3.383   2.100
 4949SOL     OW15745   6.203   4.981   6.933
 4949SOL    HW115746   6.269   5.032   6.987
 4949SOL    HW215747   6.210   5.007   6.837
 4950SOL     OW15748   4.111   3.703   5.828
 4950SOL    HW115749   4.084   3.788   5.782
 4950SOL    HW215750   4.123   3.721   5.926
 4951SOL     OW15751   4.504   5.465   3.735
 4951SOL    HW115752   4.501   5.374   3.776
 4951SOL    HW215753   4.450   5.465   3.650
 4952SOL     OW15754   0.996   0.557   6.598
 4952SOL    HW115755   1.078   0.610   6.621
 4952SOL    HW215756   0.932   0.615   6.547
 4953SOL     OW15757   0.968   1.400   6.185
 4953SOL    HW115758   0.985   1.366   6.277
 4953SOL    HW215759   0.871   1.425   6.176
 4954SOL     OW15760   3.611   3.800   5.828
 4954SOL    HW115761   3.620   3.827   5.924
 4954SOL    HW215762   3.646   3.707   5.816
 4955SOL     OW15763   3.976   6.118   0.001
 4955SOL    HW115764   3.946   6.132   0.095
 4955SOL    HW215765   4.076   6.110   7.023
 4956SOL     OW15766   2.354   0.252   3.792
 4956SOL    HW115767   2.265   0.271   3.832
 4956SOL    HW215768   2.410   0.335   3.794
 4957SOL     OW15769   5.844   5.631   0.211
 4957SOL    HW115770   5.895   5.553   0.175
 4957SOL    HW215771   5.750   5.627   0.178
 4958SOL     OW15772   3.138   5.211   0.812
 4958SOL    HW115773   3.040   5.200   0.794
 4958SOL    HW215774   3.173   5.127   0.854
 4959SOL     OW15775   2.179   1.357   2.526
 4959SOL    HW115776   2.168   1.445   2.480
 4959SOL    HW215777   2.186   1.373   2.625
 4960SOL     OW15778   5.325   3.858   4.802
 4960SOL    HW115779   5.227   3.876   4.791
 4960SOL    HW215780   5.357   3.804   4.725
 4961SOL     OW15781   4.058   3.234   2.187
 4961SOL    HW115782   4.009   3.318   2.167
 4961SOL    HW215783   4.071   3.225   2.286
 4962SOL     OW15784   1.933   2.661   0.626
 4962SOL    HW115785   1.909   2.660   0.528
 4962SOL    HW215786   2.030   2.681   0.636
 4963SOL     OW15787   0.404   3.948   6.668
 4963SOL    HW115788   0.492   3.961   6.713
 4963SOL    HW215789   0.348   3.885   6.723
 4964SOL     OW15790   1.330   5.414   3.733
 4964SOL    HW115791   1.295   5.375   3.648
 4964SOL    HW215792   1.253   5.450   3.787
 4965SOL     OW15793   2.438   0.142   2.825
 4965SOL    HW115794   2.472   0.083   2.752
 4965SOL    HW215795   2.493   0.129   2.907
 4966SOL     OW15796   3.763   6.646   5.513
 4966SOL    HW115797   3.681   6.633   5.568
 4966SOL    HW215798   3.739   6.690   5.427
 4967SOL     OW15799   4.607   4.829   3.206
 4967SOL    HW115800   4.571   4.814   3.114
 4967SOL    HW215801   4.705   4.843   3.202
 4968SOL     OW15802   6.462   2.673   3.238
 4968SOL    HW115803   6.368   2.675   3.203
 4968SOL    HW215804   6.461   2.693   3.336
 4969SOL     OW15805   1.344   5.457   4.293
 4969SOL    HW115806   1.352   5.531   4.359
 4969SOL    HW215807   1.257   5.409   4.306
 4970SOL     OW15808   2.353   0.875   0.846
 4970SOL    HW115809   2.263   0.917   0.862
 4970SOL    HW215810   2.343   0.796   0.785
 4971SOL     OW15811   0.482   6.214   1.902
 4971SOL    HW115812   0.486   6.263   1.989
 4971SOL    HW215813   0.403   6.153   1.901
 4972SOL     OW15814   0.144   3.687   0.932
 4972SOL    HW115815   0.161   3.591   0.953
 4972SOL    HW215816   0.059   3.716   0.976
 4973SOL     OW15817   5.328   2.237   0.003
 4973SOL    HW115818   5.272   2.320   0.011
 4973SOL    HW215819   5.285   2.164   0.056
 4974SOL     OW15820   3.238   0.523   5.262
 4974SOL    HW115821   3.246   0.512   5.361
 4974SOL    HW215822   3.308   0.587   5.229
 4975SOL     OW15823   6.051   4.325   0.918
 4975SOL    HW115824   6.000   4.245   0.947
 4975SOL    HW215825   5.993   4.385   0.863
 4976SOL     OW15826   1.371   0.237   3.977
 4976SOL    HW115827   1.326   0.148   3.986
 4976SOL    HW215828   1.305   0.310   3.992
 4977SOL     OW15829   1.011   3.771   4.753
 4977SOL    HW115830   0.980   3.844   4.692
 4977SOL    HW215831   1.087   3.803   4.808
 4978SOL     OW15832   6.374   5.396   4.430
 4978SOL    HW115833   6.420   5.448   4.358
 4978SOL    HW215834   6.364   5.301   4.402
 4979SOL     OW15835   3.446   6.461   5.947
 4979SOL    HW115836   3.538   6.446   5.910
 4979SOL    HW215837   3.406   6.541   5.903
 4980SOL     OW15838   5.503   3.098   3.892
 4980SOL    HW115839   5.491   3.175   3.829
 4980SOL    HW215840   5.467   3.122   3.982
 4981SOL     OW15841   3.053   6.956   2.921
 4981SOL    HW115842   3.103   6.877   2.958
 4981SOL    HW215843   3.012   6.931   2.834
 4982SOL     OW15844   3.736   1.866   4.880
 4982SOL    HW115845   3.771   1.852   4.972
 4982SOL    HW215846   3.777   1.949   4.841
 4983SOL     OW15847   5.323   3.670   3.051
 4983SOL    HW115848   5.332   3.731   2.972
 4983SOL    HW215849   5.407   3.617   3.062
 4984SOL     OW15850   5.037   3.647   5.202
 4984SOL    HW115851   5.012   3.744   5.212
 4984SOL    HW215852   4.972   3.602   5.141
 4985SOL     OW15853   5.002   6.904   2.529
 4985SOL    HW115854   5.047   6.823   2.566
 4985SOL    HW215855   5.040   6.925   2.440
 4986SOL     OW15856   1.383   5.812   1.280
 4986SOL    HW115857   1.429   5.900   1.266
 4986SOL    HW215858   1.370   5.766   1.192
 4987SOL     OW15859   2.143   3.990   2.056
 4987SOL    HW115860   2.209   3.915   2.049
 4987SOL    HW215861   2.053   3.954   2.079
 4988SOL     OW15862   6.344   4.947   3.958
 4988SOL    HW115863   6.405   4.868   3.967
 4988SOL    HW215864   6.325   4.962   3.861
 4989SOL     OW15865   6.956   0.214   4.228
 4989SOL    HW115866   7.007   0.297   4.248
 4989SOL    HW215867   6.942   0.161   4.312
 4990SOL     OW15868   4.784   1.937   5.897
 4990SOL    HW115869   4.859   2.003   5.898
 4990SOL    HW215870   4.730   1.946   5.980
 4991SOL     OW15871   2.529   5.372   5.346
 4991SOL    HW115872   2.528   5.385   5.446
 4991SOL    HW215873   2.442   5.333   5.316
 4992SOL     OW15874   2.890   2.701   5.367
 4992SOL    HW115875   2.983   2.666   5.382
 4992SOL    HW215876   2.827   2.625   5.355
 4993SOL     OW15877   2.215   5.179   3.566
 4993SOL    HW115878   2.153   5.258   3.574
 4993SOL    HW215879   2.298   5.197   3.618
 4994SOL     OW15880   3.036   4.814   5.884
 4994SOL    HW115881   3.132   4.806   5.857
 4994SOL    HW215882   3.012   4.910   5.893
 4995SOL     OW15883   0.445   2.291   6.077
 4995SOL    HW115884   0.384   2.225   6.121
 4995SOL    HW215885   0.397   2.335   6.001
 4996SOL     OW15886   0.192   0.606   4.720
 4996SOL    HW115887   0.277   0.646   4.687
 4996SOL    HW215888   0.205   0.574   4.814
 4997SOL     OW15889   3.769   1.719   0.969
 4997SOL    HW115890   3.741   1.642   1.026
 4997SOL    HW215891   3.867   1.736   0.983
 4998SOL     OW15892   0.972   3.910   3.306
 4998SOL    HW115893   0.943   3.844   3.237
 4998SOL    HW215894   0.986   3.863   3.393
 4999SOL     OW15895   0.057   2.680   3.460
 4999SOL    HW115896   0.130   2.626   3.502
 4999SOL    HW215897   0.014   2.627   3.387
 5000SOL     OW15898   2.817   6.687   2.646
 5000SOL    HW115899   2.901   6.730   2.614
 5000SOL    HW215900   2.797   6.719   2.739
 5001SOL     OW15901   0.172   6.116   3.053
 5001SOL    HW115902   0.157   6.207   3.013
 5001SOL    HW215903   0.270   6.094   3.046
 5002SOL     OW15904   1.148   5.511   3.948
 5002SOL    HW115905   1.136   5.429   4.005
 5002SOL    HW215906   1.072   5.574   3.965
 5003SOL     OW15907   4.037   1.533   1.152
 5003SOL    HW115908   3.946   1.502   1.122
 5003SOL    HW215909   4.028   1.584   1.238
 5004SOL     OW15910   3.935   6.179   0.280
 5004SOL    HW115911   3.970   6.096   0.323
 5004SOL    HW215912   3.904   6.243   0.350
 5005SOL     OW15913   4.269   3.199   0.839
 5005SOL    HW115914   4.323   3.265   0.891
 5005SOL    HW215915   4.176   3.197   0.876
 5006SOL     OW15916   4.643   0.916   2.622
 5006SOL    HW115917   4.723   0.975   2.607
 5006SOL    HW215918   4.567   0.948   2.565
 5007SOL     OW15919   6.723   5.463   2.890
 5007SOL    HW115920   6.735   5.562   2.895
 5007SOL    HW215921   6.717   5.434   2.795
 5008SOL     OW15922   4.747   0.328   3.970
 5008SOL    HW115923   4.827   0.385   3.991
 5008SOL    HW215924   4.680   0.383   3.919
 5009SOL     OW15925   0.826   1.629   6.407
 5009SOL    HW115926   0.813   1.715   6.457
 5009SOL    HW215927   0.861   1.648   6.315
 5010SOL     OW15928   5.451   4.577   0.885
 5010SOL    HW115929   5.360   4.573   0.926
 5010SOL    HW215930   5.505   4.500   0.916
 5011SOL     OW15931   1.740   1.996   5.202
 5011SOL    HW115932   1.746   2.066   5.131
 5011SOL    HW215933   1.664   2.017   5.263
 5012SOL     OW15934   5.792   3.059   5.325
 5012SOL    HW115935   5.890   3.077   5.329
 5012SOL    HW215936   5.745   3.108   5.398
 5013SOL     OW15937   5.948   5.979   5.378
 5013SOL    HW115938   5.941   5.954   5.475
 5013SOL    HW215939   5.995   5.907   5.328
 5014SOL     OW15940   5.803   3.177   0.530
 5014SOL    HW115941   5.884   3.218   0.487
 5014SOL    HW215942   5.831   3.120   0.607
 5015SOL     OW15943   6.370   5.193   4.151
 5015SOL    HW115944   6.390   5.291   4.158
 5015SOL    HW215945   6.438   5.149   4.091
 5016SOL     OW15946   1.092   1.910   6.438
 5016SOL    HW115947   1.126   1.826   6.396
 5016SOL    HW215948   1.070   1.976   6.366
 5017SOL     OW15949   0.919   2.965   1.783
 5017SOL    HW115950   0.995   2.924   1.833
 5017SOL    HW215951   0.834   2.951   1.834
 5018SOL     OW15952   0.466   0.680   0.336
 5018SOL    HW115953   0.468   0.726   0.425
 5018SOL    HW215954   0.499   0.743   0.265
 5019SOL     OW15955   2.057   4.295   3.918
 5019SOL    HW115956   2.131   4.234   3.948
 5019SOL    HW215957   2.011   4.334   3.998
 5020SOL     OW15958   1.494   6.935   3.027
 5020SOL    HW115959   1.498   6.971   2.934
 5020SOL    HW215960   1.446   7.000   3.086
 5021SOL     OW15961   2.288   0.544   1.542
 5021SOL    HW115962   2.333   0.588   1.621
 5021SOL    HW215963   2.304   0.600   1.460
 5022SOL     OW15964   0.244   3.171   1.608
 5022SOL    HW115965   0.339   3.195   1.630
 5022SOL    HW215966   0.202   3.245   1.556
 5023SOL     OW15967   0.852   2.564   3.154
 5023SOL    HW115968   0.918   2.522   3.217
 5023SOL    HW215969   0.890   2.566   3.062
 5024SOL     OW15970   4.200   4.010   6.879
 5024SOL    HW115971   4.134   4.064   6.828
 5024SOL    HW215972   4.213   4.050   6.970
 5025SOL     OW15973   5.119   2.343   4.626
 5025SOL    HW115974   5.032   2.307   4.659
 5025SOL    HW215975   5.171   2.381   4.702
 5026SOL     OW15976   5.380   6.001   4.768
 5026SOL    HW115977   5.408   5.905   4.770
 5026SOL    HW215978   5.410   6.047   4.852
 5027SOL     OW15979   5.521   6.205   1.263
 5027SOL    HW115980   5.470   6.127   1.300
 5027SOL    HW215981   5.601   6.222   1.320
 5028SOL     OW15982   6.945   2.162   2.191
 5028SOL    HW115983   0.011   2.166   2.148
 5028SOL    HW215984   6.954   2.125   2.283
 5029SOL     OW15985   5.880   2.537   3.014
 5029SOL    HW115986   5.851   2.631   2.998
 5029SOL    HW215987   5.818   2.495   3.081
 5030SOL     OW15988   0.639   3.300   0.973
 5030SOL    HW115989   0.709   3.229   0.979
 5030SOL    HW215990   0.672   3.383   1.018
 5031SOL     OW15991   6.328   0.341   6.339
 5031SOL    HW115992   6.287   0.289   6.263
 5031SOL    HW215993   6.421   0.309   6.354
 5032SOL     OW15994   2.297   4.817   6.649
 5032SOL    HW115995   2.392   4.787   6.652
 5032SOL    HW215996   2.255   4.806   6.739
 5033SOL     OW15997   2.087   6.864   4.038
 5033SOL    HW115998   2.008   6.918   4.010
 5033SOL    HW215999   2.163   6.925   4.058
 5034SOL     OW16000   4.357   6.041   3.464
 5034SOL    HW116001   4.394   5.952   3.488
 5034SOL    HW216002   4.265   6.030   3.426
 5035SOL     OW16003   1.726   3.570   4.061
 5035SOL    HW116004   1.726   3.651   4.120
 5035SOL    HW216005   1.817   3.530   4.060
 5036SOL     OW16006   1.239   3.187   4.765
 5036SOL    HW116007   1.302   3.226   4.697
 5036SOL    HW216008   1.213   3.094   4.737
 5037SOL     OW16009   5.585   4.703   1.334
 5037SOL    HW116010   5.529   4.747   1.264
 5037SOL    HW216011   5.681   4.707   1.306
 5038SOL     OW16012   3.212   3.461   4.653
 5038SOL    HW116013   3.285   3.525   4.676
 5038SOL    HW216014   3.248   3.368   4.653
 5039SOL     OW16015   0.234   3.309   6.576
 5039SOL    HW116016   0.306   3.368   6.612
 5039SOL    HW216017   0.185   3.266   6.651
 5040SOL     OW16018   0.787   1.638   4.906
 5040SOL    HW116019   0.805   1.560   4.845
 5040SOL    HW216020   0.689   1.649   4.918
 5041SOL     OW16021   6.633   2.426   1.215
 5041SOL    HW116022   6.549   2.425   1.269
 5041SOL    HW216023   6.709   2.391   1.270
 5042SOL     OW16024   0.966   1.551   5.386
 5042SOL    HW116025   0.904   1.591   5.454
 5042SOL    HW216026   0.924   1.555   5.296
 5043SOL     OW16027   2.996   0.144   1.631
 5043SOL    HW116028   2.907   0.190   1.633
 5043SOL    HW216029   2.985   0.052   1.594
 5044SOL     OW16030   0.334   6.112   1.014
 5044SOL    HW116031   0.354   6.015   1.023
 5044SOL    HW216032   0.419   6.163   1.003
 5045SOL     OW16033   6.087   2.871   1.897
 5045SOL    HW116034   5.990   2.871   1.870
 5045SOL    HW216035   6.129   2.956   1.867
 5046SOL     OW16036   4.127   3.055   1.797
 5046SOL    HW116037   4.081   3.025   1.880
 5046SOL    HW216038   4.059   3.079   1.728
 5047SOL     OW16039   2.313   4.186   3.772
 5047SOL    HW116040   2.368   4.269   3.781
 5047SOL    HW216041   2.281   4.156   3.862
 5048SOL     OW16042   1.938   0.119   5.950
 5048SOL    HW116043   1.923   0.050   6.021
 5048SOL    HW216044   2.008   0.184   5.980
 5049SOL     OW16045   3.834   1.861   6.780
 5049SOL    HW116046   3.854   1.921   6.703
 5049SOL    HW216047   3.773   1.788   6.750
 5050SOL     OW16048   1.229   0.540   1.083
 5050SOL    HW116049   1.289   0.484   1.025
 5050SOL    HW216050   1.266   0.545   1.175
 5051SOL     OW16051   4.143   4.254   0.858
 5051SOL    HW116052   4.101   4.247   0.948
 5051SOL    HW216053   4.238   4.221   0.862
 5052SOL     OW16054   1.982   3.474   4.144
 5052SOL    HW116055   2.036   3.430   4.072
 5052SOL    HW216056   1.970   3.410   4.220
 5053SOL     OW16057   6.711   0.829   0.687
 5053SOL    HW116058   6.718   0.802   0.591
 5053SOL    HW216059   6.614   0.830   0.714
 5054SOL     OW16060   4.239   5.360   2.712
 5054SOL    HW116061   4.257   5.294   2.784
 5054SOL    HW216062   4.240   5.453   2.750
 5055SOL     OW16063   6.136   4.461   5.816
 5055SOL    HW116064   6.164   4.401   5.741
 5055SOL    HW216065   6.216   4.492   5.867
 5056SOL     OW16066   6.325   4.807   3.407
 5056SOL    HW116067   6.340   4.716   3.368
 5056SOL    HW216068   6.297   4.797   3.503
 5057SOL     OW16069   6.586   6.397   2.416
 5057SOL    HW116070   6.631   6.477   2.378
 5057SOL    HW216071   6.642   6.357   2.489
 5058SOL     OW16072   3.205   5.773   5.724
 5058SOL    HW116073   3.262   5.812   5.797
 5058SOL    HW216074   3.151   5.698   5.762
 5059SOL     OW16075   6.580   6.751   2.633
 5059SOL    HW116076   6.558   6.805   2.714
 5059SOL    HW216077   6.679   6.750   2.619
 5060SOL     OW16078   6.846   2.982   7.002
 5060SOL    HW116079   6.921   3.041   0.007
 5060SOL    HW216080   6.813   2.930   0.057
 5061SOL     OW16081   5.451   3.423   0.849
 5061SOL    HW116082   5.413   3.502   0.801
 5061SOL    HW216083   5.384   3.390   0.917
 5062SOL     OW16084   6.679   0.242   0.134
 5062SOL    HW116085   6.595   0.190   0.143
 5062SOL    HW216086   6.658   0.335   0.103
 5063SOL     OW16087   1.106   6.446   2.685
 5063SOL    HW116088   1.188   6.449   2.742
 5063SOL    HW216089   1.089   6.352   2.656
 5064SOL     OW16090   5.406   4.299   6.889
 5064SOL    HW116091   5.413   4.281   6.791
 5064SOL    HW216092   5.328   4.360   6.906
 5065SOL     OW16093   2.365   6.974   5.967
 5065SOL    HW116094   2.315   6.911   6.026
 5065SOL    HW216095   2.439   7.018   6.019
 5066SOL     OW16096   4.823   4.442   0.486
 5066SOL    HW116097   4.819   4.519   0.423
 5066SOL    HW216098   4.898   4.455   0.550
 5067SOL     OW16099   5.379   0.777   6.402
 5067SOL    HW116100   5.479   0.772   6.406
 5067SOL    HW216101   5.346   0.718   6.328
 5068SOL     OW16102   2.958   5.069   1.396
 5068SOL    HW116103   2.970   4.976   1.362
 5068SOL    HW216104   2.866   5.101   1.373
 5069SOL     OW16105   0.219   5.431   3.192
 5069SOL    HW116106   0.204   5.343   3.236
 5069SOL    HW216107   0.136   5.459   3.145
 5070SOL     OW16108   5.287   2.316   3.413
 5070SOL    HW116109   5.191   2.287   3.408
 5070SOL    HW216110   5.324   2.325   3.320
 5071SOL     OW16111   4.716   0.815   1.545
 5071SOL    HW116112   4.635   0.758   1.549
 5071SOL    HW216113   4.689   0.912   1.547
 5072SOL     OW16114   0.522   3.907   2.019
 5072SOL    HW116115   0.539   3.978   1.950
 5072SOL    HW216116   0.581   3.829   2.000
 5073SOL     OW16117   4.243   2.328   3.340
 5073SOL    HW116118   4.285   2.310   3.429
 5073SOL    HW216119   4.300   2.392   3.289
 5074SOL     OW16120   4.113   3.784   5.182
 5074SOL    HW116121   4.130   3.694   5.143
 5074SOL    HW216122   4.173   3.798   5.261
 5075SOL     OW16123   6.617   0.327   4.415
 5075SOL    HW116124   6.674   0.276   4.351
 5075SOL    HW216125   6.526   0.287   4.417
 5076SOL     OW16126   5.478   0.690   0.574
 5076SOL    HW116127   5.574   0.664   0.584
 5076SOL    HW216128   5.472   0.786   0.545
 5077SOL     OW16129   0.301   1.493   2.669
 5077SOL    HW116130   0.249   1.454   2.594
 5077SOL    HW216131   0.264   1.583   2.693
 5078SOL     OW16132   0.149   1.908   4.362
 5078SOL    HW116133   0.072   1.844   4.369
 5078SOL    HW216134   0.195   1.896   4.274
 5079SOL     OW16135   5.114   5.153   4.680
 5079SOL    HW116136   5.178   5.195   4.743
 5079SOL    HW216137   5.058   5.224   4.637
 5080SOL     OW16138   4.903   0.541   5.916
 5080SOL    HW116139   4.837   0.595   5.864
 5080SOL    HW216140   4.862   0.453   5.941
 5081SOL     OW16141   3.290   3.336   3.455
 5081SOL    HW116142   3.265   3.369   3.364
 5081SOL    HW216143   3.349   3.256   3.446
 5082SOL     OW16144   0.867   1.974   5.325
 5082SOL    HW116145   0.828   2.019   5.244
 5082SOL    HW216146   0.962   1.951   5.307
 5083SOL     OW16147   1.188   3.900   2.427
 5083SOL    HW116148   1.118   3.872   2.492
 5083SOL    HW216149   1.234   3.982   2.461
 5084SOL     OW16150   1.876   5.452   2.317
 5084SOL    HW116151   1.905   5.497   2.401
 5084SOL    HW216152   1.893   5.354   2.324
 5085SOL     OW16153   6.470   3.370   0.762
 5085SOL    HW116154   6.493   3.339   0.670
 5085SOL    HW216155   6.407   3.448   0.755
 5086SOL     OW16156   6.388   5.030   4.638
 5086SOL    HW116157   6.474   5.060   4.597
 5086SOL    HW216158   6.321   5.013   4.567
 5087SOL     OW16159   5.247   5.178   5.905
 5087SOL    HW116160   5.208   5.093   5.871
 5087SOL    HW216161   5.176   5.231   5.951
 5088SOL     OW16162   5.834   1.092   6.667
 5088SOL    HW116163   5.893   1.067   6.590
 5088SOL    HW216164   5.741   1.108   6.635
 5089SOL     OW16165   5.466   2.993   4.273
 5089SOL    HW116166   5.500   3.087   4.265
 5089SOL    HW216167   5.507   2.950   4.353
 5090SOL     OW16168   0.933   4.560   0.068
 5090SOL    HW116169   0.930   4.657   0.043
 5090SOL    HW216170   0.963   4.551   0.163
 5091SOL     OW16171   0.785   6.231   4.002
 5091SOL    HW116172   0.867   6.232   4.058
 5091SOL    HW216173   0.808   6.257   3.908
 5092SOL     OW16174   3.471   2.975   0.790
 5092SOL    HW116175   3.490   3.028   0.708
 5092SOL    HW216176   3.450   2.880   0.764
 5093SOL     OW16177   0.914   1.256   2.548
 5093SOL    HW116178   0.815   1.242   2.544
 5093SOL    HW216179   0.957   1.175   2.587
 5094SOL     OW16180   1.098   0.009   6.324
 5094SOL    HW116181   1.097   0.013   6.224
 5094SOL    HW216182   1.177   0.059   6.359
 5095SOL     OW16183   3.350   6.348   5.264
 5095SOL    HW116184   3.336   6.362   5.166
 5095SOL    HW216185   3.262   6.342   5.310
 5096SOL     OW16186   3.450   5.884   1.983
 5096SOL    HW116187   3.446   5.979   2.014
 5096SOL    HW216188   3.421   5.823   2.058
 5097SOL     OW16189   0.575   2.532   6.892
 5097SOL    HW116190   0.598   2.474   6.970
 5097SOL    HW216191   0.576   2.477   6.808
 5098SOL     OW16192   1.273   2.497   2.964
 5098SOL    HW116193   1.257   2.547   2.879
 5098SOL    HW216194   1.337   2.547   3.021
 5099SOL     OW16195   0.683   1.317   4.037
 5099SOL    HW116196   0.745   1.273   4.102
 5099SOL    HW216197   0.654   1.250   3.968
 5100SOL     OW16198   4.998   4.949   5.576
 5100SOL    HW116199   4.903   4.965   5.606
 5100SOL    HW216200   5.000   4.874   5.510
 5101SOL     OW16201   5.354   6.297   0.414
 5101SOL    HW116202   5.393   6.291   0.505
 5101SOL    HW216203   5.312   6.387   0.401
 5102SOL     OW16204   3.755   6.495   4.116
 5102SOL    HW116205   3.736   6.543   4.030
 5102SOL    HW216206   3.853   6.479   4.123
 5103SOL     OW16207   1.670   2.211   3.554
 5103SOL    HW116208   1.704   2.209   3.648
 5103SOL    HW216209   1.716   2.141   3.500
 5104SOL     OW16210   0.807   0.649   0.620
 5104SOL    HW116211   0.769   0.654   0.528
 5104SOL    HW216212   0.751   0.587   0.676
 5105SOL     OW16213   1.885   3.405   0.191
 5105SOL    HW116214   1.807   3.401   0.129
 5105SOL    HW216215   1.958   3.346   0.158
 5106SOL     OW16216   1.896   6.885   2.072
 5106SOL    HW116217   1.845   6.962   2.109
 5106SOL    HW216218   1.994   6.904   2.077
 5107SOL     OW16219   1.681   6.926   5.774
 5107SOL    HW116220   1.685   6.967   5.865
 5107SOL    HW216221   1.735   6.980   5.710
 5108SOL     OW16222   3.709   3.814   4.601
 5108SOL    HW116223   3.788   3.795   4.659
 5108SOL    HW216224   3.696   3.913   4.592
 5109SOL     OW16225   0.534   2.293   2.195
 5109SOL    HW116226   0.451   2.347   2.180
 5109SOL    HW216227   0.582   2.328   2.276
 5110SOL     OW16228   1.598   5.354   5.577
 5110SOL    HW116229   1.565   5.260   5.585
 5110SOL    HW216230   1.697   5.355   5.584
 5111SOL     OW16231   1.211   0.799   6.249
 5111SOL    HW116232   1.220   0.808   6.149
 5111SOL    HW216233   1.301   0.809   6.291
 5112SOL     OW16234   0.294   6.973   3.260
 5112SOL    HW116235   0.319   6.926   3.345
 5112SOL    HW216236   0.363   0.017   3.237
 5113SOL     OW16237   0.206   1.378   6.257
 5113SOL    HW116238   0.138   1.450   6.268
 5113SOL    HW216239   0.159   1.291   6.238
 5114SOL     OW16240   4.968   5.303   6.332
 5114SOL    HW116241   4.990   5.303   6.234
 5114SOL    HW216242   4.872   5.324   6.345
 5115SOL     OW16243   2.686   3.915   5.325
 5115SOL    HW116244   2.698   3.816   5.319
 5115SOL    HW216245   2.600   3.941   5.281
 5116SOL     OW16246   6.671   3.740   1.595
 5116SOL    HW116247   6.757   3.789   1.611
 5116SOL    HW216248   6.602   3.771   1.660
 5117SOL     OW16249   2.370   5.650   2.488
 5117SOL    HW116250   2.308   5.688   2.418
 5117SOL    HW216251   2.440   5.594   2.444
 5118SOL     OW16252   4.120   0.091   1.511
 5118SOL    HW116253   4.218   0.069   1.504
 5118SOL    HW216254   4.071   0.044   1.438
 5119SOL     OW16255   6.440   0.766   2.668
 5119SOL    HW116256   6.490   0.836   2.719
 5119SOL    HW216257   6.394   0.704   2.732
 5120SOL     OW16258   3.770   1.178   0.964
 5120SOL    HW116259   3.740   1.146   0.875
 5120SOL    HW216260   3.702   1.153   1.033
 5121SOL     OW16261   0.488   3.794   4.322
 5121SOL    HW116262   0.576   3.830   4.290
 5121SOL    HW216263   0.437   3.757   4.245
 5122SOL     OW16264   2.828   5.656   2.599
 5122SOL    HW116265   2.883   5.580   2.564
 5122SOL    HW216266   2.820   5.649   2.698
 5123SOL     OW16267   6.562   3.079   1.895
 5123SOL    HW116268   6.502   3.006   1.865
 5123SOL    HW216269   6.610   3.051   1.979
 5124SOL     OW16270   3.523   6.661   0.115
 5124SOL    HW116271   3.543   6.757   0.132
 5124SOL    HW216272   3.474   6.623   0.193
 5125SOL     OW16273   0.658   2.117   6.364
 5125SOL    HW116274   0.597   2.126   6.443
 5125SOL    HW216275   0.697   2.207   6.342
 5126SOL     OW16276   4.257   1.680   0.512
 5126SOL    HW116277   4.298   1.627   0.438
 5126SOL    HW216278   4.175   1.726   0.478
 5127SOL     OW16279   4.788   3.647   5.873
 5127SOL    HW116280   4.885   3.624   5.884
 5127SOL    HW216281   4.779   3.716   5.800
 5128SOL     OW16282   0.314   0.325   0.114
 5128SOL    HW116283   0.240   0.258   0.116
 5128SOL    HW216284   0.380   0.300   0.043
 5129SOL     OW16285   4.685   2.447   4.016
 5129SOL    HW116286   4.634   2.391   4.083
 5129SOL    HW216287   4.780   2.454   4.044
 5130SOL     OW16288   1.979   6.801   4.833
 5130SOL    HW116289   2.043   6.724   4.841
 5130SOL    HW216290   2.028   6.887   4.846
 5131SOL     OW16291   3.274   4.916   2.905
 5131SOL    HW116292   3.193   4.885   2.855
 5131SOL    HW216293   3.277   5.016   2.903
 5132SOL     OW16294   3.246   1.990   5.981
 5132SOL    HW116295   3.172   1.999   6.047
 5132SOL    HW216296   3.220   2.034   5.895
 5133SOL     OW16297   3.513   4.080   6.271
 5133SOL    HW116298   3.474   4.004   6.323
 5133SOL    HW216299   3.439   4.134   6.231
 5134SOL     OW16300   5.924   5.944   1.512
 5134SOL    HW116301   5.846   5.923   1.454
 5134SOL    HW216302   6.003   5.889   1.483
 5135SOL     OW16303   0.724   2.863   1.942
 5135SOL    HW116304   0.750   2.784   1.998
 5135SOL    HW216305   0.664   2.834   1.868
 5136SOL     OW16306   6.819   0.225   4.687
 5136SOL    HW116307   6.897   0.286   4.706
 5136SOL    HW216308   6.836   0.137   4.730
 5137SOL     OW16309   5.158   0.928   3.499
 5137SOL    HW116310   5.211   0.848   3.472
 5137SOL    HW216311   5.136   0.982   3.418
 5138SOL     OW16312   3.489   3.295   2.573
 5138SOL    HW116313   3.484   3.269   2.476
 5138SOL    HW216314   3.496   3.212   2.629
 5139SOL     OW16315   5.088   1.005   4.544
 5139SOL    HW116316   5.012   1.068   4.559
 5139SOL    HW216317   5.117   0.966   4.631
 5140SOL     OW16318   2.576   3.724   5.846
 5140SOL    HW116319   2.659   3.708   5.901
 5140SOL    HW216320   2.569   3.653   5.776
 5141SOL     OW16321   0.781   3.013   1.552
 5141SOL    HW116322   0.774   3.109   1.523
 5141SOL    HW216323   0.834   3.007   1.637
 5142SOL     OW16324   7.022   6.396   3.058
 5142SOL    HW116325   6.923   6.384   3.050
 5142SOL    HW216326   0.020   6.493   3.053
 5143SOL     OW16327   6.137   5.917   2.748
 5143SOL    HW116328   6.049   5.959   2.771
 5143SOL    HW216329   6.209   5.986   2.751
 5144SOL     OW16330   1.524   2.871   5.180
 5144SOL    HW116331   1.475   2.834   5.101
 5144SOL    HW216332   1.588   2.803   5.215
 5145SOL     OW16333   1.377   4.939   6.431
 5145SOL    HW116334   1.319   4.894   6.500
 5145SOL    HW216335   1.330   4.939   6.343
 5146SOL     OW16336   5.296   6.054   6.677
 5146SOL    HW116337   5.206   6.092   6.659
 5146SOL    HW216338   5.310   6.044   6.775
 5147SOL     OW16339   4.165   1.508   3.094
 5147SOL    HW116340   4.150   1.425   3.147
 5147SOL    HW216341   4.204   1.579   3.153
 5148SOL     OW16342   6.296   1.450   0.626
 5148SOL    HW116343   6.395   1.442   0.619
 5148SOL    HW216344   6.269   1.447   0.723
 5149SOL     OW16345   2.656   6.960   3.624
 5149SOL    HW116346   2.674   6.992   3.532
 5149SOL    HW216347   2.739   6.967   3.679
 5150SOL     OW16348   0.055   0.794   4.253
 5150SOL    HW116349   0.144   0.763   4.287
 5150SOL    HW216350   0.065   0.827   4.159
 5151SOL     OW16351   5.264   4.658   1.927
 5151SOL    HW116352   5.303   4.574   1.889
 5151SOL    HW216353   5.338   4.723   1.945
 5152SOL     OW16354   2.326   1.191   0.405
 5152SOL    HW116355   2.328   1.192   0.505
 5152SOL    HW216356   2.257   1.255   0.372
 5153SOL     OW16357   2.270   2.153   6.898
 5153SOL    HW116358   2.176   2.156   6.864
 5153SOL    HW216359   2.270   2.132   6.995
 5154SOL     OW16360   0.856   3.059   6.993
 5154SOL    HW116361   0.903   2.977   0.003
 5154SOL    HW216362   0.855   3.058   6.893
 5155SOL     OW16363   1.551   0.745   0.041
 5155SOL    HW116364   1.584   0.665   0.090
 5155SOL    HW216365   1.607   0.825   0.065
 5156SOL     OW16366   5.321   3.956   5.520
 5156SOL    HW116367   5.291   3.918   5.433
 5156SOL    HW216368   5.242   3.963   5.582
 5157SOL     OW16369   3.675   0.973   2.159
 5157SOL    HW116370   3.706   1.047   2.220
 5157SOL    HW216371   3.597   1.004   2.105
 5158SOL     OW16372   1.261   3.484   2.198
 5158SOL    HW116373   1.241   3.390   2.168
 5158SOL    HW216374   1.355   3.489   2.230
 5159SOL     OW16375   6.445   2.864   6.088
 5159SOL    HW116376   6.473   2.768   6.086
 5159SOL    HW216377   6.494   2.912   6.162
 5160SOL     OW16378   6.478   1.146   3.142
 5160SOL    HW116379   6.530   1.063   3.160
 5160SOL    HW216380   6.416   1.164   3.218
 5161SOL     OW16381   1.352   1.831   6.476
 5161SOL    HW116382   1.309   1.745   6.447
 5161SOL    HW216383   1.284   1.905   6.473
 5162SOL     OW16384   0.099   0.597   5.830
 5162SOL    HW116385   0.158   0.676   5.845
 5162SOL    HW216386   0.132   0.520   5.885
 5163SOL     OW16387   3.556   1.401   1.209
 5163SOL    HW116388   3.599   1.312   1.190
 5163SOL    HW216389   3.499   1.393   1.291
 5164SOL     OW16390   2.302   2.722   0.179
 5164SOL    HW116391   2.239   2.708   0.103
 5164SOL    HW216392   2.270   2.672   0.260
 5165SOL     OW16393   1.144   5.332   5.246
 5165SOL    HW116394   1.207   5.287   5.183
 5165SOL    HW216395   1.174   5.426   5.262
 5166SOL     OW16396   6.247   5.810   5.641
 5166SOL    HW116397   6.184   5.887   5.653
 5166SOL    HW216398   6.265   5.767   5.729
 5167SOL     OW16399   6.146   3.032   6.035
 5167SOL    HW116400   6.225   2.971   6.034
 5167SOL    HW216401   6.130   3.064   6.129
 5168SOL     OW16402   5.175   1.048   3.242
 5168SOL    HW116403   5.226   1.118   3.293
 5168SOL    HW216404   5.109   1.092   3.182
 5169SOL     OW16405   5.167   6.166   4.898
 5169SOL    HW116406   5.158   6.122   4.809
 5169SOL    HW216407   5.199   6.260   4.886
 5170SOL     OW16408   2.502   2.969   6.496
 5170SOL    HW116409   2.488   3.064   6.523
 5170SOL    HW216410   2.535   2.965   6.402
 5171SOL     OW16411   1.723   6.499   5.857
 5171SOL    HW116412   1.710   6.523   5.953
 5171SOL    HW216413   1.820   6.497   5.835
 5172SOL     OW16414   4.865   5.397   5.908
 5172SOL    HW116415   4.919   5.423   5.828
 5172SOL    HW216416   4.840   5.479   5.960
 5173SOL     OW16417   4.537   6.272   3.834
 5173SOL    HW116418   4.447   6.304   3.866
 5173SOL    HW216419   4.593   6.352   3.810
 5174SOL     OW16420   0.641   5.990   3.649
 5174SOL    HW116421   0.650   6.090   3.658
 5174SOL    HW216422   0.545   5.965   3.649
 5175SOL     OW16423   2.903   1.989   5.867
 5175SOL    HW116424   2.919   1.954   5.959
 5175SOL    HW216425   2.874   2.085   5.872
 5176SOL     OW16426   5.631   6.838   6.208
 5176SOL    HW116427   5.679   6.754   6.183
 5176SOL    HW216428   5.594   6.830   6.301
 5177SOL     OW16429   5.220   5.142   1.084
 5177SOL    HW116430   5.176   5.080   1.019
 5177SOL    HW216431   5.309   5.169   1.050
 5178SOL     OW16432   0.958   3.980   1.115
 5178SOL    HW116433   0.946   4.028   1.028
 5178SOL    HW216434   0.883   4.004   1.177
 5179SOL     OW16435   3.984   5.318   2.711
 5179SOL    HW116436   3.947   5.276   2.628
 5179SOL    HW216437   4.075   5.354   2.692
 5180SOL     OW16438   2.891   5.467   2.209
 5180SOL    HW116439   2.816   5.532   2.219
 5180SOL    HW216440   2.950   5.495   2.134
 5181SOL     OW16441   6.527   1.765   5.451
 5181SOL    HW116442   6.526   1.683   5.509
 5181SOL    HW216443   6.606   1.821   5.475
 5182SOL     OW16444   2.532   5.888   2.268
 5182SOL    HW116445   2.454   5.891   2.331
 5182SOL    HW216446   2.501   5.859   2.178
 5183SOL     OW16447   5.591   1.792   3.280
 5183SOL    HW116448   5.578   1.756   3.188
 5183SOL    HW216449   5.528   1.869   3.295
 5184SOL     OW16450   2.854   1.449   1.922
 5184SOL    HW116451   2.908   1.489   1.997
 5184SOL    HW216452   2.771   1.503   1.908
 5185SOL     OW16453   6.408   0.712   1.565
 5185SOL    HW116454   6.313   0.720   1.593
 5185SOL    HW216455   6.441   0.620   1.585
 5186SOL     OW16456   5.957   2.197   6.439
 5186SOL    HW116457   5.957   2.247   6.525
 5186SOL    HW216458   5.864   2.167   6.417
 5187SOL     OW16459   1.340   4.721   5.196
 5187SOL    HW116460   1.359   4.647   5.132
 5187SOL    HW216461   1.417   4.729   5.260
 5188SOL     OW16462   0.185   0.455   1.621
 5188SOL    HW116463   0.198   0.395   1.543
 5188SOL    HW216464   0.260   0.521   1.625
 5189SOL     OW16465   5.500   6.368   6.317
 5189SOL    HW116466   5.494   6.282   6.267
 5189SOL    HW216467   5.408   6.395   6.347
 5190SOL     OW16468   1.156   5.323   0.747
 5190SOL    HW116469   1.107   5.291   0.667
 5190SOL    HW216470   1.248   5.353   0.721
 5191SOL     OW16471   3.179   3.882   1.176
 5191SOL    HW116472   3.134   3.924   1.098
 5191SOL    HW216473   3.111   3.835   1.232
 5192SOL     OW16474   0.717   4.565   2.615
 5192SOL    HW116475   0.646   4.635   2.620
 5192SOL    HW216476   0.682   4.478   2.648
 5193SOL     OW16477   3.721   0.248   4.577
 5193SOL    HW116478   3.684   0.213   4.491
 5193SOL    HW216479   3.819   0.230   4.580
 5194SOL     OW16480   4.075   1.474   5.625
 5194SOL    HW116481   4.017   1.556   5.624
 5194SOL    HW216482   4.020   1.395   5.650
 5195SOL     OW16483   2.308   1.010   4.765
 5195SOL    HW116484   2.265   1.098   4.786
 5195SOL    HW216485   2.291   0.946   4.840
 5196SOL     OW16486   5.908   6.102   2.703
 5196SOL    HW116487   5.827   6.130   2.755
 5196SOL    HW216488   5.953   6.183   2.665
 5197SOL     OW16489   2.299   3.889   5.787
 5197SOL    HW116490   2.391   3.908   5.821
 5197SOL    HW216491   2.261   3.971   5.746
 5198SOL     OW16492   6.503   5.659   3.688
 5198SOL    HW116493   6.597   5.692   3.678
 5198SOL    HW216494   6.459   5.705   3.765
 5199SOL     OW16495   0.463   5.063   1.445
 5199SOL    HW116496   0.467   5.137   1.378
 5199SOL    HW216497   0.455   5.102   1.537
 5200SOL     OW16498   0.170   4.265   5.514
 5200SOL    HW116499   0.126   4.185   5.555
 5200SOL    HW216500   0.263   4.274   5.549
 5201SOL     OW16501   1.035   5.460   4.505
 5201SOL    HW116502   1.064   5.537   4.561
 5201SOL    HW216503   1.048   5.375   4.556
 5202SOL     OW16504   0.092   4.977   1.950
 5202SOL    HW116505   0.056   5.063   1.912
 5202SOL    HW216506   0.128   4.994   2.042
 5203SOL     OW16507   6.875   3.115   6.770
 5203SOL    HW116508   6.860   3.068   6.857
 5203SOL    HW216509   6.796   3.100   6.710
 5204SOL     OW16510   5.365   5.374   6.445
 5204SOL    HW116511   5.348   5.293   6.389
 5204SOL    HW216512   5.462   5.396   6.443
 5205SOL     OW16513   2.652   6.087   0.534
 5205SOL    HW116514   2.654   5.990   0.558
 5205SOL    HW216515   2.679   6.099   0.439
 5206SOL     OW16516   0.310   4.684   4.694
 5206SOL    HW116517   0.223   4.665   4.739
 5206SOL    HW216518   0.385   4.654   4.752
 5207SOL     OW16519   1.383   6.442   2.300
 5207SOL    HW116520   1.459   6.458   2.236
 5207SOL    HW216521   1.357   6.528   2.343
 5208SOL     OW16522   4.728   2.162   0.225
 5208SOL    HW116523   4.719   2.110   0.139
 5208SOL    HW216524   4.685   2.251   0.214
 5209SOL     OW16525   6.427   5.516   3.286
 5209SOL    HW116526   6.479   5.477   3.210
 5209SOL    HW216527   6.441   5.461   3.368
 5210SOL     OW16528   4.991   3.235   3.571
 5210SOL    HW116529   4.931   3.275   3.502
 5210SOL    HW216530   5.082   3.221   3.532
 5211SOL     OW16531   2.939   4.261   1.687
 5211SOL    HW116532   2.932   4.341   1.747
 5211SOL    HW216533   2.872   4.270   1.613
 5212SOL     OW16534   0.730   6.893   6.267
 5212SOL    HW116535   0.782   6.930   6.344
 5212SOL    HW216536   0.756   6.798   6.252
 5213SOL     OW16537   4.727   1.784   6.838
 5213SOL    HW116538   4.803   1.745   6.786
 5213SOL    HW216539   4.660   1.713   6.859
 5214SOL     OW16540   4.936   2.323   0.069
 5214SOL    HW116541   5.032   2.351   0.063
 5214SOL    HW216542   4.912   2.266   7.014
 5215SOL     OW16543   6.104   5.479   4.424
 5215SOL    HW116544   6.124   5.558   4.367
 5215SOL    HW216545   6.188   5.426   4.439
 5216SOL     OW16546   3.237   6.294   1.398
 5216SOL    HW116547   3.184   6.301   1.313
 5216SOL    HW216548   3.277   6.202   1.404
 5217SOL     OW16549   2.894   5.477   4.060
 5217SOL    HW116550   2.856   5.511   4.146
 5217SOL    HW216551   2.984   5.437   4.076
 5218SOL     OW16552   0.902   0.425   3.862
 5218SOL    HW116553   0.918   0.459   3.770
 5218SOL    HW216554   0.816   0.463   3.897
 5219SOL     OW16555   3.033   6.659   1.331
 5219SOL    HW116556   3.078   6.575   1.302
 5219SOL    HW216557   2.957   6.680   1.268
 5220SOL     OW16558   0.834   6.277   2.352
 5220SOL    HW116559   0.924   6.310   2.379
 5220SOL    HW216560   0.836   6.250   2.256
 5221SOL     OW16561   4.718   0.512   0.243
 5221SOL    HW116562   4.813   0.507   0.212
 5221SOL    HW216563   4.667   0.433   0.208
 5222SOL     OW16564   6.392   5.442   2.521
 5222SOL    HW116565   6.347   5.526   2.489
 5222SOL    HW216566   6.330   5.393   2.583
 5223SOL     OW16567   4.412   0.080   1.496
 5223SOL    HW116568   4.420   0.031   1.410
 5223SOL    HW216569   4.489   0.058   1.555
 5224SOL     OW16570   5.620   0.607   3.869
 5224SOL    HW116571   5.708   0.642   3.838
 5224SOL    HW216572   5.546   0.659   3.825
 5225SOL     OW16573   0.271   6.756   5.786
 5225SOL    HW116574   0.313   6.721   5.870
 5225SOL    HW216575   0.254   6.680   5.723
 5226SOL     OW16576   2.391   0.870   3.553
 5226SOL    HW116577   2.444   0.838   3.632
 5226SOL    HW216578   2.310   0.918   3.584
 5227SOL     OW16579   5.932   3.856   4.394
 5227SOL    HW116580   5.906   3.819   4.483
 5227SOL    HW216581   5.867   3.827   4.324
 5228SOL     OW16582   4.955   6.593   2.066
 5228SOL    HW116583   4.941   6.543   2.151
 5228SOL    HW216584   5.042   6.642   2.070
 5229SOL     OW16585   0.865   3.766   3.876
 5229SOL    HW116586   0.948   3.787   3.927
 5229SOL    HW216587   0.791   3.826   3.906
 5230SOL     OW16588   0.490   1.332   6.651
 5230SOL    HW116589   0.443   1.255   6.695
 5230SOL    HW216590   0.431   1.371   6.580
 5231SOL     OW16591   2.903   3.648   3.235
 5231SOL    HW116592   2.970   3.682   3.301
 5231SOL    HW216593   2.816   3.697   3.248
 5232SOL     OW16594   5.559   2.871   4.521
 5232SOL    HW116595   5.656   2.850   4.526
 5232SOL    HW216596   5.524   2.893   4.612
 5233SOL     OW16597   0.830   6.903   2.608
 5233SOL    HW116598   0.928   6.923   2.619
 5233SOL    HW216599   0.777   6.951   2.677
 5234SOL     OW16600   3.337   4.044   1.323
 5234SOL    HW116601   3.271   3.981   1.283
 5234SOL    HW216602   3.374   4.104   1.252
 5235SOL     OW16603   0.730   1.583   1.731
 5235SOL    HW116604   0.667   1.600   1.806
 5235SOL    HW216605   0.777   1.668   1.707
 5236SOL     OW16606   6.065   3.000   0.520
 5236SOL    HW116607   6.069   2.996   0.620
 5236SOL    HW216608   6.152   2.968   0.482
 5237SOL     OW16609   1.492   1.935   2.373
 5237SOL    HW116610   1.491   1.838   2.350
 5237SOL    HW216611   1.509   1.989   2.291
 5238SOL     OW16612   1.705   3.693   1.740
 5238SOL    HW116613   1.640   3.675   1.814
 5238SOL    HW216614   1.716   3.611   1.685
 5239SOL     OW16615   2.904   3.285   5.460
 5239SOL    HW116616   2.872   3.229   5.537
 5239SOL    HW216617   2.892   3.235   5.375
 5240SOL     OW16618   3.844   2.118   3.751
 5240SOL    HW116619   3.896   2.196   3.716
 5240SOL    HW216620   3.871   2.035   3.703
 5241SOL     OW16621   4.755   5.895   5.258
 5241SOL    HW116622   4.689   5.889   5.333
 5241SOL    HW216623   4.841   5.931   5.293
 5242SOL     OW16624   3.254   0.715   5.737
 5242SOL    HW116625   3.194   0.682   5.809
 5242SOL    HW216626   3.345   0.733   5.775
 5243SOL     OW16627   1.690   4.060   0.423
 5243SOL    HW116628   1.755   4.072   0.498
 5243SOL    HW216629   1.732   4.090   0.338
 5244SOL     OW16630   6.299   3.187   6.764
 5244SOL    HW116631   6.284   3.089   6.776
 5244SOL    HW216632   6.394   3.202   6.737
 5245SOL     OW16633   4.576   4.402   5.872
 5245SOL    HW116634   4.589   4.314   5.918
 5245SOL    HW216635   4.504   4.393   5.803
 5246SOL     OW16636   1.323   3.314   3.532
 5246SOL    HW116637   1.349   3.225   3.496
 5246SOL    HW216638   1.353   3.322   3.627
 5247SOL     OW16639   0.532   4.297   6.994
 5247SOL    HW116640   0.591   4.373   6.965
 5247SOL    HW216641   0.456   4.287   6.929
 5248SOL     OW16642   4.627   1.202   0.583
 5248SOL    HW116643   4.574   1.201   0.498
 5248SOL    HW216644   4.720   1.168   0.565
 5249SOL     OW16645   0.561   5.257   0.198
 5249SOL    HW116646   0.616   5.189   0.245
 5249SOL    HW216647   0.574   5.248   0.099
 5250SOL     OW16648   1.238   1.619   5.416
 5250SOL    HW116649   1.262   1.713   5.439
 5250SOL    HW216650   1.156   1.618   5.359
 5251SOL     OW16651   0.692   2.273   1.498
 5251SOL    HW116652   0.750   2.354   1.499
 5251SOL    HW216653   0.651   2.262   1.407
 5252SOL     OW16654   5.349   5.570   1.610
 5252SOL    HW116655   5.412   5.646   1.589
 5252SOL    HW216656   5.341   5.511   1.530
 5253SOL     OW16657   6.027   3.107   3.830
 5253SOL    HW116658   5.986   3.017   3.848
 5253SOL    HW216659   6.104   3.122   3.893
 5254SOL     OW16660   5.290   0.559   4.596
 5254SOL    HW116661   5.365   0.588   4.536
 5254SOL    HW216662   5.293   0.460   4.608
 5255SOL     OW16663   2.287   5.924   2.636
 5255SOL    HW116664   2.312   5.828   2.629
 5255SOL    HW216665   2.311   5.959   2.727
 5256SOL     OW16666   4.946   6.173   2.221
 5256SOL    HW116667   5.006   6.097   2.247
 5256SOL    HW216668   4.865   6.174   2.279
 5257SOL     OW16669   2.372   1.749   2.442
 5257SOL    HW116670   2.278   1.716   2.439
 5257SOL    HW216671   2.373   1.844   2.473
 5258SOL     OW16672   5.481   1.985   1.740
 5258SOL    HW116673   5.468   1.908   1.678
 5258SOL    HW216674   5.528   2.060   1.692
 5259SOL     OW16675   5.868   5.311   1.453
 5259SOL    HW116676   5.881   5.212   1.446
 5259SOL    HW216677   5.951   5.353   1.488
 5260SOL     OW16678   5.209   3.038   2.045
 5260SOL    HW116679   5.304   3.050   2.075
 5260SOL    HW216680   5.148   3.084   2.110
 5261SOL     OW16681   2.330   2.733   4.853
 5261SOL    HW116682   2.377   2.818   4.878
 5261SOL    HW216683   2.396   2.669   4.815
 5262SOL     OW16684   1.252   0.565   1.720
 5262SOL    HW116685   1.179   0.540   1.785
 5262SOL    HW216686   1.243   0.510   1.638
 5263SOL     OW16687   1.323   6.697   6.517
 5263SOL    HW116688   1.322   6.635   6.595
 5263SOL    HW216689   1.234   6.696   6.472
 5264SOL     OW16690   1.331   0.584   0.581
 5264SOL    HW116691   1.330   0.680   0.610
 5264SOL    HW216692   1.417   0.565   0.533
 5265SOL     OW16693   5.050   5.015   3.883
 5265SOL    HW116694   5.068   5.020   3.981
 5265SOL    HW216695   5.113   4.949   3.841
 5266SOL     OW16696   1.565   6.639   1.240
 5266SOL    HW116697   1.608   6.558   1.279
 5266SOL    HW216698   1.561   6.712   1.309
 5267SOL     OW16699   3.698   3.560   4.905
 5267SOL    HW116700   3.778   3.501   4.910
 5267SOL    HW216701   3.687   3.610   4.991
 5268SOL     OW16702   6.044   4.510   6.150
 5268SOL    HW116703   6.021   4.595   6.102
 5268SOL    HW216704   5.967   4.447   6.144
 5269SOL     OW16705   2.998   5.280   5.338
 5269SOL    HW116706   3.082   5.333   5.328
 5269SOL    HW216707   3.005   5.222   5.419
 5270SOL     OW16708   6.997   1.395   2.782
 5270SOL    HW116709   6.915   1.451   2.769
 5270SOL    HW216710   0.006   1.363   2.693
 5271SOL     OW16711   5.630   3.740   4.966
 5271SOL    HW116712   5.585   3.734   5.055
 5271SOL    HW216713   5.560   3.756   4.895
 5272SOL     OW16714   2.210   2.451   3.557
 5272SOL    HW116715   2.225   2.395   3.475
 5272SOL    HW216716   2.122   2.427   3.598
 5273SOL     OW16717   6.785   1.193   5.659
 5273SOL    HW116718   6.699   1.217   5.614
 5273SOL    HW216719   6.836   1.276   5.681
 5274SOL     OW16720   0.619   5.218   4.859
 5274SOL    HW116721   0.596   5.136   4.912
 5274SOL    HW216722   0.553   5.290   4.879
 5275SOL     OW16723   2.526   6.671   6.874
 5275SOL    HW116724   2.544   6.633   6.784
 5275SOL    HW216725   2.509   6.769   6.866
 5276SOL     OW16726   0.033   0.747   0.074
 5276SOL    HW116727   0.025   0.835   0.028
 5276SOL    HW216728   0.129   0.717   0.071
 5277SOL     OW16729   0.933   0.852   1.321
 5277SOL    HW116730   1.014   0.812   1.363
 5277SOL    HW216731   0.870   0.884   1.392
 5278SOL     OW16732   6.831   4.649   6.648
 5278SOL    HW116733   6.926   4.670   6.670
 5278SOL    HW216734   6.804   4.701   6.567
 5279SOL     OW16735   2.407   6.202   0.176
 5279SOL    HW116736   2.335   6.170   0.238
 5279SOL    HW216737   2.496   6.190   0.219
 5280SOL     OW16738   4.803   6.382   5.988
 5280SOL    HW116739   4.728   6.408   6.049
 5280SOL    HW216740   4.767   6.372   5.895
 5281SOL     OW16741   2.162   6.345   5.009
 5281SOL    HW116742   2.179   6.415   5.078
 5281SOL    HW216743   2.148   6.257   5.055
 5282SOL     OW16744   6.673   5.680   1.220
 5282SOL    HW116745   6.576   5.665   1.202
 5282SOL    HW216746   6.712   5.739   1.150
 5283SOL     OW16747   1.648   0.318   4.319
 5283SOL    HW116748   1.558   0.334   4.358
 5283SOL    HW216749   1.654   0.362   4.229
 5284SOL     OW16750   4.965   3.119   1.857
 5284SOL    HW116751   5.057   3.099   1.889
 5284SOL    HW216752   4.899   3.063   1.908
 5285SOL     OW16753   2.327   1.480   3.970
 5285SOL    HW116754   2.297   1.385   3.985
 5285SOL    HW216755   2.346   1.494   3.873
 5286SOL     OW16756   0.735   2.752   1.530
 5286SOL    HW116757   0.757   2.850   1.528
 5286SOL    HW216758   0.677   2.733   1.610
 5287SOL     OW16759   0.300   5.670   2.253
 5287SOL    HW116760   0.327   5.680   2.349
 5287SOL    HW216761   0.271   5.575   2.237
 5288SOL     OW16762   4.163   0.837   1.899
 5288SOL    HW116763   4.121   0.912   1.950
 5288SOL    HW216764   4.142   0.846   1.802
 5289SOL     OW16765   1.763   5.376   6.291
 5289SOL    HW116766   1.692   5.317   6.331
 5289SOL    HW216767   1.790   5.340   6.202
 5290SOL     OW16768   1.675   2.682   5.309
 5290SOL    HW116769   1.639   2.729   5.390
 5290SOL    HW216770   1.695   2.587   5.332
 5291SOL     OW16771   2.921   6.165   4.668
 5291SOL    HW116772   2.978   6.099   4.619
 5291SOL    HW216773   2.936   6.155   4.767
 5292SOL     OW16774   0.579   4.467   4.634
 5292SOL    HW116775   0.667   4.427   4.662
 5292SOL    HW216776   0.558   4.437   4.541
 5293SOL     OW16777   2.392   0.335   3.487
 5293SOL    HW116778   2.335   0.282   3.550
 5293SOL    HW216779   2.348   0.422   3.467
 5294SOL     OW16780   5.325   0.290   4.591
 5294SOL    HW116781   5.278   0.209   4.628
 5294SOL    HW216782   5.330   0.282   4.491
 5295SOL     OW16783   2.143   0.331   1.279
 5295SOL    HW116784   2.142   0.232   1.291
 5295SOL    HW216785   2.231   0.367   1.311
 5296SOL     OW16786   4.478   5.195   2.233
 5296SOL    HW116787   4.552   5.130   2.251
 5296SOL    HW216788   4.514   5.271   2.178
 5297SOL     OW16789   3.754   5.167   5.923
 5297SOL    HW116790   3.782   5.134   5.833
 5297SOL    HW216791   3.778   5.100   5.993
 5298SOL     OW16792   3.618   1.089   6.906
 5298SOL    HW116793   3.637   0.992   6.887
 5298SOL    HW216794   3.530   1.096   6.954
 5299SOL     OW16795   1.673   0.325   1.036
 5299SOL    HW116796   1.685   0.332   1.135
 5299SOL    HW216797   1.583   0.362   1.011
 5300SOL     OW16798   2.860   4.812   0.131
 5300SOL    HW116799   2.788   4.752   0.097
 5300SOL    HW216800   2.828   4.907   0.130
 5301SOL     OW16801   6.385   7.015   5.816
 5301SOL    HW116802   6.366   6.971   5.904
 5301SOL    HW216803   6.300   0.024   5.776
 5302SOL     OW16804   4.876   5.374   3.761
 5302SOL    HW116805   4.840   5.467   3.767
 5302SOL    HW216806   4.802   5.310   3.740
 5303SOL     OW16807   1.637   6.499   5.315
 5303SOL    HW116808   1.638   6.405   5.350
 5303SOL    HW216809   1.674   6.561   5.385
 5304SOL     OW16810   0.337   0.202   3.428
 5304SOL    HW116811   0.317   0.121   3.484
 5304SOL    HW216812   0.369   0.276   3.486
 5305SOL     OW16813   6.390   5.228   4.863
 5305SOL    HW116814   6.357   5.303   4.806
 5305SOL    HW216815   6.379   5.141   4.813
 5306SOL     OW16816   0.796   1.884   6.484
 5306SOL    HW116817   0.751   1.970   6.457
 5306SOL    HW216818   0.888   1.904   6.518
 5307SOL     OW16819   0.912   1.118   1.629
 5307SOL    HW116820   0.976   1.176   1.580
 5307SOL    HW216821   0.835   1.172   1.662
 5308SOL     OW16822   2.119   4.374   2.795
 5308SOL    HW116823   2.085   4.363   2.888
 5308SOL    HW216824   2.045   4.358   2.730
 5309SOL     OW16825   5.839   6.147   3.106
 5309SOL    HW116826   5.899   6.073   3.076
 5309SOL    HW216827   5.815   6.134   3.202
 5310SOL     OW16828   6.005   1.834   3.193
 5310SOL    HW116829   6.040   1.777   3.118
 5310SOL    HW216830   5.960   1.915   3.154
 5311SOL     OW16831   5.925   0.312   0.679
 5311SOL    HW116832   6.011   0.315   0.731
 5311SOL    HW216833   5.864   0.383   0.713
 5312SOL     OW16834   5.435   6.662   1.138
 5312SOL    HW116835   5.372   6.636   1.212
 5312SOL    HW216836   5.436   6.761   1.129
 5313SOL     OW16837   1.079   6.262   5.577
 5313SOL    HW116838   1.143   6.313   5.635
 5313SOL    HW216839   1.004   6.321   5.550
 5314SOL     OW16840   5.699   1.824   2.411
 5314SOL    HW116841   5.601   1.814   2.429
 5314SOL    HW216842   5.724   1.920   2.414
 5315SOL     OW16843   4.172   2.105   3.639
 5315SOL    HW116844   4.247   2.119   3.574
 5315SOL    HW216845   4.086   2.137   3.597
 5316SOL     OW16846   0.248   2.851   5.052
 5316SOL    HW116847   0.272   2.845   4.955
 5316SOL    HW216848   0.163   2.903   5.062
 5317SOL     OW16849   5.403   3.098   1.508
 5317SOL    HW116850   5.348   3.155   1.569
 5317SOL    HW216851   5.446   3.025   1.561
 5318SOL     OW16852   6.569   4.643   5.920
 5318SOL    HW116853   6.527   4.612   5.834
 5318SOL    HW216854   6.501   4.692   5.974
 5319SOL     OW16855   4.237   5.822   2.563
 5319SOL    HW116856   4.217   5.724   2.558
 5319SOL    HW216857   4.276   5.852   2.476
 5320SOL     OW16858   4.595   6.044   0.256
 5320SOL    HW116859   4.648   6.049   0.172
 5320SOL    HW216860   4.557   5.952   0.267
 5321SOL     OW16861   1.467   4.279   5.206
 5321SOL    HW116862   1.478   4.332   5.290
 5321SOL    HW216863   1.518   4.322   5.132
 5322SOL     OW16864   4.487   5.923   1.720
 5322SOL    HW116865   4.480   5.938   1.819
 5322SOL    HW216866   4.534   6.000   1.678
 5323SOL     OW16867   3.837   0.176   5.999
 5323SOL    HW116868   3.870   0.179   5.904
 5323SOL    HW216869   3.770   0.103   6.009
 5324SOL     OW16870   0.978   1.234   1.945
 5324SOL    HW116871   1.001   1.137   1.933
 5324SOL    HW216872   0.915   1.262   1.873
 5325SOL     OW16873   2.203   3.104   4.282
 5325SOL    HW116874   2.216   3.006   4.300
 5325SOL    HW216875   2.224   3.156   4.365
 5326SOL     OW16876   6.375   0.259   1.210
 5326SOL    HW116877   6.469   0.265   1.175
 5326SOL    HW216878   6.336   0.170   1.186
 5327SOL     OW16879   0.294   2.439   5.868
 5327SOL    HW116880   0.329   2.532   5.857
 5327SOL    HW216881   0.249   2.410   5.784
 5328SOL     OW16882   3.586   5.241   0.825
 5328SOL    HW116883   3.660   5.296   0.863
 5328SOL    HW216884   3.617   5.147   0.812
 5329SOL     OW16885   2.792   5.870   6.519
 5329SOL    HW116886   2.746   5.949   6.478
 5329SOL    HW216887   2.891   5.882   6.516
 5330SOL     OW16888   2.525   5.570   0.996
 5330SOL    HW116889   2.531   5.579   1.095
 5330SOL    HW216890   2.603   5.516   0.963
 5331SOL     OW16891   6.363   1.574   6.679
 5331SOL    HW116892   6.379   1.510   6.603
 5331SOL    HW216893   6.330   1.661   6.643
 5332SOL     OW16894   1.023   4.674   2.484
 5332SOL    HW116895   0.936   4.722   2.489
 5332SOL    HW216896   1.057   4.676   2.389
 5333SOL     OW16897   1.123   6.364   4.457
 5333SOL    HW116898   1.191   6.313   4.508
 5333SOL    HW216899   1.050   6.394   4.518
 5334SOL     OW16900   2.967   6.826   5.498
 5334SOL    HW116901   3.016   6.897   5.549
 5334SOL    HW216902   2.997   6.827   5.403
 5335SOL     OW16903   6.416   6.546   0.912
 5335SOL    HW116904   6.482   6.473   0.894
 5335SOL    HW216905   6.381   6.536   1.005
 5336SOL     OW16906   1.008   3.836   1.501
 5336SOL    HW116907   1.104   3.823   1.476
 5336SOL    HW216908   1.003   3.866   1.596
 5337SOL     OW16909   5.406   4.990   1.468
 5337SOL    HW116910   5.439   4.996   1.562
 5337SOL    HW216911   5.470   5.034   1.406
 5338SOL     OW16912   5.214   2.685   0.915
 5338SOL    HW116913   5.114   2.673   0.915
 5338SOL    HW216914   5.257   2.604   0.954
 5339SOL     OW16915   6.534   0.313   2.098
 5339SOL    HW116916   6.449   0.363   2.088
 5339SOL    HW216917   6.518   0.216   2.080
 5340SOL     OW16918   4.817   2.500   0.224
 5340SOL    HW116919   4.720   2.479   0.211
 5340SOL    HW216920   4.870   2.459   0.150
 5341SOL     OW16921   4.288   0.336   0.968
 5341SOL    HW116922   4.337   0.422   0.951
 5341SOL    HW216923   4.317   0.298   1.056
 5342SOL     OW16924   2.117   0.292   6.063
 5342SOL    HW116925   2.082   0.361   6.125
 5342SOL    HW216926   2.213   0.310   6.043
 5343SOL     OW16927   3.343   4.140   0.977
 5343SOL    HW116928   3.263   4.081   0.968
 5343SOL    HW216929   3.408   4.119   0.904
 5344SOL     OW16930   2.181   2.620   2.775
 5344SOL    HW116931   2.139   2.613   2.685
 5344SOL    HW216932   2.137   2.693   2.827
 5345SOL     OW16933   4.902   0.112   3.423
 5345SOL    HW116934   4.910   0.037   3.490
 5345SOL    HW216935   4.993   0.149   3.404
 5346SOL     OW16936   3.183   0.532   3.911
 5346SOL    HW116937   3.141   0.590   3.981
 5346SOL    HW216938   3.123   0.528   3.831
 5347SOL     OW16939   6.857   1.186   2.055
 5347SOL    HW116940   6.806   1.220   1.976
 5347SOL    HW216941   6.797   1.184   2.135
 5348SOL     OW16942   6.561   1.945   0.125
 5348SOL    HW116943   6.543   1.901   0.037
 5348SOL    HW216944   6.660   1.958   0.136
 5349SOL     OW16945   5.513   0.944   0.851
 5349SOL    HW116946   5.574   0.867   0.831
 5349SOL    HW216947   5.567   1.028   0.860
 5350SOL     OW16948   2.711   0.616   6.843
 5350SOL    HW116949   2.765   0.685   6.793
 5350SOL    HW216950   2.771   0.568   6.907
 5351SOL     OW16951   4.679   1.529   2.489
 5351SOL    HW116952   4.647   1.578   2.408
 5351SOL    HW216953   4.602   1.514   2.551
 5352SOL     OW16954   3.399   0.695   3.860
 5352SOL    HW116955   3.313   0.647   3.878
 5352SOL    HW216956   3.450   0.646   3.789
 5353SOL     OW16957   6.271   0.212   6.103
 5353SOL    HW116958   6.367   0.189   6.121
 5353SOL    HW216959   6.212   0.155   6.160
 5354SOL     OW16960   1.074   3.167   1.415
 5354SOL    HW116961   0.980   3.165   1.381
 5354SOL    HW216962   1.136   3.132   1.345
 5355SOL     OW16963   4.633   1.206   5.712
 5355SOL    HW116964   4.555   1.265   5.731
 5355SOL    HW216965   4.603   1.111   5.704
 5356SOL     OW16966   6.774   3.322   1.684
 5356SOL    HW116967   6.748   3.371   1.767
 5356SOL    HW216968   6.789   3.388   1.610
 5357SOL     OW16969   4.227   5.583   0.193
 5357SOL    HW116970   4.291   5.613   0.122
 5357SOL    HW216971   4.244   5.487   0.215
 5358SOL     OW16972   5.406   4.273   1.554
 5358SOL    HW116973   5.346   4.207   1.599
 5358SOL    HW216974   5.366   4.364   1.560
 5359SOL     OW16975   3.271   0.526   5.530
 5359SOL    HW116976   3.276   0.618   5.568
 5359SOL    HW216977   3.218   0.467   5.592
 5360SOL     OW16978   4.286   2.010   0.268
 5360SOL    HW116979   4.324   1.970   0.352
 5360SOL    HW216980   4.335   1.975   0.189
 5361SOL     OW16981   0.656   0.985   6.491
 5361SOL    HW116982   0.661   1.016   6.586
 5361SOL    HW216983   0.635   0.887   6.488
 5362SOL     OW16984   4.197   5.989   3.915
 5362SOL    HW116985   4.292   6.000   3.943
 5362SOL    HW216986   4.145   6.069   3.945
 5363SOL     OW16987   1.063   5.911   4.829
 5363SOL    HW116988   0.994   5.853   4.786
 5363SOL    HW216989   1.148   5.860   4.840
 5364SOL     OW16990   1.060   5.831   6.420
 5364SOL    HW116991   1.109   5.779   6.350
 5364SOL    HW216992   1.042   5.924   6.386
 5365SOL     OW16993   4.126   2.365   5.828
 5365SOL    HW116994   4.152   2.269   5.839
 5365SOL    HW216995   4.186   2.422   5.883
 5366SOL     OW16996   3.914   3.816   6.015
 5366SOL    HW116997   3.916   3.747   5.943
 5366SOL    HW216998   3.820   3.843   6.034
 5367SOL     OW16999   0.475   4.123   0.930
 5367SOL    HW117000   0.478   4.043   0.990
 5367SOL    HW217001   0.405   4.109   0.859
 5368SOL     OW17002   0.685   6.950   3.551
 5368SOL    HW117003   0.688   0.017   3.593
 5368SOL    HW217004   0.655   6.960   3.456
 5369SOL     OW17005   1.826   3.682   2.556
 5369SOL    HW117006   1.799   3.732   2.638
 5369SOL    HW217007   1.758   3.697   2.484
 5370SOL     OW17008   3.556   2.772   1.503
 5370SOL    HW117009   3.591   2.830   1.577
 5370SOL    HW217010   3.458   2.759   1.514
 5371SOL     OW17011   2.283   4.283   5.034
 5371SOL    HW117012   2.356   4.318   5.093
 5371SOL    HW217013   2.307   4.191   5.002
 5372SOL     OW17014   3.680   6.509   2.417
 5372SOL    HW117015   3.653   6.509   2.513
 5372SOL    HW217016   3.774   6.476   2.408
 5373SOL     OW17017   2.421   5.001   3.932
 5373SOL    HW117018   2.458   5.024   3.842
 5373SOL    HW217019   2.397   5.085   3.981
 5374SOL     OW17020   3.264   2.193   0.701
 5374SOL    HW117021   3.322   2.256   0.754
 5374SOL    HW217022   3.251   2.230   0.609
 5375SOL     OW17023   1.368   4.320   4.640
 5375SOL    HW117024   1.335   4.245   4.583
 5375SOL    HW217025   1.434   4.375   4.589
 5376SOL     OW17026   3.131   4.928   6.295
 5376SOL    HW117027   3.097   4.996   6.230
 5376SOL    HW217028   3.074   4.846   6.290
 5377SOL     OW17029   0.784   2.072   1.660
 5377SOL    HW117030   0.732   2.147   1.617
 5377SOL    HW217031   0.751   2.058   1.753
 5378SOL     OW17032   4.892   0.244   6.719
 5378SOL    HW117033   4.821   0.313   6.700
 5378SOL    HW217034   4.946   0.273   6.798
 5379SOL     OW17035   0.154   0.099   0.090
 5379SOL    HW117036   0.187   0.097   0.185
 5379SOL    HW217037   0.075   0.038   0.082
 5380SOL     OW17038   2.176   1.262   4.832
 5380SOL    HW117039   2.197   1.321   4.755
 5380SOL    HW217040   2.077   1.264   4.850
 5381SOL     OW17041   6.009   3.588   1.874
 5381SOL    HW117042   6.026   3.596   1.972
 5381SOL    HW217043   5.916   3.621   1.854
 5382SOL     OW17044   2.025   6.483   1.332
 5382SOL    HW117045   2.007   6.462   1.428
 5382SOL    HW217046   1.964   6.430   1.273
 5383SOL     OW17047   2.575   2.253   4.792
 5383SOL    HW117048   2.509   2.179   4.779
 5383SOL    HW217049   2.647   2.246   4.722
 5384SOL     OW17050   5.307   6.390   4.896
 5384SOL    HW117051   5.404   6.369   4.911
 5384SOL    HW217052   5.299   6.480   4.853
 5385SOL     OW17053   3.615   4.117   2.116
 5385SOL    HW117054   3.548   4.170   2.065
 5385SOL    HW217055   3.707   4.134   2.080
 5386SOL     OW17056   5.605   6.497   5.874
 5386SOL    HW117057   5.654   6.487   5.961
 5386SOL    HW217058   5.533   6.566   5.884
 5387SOL     OW17059   4.428   4.771   0.702
 5387SOL    HW117060   4.454   4.837   0.772
 5387SOL    HW217061   4.510   4.741   0.652
 5388SOL     OW17062   5.846   6.156   3.372
 5388SOL    HW117063   5.846   6.246   3.416
 5388SOL    HW217064   5.897   6.091   3.428
 5389SOL     OW17065   5.919   3.429   1.513
 5389SOL    HW117066   5.885   3.340   1.484
 5389SOL    HW217067   5.961   3.421   1.603
 5390SOL     OW17068   6.526   4.995   6.784
 5390SOL    HW117069   6.582   5.078   6.786
 5390SOL    HW217070   6.559   4.931   6.853
 5391SOL     OW17071   3.309   4.584   0.316
 5391SOL    HW117072   3.254   4.547   0.241
 5391SOL    HW217073   3.404   4.555   0.304
 5392SOL     OW17074   0.645   2.885   3.421
 5392SOL    HW117075   0.698   2.868   3.504
 5392SOL    HW217076   0.601   2.800   3.392
 5393SOL     OW17077   6.579   7.016   6.405
 5393SOL    HW117078   6.492   7.010   6.453
 5393SOL    HW217079   6.650   0.022   6.467
 5394SOL     OW17080   2.177   3.732   6.300
 5394SOL    HW117081   2.244   3.806   6.294
 5394SOL    HW217082   2.201   3.660   6.236
 5395SOL     OW17083   4.921   0.500   1.356
 5395SOL    HW117084   4.888   0.490   1.450
 5395SOL    HW217085   4.863   0.565   1.308
 5396SOL     OW17086   4.572   2.051   0.955
 5396SOL    HW117087   4.558   1.984   0.882
 5396SOL    HW217088   4.546   2.011   1.043
 5397SOL     OW17089   1.076   2.094   1.614
 5397SOL    HW117090   1.112   2.002   1.600
 5397SOL    HW217091   0.976   2.091   1.619
 5398SOL     OW17092   2.970   3.795   2.349
 5398SOL    HW117093   2.901   3.730   2.320
 5398SOL    HW217094   2.948   3.830   2.440
 5399SOL     OW17095   0.262   5.146   0.211
 5399SOL    HW117096   0.359   5.172   0.212
 5399SOL    HW217097   0.251   5.063   0.156
 5400SOL     OW17098   2.472   3.962   6.638
 5400SOL    HW117099   2.473   3.869   6.604
 5400SOL    HW217100   2.549   3.975   6.701
 5401SOL     OW17101   6.240   1.701   0.845
 5401SOL    HW117102   6.270   1.716   0.751
 5401SOL    HW217103   6.306   1.642   0.892
 5402SOL     OW17104   0.955   5.913   1.992
 5402SOL    HW117105   0.983   5.854   1.916
 5402SOL    HW217106   0.858   5.896   2.013
 5403SOL     OW17107   6.783   2.401   6.199
 5403SOL    HW117108   6.706   2.441   6.247
 5403SOL    HW217109   6.852   2.472   6.181
 5404SOL     OW17110   0.633   2.410   3.011
 5404SOL    HW117111   0.693   2.478   3.054
 5404SOL    HW217112   0.576   2.454   2.942
 5405SOL     OW17113   6.116   4.258   4.962
 5405SOL    HW117114   6.153   4.350   4.975
 5405SOL    HW217115   6.026   4.252   5.005
 5406SOL     OW17116   1.851   0.177   2.800
 5406SOL    HW117117   1.896   0.228   2.727
 5406SOL    HW217118   1.908   0.097   2.824
 5407SOL     OW17119   3.969   3.013   6.243
 5407SOL    HW117120   4.035   3.041   6.313
 5407SOL    HW217121   3.944   2.917   6.257
 5408SOL     OW17122   4.170   0.787   6.810
 5408SOL    HW117123   4.246   0.723   6.822
 5408SOL    HW217124   4.099   0.766   6.877
 5409SOL     OW17125   4.526   0.601   1.648
 5409SOL    HW117126   4.470   0.684   1.647
 5409SOL    HW217127   4.559   0.583   1.740
 5410SOL     OW17128   1.661   2.953   2.981
 5410SOL    HW117129   1.756   2.982   2.983
 5410SOL    HW217130   1.655   2.856   3.003
 5411SOL     OW17131   2.740   4.764   4.790
 5411SOL    HW117132   2.676   4.832   4.826
 5411SOL    HW217133   2.787   4.719   4.865
 5412SOL     OW17134   6.412   1.769   2.456
 5412SOL    HW117135   6.478   1.726   2.395
 5412SOL    HW217136   6.368   1.699   2.513
 5413SOL     OW17137   1.335   6.771   2.105
 5413SOL    HW117138   1.262   6.709   2.075
 5413SOL    HW217139   1.333   6.780   2.204
 5414SOL     OW17140   4.216   0.343   6.095
 5414SOL    HW117141   4.247   0.249   6.080
 5414SOL    HW217142   4.190   0.355   6.190
 5415SOL     OW17143   6.440   3.411   2.843
 5415SOL    HW117144   6.422   3.507   2.866
 5415SOL    HW217145   6.359   3.371   2.801
 5416SOL     OW17146   4.244   5.019   4.528
 5416SOL    HW117147   4.156   5.013   4.576
 5416SOL    HW217148   4.291   5.103   4.556
 5417SOL     OW17149   2.982   6.557   5.617
 5417SOL    HW117150   2.981   6.647   5.574
 5417SOL    HW217151   3.031   6.562   5.704
 5418SOL     OW17152   3.565   1.507   3.583
 5418SOL    HW117153   3.656   1.478   3.611
 5418SOL    HW217154   3.561   1.512   3.483
 5419SOL     OW17155   3.172   4.460   0.102
 5419SOL    HW117156   3.073   4.449   0.104
 5419SOL    HW217157   3.215   4.373   0.080
 5420SOL     OW17158   1.232   2.255   2.703
 5420SOL    HW117159   1.271   2.180   2.649
 5420SOL    HW217160   1.278   2.259   2.791
 5421SOL     OW17161   2.457   2.852   0.671
 5421SOL    HW117162   2.514   2.855   0.753
 5421SOL    HW217163   2.513   2.866   0.590
 5422SOL     OW17164   0.589   3.217   0.507
 5422SOL    HW117165   0.497   3.180   0.506
 5422SOL    HW217166   0.621   3.228   0.413
 5423SOL     OW17167   3.810   3.166   6.088
 5423SOL    HW117168   3.740   3.224   6.128
 5423SOL    HW217169   3.864   3.124   6.160
 5424SOL     OW17170   5.692   3.310   5.387
 5424SOL    HW117171   5.644   3.276   5.468
 5424SOL    HW217172   5.633   3.301   5.307
 5425SOL     OW17173   5.194   1.788   4.758
 5425SOL    HW117174   5.200   1.726   4.837
 5425SOL    HW217175   5.119   1.758   4.698
 5426SOL     OW17176   0.460   0.008   4.817
 5426SOL    HW117177   0.415   0.047   4.737
 5426SOL    HW217178   0.556   7.014   4.797
 5427SOL     OW17179   3.708   6.793   0.417
 5427SOL    HW117180   3.748   6.715   0.368
 5427SOL    HW217181   3.776   6.831   0.481
 5428SOL     OW17182   1.807   0.649   0.164
 5428SOL    HW117183   1.886   0.632   0.223
 5428SOL    HW217184   1.740   0.704   0.214
 5429SOL     OW17185   1.325   2.284   5.969
 5429SOL    HW117186   1.226   2.295   5.956
 5429SOL    HW217187   1.371   2.297   5.881
 5430SOL     OW17188   2.139   2.692   5.284
 5430SOL    HW117189   2.129   2.596   5.258
 5430SOL    HW217190   2.218   2.731   5.236
 5431SOL     OW17191   3.355   5.624   4.169
 5431SOL    HW117192   3.265   5.584   4.185
 5431SOL    HW217193   3.412   5.609   4.250
 5432SOL     OW17194   6.150   4.353   1.189
 5432SOL    HW117195   6.187   4.261   1.195
 5432SOL    HW217196   6.140   4.380   1.093
 5433SOL     OW17197   1.416   1.551   3.427
 5433SOL    HW117198   1.345   1.566   3.359
 5433SOL    HW217199   1.392   1.599   3.511
 5434SOL     OW17200   2.075   6.143   5.942
 5434SOL    HW117201   2.088   6.058   5.890
 5434SOL    HW217202   1.985   6.181   5.922
 5435SOL     OW17203   4.971   1.630   2.317
 5435SOL    HW117204   4.923   1.708   2.356
 5435SOL    HW217205   4.988   1.562   2.389
 5436SOL     OW17206   5.233   4.054   3.117
 5436SOL    HW117207   5.265   4.148   3.128
 5436SOL    HW217208   5.134   4.051   3.134
 5437SOL     OW17209   3.669   4.878   6.249
 5437SOL    HW117210   3.731   4.899   6.174
 5437SOL    HW217211   3.644   4.962   6.298
 5438SOL     OW17212   6.561   1.104   0.533
 5438SOL    HW117213   6.611   1.034   0.483
 5438SOL    HW217214   6.494   1.061   0.594
 5439SOL     OW17215   1.685   2.324   0.475
 5439SOL    HW117216   1.664   2.236   0.517
 5439SOL    HW217217   1.601   2.377   0.465
 5440SOL     OW17218   2.352   0.574   0.955
 5440SOL    HW117219   2.401   0.660   0.941
 5440SOL    HW217220   2.400   0.519   1.024
 5441SOL     OW17221   3.857   1.850   5.113
 5441SOL    HW117222   3.953   1.871   5.093
 5441SOL    HW217223   3.833   1.885   5.203
 5442SOL     OW17224   3.851   1.196   1.660
 5442SOL    HW117225   3.841   1.226   1.565
 5442SOL    HW217226   3.829   1.272   1.721
 5443SOL     OW17227   0.869   6.451   5.514
 5443SOL    HW117228   0.880   6.522   5.584
 5443SOL    HW217229   0.873   6.493   5.423
 5444SOL     OW17230   0.413   0.309   3.697
 5444SOL    HW117231   0.476   0.386   3.685
 5444SOL    HW217232   0.319   0.342   3.694
 5445SOL     OW17233   6.073   3.575   2.145
 5445SOL    HW117234   6.050   3.478   2.157
 5445SOL    HW217235   6.124   3.607   2.225
 5446SOL     OW17236   6.494   6.554   5.772
 5446SOL    HW117237   6.415   6.615   5.767
 5446SOL    HW217238   6.469   6.463   5.737
 5447SOL     OW17239   3.326   2.622   0.996
 5447SOL    HW117240   3.369   2.707   1.027
 5447SOL    HW217241   3.274   2.582   1.072
 5448SOL     OW17242   5.265   1.851   6.596
 5448SOL    HW117243   5.268   1.851   6.696
 5448SOL    HW217244   5.260   1.945   6.563
 5449SOL     OW17245   6.950   2.677   6.938
 5449SOL    HW117246   7.006   2.746   6.984
 5449SOL    HW217247   7.009   2.606   6.900
 5450SOL     OW17248   2.354   6.253   0.893
 5450SOL    HW117249   2.341   6.346   0.859
 5450SOL    HW217250   2.277   6.228   0.952
 5451SOL     OW17251   2.701   0.249   2.366
 5451SOL    HW117252   2.653   0.303   2.296
 5451SOL    HW217253   2.675   0.281   2.457
 5452SOL     OW17254   2.764   4.112   5.962
 5452SOL    HW117255   2.792   4.155   6.048
 5452SOL    HW217256   2.676   4.067   5.973
 5453SOL     OW17257   0.325   5.432   5.682
 5453SOL    HW117258   0.332   5.470   5.590
 5453SOL    HW217259   0.244   5.469   5.727
 5454SOL     OW17260   0.701   3.857   5.896
 5454SOL    HW117261   0.759   3.782   5.928
 5454SOL    HW217262   0.758   3.933   5.866
 5455SOL     OW17263   6.071   2.119   1.028
 5455SOL    HW117264   6.071   2.069   0.942
 5455SOL    HW217265   6.083   2.217   1.010
 5456SOL     OW17266   3.808   0.118   1.271
 5456SOL    HW117267   3.869   0.038   1.272
 5456SOL    HW217268   3.713   0.087   1.266
 5457SOL     OW17269   6.427   3.302   1.163
 5457SOL    HW117270   6.410   3.245   1.244
 5457SOL    HW217271   6.415   3.398   1.188
 5458SOL     OW17272   1.621   4.030   6.154
 5458SOL    HW117273   1.526   4.014   6.127
 5458SOL    HW217274   1.675   4.052   6.073
 5459SOL     OW17275   2.011   4.062   6.097
 5459SOL    HW117276   2.037   3.976   6.053
 5459SOL    HW217277   1.918   4.087   6.068
 5460SOL     OW17278   4.012   0.208   4.489
 5460SOL    HW117279   4.042   0.303   4.489
 5460SOL    HW217280   4.029   0.167   4.399
 5461SOL     OW17281   3.900   6.655   4.635
 5461SOL    HW117282   3.859   6.588   4.573
 5461SOL    HW217283   3.991   6.624   4.662
 5462SOL     OW17284   0.019   1.048   2.178
 5462SOL    HW117285   0.063   0.973   2.130
 5462SOL    HW217286   6.983   1.098   2.115
 5463SOL     OW17287   6.800   3.132   0.955
 5463SOL    HW117288   6.807   3.075   0.874
 5463SOL    HW217289   6.707   3.167   0.963
 5464SOL     OW17290   1.766   6.359   4.463
 5464SOL    HW117291   1.742   6.395   4.373
 5464SOL    HW217292   1.782   6.261   4.456
 5465SOL     OW17293   2.577   5.862   6.812
 5465SOL    HW117294   2.547   5.851   6.717
 5465SOL    HW217295   2.522   5.934   6.856
 5466SOL     OW17296   4.918   6.397   3.993
 5466SOL    HW117297   4.941   6.433   4.083
 5466SOL    HW217298   4.873   6.308   4.003
 5467SOL     OW17299   6.476   1.467   1.647
 5467SOL    HW117300   6.437   1.412   1.720
 5467SOL    HW217301   6.535   1.409   1.590
 5468SOL     OW17302   4.766   1.380   6.542
 5468SOL    HW117303   4.828   1.360   6.618
 5468SOL    HW217304   4.765   1.303   6.478
 5469SOL     OW17305   4.658   4.609   1.162
 5469SOL    HW117306   4.635   4.694   1.210
 5469SOL    HW217307   4.739   4.568   1.203
 5470SOL     OW17308   0.274   4.781   3.688
 5470SOL    HW117309   0.254   4.782   3.786
 5470SOL    HW217310   0.188   4.789   3.636
 5471SOL     OW17311   6.656   3.546   2.327
 5471SOL    HW117312   6.656   3.499   2.415
 5471SOL    HW217313   6.748   3.579   2.306
 5472SOL     OW17314   3.760   5.365   5.401
 5472SOL    HW117315   3.741   5.421   5.320
 5472SOL    HW217316   3.829   5.411   5.457
 5473SOL     OW17317   2.297   4.324   4.079
 5473SOL    HW117318   2.262   4.261   4.149
 5473SOL    HW217319   2.394   4.342   4.096
 5474SOL     OW17320   0.923   6.250   2.958
 5474SOL    HW117321   0.848   6.315   2.969
 5474SOL    HW217322   1.009   6.296   2.980
 5475SOL     OW17323   3.257   1.966   1.715
 5475SOL    HW117324   3.351   1.994   1.698
 5475SOL    HW217325   3.204   2.044   1.748
 5476SOL     OW17326   2.240   3.238   6.786
 5476SOL    HW117327   2.156   3.186   6.774
 5476SOL    HW217328   2.266   3.281   6.700
 5477SOL     OW17329   2.116   2.462   2.356
 5477SOL    HW117330   2.092   2.485   2.451
 5477SOL    HW217331   2.183   2.388   2.356
 5478SOL     OW17332   0.347   5.578   5.092
 5478SOL    HW117333   0.344   5.502   5.156
 5478SOL    HW217334   0.352   5.664   5.142
 5479SOL     OW17335   4.275   6.928   5.223
 5479SOL    HW117336   4.200   6.985   5.189
 5479SOL    HW217337   4.353   6.985   5.247
 5480SOL     OW17338   0.115   2.079   5.970
 5480SOL    HW117339   0.213   2.064   5.975
 5480SOL    HW217340   0.083   2.063   5.876
 5481SOL     OW17341   4.467   6.713   3.012
 5481SOL    HW117342   4.435   6.755   2.927
 5481SOL    HW217343   4.392   6.711   3.078
 5482SOL     OW17344   1.493   5.945   2.156
 5482SOL    HW117345   1.468   5.849   2.172
 5482SOL    HW217346   1.467   5.971   2.063
 5483SOL     OW17347   0.927   2.593   6.562
 5483SOL    HW117348   0.924   2.631   6.654
 5483SOL    HW217349   0.843   2.617   6.513
 5484SOL     OW17350   4.915   0.192   5.339
 5484SOL    HW117351   4.844   0.132   5.373
 5484SOL    HW217352   4.931   0.174   5.242
 5485SOL     OW17353   3.434   0.731   4.667
 5485SOL    HW117354   3.388   0.648   4.698
 5485SOL    HW217355   3.390   0.765   4.584
 5486SOL     OW17356   2.630   5.949   4.232
 5486SOL    HW117357   2.613   5.975   4.327
 5486SOL    HW217358   2.596   5.856   4.217
 5487SOL     OW17359   3.879   5.907   5.189
 5487SOL    HW117360   3.878   5.875   5.094
 5487SOL    HW217361   3.862   5.829   5.250
 5488SOL     OW17362   4.613   2.074   6.340
 5488SOL    HW117363   4.527   2.109   6.376
 5488SOL    HW217364   4.667   2.034   6.415
 5489SOL     OW17365   6.696   2.482   3.982
 5489SOL    HW117366   6.603   2.454   3.958
 5489SOL    HW217367   6.750   2.493   3.898
 5490SOL     OW17368   0.852   5.148   1.841
 5490SOL    HW117369   0.945   5.117   1.864
 5490SOL    HW217370   0.785   5.085   1.881
 5491SOL     OW17371   6.895   3.916   0.903
 5491SOL    HW117372   6.827   3.843   0.906
 5491SOL    HW217373   6.870   3.988   0.967
 5492SOL     OW17374   0.959   1.900   0.000
 5492SOL    HW117375   1.022   1.894   0.078
 5492SOL    HW217376   1.009   1.880   6.939
 5493SOL     OW17377   4.274   3.772   6.037
 5493SOL    HW117378   4.286   3.702   6.108
 5493SOL    HW217379   4.339   3.756   5.963
 5494SOL     OW17380   5.839   1.991   4.831
 5494SOL    HW117381   5.882   1.993   4.921
 5494SOL    HW217382   5.856   2.078   4.784
 5495SOL     OW17383   5.974   1.032   0.204
 5495SOL    HW117384   5.899   0.973   0.234
 5495SOL    HW217385   6.054   1.014   0.261
 5496SOL     OW17386   4.089   6.530   6.120
 5496SOL    HW117387   4.048   6.466   6.185
 5496SOL    HW217388   4.017   6.588   6.081
 5497SOL     OW17389   0.835   0.407   6.127
 5497SOL    HW117390   0.869   0.383   6.218
 5497SOL    HW217391   0.876   0.493   6.097
 5498SOL     OW17392   6.978   5.982   2.008
 5498SOL    HW117393   0.013   5.920   2.060
 5498SOL    HW217394   0.003   6.017   1.929
 5499SOL     OW17395   2.171   6.958   3.281
 5499SOL    HW117396   2.190   6.921   3.372
 5499SOL    HW217397   2.136   0.028   3.290
 5500SOL     OW17398   0.803   6.203   1.366
 5500SOL    HW117399   0.750   6.285   1.343
 5500SOL    HW217400   0.891   6.230   1.406
 5501SOL     OW17401   4.872   3.385   0.815
 5501SOL    HW117402   4.831   3.316   0.756
 5501SOL    HW217403   4.943   3.435   0.764
 5502SOL     OW17404   4.521   3.561   0.294
 5502SOL    HW117405   4.612   3.601   0.304
 5502SOL    HW217406   4.529   3.473   0.247
 5503SOL     OW17407   5.660   2.936   1.360
 5503SOL    HW117408   5.616   2.966   1.445
 5503SOL    HW217409   5.604   2.964   1.282
 5504SOL     OW17410   3.286   2.478   6.893
 5504SOL    HW117411   3.279   2.395   6.838
 5504SOL    HW217412   3.196   2.505   6.925
 5505SOL     OW17413   2.623   5.382   2.595
 5505SOL    HW117414   2.624   5.283   2.583
 5505SOL    HW217415   2.659   5.406   2.685
 5506SOL     OW17416   6.580   2.939   6.807
 5506SOL    HW117417   6.642   2.860   6.805
 5506SOL    HW217418   6.486   2.908   6.803
 5507SOL     OW17419   4.113   6.074   6.694
 5507SOL    HW117420   4.082   5.982   6.717
 5507SOL    HW217421   4.045   6.141   6.722
 5508SOL     OW17422   6.677   2.501   6.464
 5508SOL    HW117423   6.748   2.452   6.515
 5508SOL    HW217424   6.713   2.586   6.428
 5509SOL     OW17425   6.041   4.287   0.293
 5509SOL    HW117426   5.965   4.351   0.302
 5509SOL    HW217427   6.017   4.201   0.337
 5510SOL     OW17428   5.288   6.349   6.791
 5510SOL    HW117429   5.385   6.367   6.774
 5510SOL    HW217430   5.244   6.318   6.707
 5511SOL     OW17431   0.950   2.820   6.008
 5511SOL    HW117432   1.021   2.891   6.008
 5511SOL    HW217433   0.861   2.863   5.992
 5512SOL     OW17434   3.256   0.173   2.152
 5512SOL    HW117435   3.292   0.080   2.139
 5512SOL    HW217436   3.289   0.209   2.239
 5513SOL     OW17437   3.971   4.832   6.461
 5513SOL    HW117438   4.036   4.871   6.527
 5513SOL    HW217439   3.878   4.843   6.496
 5514SOL     OW17440   3.781   1.747   7.023
 5514SOL    HW117441   3.867   1.702   0.022
 5514SOL    HW217442   3.785   1.782   6.929
 5515SOL     OW17443   3.452   4.938   2.517
 5515SOL    HW117444   3.409   4.962   2.430
 5515SOL    HW217445   3.540   4.895   2.501
 5516SOL     OW17446   1.144   3.010   5.524
 5516SOL    HW117447   1.105   2.923   5.554
 5516SOL    HW217448   1.073   3.065   5.481
 5517SOL     OW17449   1.383   2.205   4.608
 5517SOL    HW117450   1.395   2.106   4.608
 5517SOL    HW217451   1.451   2.247   4.547
 5518SOL     OW17452   4.009   3.962   5.737
 5518SOL    HW117453   3.918   3.997   5.714
 5518SOL    HW217454   4.078   4.032   5.717
 5519SOL     OW17455   5.371   2.865   5.680
 5519SOL    HW117456   5.340   2.930   5.749
 5519SOL    HW217457   5.413   2.786   5.725
 5520SOL     OW17458   4.689   5.596   1.556
 5520SOL    HW117459   4.658   5.675   1.503
 5520SOL    HW217460   4.776   5.564   1.520
 5521SOL     OW17461   4.869   6.998   2.035
 5521SOL    HW117462   4.951   6.954   2.072
 5521SOL    HW217463   4.893   0.024   1.952
 5522SOL     OW17464   5.038   6.079   6.784
 5522SOL    HW117465   4.993   5.990   6.793
 5522SOL    HW217466   5.070   6.110   6.874
 5523SOL     OW17467   5.501   1.655   0.333
 5523SOL    HW117468   5.529   1.593   0.406
 5523SOL    HW217469   5.544   1.626   0.247
 5524SOL     OW17470   2.115   1.890   2.433
 5524SOL    HW117471   2.127   1.932   2.343
 5524SOL    HW217472   2.155   1.950   2.503
 5525SOL     OW17473   6.454   1.269   0.855
 5525SOL    HW117474   6.541   1.304   0.819
 5525SOL    HW217475   6.469   1.178   0.893
 5526SOL     OW17476   4.844   4.002   3.978
 5526SOL    HW117477   4.835   3.912   4.020
 5526SOL    HW217478   4.897   3.995   3.894
 5527SOL     OW17479   6.572   0.380   2.800
 5527SOL    HW117480   6.479   0.402   2.831
 5527SOL    HW217481   6.576   0.386   2.700
 5528SOL     OW17482   2.113   1.347   0.367
 5528SOL    HW117483   2.149   1.435   0.336
 5528SOL    HW217484   2.014   1.353   0.376
 5529SOL     OW17485   3.574   0.581   1.987
 5529SOL    HW117486   3.515   0.510   2.027
 5529SOL    HW217487   3.545   0.670   2.021
 5530SOL     OW17488   1.102   1.847   1.278
 5530SOL    HW117489   1.026   1.901   1.315
 5530SOL    HW217490   1.081   1.750   1.287
 5531SOL     OW17491   1.067   4.305   6.993
 5531SOL    HW117492   1.014   4.361   0.032
 5531SOL    HW217493   1.040   4.209   7.004
 5532SOL     OW17494   0.352   4.704   5.827
 5532SOL    HW117495   0.265   4.703   5.777
 5532SOL    HW217496   0.344   4.648   5.909
 5533SOL     OW17497   3.408   1.170   3.650
 5533SOL    HW117498   3.451   1.258   3.631
 5533SOL    HW217499   3.445   1.133   3.735
 5534SOL     OW17500   1.393   0.340   4.445
 5534SOL    HW117501   1.419   0.351   4.541
 5534SOL    HW217502   1.305   0.292   4.439
 5535SOL     OW17503   0.821   1.638   2.553
 5535SOL    HW117504   0.919   1.644   2.532
 5535SOL    HW217505   0.808   1.646   2.651
 5536SOL     OW17506   4.628   0.620   4.917
 5536SOL    HW117507   4.617   0.588   5.011
 5536SOL    HW217508   4.692   0.697   4.915
 5537SOL     OW17509   2.690   2.298   2.654
 5537SOL    HW117510   2.686   2.293   2.754
 5537SOL    HW217511   2.768   2.245   2.621
 5538SOL     OW17512   3.419   5.750   3.724
 5538SOL    HW117513   3.452   5.827   3.668
 5538SOL    HW217514   3.497   5.697   3.756
 5539SOL     OW17515   2.559   3.883   0.327
 5539SOL    HW117516   2.611   3.944   0.387
 5539SOL    HW217517   2.517   3.937   0.254
 5540SOL     OW17518   3.835   5.498   1.403
 5540SOL    HW117519   3.788   5.470   1.487
 5540SOL    HW217520   3.792   5.452   1.325
 5541SOL     OW17521   4.483   0.735   6.765
 5541SOL    HW117522   4.503   0.812   6.826
 5541SOL    HW217523   4.430   0.768   6.687
 5542SOL     OW17524   5.261   3.605   6.759
 5542SOL    HW117525   5.271   3.703   6.740
 5542SOL    HW217526   5.164   3.585   6.775
 5543SOL     OW17527   0.799   2.803   4.861
 5543SOL    HW117528   0.888   2.757   4.864
 5543SOL    HW217529   0.806   2.891   4.907
 5544SOL     OW17530   5.271   6.918   0.239
 5544SOL    HW117531   5.190   6.871   0.207
 5544SOL    HW217532   5.339   6.852   0.271
 5545SOL     OW17533   2.594   2.375   2.022
 5545SOL    HW117534   2.560   2.419   1.939
 5545SOL    HW217535   2.694   2.387   2.027
 5546SOL     OW17536   3.086   5.951   4.536
 5546SOL    HW117537   3.160   5.989   4.479
 5546SOL    HW217538   3.126   5.892   4.607
 5547SOL     OW17539   2.938   5.137   3.748
 5547SOL    HW117540   2.925   5.151   3.846
 5547SOL    HW217541   2.955   5.040   3.730
 5548SOL     OW17542   6.619   1.481   4.313
 5548SOL    HW117543   6.553   1.556   4.315
 5548SOL    HW217544   6.653   1.463   4.405
 5549SOL     OW17545   3.706   5.105   5.447
 5549SOL    HW117546   3.611   5.087   5.420
 5549SOL    HW217547   3.727   5.201   5.431
 5550SOL     OW17548   3.041   6.238   2.327
 5550SOL    HW117549   3.062   6.208   2.420
 5550SOL    HW217550   3.036   6.159   2.267
 5551SOL     OW17551   0.631   1.247   2.544
 5551SOL    HW117552   0.603   1.319   2.480
 5551SOL    HW217553   0.590   1.264   2.633
 5552SOL     OW17554   2.435   2.522   1.849
 5552SOL    HW117555   2.499   2.592   1.817
 5552SOL    HW217556   2.388   2.555   1.931
 5553SOL     OW17557   4.590   6.708   6.192
 5553SOL    HW117558   4.497   6.736   6.214
 5553SOL    HW217559   4.593   6.675   6.097
 5554SOL     OW17560   3.161   0.355   5.936
 5554SOL    HW117561   3.247   0.362   5.885
 5554SOL    HW217562   3.173   0.390   6.029
 5555SOL     OW17563   1.416   5.875   1.548
 5555SOL    HW117564   1.392   5.836   1.459
 5555SOL    HW217565   1.502   5.835   1.580
 5556SOL     OW17566   0.055   1.158   5.133
 5556SOL    HW117567   6.981   1.159   5.116
 5556SOL    HW217568   0.081   1.243   5.180
 5557SOL     OW17569   3.558   0.844   2.736
 5557SOL    HW117570   3.481   0.895   2.776
 5557SOL    HW217571   3.523   0.765   2.686
 5558SOL     OW17572   5.589   2.687   6.731
 5558SOL    HW117573   5.648   2.632   6.790
 5558SOL    HW217574   5.506   2.636   6.709
 5559SOL     OW17575   3.563   1.100   1.157
 5559SOL    HW117576   3.484   1.121   1.101
 5559SOL    HW217577   3.556   1.006   1.192
 5560SOL     OW17578   0.276   2.392   4.593
 5560SOL    HW117579   0.321   2.476   4.562
 5560SOL    HW217580   0.232   2.349   4.515
 5561SOL     OW17581   1.382   4.871   2.554
 5561SOL    HW117582   1.400   4.782   2.594
 5561SOL    HW217583   1.468   4.911   2.522
 5562SOL     OW17584   4.616   2.630   0.581
 5562SOL    HW117585   4.663   2.578   0.653
 5562SOL    HW217586   4.536   2.578   0.550
 5563SOL     OW17587   3.882   4.427   1.111
 5563SOL    HW117588   3.945   4.354   1.137
 5563SOL    HW217589   3.827   4.454   1.191
 5564SOL     OW17590   6.199   0.837   2.572
 5564SOL    HW117591   6.275   0.786   2.613
 5564SOL    HW217592   6.112   0.799   2.602
 5565SOL     OW17593   1.855   2.897   5.743
 5565SOL    HW117594   1.811   2.812   5.772
 5565SOL    HW217595   1.949   2.878   5.715
 5566SOL     OW17596   2.254   4.222   0.820
 5566SOL    HW117597   2.335   4.267   0.783
 5566SOL    HW217598   2.260   4.123   0.805
 5567SOL     OW17599   1.123   5.764   3.198
 5567SOL    HW117600   1.058   5.726   3.133
 5567SOL    HW217601   1.131   5.863   3.183
 5568SOL     OW17602   4.374   2.715   6.712
 5568SOL    HW117603   4.277   2.696   6.699
 5568SOL    HW217604   4.385   2.804   6.757
 5569SOL     OW17605   4.374   1.256   6.082
 5569SOL    HW117606   4.300   1.289   6.023
 5569SOL    HW217607   4.435   1.332   6.105
 5570SOL     OW17608   1.634   1.724   5.530
 5570SOL    HW117609   1.590   1.640   5.497
 5570SOL    HW217610   1.695   1.760   5.459
 5571SOL     OW17611   0.442   4.557   6.771
 5571SOL    HW117612   0.449   4.462   6.741
 5571SOL    HW217613   0.530   4.585   6.811
 5572SOL     OW17614   1.151   3.764   5.160
 5572SOL    HW117615   1.182   3.673   5.132
 5572SOL    HW217616   1.170   3.777   5.258
 5573SOL     OW17617   6.922   3.695   6.709
 5573SOL    HW117618   6.866   3.647   6.776
 5573SOL    HW217619   6.864   3.735   6.639
 5574SOL     OW17620   2.255   6.278   4.747
 5574SOL    HW117621   2.164   6.260   4.784
 5574SOL    HW217622   2.319   6.295   4.822
 5575SOL     OW17623   0.968   1.404   2.783
 5575SOL    HW117624   0.940   1.383   2.689
 5575SOL    HW217625   1.067   1.419   2.786
 5576SOL     OW17626   5.030   6.852   6.649
 5576SOL    HW117627   4.957   6.902   6.696
 5576SOL    HW217628   5.119   6.880   6.686
 5577SOL     OW17629   1.501   4.971   5.185
 5577SOL    HW117630   1.580   4.995   5.129
 5577SOL    HW217631   1.466   4.881   5.157
 5578SOL     OW17632   4.224   1.903   6.296
 5578SOL    HW117633   4.226   1.978   6.229
 5578SOL    HW217634   4.130   1.868   6.302
 5579SOL     OW17635   4.779   4.798   2.097
 5579SOL    HW117636   4.852   4.806   2.029
 5579SOL    HW217637   4.789   4.711   2.146
 5580SOL     OW17638   6.427   1.314   2.417
 5580SOL    HW117639   6.377   1.227   2.414
 5580SOL    HW217640   6.423   1.352   2.509
 5581SOL     OW17641   3.574   3.093   0.576
 5581SOL    HW117642   3.527   3.070   0.491
 5581SOL    HW217643   3.628   3.176   0.563
 5582SOL     OW17644   2.902   4.019   5.460
 5582SOL    HW117645   2.896   4.118   5.454
 5582SOL    HW217646   2.833   3.977   5.401
 5583SOL     OW17647   4.244   1.045   6.398
 5583SOL    HW117648   4.328   1.040   6.344
 5583SOL    HW217649   4.177   1.103   6.351
 5584SOL     OW17650   4.993   3.652   4.571
 5584SOL    HW117651   4.952   3.593   4.641
 5584SOL    HW217652   5.022   3.597   4.493
 5585SOL     OW17653   0.182   0.803   3.622
 5585SOL    HW117654   0.141   0.893   3.610
 5585SOL    HW217655   0.148   0.741   3.552
 5586SOL     OW17656   1.611   0.930   0.256
 5586SOL    HW117657   1.705   0.949   0.284
 5586SOL    HW217658   1.550   0.938   0.335
 5587SOL     OW17659   3.916   0.094   3.350
 5587SOL    HW117660   3.874   0.035   3.280
 5587SOL    HW217661   4.014   0.073   3.356
 5588SOL     OW17662   4.503   5.782   0.253
 5588SOL    HW117663   4.432   5.768   0.322
 5588SOL    HW217664   4.494   5.713   0.181
 5589SOL     OW17665   1.251   2.587   6.503
 5589SOL    HW117666   1.338   2.585   6.452
 5589SOL    HW217667   1.190   2.654   6.460
 5590SOL     OW17668   5.873   0.375   3.700
 5590SOL    HW117669   5.849   0.437   3.625
 5590SOL    HW217670   5.946   0.415   3.755
 5591SOL     OW17671   5.168   1.385   6.159
 5591SOL    HW117672   5.234   1.381   6.234
 5591SOL    HW217673   5.129   1.477   6.154
 5592SOL     OW17674   0.910   3.192   2.586
 5592SOL    HW117675   0.942   3.234   2.501
 5592SOL    HW217676   0.861   3.259   2.641
 5593SOL     OW17677   2.597   3.410   5.387
 5593SOL    HW117678   2.635   3.323   5.419
 5593SOL    HW217679   2.529   3.392   5.316
 5594SOL     OW17680   2.880   1.210   5.962
 5594SOL    HW117681   2.971   1.251   5.976
 5594SOL    HW217682   2.832   1.262   5.891
 5595SOL     OW17683   6.720   3.568   1.140
 5595SOL    HW117684   6.632   3.550   1.185
 5595SOL    HW217685   6.724   3.519   1.053
 5596SOL     OW17686   5.207   3.791   3.912
 5596SOL    HW117687   5.273   3.842   3.856
 5596SOL    HW217688   5.114   3.818   3.887
 5597SOL     OW17689   0.528   2.145   6.631
 5597SOL    HW117690   0.558   2.141   6.726
 5597SOL    HW217691   0.458   2.075   6.615
 5598SOL     OW17692   6.677   0.222   2.993
 5598SOL    HW117693   6.747   0.156   2.965
 5598SOL    HW217694   6.645   0.273   2.913
 5599SOL     OW17695   4.894   3.172   2.388
 5599SOL    HW117696   4.846   3.093   2.347
 5599SOL    HW217697   4.919   3.150   2.482
 5600SOL     OW17698   2.113   3.291   2.171
 5600SOL    HW117699   2.182   3.219   2.159
 5600SOL    HW217700   2.119   3.356   2.096
 5601SOL     OW17701   5.383   2.534   6.656
 5601SOL    HW117702   5.371   2.561   6.560
 5601SOL    HW217703   5.302   2.561   6.708
 5602SOL     OW17704   5.457   1.078   2.993
 5602SOL    HW117705   5.368   1.109   2.958
 5602SOL    HW217706   5.519   1.063   2.916
 5603SOL     OW17707   3.533   1.640   6.443
 5603SOL    HW117708   3.526   1.678   6.350
 5603SOL    HW217709   3.559   1.544   6.437
 5604SOL     OW17710   1.896   4.008   4.208
 5604SOL    HW117711   1.974   4.039   4.154
 5604SOL    HW217712   1.814   4.056   4.179
 5605SOL     OW17713   3.071   6.829   4.268
 5605SOL    HW117714   3.164   6.795   4.258
 5605SOL    HW217715   3.072   6.915   4.318
 5606SOL     OW17716   4.183   4.531   0.997
 5606SOL    HW117717   4.125   4.452   0.978
 5606SOL    HW217718   4.229   4.559   0.913
 5607SOL     OW17719   1.487   1.986   1.625
 5607SOL    HW117720   1.414   1.987   1.558
 5607SOL    HW217721   1.483   2.069   1.681
 5608SOL     OW17722   6.753   6.452   3.786
 5608SOL    HW117723   6.715   6.458   3.694
 5608SOL    HW217724   6.679   6.440   3.852
 5609SOL     OW17725   0.394   1.197   0.418
 5609SOL    HW117726   0.350   1.210   0.507
 5609SOL    HW217727   0.486   1.161   0.432
 5610SOL     OW17728   5.280   6.579   6.546
 5610SOL    HW117729   5.369   6.585   6.590
 5610SOL    HW217730   5.255   6.668   6.510
 5611SOL     OW17731   0.108   4.021   2.106
 5611SOL    HW117732   0.061   4.106   2.083
 5611SOL    HW217733   0.135   3.974   2.023
 5612SOL     OW17734   5.397   1.974   1.041
 5612SOL    HW117735   5.373   1.896   1.099
 5612SOL    HW217736   5.418   2.053   1.099
 5613SOL     OW17737   6.964   5.363   5.331
 5613SOL    HW117738   6.949   5.367   5.232
 5613SOL    HW217739   6.878   5.341   5.377
 5614SOL     OW17740   5.844   2.254   4.698
 5614SOL    HW117741   5.763   2.220   4.650
 5614SOL    HW217742   5.820   2.336   4.749
 5615SOL     OW17743   0.772   3.376   2.712
 5615SOL    HW117744   0.770   3.461   2.660
 5615SOL    HW217745   0.797   3.396   2.807
 5616SOL     OW17746   1.571   2.819   2.044
 5616SOL    HW117747   1.625   2.753   2.096
 5616SOL    HW217748   1.601   2.821   1.949
 5617SOL     OW17749   0.563   5.254   5.346
 5617SOL    HW117750   0.662   5.249   5.359
 5617SOL    HW217751   0.521   5.166   5.367
 5618SOL     OW17752   5.301   1.277   3.375
 5618SOL    HW117753   5.285   1.273   3.474
 5618SOL    HW217754   5.389   1.320   3.357
 5619SOL     OW17755   3.624   4.126   3.817
 5619SOL    HW117756   3.628   4.153   3.721
 5619SOL    HW217757   3.717   4.111   3.851
 5620SOL     OW17758   4.831   4.691   5.508
 5620SOL    HW117759   4.736   4.664   5.522
 5620SOL    HW217760   4.891   4.621   5.548
 5621SOL     OW17761   0.488   3.544   0.309
 5621SOL    HW117762   0.419   3.549   0.381
 5621SOL    HW217763   0.562   3.608   0.330
 5622SOL     OW17764   5.358   5.564   4.123
 5622SOL    HW117765   5.316   5.518   4.202
 5622SOL    HW217766   5.371   5.661   4.145
 5623SOL     OW17767   4.599   4.391   3.506
 5623SOL    HW117768   4.517   4.445   3.526
 5623SOL    HW217769   4.645   4.430   3.425
 5624SOL     OW17770   4.876   3.738   4.067
 5624SOL    HW117771   4.928   3.653   4.081
 5624SOL    HW217772   4.873   3.789   4.153
 5625SOL     OW17773   3.834   0.420   6.285
 5625SOL    HW117774   3.738   0.402   6.307
 5625SOL    HW217775   3.853   0.518   6.296
 5626SOL     OW17776   1.780   4.088   5.946
 5626SOL    HW117777   1.747   4.037   5.867
 5626SOL    HW217778   1.805   4.181   5.918
 5627SOL     OW17779   0.463   5.271   0.837
 5627SOL    HW117780   0.547   5.218   0.849
 5627SOL    HW217781   0.456   5.302   0.742
 5628SOL     OW17782   0.913   2.758   6.824
 5628SOL    HW117783   0.822   2.782   6.858
 5628SOL    HW217784   0.960   2.702   6.892
 5629SOL     OW17785   0.866   3.532   4.844
 5629SOL    HW117786   0.914   3.446   4.830
 5629SOL    HW217787   0.921   3.607   4.807
 5630SOL     OW17788   0.655   4.452   6.612
 5630SOL    HW117789   0.700   4.390   6.676
 5630SOL    HW217790   0.600   4.399   6.548
 5631SOL     OW17791   2.541   0.764   3.788
 5631SOL    HW117792   2.504   0.849   3.823
 5631SOL    HW217793   2.612   0.731   3.851
 5632SOL     OW17794   2.755   6.412   6.103
 5632SOL    HW117795   2.747   6.434   6.201
 5632SOL    HW217796   2.753   6.313   6.091
 5633SOL     OW17797   1.941   5.412   5.036
 5633SOL    HW117798   2.001   5.483   5.071
 5633SOL    HW217799   1.976   5.378   4.948
 5634SOL     OW17800   1.846   0.317   1.488
 5634SOL    HW117801   1.871   0.408   1.454
 5634SOL    HW217802   1.851   0.316   1.587
 5635SOL     OW17803   4.332   0.725   3.243
 5635SOL    HW117804   4.253   0.779   3.212
 5635SOL    HW217805   4.332   0.636   3.198
 5636SOL     OW17806   5.003   0.310   4.757
 5636SOL    HW117807   5.042   0.391   4.801
 5636SOL    HW217808   4.954   0.255   4.825
 5637SOL     OW17809   6.022   6.988   5.474
 5637SOL    HW117810   6.041   0.062   5.475
 5637SOL    HW217811   5.925   6.973   5.458
 5638SOL     OW17812   1.537   6.516   6.878
 5638SOL    HW117813   1.456   6.564   6.910
 5638SOL    HW217814   1.571   6.456   6.950
 5639SOL     OW17815   3.704   0.082   1.833
 5639SOL    HW117816   3.747   0.074   1.743
 5639SOL    HW217817   3.607   0.105   1.822
 5640SOL     OW17818   4.690   6.287   4.248
 5640SOL    HW117819   4.752   6.364   4.236
 5640SOL    HW217820   4.686   6.233   4.163
 5641SOL     OW17821   6.641   4.811   3.773
 5641SOL    HW117822   6.627   4.712   3.777
 5641SOL    HW217823   6.651   4.847   3.866
 5642SOL     OW17824   2.079   2.088   6.252
 5642SOL    HW117825   2.162   2.048   6.215
 5642SOL    HW217826   2.101   2.144   6.331
 5643SOL     OW17827   5.028   2.280   3.388
 5643SOL    HW117828   4.991   2.341   3.458
 5643SOL    HW217829   5.008   2.317   3.297
 5644SOL     OW17830   2.601   0.855   5.702
 5644SOL    HW117831   2.697   0.876   5.719
 5644SOL    HW217832   2.586   0.850   5.603
 5645SOL     OW17833   6.850   6.039   4.375
 5645SOL    HW117834   6.822   6.044   4.471
 5645SOL    HW217835   6.775   6.071   4.316
 5646SOL     OW17836   6.739   0.728   2.414
 5646SOL    HW117837   6.645   0.693   2.409
 5646SOL    HW217838   6.802   0.652   2.432
 5647SOL     OW17839   6.106   3.341   6.604
 5647SOL    HW117840   6.067   3.406   6.669
 5647SOL    HW217841   6.196   3.312   6.636
 5648SOL     OW17842   1.886   1.799   4.130
 5648SOL    HW117843   1.905   1.888   4.089
 5648SOL    HW217844   1.854   1.736   4.059
 5649SOL     OW17845   6.748   0.681   4.691
 5649SOL    HW117846   6.657   0.649   4.716
 5649SOL    HW217847   6.816   0.629   4.743
 5650SOL     OW17848   5.922   4.641   5.849
 5650SOL    HW117849   5.847   4.592   5.894
 5650SOL    HW217850   5.992   4.576   5.821
 5651SOL     OW17851   5.751   0.652   3.003
 5651SOL    HW117852   5.835   0.602   2.981
 5651SOL    HW217853   5.759   0.691   3.094
 5652SOL     OW17854   3.870   4.026   6.407
 5652SOL    HW117855   3.864   4.059   6.313
 5652SOL    HW217856   3.965   4.033   6.439
 5653SOL     OW17857   2.326   6.785   5.765
 5653SOL    HW117858   2.338   6.846   5.844
 5653SOL    HW217859   2.231   6.756   5.758
 5654SOL     OW17860   2.703   6.633   0.038
 5654SOL    HW117861   2.773   6.695   0.002
 5654SOL    HW217862   2.613   6.661   0.006
 5655SOL     OW17863   5.810   5.324   2.110
 5655SOL    HW117864   5.823   5.252   2.178
 5655SOL    HW217865   5.715   5.354   2.111
 5656SOL     OW17866   2.748   4.609   6.373
 5656SOL    HW117867   2.660   4.613   6.326
 5656SOL    HW217868   2.815   4.563   6.314
 5657SOL     OW17869   5.108   5.550   1.884
 5657SOL    HW117870   5.196   5.592   1.908
 5657SOL    HW217871   5.103   5.459   1.925
 5658SOL     OW17872   4.305   6.756   6.236
 5658SOL    HW117873   4.238   6.696   6.279
 5658SOL    HW217874   4.279   6.851   6.252
 5659SOL     OW17875   2.965   3.520   2.595
 5659SOL    HW117876   2.998   3.611   2.619
 5659SOL    HW217877   2.961   3.463   2.677
 5660SOL     OW17878   0.718   4.377   1.864
 5660SOL    HW117879   0.717   4.356   1.962
 5660SOL    HW217880   0.799   4.429   1.842
 5661SOL     OW17881   6.006   5.693   4.936
 5661SOL    HW117882   6.023   5.598   4.964
 5661SOL    HW217883   5.910   5.705   4.914
 5662SOL     OW17884   1.757   4.075   5.073
 5662SOL    HW117885   1.781   4.154   5.129
 5662SOL    HW217886   1.784   3.991   5.119
 5663SOL     OW17887   2.585   3.636   0.431
 5663SOL    HW117888   2.552   3.648   0.524
 5663SOL    HW217889   2.555   3.714   0.375
 5664SOL     OW17890   6.374   6.780   1.189
 5664SOL    HW117891   6.354   6.828   1.274
 5664SOL    HW217892   6.396   6.684   1.208
 5665SOL     OW17893   1.208   0.794   5.958
 5665SOL    HW117894   1.304   0.784   5.934
 5665SOL    HW217895   1.169   0.872   5.909
 5666SOL     OW17896   4.680   6.069   6.395
 5666SOL    HW117897   4.745   6.055   6.320
 5666SOL    HW217898   4.697   6.159   6.437
 5667SOL     OW17899   5.133   4.574   3.650
 5667SOL    HW117900   5.182   4.605   3.569
 5667SOL    HW217901   5.115   4.476   3.642
 5668SOL     OW17902   6.414   2.522   6.541
 5668SOL    HW117903   6.354   2.594   6.507
 5668SOL    HW217904   6.508   2.539   6.511
 5669SOL     OW17905   0.738   1.807   5.883
 5669SOL    HW117906   0.728   1.855   5.796
 5669SOL    HW217907   0.738   1.873   5.958
 5670SOL     OW17908   1.374   2.424   2.365
 5670SOL    HW117909   1.297   2.372   2.401
 5670SOL    HW217910   1.350   2.521   2.360
 5671SOL     OW17911   0.469   0.727   6.107
 5671SOL    HW117912   0.537   0.659   6.079
 5671SOL    HW217913   0.419   0.759   6.027
 5672SOL     OW17914   4.163   4.602   5.916
 5672SOL    HW117915   4.171   4.505   5.939
 5672SOL    HW217916   4.207   4.619   5.828
 5673SOL     OW17917   1.895   6.293   1.192
 5673SOL    HW117918   1.893   6.206   1.241
 5673SOL    HW217919   1.906   6.275   1.094
 5674SOL     OW17920   0.528   2.839   0.576
 5674SOL    HW117921   0.609   2.784   0.595
 5674SOL    HW217922   0.529   2.869   0.481
 5675SOL     OW17923   4.200   1.396   5.888
 5675SOL    HW117924   4.178   1.457   5.813
 5675SOL    HW217925   4.119   1.383   5.945
 5676SOL     OW17926   2.512   6.152   2.080
 5676SOL    HW117927   2.486   6.244   2.110
 5676SOL    HW217928   2.481   6.085   2.148
 5677SOL     OW17929   5.783   0.545   3.506
 5677SOL    HW117930   5.700   0.508   3.465
 5677SOL    HW217931   5.760   0.624   3.562
 5678SOL     OW17932   1.330   5.702   2.513
 5678SOL    HW117933   1.280   5.665   2.590
 5678SOL    HW217934   1.280   5.684   2.428
 5679SOL     OW17935   4.090   5.703   5.553
 5679SOL    HW117936   4.078   5.798   5.521
 5679SOL    HW217937   4.041   5.642   5.491
 5680SOL     OW17938   1.225   0.423   6.448
 5680SOL    HW117939   1.224   0.360   6.525
 5680SOL    HW217940   1.153   0.491   6.460
 5681SOL     OW17941   3.172   3.464   0.272
 5681SOL    HW117942   3.239   3.404   0.318
 5681SOL    HW217943   3.107   3.407   0.221
 5682SOL     OW17944   2.276   4.358   4.546
 5682SOL    HW117945   2.231   4.280   4.501
 5682SOL    HW217946   2.247   4.363   4.641
 5683SOL     OW17947   3.220   3.821   5.100
 5683SOL    HW117948   3.155   3.889   5.065
 5683SOL    HW217949   3.182   3.775   5.180
 5684SOL     OW17950   3.473   4.118   2.590
 5684SOL    HW117951   3.430   4.147   2.504
 5684SOL    HW217952   3.418   4.149   2.667
 5685SOL     OW17953   6.989   0.185   1.665
 5685SOL    HW117954   6.927   0.153   1.736
 5685SOL    HW217955   6.966   0.279   1.640
 5686SOL     OW17956   3.727   4.916   6.583
 5686SOL    HW117957   3.652   4.856   6.556
 5686SOL    HW217958   3.703   5.011   6.563
 5687SOL     OW17959   4.767   6.873   5.887
 5687SOL    HW117960   4.739   6.834   5.799
 5687SOL    HW217961   4.803   6.800   5.945
 5688SOL     OW17962   5.374   1.329   2.400
 5688SOL    HW117963   5.389   1.241   2.356
 5688SOL    HW217964   5.276   1.345   2.412
 5689SOL     OW17965   3.816   3.049   5.144
 5689SOL    HW117966   3.877   3.127   5.153
 5689SOL    HW217967   3.800   3.030   5.047
 5690SOL     OW17968   3.457   0.641   3.376
 5690SOL    HW117969   3.384   0.702   3.346
 5690SOL    HW217970   3.466   0.566   3.310
 5691SOL     OW17971   3.255   0.336   4.514
 5691SOL    HW117972   3.349   0.369   4.508
 5691SOL    HW217973   3.228   0.327   4.610
 5692SOL     OW17974   5.857   2.999   0.737
 5692SOL    HW117975   5.771   2.956   0.709
 5692SOL    HW217976   5.886   2.961   0.824
 5693SOL     OW17977   5.489   3.203   1.912
 5693SOL    HW117978   5.495   3.291   1.959
 5693SOL    HW217979   5.554   3.200   1.837
 5694SOL     OW17980   2.049   2.435   5.175
 5694SOL    HW117981   1.954   2.417   5.200
 5694SOL    HW217982   2.051   2.490   5.091
 5695SOL     OW17983   1.879   3.257   3.331
 5695SOL    HW117984   1.933   3.174   3.345
 5695SOL    HW217985   1.939   3.337   3.331
 5696SOL     OW17986   3.336   1.530   6.677
 5696SOL    HW117987   3.405   1.477   6.726
 5696SOL    HW217988   3.370   1.552   6.586
 5697SOL     OW17989   6.816   3.771   1.319
 5697SOL    HW117990   6.837   3.680   1.355
 5697SOL    HW217991   6.741   3.764   1.253
 5698SOL     OW17992   1.850   4.755   4.204
 5698SOL    HW117993   1.887   4.772   4.112
 5698SOL    HW217994   1.769   4.696   4.197
 5699SOL     OW17995   0.864   1.983   5.607
 5699SOL    HW117996   0.951   2.032   5.617
 5699SOL    HW217997   0.871   1.919   5.530
 5700SOL     OW17998   1.654   4.956   4.446
 5700SOL    HW117999   1.721   4.910   4.388
 5700SOL    HW218000   1.602   5.021   4.391
 5701SOL     OW18001   4.997   2.288   2.403
 5701SOL    HW118002   5.060   2.363   2.383
 5701SOL    HW218003   4.953   2.304   2.491
 5702SOL     OW18004   4.053   0.510   6.952
 5702SOL    HW118005   4.111   0.500   6.872
 5702SOL    HW218006   4.038   0.607   6.971
 5703SOL     OW18007   4.826   3.895   2.475
 5703SOL    HW118008   4.856   3.938   2.390
 5703SOL    HW218009   4.729   3.873   2.470
 5704SOL     OW18010   5.575   3.281   3.399
 5704SOL    HW118011   5.664   3.315   3.368
 5704SOL    HW218012   5.578   3.182   3.406
 5705SOL     OW18013   6.733   1.177   3.989
 5705SOL    HW118014   6.824   1.201   4.023
 5705SOL    HW218015   6.686   1.120   4.057
 5706SOL     OW18016   1.983   1.450   5.507
 5706SOL    HW118017   1.970   1.372   5.445
 5706SOL    HW218018   1.994   1.533   5.453
 5707SOL     OW18019   4.224   0.725   1.366
 5707SOL    HW118020   4.289   0.759   1.434
 5707SOL    HW218021   4.168   0.653   1.407
 5708SOL     OW18022   1.111   6.672   0.199
 5708SOL    HW118023   1.130   6.617   0.118
 5708SOL    HW218024   1.171   6.644   0.273
 5709SOL     OW18025   0.383   3.566   0.800
 5709SOL    HW118026   0.451   3.496   0.780
 5709SOL    HW218027   0.339   3.548   0.888
 5710SOL     OW18028   3.205   5.356   6.690
 5710SOL    HW118029   3.155   5.372   6.605
 5710SOL    HW218030   3.188   5.263   6.722
 5711SOL     OW18031   4.886   1.503   4.784
 5711SOL    HW118032   4.909   1.429   4.847
 5711SOL    HW218033   4.839   1.576   4.833
 5712SOL     OW18034   5.017   6.863   6.210
 5712SOL    HW118035   4.975   6.921   6.280
 5712SOL    HW218036   4.946   6.810   6.164
 5713SOL     OW18037   0.426   3.670   2.503
 5713SOL    HW118038   0.451   3.702   2.412
 5713SOL    HW218039   0.340   3.619   2.498
 5714SOL     OW18040   2.399   0.444   1.281
 5714SOL    HW118041   2.368   0.539   1.274
 5714SOL    HW218042   2.467   0.426   1.211
 5715SOL     OW18043   0.683   5.874   3.912
 5715SOL    HW118044   0.591   5.837   3.926
 5715SOL    HW218045   0.685   5.926   3.827
 5716SOL     OW18046   1.366   2.758   4.983
 5716SOL    HW118047   1.352   2.846   4.938
 5716SOL    HW218048   1.432   2.704   4.932
 5717SOL     OW18049   0.329   4.538   5.245
 5717SOL    HW118050   0.278   4.508   5.165
 5717SOL    HW218051   0.267   4.542   5.324
 5718SOL     OW18052   2.725   5.651   6.182
 5718SOL    HW118053   2.788   5.604   6.120
 5718SOL    HW218054   2.731   5.610   6.273
 5719SOL     OW18055   1.822   0.939   0.017
 5719SOL    HW118056   1.858   1.032   0.018
 5719SOL    HW218057   1.875   0.881   0.079
 5720SOL     OW18058   1.918   5.577   4.311
 5720SOL    HW118059   1.997   5.566   4.251
 5720SOL    HW218060   1.834   5.559   4.260
 5721SOL     OW18061   6.228   5.387   6.924
 5721SOL    HW118062   6.251   5.315   6.989
 5721SOL    HW218063   6.309   5.442   6.905
 5722SOL     OW18064   5.347   0.860   4.336
 5722SOL    HW118065   5.378   0.945   4.378
 5722SOL    HW218066   5.298   0.880   4.251
 5723SOL     OW18067   6.549   4.912   0.977
 5723SOL    HW118068   6.456   4.912   0.941
 5723SOL    HW218069   6.579   5.006   0.993
 5724SOL     OW18070   4.833   2.945   6.312
 5724SOL    HW118071   4.791   2.884   6.244
 5724SOL    HW218072   4.898   3.006   6.266
 5725SOL     OW18073   6.262   6.837   5.479
 5725SOL    HW118074   6.177   6.878   5.444
 5725SOL    HW218075   6.332   6.908   5.487
 5726SOL     OW18076   4.331   5.769   5.379
 5726SOL    HW118077   4.429   5.763   5.402
 5726SOL    HW218078   4.278   5.720   5.448
 5727SOL     OW18079   5.007   2.712   3.516
 5727SOL    HW118080   5.000   2.806   3.550
 5727SOL    HW218081   4.974   2.709   3.421
 5728SOL     OW18082   3.869   1.210   5.077
 5728SOL    HW118083   3.789   1.271   5.074
 5728SOL    HW218084   3.928   1.228   4.999
 5729SOL     OW18085   2.519   2.055   3.786
 5729SOL    HW118086   2.593   2.109   3.825
 5729SOL    HW218087   2.469   2.009   3.859
 5730SOL     OW18088   4.110   4.735   0.160
 5730SOL    HW118089   4.052   4.797   0.213
 5730SOL    HW218090   4.069   4.720   0.070
 5731SOL     OW18091   4.435   1.016   5.045
 5731SOL    HW118092   4.358   0.982   4.991
 5731SOL    HW218093   4.422   1.113   5.064
 5732SOL     OW18094   6.735   3.609   4.469
 5732SOL    HW118095   6.640   3.578   4.469
 5732SOL    HW218096   6.770   3.608   4.563
 5733SOL     OW18097   2.280   6.563   0.873
 5733SOL    HW118098   2.265   6.533   0.967
 5733SOL    HW218099   2.228   6.646   0.855
 5734SOL     OW18100   1.953   0.522   6.137
 5734SOL    HW118101   1.978   0.552   6.045
 5734SOL    HW218102   1.873   0.463   6.132
 5735SOL     OW18103   5.245   1.113   1.028
 5735SOL    HW118104   5.164   1.124   0.971
 5735SOL    HW218105   5.232   1.035   1.089
 5736SOL     OW18106   4.264   3.591   6.519
 5736SOL    HW118107   4.289   3.525   6.590
 5736SOL    HW218108   4.165   3.595   6.511
 5737SOL     OW18109   5.483   5.344   2.497
 5737SOL    HW118110   5.438   5.319   2.582
 5737SOL    HW218111   5.446   5.288   2.422
 5738SOL     OW18112   3.502   1.796   1.237
 5738SOL    HW118113   3.493   1.725   1.167
 5738SOL    HW218114   3.589   1.843   1.226
 5739SOL     OW18115   1.960   1.072   6.077
 5739SOL    HW118116   2.023   1.147   6.097
 5739SOL    HW218117   1.867   1.107   6.069
 5740SOL     OW18118   5.473   2.861   2.441
 5740SOL    HW118119   5.569   2.885   2.431
 5740SOL    HW218120   5.459   2.767   2.410
 5741SOL     OW18121   1.308   3.356   4.094
 5741SOL    HW118122   1.387   3.314   4.138
 5741SOL    HW218123   1.238   3.375   4.162
 5742SOL     OW18124   6.510   4.583   2.156
 5742SOL    HW118125   6.430   4.528   2.181
 5742SOL    HW218126   6.482   4.677   2.140
 5743SOL     OW18127   3.205   6.625   6.351
 5743SOL    HW118128   3.264   6.697   6.389
 5743SOL    HW218129   3.257   6.573   6.283
 5744SOL     OW18130   5.219   5.575   3.850
 5744SOL    HW118131   5.225   5.563   3.949
 5744SOL    HW218132   5.196   5.487   3.807
 5745SOL     OW18133   1.846   3.987   2.257
 5745SOL    HW118134   1.867   3.901   2.210
 5745SOL    HW218135   1.793   3.967   2.339
 5746SOL     OW18136   5.420   0.725   3.745
 5746SOL    HW118137   5.329   0.684   3.744
 5746SOL    HW218138   5.435   0.774   3.659
 5747SOL     OW18139   1.277   6.371   1.833
 5747SOL    HW118140   1.359   6.314   1.831
 5747SOL    HW218141   1.196   6.314   1.829
 5748SOL     OW18142   6.523   6.993   0.412
 5748SOL    HW118143   6.519   6.921   0.481
 5748SOL    HW218144   6.527   0.059   0.457
 5749SOL     OW18145   1.847   6.236   6.089
 5749SOL    HW118146   1.880   6.330   6.100
 5749SOL    HW218147   1.787   6.213   6.166
 5750SOL     OW18148   5.910   2.436   4.029
 5750SOL    HW118149   5.903   2.474   4.122
 5750SOL    HW218150   5.818   2.419   3.993
 5751SOL     OW18151   6.746   3.728   4.240
 5751SOL    HW118152   6.683   3.805   4.249
 5751SOL    HW218153   6.745   3.674   4.324
 5752SOL     OW18154   5.768   1.524   6.510
 5752SOL    HW118155   5.841   1.459   6.488
 5752SOL    HW218156   5.803   1.593   6.575
 5753SOL     OW18157   3.605   3.569   4.009
 5753SOL    HW118158   3.523   3.601   3.963
 5753SOL    HW218159   3.653   3.647   4.049
 5754SOL     OW18160   6.218   0.625   1.018
 5754SOL    HW118161   6.305   0.575   1.012
 5754SOL    HW218162   6.164   0.607   0.936
 5755SOL     OW18163   0.907   3.811   6.270
 5755SOL    HW118164   1.001   3.789   6.245
 5755SOL    HW218165   0.872   3.741   6.332
 5756SOL     OW18166   5.773   6.791   1.773
 5756SOL    HW118167   5.682   6.825   1.793
 5756SOL    HW218168   5.833   6.867   1.748
 5757SOL     OW18169   1.598   2.060   4.094
 5757SOL    HW118170   1.559   2.134   4.040
 5757SOL    HW218171   1.692   2.083   4.121
 5758SOL     OW18172   6.141   6.877   3.011
 5758SOL    HW118173   6.078   6.937   2.961
 5758SOL    HW218174   6.129   6.783   2.981
 5759SOL     OW18175   3.321   6.587   2.887
 5759SOL    HW118176   3.296   6.670   2.837
 5759SOL    HW218177   3.358   6.520   2.823
 5760SOL     OW18178   0.713   2.291   0.286
 5760SOL    HW118179   0.734   2.215   0.347
 5760SOL    HW218180   0.676   2.367   0.339
 5761SOL     OW18181   6.730   6.856   5.080
 5761SOL    HW118182   6.720   6.762   5.112
 5761SOL    HW218183   6.669   6.871   5.002
 5762SOL     OW18184   0.875   6.335   5.914
 5762SOL    HW118185   0.954   6.353   5.972
 5762SOL    HW218186   0.793   6.328   5.971
 5763SOL     OW18187   4.798   0.468   6.954
 5763SOL    HW118188   4.815   0.382   7.002
 5763SOL    HW218189   4.750   0.449   6.869
 5764SOL     OW18190   4.032   6.463   4.177
 5764SOL    HW118191   4.088   6.546   4.183
 5764SOL    HW218192   4.060   6.399   4.247
 5765SOL     OW18193   6.548   6.923   2.850
 5765SOL    HW118194   6.638   6.889   2.877
 5765SOL    HW218195   6.499   6.956   2.931
 5766SOL     OW18196   0.902   0.747   4.616
 5766SOL    HW118197   0.880   0.652   4.640
 5766SOL    HW218198   0.875   0.765   4.522
 5767SOL     OW18199   6.242   6.947   0.689
 5767SOL    HW118200   6.153   6.939   0.735
 5767SOL    HW218201   6.277   6.855   0.670
 5768SOL     OW18202   1.556   0.330   4.711
 5768SOL    HW118203   1.479   0.320   4.774
 5768SOL    HW218204   1.590   0.240   4.685
 5769SOL     OW18205   1.030   2.102   6.268
 5769SOL    HW118206   1.105   2.090   6.202
 5769SOL    HW218207   0.995   2.195   6.262
 5770SOL     OW18208   1.190   3.555   2.553
 5770SOL    HW118209   1.189   3.468   2.503
 5770SOL    HW218210   1.270   3.608   2.523
 5771SOL     OW18211   2.864   6.566   3.029
 5771SOL    HW118212   2.791   6.507   3.063
 5771SOL    HW218213   2.827   6.627   2.958
 5772SOL     OW18214   2.581   0.725   3.373
 5772SOL    HW118215   2.660   0.722   3.435
 5772SOL    HW218216   2.514   0.791   3.407
 5773SOL     OW18217   6.206   0.432   4.596
 5773SOL    HW118218   6.140   0.377   4.647
 5773SOL    HW218219   6.197   0.413   4.498
 5774SOL     OW18220   1.123   6.084   3.606
 5774SOL    HW118221   1.067   6.015   3.559
 5774SOL    HW218222   1.215   6.048   3.621
 5775SOL     OW18223   5.709   4.713   2.889
 5775SOL    HW118224   5.770   4.739   2.964
 5775SOL    HW218225   5.762   4.687   2.809
 5776SOL     OW18226   3.959   0.383   4.185
 5776SOL    HW118227   4.019   0.379   4.105
 5776SOL    HW218228   4.007   0.426   4.261
 5777SOL     OW18229   0.546   0.331   1.556
 5777SOL    HW118230   0.599   0.383   1.622
 5777SOL    HW218231   0.608   0.276   1.500
 5778SOL     OW18232   0.314   1.027   0.095
 5778SOL    HW118233   0.327   0.959   0.023
 5778SOL    HW218234   0.327   1.119   0.056
 5779SOL     OW18235   6.169   1.506   0.190
 5779SOL    HW118236   6.133   1.437   0.127
 5779SOL    HW218237   6.215   1.578   0.139
 5780SOL     OW18238   5.315   5.002   4.540
 5780SOL    HW118239   5.361   5.073   4.486
 5780SOL    HW218240   5.225   5.035   4.568
 5781SOL     OW18241   1.418   5.797   5.778
 5781SOL    HW118242   1.320   5.805   5.760
 5781SOL    HW218243   1.455   5.887   5.803
 5782SOL     OW18244   5.462   0.896   1.248
 5782SOL    HW118245   5.510   0.811   1.226
 5782SOL    HW218246   5.512   0.973   1.210
 5783SOL     OW18247   2.352   2.312   6.457
 5783SOL    HW118248   2.412   2.344   6.384
 5783SOL    HW218249   2.397   2.323   6.545
 5784SOL     OW18250   6.831   6.214   0.486
 5784SOL    HW118251   6.822   6.271   0.404
 5784SOL    HW218252   6.876   6.267   0.558
 5785SOL     OW18253   1.728   1.212   2.321
 5785SOL    HW118254   1.805   1.181   2.376
 5785SOL    HW218255   1.758   1.286   2.260
 5786SOL     OW18256   5.483   5.004   2.395
 5786SOL    HW118257   5.493   4.990   2.494
 5786SOL    HW218258   5.440   4.923   2.355
 5787SOL     OW18259   1.846   2.750   6.481
 5787SOL    HW118260   1.926   2.695   6.507
 5787SOL    HW218261   1.866   2.847   6.493
 5788SOL     OW18262   2.999   0.904   3.595
 5788SOL    HW118263   3.042   0.985   3.635
 5788SOL    HW218264   3.062   0.827   3.603
 5789SOL     OW18265   3.387   5.043   5.724
 5789SOL    HW118266   3.320   5.113   5.746
 5789SOL    HW218267   3.351   4.953   5.747
 5790SOL     OW18268   1.594   3.176   3.679
 5790SOL    HW118269   1.520   3.220   3.731
 5790SOL    HW218270   1.604   3.221   3.591
 5791SOL     OW18271   1.119   1.186   3.608
 5791SOL    HW118272   1.113   1.220   3.514
 5791SOL    HW218273   1.029   1.156   3.639
 5792SOL     OW18274   0.556   1.563   3.466
 5792SOL    HW118275   0.501   1.529   3.542
 5792SOL    HW218276   0.653   1.553   3.489
 5793SOL     OW18277   6.374   1.480   5.423
 5793SOL    HW118278   6.364   1.446   5.329
 5793SOL    HW218279   6.289   1.523   5.452
 5794SOL     OW18280   0.421   4.026   6.413
 5794SOL    HW118281   0.418   3.994   6.508
 5794SOL    HW218282   0.493   3.977   6.364
 5795SOL     OW18283   6.698   4.444   0.066
 5795SOL    HW118284   6.629   4.373   0.053
 5795SOL    HW218285   6.690   4.512   7.016
 5796SOL     OW18286   3.050   2.001   0.512
 5796SOL    HW118287   3.041   2.002   0.412
 5796SOL    HW218288   3.010   2.084   0.550
 5797SOL     OW18289   3.178   3.602   5.566
 5797SOL    HW118290   3.253   3.662   5.596
 5797SOL    HW218291   3.216   3.521   5.522
 5798SOL     OW18292   6.474   4.717   4.020
 5798SOL    HW118293   6.471   4.734   4.118
 5798SOL    HW218294   6.551   4.657   3.999
 5799SOL     OW18295   5.581   0.379   4.412
 5799SOL    HW118296   5.523   0.299   4.398
 5799SOL    HW218297   5.533   0.461   4.381
 5800SOL     OW18298   5.524   6.626   6.638
 5800SOL    HW118299   5.573   6.622   6.725
 5800SOL    HW218300   5.586   6.602   6.563
 5801SOL     OW18301   1.552   1.083   2.131
 5801SOL    HW118302   1.587   1.064   2.223
 5801SOL    HW218303   1.618   1.139   2.081
 5802SOL     OW18304   0.167   2.822   4.461
 5802SOL    HW118305   0.123   2.888   4.522
 5802SOL    HW218306   0.249   2.862   4.421
 5803SOL     OW18307   1.272   4.929   1.202
 5803SOL    HW118308   1.179   4.909   1.233
 5803SOL    HW218309   1.301   5.017   1.240
 5804SOL     OW18310   0.100   3.211   6.805
 5804SOL    HW118311   0.123   3.208   6.902
 5804SOL    HW218312   0.014   3.163   6.789
 5805SOL     OW18313   4.616   3.154   6.808
 5805SOL    HW118314   4.586   3.208   6.887
 5805SOL    HW218315   4.699   3.104   6.832
 5806SOL     OW18316   5.765   6.586   6.136
 5806SOL    HW118317   5.857   6.586   6.098
 5806SOL    HW218318   5.754   6.507   6.197
 5807SOL     OW18319   2.601   4.411   1.599
 5807SOL    HW118320   2.536   4.356   1.547
 5807SOL    HW218321   2.692   4.403   1.558
 5808SOL     OW18322   6.489   1.715   3.648
 5808SOL    HW118323   6.578   1.675   3.667
 5808SOL    HW218324   6.447   1.743   3.735
 5809SOL     OW18325   0.963   3.366   3.998
 5809SOL    HW118326   0.983   3.388   3.903
 5809SOL    HW218327   0.922   3.274   4.003
 5810SOL     OW18328   3.347   1.816   2.247
 5810SOL    HW118329   3.371   1.762   2.327
 5810SOL    HW218330   3.431   1.839   2.196
 5811SOL     OW18331   2.747   7.015   1.364
 5811SOL    HW118332   2.666   0.027   1.410
 5811SOL    HW218333   2.792   0.065   1.314
 5812SOL     OW18334   4.189   0.854   4.237
 5812SOL    HW118335   4.275   0.878   4.282
 5812SOL    HW218336   4.123   0.927   4.249
 5813SOL     OW18337   1.745   2.164   4.992
 5813SOL    HW118338   1.671   2.225   5.021
 5813SOL    HW218339   1.818   2.218   4.951
 5814SOL     OW18340   0.718   4.949   1.393
 5814SOL    HW118341   0.639   5.004   1.423
 5814SOL    HW218342   0.720   4.863   1.445
 5815SOL     OW18343   4.034   6.310   4.762
 5815SOL    HW118344   3.949   6.279   4.719
 5815SOL    HW218345   4.109   6.250   4.736
 5816SOL     OW18346   5.342   5.980   6.932
 5816SOL    HW118347   5.431   5.994   6.976
 5816SOL    HW218348   5.333   5.885   6.904
 5817SOL     OW18349   6.037   2.467   6.361
 5817SOL    HW118350   5.985   2.383   6.369
 5817SOL    HW218351   6.125   2.448   6.318
 5818SOL     OW18352   6.157   6.530   5.178
 5818SOL    HW118353   6.192   6.491   5.093
 5818SOL    HW218354   6.066   6.492   5.197
 5819SOL     OW18355   6.786   0.875   1.481
 5819SOL    HW118356   6.823   0.785   1.506
 5819SOL    HW218357   6.832   0.908   1.398
 5820SOL     OW18358   5.191   4.844   1.653
 5820SOL    HW118359   5.184   4.744   1.649
 5820SOL    HW218360   5.099   4.883   1.650
 5821SOL     OW18361   2.987   6.905   2.667
 5821SOL    HW118362   3.053   6.940   2.600
 5821SOL    HW218363   2.902   6.957   2.660
 5822SOL     OW18364   0.446   0.723   2.375
 5822SOL    HW118365   0.459   0.688   2.467
 5822SOL    HW218366   0.465   0.651   2.309
 5823SOL     OW18367   1.629   2.608   3.537
 5823SOL    HW118368   1.704   2.553   3.499
 5823SOL    HW218369   1.545   2.589   3.486
 5824SOL     OW18370   5.195   0.547   3.735
 5824SOL    HW118371   5.214   0.504   3.824
 5824SOL    HW218372   5.098   0.572   3.730
 5825SOL     OW18373   3.196   1.661   1.474
 5825SOL    HW118374   3.124   1.641   1.542
 5825SOL    HW218375   3.257   1.582   1.466
 5826SOL     OW18376   0.445   6.700   3.100
 5826SOL    HW118377   0.408   6.661   3.015
 5826SOL    HW218378   0.374   6.750   3.148
 5827SOL     OW18379   2.087   4.982   5.822
 5827SOL    HW118380   2.063   4.946   5.732
 5827SOL    HW218381   2.075   4.912   5.892
 5828SOL     OW18382   6.416   1.515   1.057
 5828SOL    HW118383   6.512   1.526   1.032
 5828SOL    HW218384   6.394   1.575   1.134
 5829SOL     OW18385   2.005   0.958   1.458
 5829SOL    HW118386   1.931   0.918   1.513
 5829SOL    HW218387   2.063   1.015   1.516
 5830SOL     OW18388   1.115   1.005   5.845
 5830SOL    HW118389   1.099   1.073   5.917
 5830SOL    HW218390   1.092   1.044   5.756
 5831SOL     OW18391   5.538   5.655   2.962
 5831SOL    HW118392   5.453   5.632   2.915
 5831SOL    HW218393   5.612   5.663   2.895
 5832SOL     OW18394   3.799   3.761   4.174
 5832SOL    HW118395   3.710   3.788   4.138
 5832SOL    HW218396   3.851   3.843   4.199
 5833SOL     OW18397   2.984   3.255   4.953
 5833SOL    HW118398   2.958   3.326   4.887
 5833SOL    HW218399   3.081   3.263   4.975
 5834SOL     OW18400   5.585   1.141   6.523
 5834SOL    HW118401   5.497   1.103   6.493
 5834SOL    HW218402   5.633   1.180   6.444
 5835SOL     OW18403   5.405   2.809   4.052
 5835SOL    HW118404   5.431   2.777   3.961
 5835SOL    HW218405   5.460   2.889   4.075
 5836SOL     OW18406   3.453   6.987   4.019
 5836SOL    HW118407   3.374   6.939   3.980
 5836SOL    HW218408   3.506   0.006   3.946
 5837SOL     OW18409   4.141   4.094   6.502
 5837SOL    HW118410   4.124   4.137   6.590
 5837SOL    HW218411   4.210   4.022   6.512
 5838SOL     OW18412   0.490   1.413   5.987
 5838SOL    HW118413   0.529   1.413   6.079
 5838SOL    HW218414   0.463   1.506   5.962
 5839SOL     OW18415   6.666   2.562   2.160
 5839SOL    HW118416   6.708   2.644   2.198
 5839SOL    HW218417   6.734   2.510   2.109
 5840SOL     OW18418   2.978   5.913   0.508
 5840SOL    HW118419   3.061   5.945   0.461
 5840SOL    HW218420   2.963   5.816   0.485
 5841SOL     OW18421   6.378   2.106   3.496
 5841SOL    HW118422   6.425   2.034   3.444
 5841SOL    HW218423   6.334   2.170   3.433
 5842SOL     OW18424   3.634   2.304   0.962
 5842SOL    HW118425   3.709   2.239   0.946
 5842SOL    HW218426   3.651   2.354   1.047
 5843SOL     OW18427   0.366   2.175   1.497
 5843SOL    HW118428   0.342   2.136   1.586
 5843SOL    HW218429   0.341   2.110   1.425
 5844SOL     OW18430   1.679   5.985   6.193
 5844SOL    HW118431   1.776   5.968   6.215
 5844SOL    HW218432   1.623   5.910   6.229
 5845SOL     OW18433   2.197   3.106   4.613
 5845SOL    HW118434   2.219   3.189   4.562
 5845SOL    HW218435   2.246   3.107   4.700
 5846SOL     OW18436   0.419   3.703   6.861
 5846SOL    HW118437   0.373   3.690   6.948
 5846SOL    HW218438   0.495   3.767   6.873
 5847SOL     OW18439   1.213   2.385   4.484
 5847SOL    HW118440   1.250   2.292   4.493
 5847SOL    HW218441   1.266   2.435   4.416
 5848SOL     OW18442   1.126   4.565   3.660
 5848SOL    HW118443   1.223   4.588   3.670
 5848SOL    HW218444   1.090   4.607   3.576
 5849SOL     OW18445   2.538   0.273   5.881
 5849SOL    HW118446   2.491   0.360   5.895
 5849SOL    HW218447   2.497   0.203   5.939
 5850SOL     OW18448   0.574   4.830   3.416
 5850SOL    HW118449   0.506   4.849   3.487
 5850SOL    HW218450   0.538   4.760   3.354
 5851SOL     OW18451   6.541   3.191   1.655
 5851SOL    HW118452   6.632   3.233   1.652
 5851SOL    HW218453   6.523   3.157   1.748
 5852SOL     OW18454   3.914   6.290   2.781
 5852SOL    HW118455   3.985   6.223   2.801
 5852SOL    HW218456   3.955   6.379   2.761
 5853SOL     OW18457   4.985   3.904   5.155
 5853SOL    HW118458   4.965   3.895   5.057
 5853SOL    HW218459   5.025   3.994   5.173
 5854SOL     OW18460   1.395   1.386   6.869
 5854SOL    HW118461   1.445   1.359   6.787
 5854SOL    HW218462   1.306   1.423   6.843
 5855SOL     OW18463   1.722   1.771   4.851
 5855SOL    HW118464   1.819   1.797   4.843
 5855SOL    HW218465   1.679   1.827   4.922
 5856SOL     OW18466   1.064   6.687   3.082
 5856SOL    HW118467   1.094   6.754   3.149
 5856SOL    HW218468   1.010   6.616   3.127
 5857SOL     OW18469   0.812   2.099   5.031
 5857SOL    HW118470   0.815   2.009   4.987
 5857SOL    HW218471   0.786   2.168   4.964
 5858SOL     OW18472   2.849   0.277   3.936
 5858SOL    HW118473   2.913   0.317   3.870
 5858SOL    HW218474   2.900   0.234   4.010
 5859SOL     OW18475   5.801   5.002   1.693
 5859SOL    HW118476   5.792   4.960   1.602
 5859SOL    HW218477   5.724   5.063   1.709
 5860SOL     OW18478   6.664   4.861   0.666
 5860SOL    HW118479   6.651   4.875   0.764
 5860SOL    HW218480   6.762   4.865   0.644
 5861SOL     OW18481   5.990   1.960   4.331
 5861SOL    HW118482   5.919   2.029   4.341
 5861SOL    HW218483   6.052   1.986   4.257
 5862SOL     OW18484   5.686   5.472   4.256
 5862SOL    HW118485   5.774   5.444   4.219
 5862SOL    HW218486   5.614   5.454   4.190
 5863SOL     OW18487   2.470   1.545   0.570
 5863SOL    HW118488   2.478   1.471   0.637
 5863SOL    HW218489   2.374   1.574   0.564
 5864SOL     OW18490   4.684   5.363   0.304
 5864SOL    HW118491   4.644   5.308   0.376
 5864SOL    HW218492   4.624   5.363   0.224
 5865SOL     OW18493   4.735   0.342   3.629
 5865SOL    HW118494   4.721   0.291   3.544
 5865SOL    HW218495   4.652   0.393   3.650
 5866SOL     OW18496   3.262   2.152   6.443
 5866SOL    HW118497   3.176   2.102   6.436
 5866SOL    HW218498   3.336   2.090   6.470
 5867SOL     OW18499   6.796   2.901   1.915
 5867SOL    HW118500   6.831   2.917   1.823
 5867SOL    HW218501   6.803   2.986   1.969
 5868SOL     OW18502   0.323   6.199   5.575
 5868SOL    HW118503   0.304   6.159   5.485
 5868SOL    HW218504   0.277   6.144   5.645
 5869SOL     OW18505   2.376   5.078   4.679
 5869SOL    HW118506   2.398   5.075   4.582
 5869SOL    HW218507   2.460   5.085   4.733
 5870SOL     OW18508   5.320   5.812   4.265
 5870SOL    HW118509   5.236   5.821   4.319
 5870SOL    HW218510   5.398   5.839   4.320
 5871SOL     OW18511   3.502   4.259   1.167
 5871SOL    HW118512   3.455   4.198   1.103
 5871SOL    HW218513   3.541   4.336   1.117
 5872SOL     OW18514   4.153   5.898   3.624
 5872SOL    HW118515   4.165   5.800   3.641
 5872SOL    HW218516   4.175   5.949   3.707
 5873SOL     OW18517   2.110   3.211   0.894
 5873SOL    HW118518   2.200   3.249   0.871
 5873SOL    HW218519   2.086   3.234   0.988
 5874SOL     OW18520   0.759   4.413   6.261
 5874SOL    HW118521   0.760   4.455   6.351
 5874SOL    HW218522   0.763   4.485   6.191
 5875SOL     OW18523   3.981   2.459   1.499
 5875SOL    HW118524   3.918   2.513   1.443
 5875SOL    HW218525   3.939   2.441   1.589
 5876SOL     OW18526   4.171   4.084   6.008
 5876SOL    HW118527   4.174   3.984   6.005
 5876SOL    HW218528   4.215   4.116   6.092
 5877SOL     OW18529   5.392   6.663   3.089
 5877SOL    HW118530   5.483   6.691   3.059
 5877SOL    HW218531   5.384   6.678   3.188
 5878SOL     OW18532   4.887   3.385   2.859
 5878SOL    HW118533   4.916   3.368   2.765
 5878SOL    HW218534   4.860   3.299   2.902
 5879SOL     OW18535   3.149   4.805   5.548
 5879SOL    HW118536   3.131   4.719   5.499
 5879SOL    HW218537   3.157   4.879   5.482
 5880SOL     OW18538   5.813   2.267   0.764
 5880SOL    HW118539   5.745   2.207   0.722
 5880SOL    HW218540   5.902   2.253   0.721
 5881SOL     OW18541   1.018   5.885   3.426
 5881SOL    HW118542   0.975   5.948   3.362
 5881SOL    HW218543   1.046   5.802   3.377
 5882SOL     OW18544   1.547   5.790   5.300
 5882SOL    HW118545   1.473   5.816   5.362
 5882SOL    HW218546   1.570   5.693   5.313
 5883SOL     OW18547   0.214   5.934   6.993
 5883SOL    HW118548   0.188   5.961   6.901
 5883SOL    HW218549   0.297   5.878   6.990
 5884SOL     OW18550   1.095   0.901   1.631
 5884SOL    HW118551   1.024   0.972   1.632
 5884SOL    HW218552   1.051   0.811   1.628
 5885SOL     OW18553   7.020   5.621   1.764
 5885SOL    HW118554   0.085   5.613   1.810
 5885SOL    HW218555   7.021   5.701   1.704
 5886SOL     OW18556   1.666   4.249   3.546
 5886SOL    HW118557   1.715   4.185   3.486
 5886SOL    HW218558   1.714   4.257   3.633
 5887SOL     OW18559   2.171   3.707   0.898
 5887SOL    HW118560   2.181   3.659   0.811
 5887SOL    HW218561   2.135   3.643   0.966
 5888SOL     OW18562   3.212   6.256   1.893
 5888SOL    HW118563   3.157   6.298   1.965
 5888SOL    HW218564   3.231   6.161   1.917
 5889SOL     OW18565   4.632   1.003   1.861
 5889SOL    HW118566   4.642   1.009   1.761
 5889SOL    HW218567   4.596   1.090   1.896
 5890SOL     OW18568   2.327   4.744   2.987
 5890SOL    HW118569   2.346   4.791   2.901
 5890SOL    HW218570   2.334   4.645   2.973
 5891SOL     OW18571   2.379   3.107   6.989
 5891SOL    HW118572   2.329   3.168   6.927
 5891SOL    HW218573   2.477   3.114   6.970
 5892SOL     OW18574   0.507   2.416   1.683
 5892SOL    HW118575   0.541   2.377   1.597
 5892SOL    HW218576   0.564   2.493   1.710
 5893SOL     OW18577   0.140   6.413   1.311
 5893SOL    HW118578   0.221   6.359   1.333
 5893SOL    HW218579   0.117   6.401   1.214
 5894SOL     OW18580   2.755   5.032   6.767
 5894SOL    HW118581   2.830   4.968   6.749
 5894SOL    HW218582   2.788   5.126   6.760
 5895SOL     OW18583   5.971   2.878   4.016
 5895SOL    HW118584   5.883   2.900   4.056
 5895SOL    HW218585   6.018   2.809   4.072
 5896SOL     OW18586   5.505   2.371   0.718
 5896SOL    HW118587   5.528   2.274   0.717
 5896SOL    HW218588   5.413   2.385   0.681
 5897SOL     OW18589   3.349   3.688   0.172
 5897SOL    HW118590   3.277   3.721   0.233
 5897SOL    HW218591   3.307   3.637   0.097
 5898SOL     OW18592   3.880   0.838   6.678
 5898SOL    HW118593   3.966   0.828   6.627
 5898SOL    HW218594   3.861   0.753   6.726
 5899SOL     OW18595   0.422   0.397   0.366
 5899SOL    HW118596   0.410   0.362   0.272
 5899SOL    HW218597   0.414   0.497   0.365
 5900SOL     OW18598   5.362   6.075   2.508
 5900SOL    HW118599   5.406   6.113   2.427
 5900SOL    HW218600   5.420   6.004   2.547
 5901SOL     OW18601   1.430   0.389   4.968
 5901SOL    HW118602   1.492   0.396   5.047
 5901SOL    HW218603   1.397   0.480   4.943
 5902SOL     OW18604   4.519   3.428   6.117
 5902SOL    HW118605   4.486   3.514   6.080
 5902SOL    HW218606   4.581   3.384   6.053
 5903SOL     OW18607   5.431   0.657   5.976
 5903SOL    HW118608   5.439   0.614   6.066
 5903SOL    HW218609   5.335   0.680   5.959
 5904SOL     OW18610   0.269   5.397   2.055
 5904SOL    HW118611   0.202   5.369   1.986
 5904SOL    HW218612   0.229   5.388   2.146
 5905SOL     OW18613   6.312   2.075   4.830
 5905SOL    HW118614   6.252   2.145   4.870
 5905SOL    HW218615   6.312   1.994   4.887
 5906SOL     OW18616   4.005   0.154   4.755
 5906SOL    HW118617   4.099   0.175   4.783
 5906SOL    HW218618   3.998   0.158   4.655
 5907SOL     OW18619   1.011   3.348   5.931
 5907SOL    HW118620   1.080   3.378   5.997
 5907SOL    HW218621   0.923   3.339   5.977
 5908SOL     OW18622   4.640   3.144   6.433
 5908SOL    HW118623   4.652   3.165   6.336
 5908SOL    HW218624   4.665   3.224   6.487
 5909SOL     OW18625   6.994   5.027   2.890
 5909SOL    HW118626   6.971   4.942   2.937
 5909SOL    HW218627   6.964   5.105   2.944
 5910SOL     OW18628   2.031   4.205   2.203
 5910SOL    HW118629   2.104   4.145   2.169
 5910SOL    HW218630   1.952   4.150   2.228
 5911SOL     OW18631   6.824   1.575   5.373
 5911SOL    HW118632   6.829   1.668   5.411
 5911SOL    HW218633   6.745   1.568   5.312
 5912SOL     OW18634   0.234   3.748   5.950
 5912SOL    HW118635   0.234   3.712   6.043
 5912SOL    HW218636   0.323   3.730   5.907
 5913SOL     OW18637   1.734   2.988   4.962
 5913SOL    HW118638   1.817   3.001   4.908
 5913SOL    HW218639   1.742   2.904   5.016
 5914SOL     OW18640   0.927   5.542   0.068
 5914SOL    HW118641   0.876   5.493   0.139
 5914SOL    HW218642   1.004   5.485   0.038
 5915SOL     OW18643   5.684   4.139   4.756
 5915SOL    HW118644   5.723   4.231   4.756
 5915SOL    HW218645   5.757   4.071   4.763
 5916SOL     OW18646   3.696   1.202   6.639
 5916SOL    HW118647   3.719   1.143   6.562
 5916SOL    HW218648   3.738   1.166   6.723
 5917SOL     OW18649   3.676   3.713   1.978
 5917SOL    HW118650   3.643   3.660   2.056
 5917SOL    HW218651   3.604   3.719   1.908
 5918SOL     OW18652   3.161   1.930   4.073
 5918SOL    HW118653   3.227   1.875   4.022
 5918SOL    HW218654   3.071   1.886   4.069
 5919SOL     OW18655   1.619   1.643   6.012
 5919SOL    HW118656   1.590   1.652   5.917
 5919SOL    HW218657   1.694   1.577   6.018
 5920SOL     OW18658   2.276   3.989   6.870
 5920SOL    HW118659   2.200   3.991   6.805
 5920SOL    HW218660   2.358   3.953   6.826
 5921SOL     OW18661   4.079   6.322   4.417
 5921SOL    HW118662   3.989   6.330   4.460
 5921SOL    HW218663   4.150   6.337   4.487
 5922SOL     OW18664   6.710   5.310   2.218
 5922SOL    HW118665   6.754   5.399   2.226
 5922SOL    HW218666   6.778   5.238   2.229
 5923SOL     OW18667   0.879   0.244   3.454
 5923SOL    HW118668   0.851   0.202   3.541
 5923SOL    HW218669   0.817   0.320   3.432
 5924SOL     OW18670   5.706   2.228   5.187
 5924SOL    HW118671   5.734   2.142   5.230
 5924SOL    HW218672   5.699   2.215   5.088
 5925SOL     OW18673   6.797   6.339   0.781
 5925SOL    HW118674   6.713   6.308   0.824
 5925SOL    HW218675   6.870   6.272   0.797
 5926SOL     OW18676   3.227   6.604   2.099
 5926SOL    HW118677   3.148   6.543   2.089
 5926SOL    HW218678   3.209   6.668   2.174
 5927SOL     OW18679   2.289   5.342   1.135
 5927SOL    HW118680   2.250   5.262   1.089
 5927SOL    HW218681   2.351   5.389   1.073
 5928SOL     OW18682   6.677   6.225   1.003
 5928SOL    HW118683   6.758   6.266   1.045
 5928SOL    HW218684   6.685   6.125   1.006
 5929SOL     OW18685   0.094   0.095   5.920
 5929SOL    HW118686   0.145   0.009   5.911
 5929SOL    HW218687   0.001   0.075   5.952
 5930SOL     OW18688   6.569   1.659   4.860
 5930SOL    HW118689   6.486   1.606   4.841
 5930SOL    HW218690   6.635   1.601   4.908
 5931SOL     OW18691   6.123   4.496   0.462
 5931SOL    HW118692   6.084   4.416   0.416
 5931SOL    HW218693   6.113   4.485   0.561
 5932SOL     OW18694   2.676   0.298   0.559
 5932SOL    HW118695   2.703   0.381   0.511
 5932SOL    HW218696   2.607   0.320   0.628
 5933SOL     OW18697   5.483   2.035   3.372
 5933SOL    HW118698   5.509   2.124   3.333
 5933SOL    HW218699   5.528   2.024   3.461
 5934SOL     OW18700   4.054   3.526   1.743
 5934SOL    HW118701   3.958   3.497   1.733
 5934SOL    HW218702   4.107   3.452   1.783
 5935SOL     OW18703   3.809   3.407   2.184
 5935SOL    HW118704   3.783   3.321   2.228
 5935SOL    HW218705   3.732   3.471   2.190
 5936SOL     OW18706   6.421   5.827   0.207
 5936SOL    HW118707   6.333   5.846   0.163
 5936SOL    HW218708   6.482   5.781   0.141
 5937SOL     OW18709   0.852   3.848   0.812
 5937SOL    HW118710   0.929   3.793   0.780
 5937SOL    HW218711   0.848   3.933   0.759
 5938SOL     OW18712   2.714   5.152   1.261
 5938SOL    HW118713   2.701   5.248   1.286
 5938SOL    HW218714   2.635   5.098   1.292
 5939SOL     OW18715   0.620   0.125   2.296
 5939SOL    HW118716   0.693   0.114   2.228
 5939SOL    HW218717   0.657   0.170   2.378
 5940SOL     OW18718   4.109   4.900   2.969
 5940SOL    HW118719   4.059   4.947   3.042
 5940SOL    HW218720   4.052   4.893   2.887
 5941SOL     OW18721   6.483   2.699   4.085
 5941SOL    HW118722   6.457   2.627   4.020
 5941SOL    HW218723   6.509   2.658   4.172
 5942SOL     OW18724   6.940   1.609   4.710
 5942SOL    HW118725   6.979   1.694   4.746
 5942SOL    HW218726   7.005   1.568   4.646
 5943SOL     OW18727   1.794   5.885   1.205
 5943SOL    HW118728   1.880   5.936   1.207
 5943SOL    HW218729   1.720   5.943   1.238
 5944SOL     OW18730   5.308   2.695   3.079
 5944SOL    HW118731   5.274   2.758   3.010
 5944SOL    HW218732   5.279   2.602   3.057
 5945SOL     OW18733   6.471   6.085   6.042
 5945SOL    HW118734   6.418   6.079   5.957
 5945SOL    HW218735   6.544   6.017   6.040
 5946SOL     OW18736   4.043   2.444   5.394
 5946SOL    HW118737   4.100   2.467   5.473
 5946SOL    HW218738   4.057   2.511   5.322
 5947SOL     OW18739   5.934   3.635   2.849
 5947SOL    HW118740   5.964   3.708   2.909
 5947SOL    HW218741   5.925   3.550   2.901
 5948SOL     OW18742   2.774   5.929   3.226
 5948SOL    HW118743   2.692   5.872   3.223
 5948SOL    HW218744   2.765   5.997   3.299
 5949SOL     OW18745   4.949   4.075   3.050
 5949SOL    HW118746   4.912   3.985   3.028
 5949SOL    HW218747   4.884   4.125   3.107
 5950SOL     OW18748   0.184   1.783   4.839
 5950SOL    HW118749   0.224   1.839   4.767
 5950SOL    HW218750   0.131   1.841   4.901
 5951SOL     OW18751   2.103   0.201   3.334
 5951SOL    HW118752   2.110   0.266   3.258
 5951SOL    HW218753   2.057   0.245   3.411
 5952SOL     OW18754   0.514   6.450   4.457
 5952SOL    HW118755   0.543   6.511   4.384
 5952SOL    HW218756   0.415   6.439   4.455
 5953SOL     OW18757   1.205   3.466   6.086
 5953SOL    HW118758   1.240   3.516   6.007
 5953SOL    HW218759   1.274   3.403   6.119
 5954SOL     OW18760   1.405   4.226   6.527
 5954SOL    HW118761   1.388   4.322   6.504
 5954SOL    HW218762   1.494   4.198   6.490
 5955SOL     OW18763   4.014   5.173   1.985
 5955SOL    HW118764   4.068   5.160   2.068
 5955SOL    HW218765   3.921   5.201   2.009
 5956SOL     OW18766   0.350   1.652   0.755
 5956SOL    HW118767   0.360   1.678   0.851
 5956SOL    HW218768   0.360   1.734   0.697
 5957SOL     OW18769   4.122   6.652   6.426
 5957SOL    HW118770   4.023   6.641   6.433
 5957SOL    HW218771   4.156   6.701   6.506
 5958SOL     OW18772   1.154   5.764   2.299
 5958SOL    HW118773   1.127   5.860   2.292
 5958SOL    HW218774   1.227   5.745   2.233
 5959SOL     OW18775   1.469   0.792   5.745
 5959SOL    HW118776   1.453   0.887   5.772
 5959SOL    HW218777   1.546   0.755   5.798
 5960SOL     OW18778   3.616   5.684   5.006
 5960SOL    HW118779   3.573   5.631   4.933
 5960SOL    HW218780   3.636   5.776   4.974
 5961SOL     OW18781   2.899   0.939   5.159
 5961SOL    HW118782   2.851   1.012   5.208
 5961SOL    HW218783   2.987   0.974   5.125
 5962SOL     OW18784   5.655   4.175   3.244
 5962SOL    HW118785   5.619   4.085   3.220
 5962SOL    HW218786   5.631   4.241   3.173
 5963SOL     OW18787   4.306   4.266   1.600
 5963SOL    HW118788   4.236   4.196   1.583
 5963SOL    HW218789   4.339   4.257   1.694
 5964SOL     OW18790   1.585   3.526   5.233
 5964SOL    HW118791   1.523   3.522   5.154
 5964SOL    HW218792   1.662   3.464   5.217
 5965SOL     OW18793   1.767   2.430   4.552
 5965SOL    HW118794   1.714   2.400   4.631
 5965SOL    HW218795   1.864   2.410   4.566
 5966SOL     OW18796   1.419   5.698   4.435
 5966SOL    HW118797   1.513   5.727   4.419
 5966SOL    HW218798   1.362   5.778   4.451
 5967SOL     OW18799   5.041   5.643   0.948
 5967SOL    HW118800   5.035   5.560   1.003
 5967SOL    HW218801   4.949   5.669   0.918
 5968SOL     OW18802   1.885   2.099   4.008
 5968SOL    HW118803   1.888   2.191   4.049
 5968SOL    HW218804   1.943   2.098   3.927
 5969SOL     OW18805   0.911   2.446   2.876
 5969SOL    HW118806   0.983   2.482   2.816
 5969SOL    HW218807   0.822   2.470   2.838
 5970SOL     OW18808   2.268   4.188   3.431
 5970SOL    HW118809   2.209   4.224   3.503
 5970SOL    HW218810   2.260   4.088   3.429
 5971SOL     OW18811   3.200   5.631   3.529
 5971SOL    HW118812   3.157   5.556   3.579
 5971SOL    HW218813   3.248   5.691   3.592
 5972SOL     OW18814   5.488   6.813   1.688
 5972SOL    HW118815   5.509   6.799   1.591
 5972SOL    HW218816   5.428   6.741   1.720
 5973SOL     OW18817   2.418   4.779   3.253
 5973SOL    HW118818   2.406   4.765   3.154
 5973SOL    HW218819   2.494   4.723   3.285
 5974SOL     OW18820   0.936   4.246   6.557
 5974SOL    HW118821   0.995   4.171   6.526
 5974SOL    HW218822   0.952   4.327   6.501
 5975SOL     OW18823   1.920   2.329   6.646
 5975SOL    HW118824   1.981   2.298   6.573
 5975SOL    HW218825   1.968   2.397   6.702
 5976SOL     OW18826   3.563   3.859   4.135
 5976SOL    HW118827   3.528   3.947   4.106
 5976SOL    HW218828   3.509   3.824   4.212
 5977SOL     OW18829   0.377   3.946   2.639
 5977SOL    HW118830   0.355   3.868   2.580
 5977SOL    HW218831   0.302   4.012   2.636
 5978SOL     OW18832   5.229   5.163   1.336
 5978SOL    HW118833   5.278   5.089   1.382
 5978SOL    HW218834   5.226   5.146   1.238
 5979SOL     OW18835   1.086   1.351   1.562
 5979SOL    HW118836   1.179   1.318   1.544
 5979SOL    HW218837   1.088   1.414   1.640
 5980SOL     OW18838   6.133   2.590   5.078
 5980SOL    HW118839   6.175   2.537   5.004
 5980SOL    HW218840   6.119   2.530   5.157
 5981SOL     OW18841   3.536   1.943   0.902
 5981SOL    HW118842   3.444   1.958   0.937
 5981SOL    HW218843   3.563   2.020   0.844
 5982SOL     OW18844   6.414   2.712   7.013
 5982SOL    HW118845   6.375   2.628   0.026
 5982SOL    HW218846   6.507   2.693   6.979
 5983SOL     OW18847   0.677   0.640   4.192
 5983SOL    HW118848   0.768   0.674   4.172
 5983SOL    HW218849   0.651   0.571   4.125
 5984SOL     OW18850   0.500   6.988   6.150
 5984SOL    HW118851   0.515   0.059   6.122
 5984SOL    HW218852   0.587   6.949   6.181
 5985SOL     OW18853   5.840   3.261   3.633
 5985SOL    HW118854   5.882   3.339   3.679
 5985SOL    HW218855   5.857   3.178   3.686
 5986SOL     OW18856   3.278   3.407   2.199
 5986SOL    HW118857   3.232   3.398   2.110
 5986SOL    HW218858   3.253   3.494   2.241
 5987SOL     OW18859   3.851   0.112   5.186
 5987SOL    HW118860   3.825   0.024   5.146
 5987SOL    HW218861   3.848   0.183   5.116
 5988SOL     OW18862   3.402   6.781   5.949
 5988SOL    HW118863   3.419   6.858   5.889
 5988SOL    HW218864   3.420   6.807   6.044
 5989SOL     OW18865   3.054   1.537   6.677
 5989SOL    HW118866   3.022   1.576   6.591
 5989SOL    HW218867   3.152   1.519   6.671
 5990SOL     OW18868   2.801   6.384   3.697
 5990SOL    HW118869   2.900   6.379   3.687
 5990SOL    HW218870   2.769   6.474   3.668
 5991SOL     OW18871   3.745   4.885   2.974
 5991SOL    HW118872   3.659   4.916   2.935
 5991SOL    HW218873   3.810   4.865   2.900
 5992SOL     OW18874   3.744   1.828   4.448
 5992SOL    HW118875   3.716   1.760   4.515
 5992SOL    HW218876   3.690   1.817   4.364
 5993SOL     OW18877   2.820   5.525   4.305
 5993SOL    HW118878   2.745   5.494   4.363
 5993SOL    HW218879   2.861   5.607   4.344
 5994SOL     OW18880   6.278   2.294   0.386
 5994SOL    HW118881   6.295   2.293   0.484
 5994SOL    HW218882   6.341   2.231   0.340
 5995SOL     OW18883   0.210   3.837   1.888
 5995SOL    HW118884   0.268   3.901   1.836
 5995SOL    HW218885   0.267   3.766   1.928
 5996SOL     OW18886   1.314   6.017   6.061
 5996SOL    HW118887   1.215   6.025   6.049
 5996SOL    HW218888   1.361   6.069   5.989
 5997SOL     OW18889   0.870   0.372   1.093
 5997SOL    HW118890   0.902   0.466   1.105
 5997SOL    HW218891   0.894   0.340   1.001
 5998SOL     OW18892   5.209   3.209   3.183
 5998SOL    HW118893   5.267   3.145   3.133
 5998SOL    HW218894   5.187   3.287   3.124
 5999SOL     OW18895   2.223   3.067   2.948
 5999SOL    HW118896   2.215   3.097   3.043
 5999SOL    HW218897   2.187   3.139   2.888
 6000SOL     OW18898   5.288   1.041   3.712
 6000SOL    HW118899   5.241   0.989   3.641
 6000SOL    HW218900   5.291   0.987   3.796
 6001SOL     OW18901   5.631   1.248   0.170
 6001SOL    HW118902   5.551   1.213   0.217
 6001SOL    HW218903   5.672   1.176   0.114
 6002SOL     OW18904   2.599   0.001   2.262
 6002SOL    HW118905   2.652   0.012   2.178
 6002SOL    HW218906   2.622   0.074   2.326
 6003SOL     OW18907   5.284   4.568   3.891
 6003SOL    HW118908   5.365   4.616   3.859
 6003SOL    HW218909   5.223   4.550   3.814
 6004SOL     OW18910   0.605   3.543   2.062
 6004SOL    HW118911   0.623   3.628   2.111
 6004SOL    HW218912   0.552   3.482   2.120
 6005SOL     OW18913   2.450   6.586   2.339
 6005SOL    HW118914   2.470   6.630   2.427
 6005SOL    HW218915   2.508   6.505   2.328
 6006SOL     OW18916   2.134   6.331   6.711
 6006SOL    HW118917   2.094   6.239   6.717
 6006SOL    HW218918   2.223   6.331   6.756
 6007SOL     OW18919   5.701   3.722   4.581
 6007SOL    HW118920   5.647   3.792   4.536
 6007SOL    HW218921   5.738   3.758   4.666
 6008SOL     OW18922   4.958   4.189   1.970
 6008SOL    HW118923   4.890   4.212   2.040
 6008SOL    HW218924   4.912   4.151   1.890
 6009SOL     OW18925   3.489   1.535   4.788
 6009SOL    HW118926   3.392   1.521   4.807
 6009SOL    HW218927   3.506   1.632   4.770
 6010SOL     OW18928   1.915   5.027   3.542
 6010SOL    HW118929   1.890   5.078   3.625
 6010SOL    HW218930   2.002   4.981   3.557
 6011SOL     OW18931   6.278   2.243   1.737
 6011SOL    HW118932   6.361   2.260   1.790
 6011SOL    HW218933   6.228   2.166   1.778
 6012SOL     OW18934   0.891   2.363   0.918
 6012SOL    HW118935   0.982   2.378   0.957
 6012SOL    HW218936   0.822   2.390   0.985
 6013SOL     OW18937   5.342   1.051   2.295
 6013SOL    HW118938   5.349   0.959   2.255
 6013SOL    HW218939   5.268   1.053   2.361
 6014SOL     OW18940   6.246   1.651   0.417
 6014SOL    HW118941   6.230   1.615   0.509
 6014SOL    HW218942   6.232   1.578   0.350
 6015SOL     OW18943   6.115   0.047   4.618
 6015SOL    HW118944   6.204   0.004   4.610
 6015SOL    HW218945   6.092   0.058   4.715
 6016SOL     OW18946   0.968   0.035   5.571
 6016SOL    HW118947   1.039   6.993   5.546
 6016SOL    HW218948   1.011   0.116   5.611
 6017SOL     OW18949   0.181   3.812   2.479
 6017SOL    HW118950   0.119   3.792   2.403
 6017SOL    HW218951   0.170   3.743   2.550
 6018SOL     OW18952   3.457   5.034   1.474
 6018SOL    HW118953   3.550   5.066   1.455
 6018SOL    HW218954   3.450   5.004   1.569
 6019SOL     OW18955   6.470   0.048   3.730
 6019SOL    HW118956   6.417   6.987   3.739
 6019SOL    HW218957   6.566   0.025   3.717
 6020SOL     OW18958   2.651   6.419   3.076
 6020SOL    HW118959   2.679   6.344   3.015
 6020SOL    HW218960   2.584   6.385   3.142
 6021SOL     OW18961   3.197   0.535   3.208
 6021SOL    HW118962   3.255   0.505   3.132
 6021SOL    HW218963   3.214   0.632   3.227
 6022SOL     OW18964   3.522   2.124   5.676
 6022SOL    HW118965   3.615   2.091   5.667
 6022SOL    HW218966   3.459   2.061   5.630
 6023SOL     OW18967   0.505   1.911   1.778
 6023SOL    HW118968   0.424   1.968   1.766
 6023SOL    HW218969   0.575   1.963   1.827
 6024SOL     OW18970   6.254   5.029   2.571
 6024SOL    HW118971   6.336   5.003   2.622
 6024SOL    HW218972   6.267   5.011   2.474
 6025SOL     OW18973   4.468   2.447   2.501
 6025SOL    HW118974   4.530   2.377   2.536
 6025SOL    HW218975   4.464   2.442   2.402
 6026SOL     OW18976   0.864   3.955   5.430
 6026SOL    HW118977   0.893   3.895   5.355
 6026SOL    HW218978   0.824   4.039   5.391
 6027SOL     OW18979   4.060   4.286   0.050
 6027SOL    HW118980   4.146   4.320   0.012
 6027SOL    HW218981   4.072   4.192   0.081
 6028SOL     OW18982   1.137   3.956   5.945
 6028SOL    HW118983   1.125   3.951   5.845
 6028SOL    HW218984   1.185   4.041   5.968
 6029SOL     OW18985   1.192   5.385   1.655
 6029SOL    HW118986   1.281   5.342   1.641
 6029SOL    HW218987   1.132   5.364   1.577
 6030SOL     OW18988   1.838   6.646   1.765
 6030SOL    HW118989   1.853   6.638   1.666
 6030SOL    HW218990   1.890   6.575   1.812
 6031SOL     OW18991   4.198   0.915   4.625
 6031SOL    HW118992   4.264   0.849   4.659
 6031SOL    HW218993   4.186   0.903   4.527
 6032SOL     OW18994   1.288   2.275   2.124
 6032SOL    HW118995   1.307   2.367   2.089
 6032SOL    HW218996   1.296   2.209   2.049
 6033SOL     OW18997   0.094   6.690   4.418
 6033SOL    HW118998   0.106   6.780   4.461
 6033SOL    HW218999   0.060   6.625   4.485
 6034SOL     OW19000   2.490   4.501   4.354
 6034SOL    HW119001   2.539   4.542   4.431
 6034SOL    HW219002   2.423   4.435   4.389
 6035SOL     OW19003   4.811   0.080   4.081
 6035SOL    HW119004   4.796   0.177   4.064
 6035SOL    HW219005   4.826   0.064   4.178
 6036SOL     OW19006   5.388   1.001   5.339
 6036SOL    HW119007   5.441   1.021   5.422
 6036SOL    HW219008   5.419   0.915   5.299
 6037SOL     OW19009   0.270   5.891   4.950
 6037SOL    HW119010   0.262   5.836   4.867
 6037SOL    HW219011   0.213   5.851   5.022
 6038SOL     OW19012   0.505   3.642   6.284
 6038SOL    HW119013   0.525   3.738   6.264
 6038SOL    HW219014   0.550   3.616   6.369
 6039SOL     OW19015   3.208   3.306   3.771
 6039SOL    HW119016   3.149   3.246   3.825
 6039SOL    HW219017   3.297   3.263   3.760
 6040SOL     OW19018   1.297   0.873   0.602
 6040SOL    HW119019   1.244   0.944   0.556
 6040SOL    HW219020   1.354   0.915   0.673
 6041SOL     OW19021   0.515   3.010   6.998
 6041SOL    HW119022   0.576   2.944   6.956
 6041SOL    HW219023   0.566   3.067   0.039
 6042SOL     OW19024   5.648   6.011   5.108
 6042SOL    HW119025   5.657   5.914   5.085
 6042SOL    HW219026   5.559   6.045   5.078
 6043SOL     OW19027   0.002   4.846   3.097
 6043SOL    HW119028   0.087   4.889   3.126
 6043SOL    HW219029   7.023   4.752   3.131
 6044SOL     OW19030   1.514   0.966   0.720
 6044SOL    HW119031   1.596   1.004   0.762
 6044SOL    HW219032   1.501   1.007   0.630
 6045SOL     OW19033   6.052   3.814   6.648
 6045SOL    HW119034   6.023   3.908   6.630
 6045SOL    HW219035   6.114   3.784   6.575
 6046SOL     OW19036   1.158   3.869   7.004
 6046SOL    HW119037   1.160   3.770   7.000
 6046SOL    HW219038   1.063   3.901   7.011
 6047SOL     OW19039   1.369   6.127   5.057
 6047SOL    HW119040   1.385   6.178   5.141
 6047SOL    HW219041   1.412   6.174   4.980
 6048SOL     OW19042   5.079   6.122   3.998
 6048SOL    HW119043   5.123   6.207   3.967
 6048SOL    HW219044   5.032   6.079   3.920
 6049SOL     OW19045   6.770   5.907   0.367
 6049SOL    HW119046   6.864   5.910   0.400
 6049SOL    HW219047   6.753   5.820   0.320
 6050SOL     OW19048   5.377   4.327   5.337
 6050SOL    HW119049   5.398   4.237   5.299
 6050SOL    HW219050   5.450   4.391   5.313
 6051SOL     OW19051   3.060   1.823   3.343
 6051SOL    HW119052   3.124   1.775   3.403
 6051SOL    HW219053   3.079   1.921   3.346
 6052SOL     OW19054   0.612   2.004   6.855
 6052SOL    HW119055   0.652   1.928   6.805
 6052SOL    HW219056   0.685   2.057   6.899
 6053SOL     OW19057   1.235   0.675   6.647
 6053SOL    HW119058   1.290   0.742   6.596
 6053SOL    HW219059   1.292   0.597   6.671
 6054SOL     OW19060   0.628   3.914   6.245
 6054SOL    HW119061   0.648   3.998   6.194
 6054SOL    HW219062   0.712   3.863   6.260
 6055SOL     OW19063   5.710   7.007   2.783
 6055SOL    HW119064   5.795   0.035   2.786
 6055SOL    HW219065   5.633   0.045   2.771
 6056SOL     OW19066   5.223   3.052   6.452
 6056SOL    HW119067   5.218   3.130   6.389
 6056SOL    HW219068   5.223   2.967   6.399
 6057SOL     OW19069   4.699   0.889   6.912
 6057SOL    HW119070   4.761   0.829   6.964
 6057SOL    HW219071   4.705   0.867   6.815
 6058SOL     OW19072   5.325   2.240   5.616
 6058SOL    HW119073   5.340   2.288   5.530
 6058SOL    HW219074   5.283   2.301   5.683
 6059SOL     OW19075   6.957   6.353   6.577
 6059SOL    HW119076   6.950   6.425   6.509
 6059SOL    HW219077   6.981   6.393   6.666
 6060SOL     OW19078   3.059   5.502   6.465
 6060SOL    HW119079   3.035   5.584   6.516
 6060SOL    HW219080   2.982   5.438   6.465
 6061SOL     OW19081   2.154   1.552   0.193
 6061SOL    HW119082   2.246   1.571   0.158
 6061SOL    HW219083   2.086   1.585   0.128
 6062SOL     OW19084   1.163   0.261   3.486
 6062SOL    HW119085   1.070   0.295   3.470
 6062SOL    HW219086   1.159   0.174   3.535
 6063SOL     OW19087   5.797   6.439   0.261
 6063SOL    HW119088   5.845   6.462   0.345
 6063SOL    HW219089   5.863   6.429   0.187
 6064SOL     OW19090   0.974   5.566   2.426
 6064SOL    HW119091   1.027   5.636   2.379
 6064SOL    HW219092   0.937   5.603   2.511
 6065SOL     OW19093   5.082   0.226   1.130
 6065SOL    HW119094   5.094   0.324   1.114
 6065SOL    HW219095   5.097   0.177   1.045
 6066SOL     OW19096   4.936   2.342   5.566
 6066SOL    HW119097   4.874   2.340   5.644
 6066SOL    HW219098   4.973   2.434   5.555
 6067SOL     OW19099   4.952   1.470   0.011
 6067SOL    HW119100   4.969   1.553   0.064
 6067SOL    HW219101   4.965   1.488   6.938
 6068SOL     OW19102   4.888   0.994   5.542
 6068SOL    HW119103   4.878   0.907   5.592
 6068SOL    HW219104   4.961   0.985   5.475
 6069SOL     OW19105   6.878   5.250   3.399
 6069SOL    HW119106   6.961   5.290   3.438
 6069SOL    HW219107   6.822   5.210   3.471
 6070SOL     OW19108   5.004   3.403   1.418
 6070SOL    HW119109   4.986   3.319   1.470
 6070SOL    HW219110   4.931   3.417   1.351
 6071SOL     OW19111   4.965   0.556   5.191
 6071SOL    HW119112   4.980   0.564   5.289
 6071SOL    HW219113   4.870   0.530   5.174
 6072SOL     OW19114   6.390   1.164   1.901
 6072SOL    HW119115   6.352   1.086   1.951
 6072SOL    HW219116   6.330   1.187   1.825
 6073SOL     OW19117   6.105   0.961   0.994
 6073SOL    HW119118   6.086   0.863   0.994
 6073SOL    HW219119   6.139   0.989   1.084
 6074SOL     OW19120   0.279   0.797   5.897
 6074SOL    HW119121   0.232   0.883   5.918
 6074SOL    HW219122   0.344   0.811   5.823
 6075SOL     OW19123   5.502   3.433   5.877
 6075SOL    HW119124   5.480   3.530   5.893
 6075SOL    HW219125   5.575   3.426   5.809
 6076SOL     OW19126   2.968   0.382   3.683
 6076SOL    HW119127   3.013   0.295   3.667
 6076SOL    HW219128   2.960   0.433   3.597
 6077SOL     OW19129   4.974   4.998   3.490
 6077SOL    HW119130   5.023   5.002   3.403
 6077SOL    HW219131   5.014   4.927   3.548
 6078SOL     OW19132   2.243   4.736   4.551
 6078SOL    HW119133   2.159   4.766   4.597
 6078SOL    HW219134   2.304   4.814   4.539
 6079SOL     OW19135   3.251   1.891   0.643
 6079SOL    HW119136   3.170   1.922   0.593
 6079SOL    HW219137   3.270   1.953   0.718
 6080SOL     OW19138   6.098   3.573   3.321
 6080SOL    HW119139   6.071   3.644   3.386
 6080SOL    HW219140   6.173   3.519   3.359
 6081SOL     OW19141   0.935   4.518   1.805
 6081SOL    HW119142   1.030   4.508   1.837
 6081SOL    HW219143   0.919   4.613   1.778
 6082SOL     OW19144   4.643   1.673   5.267
 6082SOL    HW119145   4.657   1.579   5.236
 6082SOL    HW219146   4.723   1.703   5.320
 6083SOL     OW19147   1.831   6.859   6.582
 6083SOL    HW119148   1.736   6.889   6.578
 6083SOL    HW219149   1.888   6.934   6.617
 6084SOL     OW19150   0.303   5.982   6.268
 6084SOL    HW119151   0.211   6.020   6.279
 6084SOL    HW219152   0.371   6.050   6.295
 6085SOL     OW19153   5.449   4.916   1.718
 6085SOL    HW119154   5.357   4.889   1.689
 6085SOL    HW219155   5.465   4.883   1.811
 6086SOL     OW19156   3.519   1.952   2.099
 6086SOL    HW119157   3.610   1.916   2.079
 6086SOL    HW219158   3.484   2.001   2.020
 6087SOL     OW19159   3.693   0.861   0.188
 6087SOL    HW119160   3.657   0.841   0.097
 6087SOL    HW219161   3.617   0.876   0.252
 6088SOL     OW19162   0.534   0.914   4.881
 6088SOL    HW119163   0.456   0.864   4.917
 6088SOL    HW219164   0.602   0.927   4.954
 6089SOL     OW19165   7.005   3.631   1.631
 6089SOL    HW119166   0.052   3.640   1.561
 6089SOL    HW219167   6.946   3.554   1.609
 6090SOL     OW19168   6.583   6.505   4.370
 6090SOL    HW119169   6.679   6.481   4.360
 6090SOL    HW219170   6.542   6.452   4.444
 6091SOL     OW19171   6.740   2.039   2.034
 6091SOL    HW119172   6.775   2.082   2.118
 6091SOL    HW219173   6.642   2.057   2.027
 6092SOL     OW19174   0.550   3.700   1.355
 6092SOL    HW119175   0.486   3.733   1.286
 6092SOL    HW219176   0.591   3.614   1.324
 6093SOL     OW19177   0.850   4.411   0.784
 6093SOL    HW119178   0.947   4.412   0.758
 6093SOL    HW219179   0.806   4.495   0.751
 6094SOL     OW19180   0.404   1.470   1.115
 6094SOL    HW119181   0.419   1.404   1.188
 6094SOL    HW219182   0.459   1.552   1.132
 6095SOL     OW19183   0.589   3.948   5.126
 6095SOL    HW119184   0.508   4.005   5.114
 6095SOL    HW219185   0.657   3.999   5.179
 6096SOL     OW19186   5.764   1.879   2.695
 6096SOL    HW119187   5.729   1.788   2.672
 6096SOL    HW219188   5.779   1.931   2.611
 6097SOL     OW19189   3.801   1.405   2.452
 6097SOL    HW119190   3.826   1.501   2.441
 6097SOL    HW219191   3.860   1.363   2.522
 6098SOL     OW19192   0.490   0.906   6.821
 6098SOL    HW119193   0.580   0.912   6.864
 6098SOL    HW219194   0.479   0.816   6.778
 6099SOL     OW19195   5.821   4.377   4.818
 6099SOL    HW119196   5.887   4.380   4.744
 6099SOL    HW219197   5.869   4.375   4.906
 6100SOL     OW19198   6.970   2.789   1.428
 6100SOL    HW119199   6.996   2.695   1.451
 6100SOL    HW219200   6.962   2.799   1.329
 6101SOL     OW19201   6.451   6.382   3.778
 6101SOL    HW119202   6.480   6.403   3.684
 6101SOL    HW219203   6.383   6.449   3.807
 6102SOL     OW19204   3.379   6.054   4.662
 6102SOL    HW119205   3.347   5.961   4.679
 6102SOL    HW219206   3.427   6.057   4.575
 6103SOL     OW19207   5.232   2.003   4.917
 6103SOL    HW119208   5.208   1.934   4.849
 6103SOL    HW219209   5.230   1.961   5.008
 6104SOL     OW19210   2.267   3.151   1.357
 6104SOL    HW119211   2.302   3.060   1.334
 6104SOL    HW219212   2.342   3.208   1.390
 6105SOL     OW19213   3.359   5.015   4.875
 6105SOL    HW119214   3.411   4.985   4.955
 6105SOL    HW219215   3.275   4.961   4.867
 6106SOL     OW19216   2.190   5.265   4.101
 6106SOL    HW119217   2.124   5.263   4.026
 6106SOL    HW219218   2.171   5.189   4.164
 6107SOL     OW19219   1.971   4.802   6.027
 6107SOL    HW119220   1.922   4.878   6.070
 6107SOL    HW219221   2.061   4.791   6.069
 6108SOL     OW19222   5.441   2.063   5.147
 6108SOL    HW119223   5.487   2.142   5.188
 6108SOL    HW219224   5.487   2.038   5.062
 6109SOL     OW19225   0.298   4.449   1.822
 6109SOL    HW119226   0.277   4.531   1.877
 6109SOL    HW219227   0.388   4.459   1.780
 6110SOL     OW19228   3.401   2.095   3.818
 6110SOL    HW119229   3.317   2.095   3.763
 6110SOL    HW219230   3.480   2.091   3.758
 6111SOL     OW19231   0.657   4.541   3.698
 6111SOL    HW119232   0.737   4.483   3.683
 6111SOL    HW219233   0.593   4.530   3.623
 6112SOL     OW19234   1.636   0.707   1.055
 6112SOL    HW119235   1.550   0.758   1.062
 6112SOL    HW219236   1.713   0.771   1.053
 6113SOL     OW19237   0.941   4.796   5.978
 6113SOL    HW119238   0.890   4.758   5.901
 6113SOL    HW219239   1.033   4.822   5.949
 6114SOL     OW19240   3.526   4.299   1.428
 6114SOL    HW119241   3.611   4.351   1.432
 6114SOL    HW219242   3.506   4.275   1.333
 6115SOL     OW19243   6.996   4.226   2.446
 6115SOL    HW119244   6.951   4.311   2.472
 6115SOL    HW219245   6.933   4.169   2.394
 6116SOL     OW19246   4.175   2.547   0.828
 6116SOL    HW119247   4.139   2.631   0.786
 6116SOL    HW219248   4.274   2.547   0.820
 6117SOL     OW19249   5.281   6.298   4.214
 6117SOL    HW119250   5.330   6.301   4.301
 6117SOL    HW219251   5.297   6.210   4.169
 6118SOL     OW19252   6.300   0.172   3.524
 6118SOL    HW119253   6.343   0.157   3.613
 6118SOL    HW219254   6.314   0.267   3.495
 6119SOL     OW19255   5.768   5.347   5.030
 6119SOL    HW119256   5.727   5.378   4.944
 6119SOL    HW219257   5.713   5.379   5.107
 6120SOL     OW19258   2.199   2.004   2.702
 6120SOL    HW119259   2.202   1.909   2.733
 6120SOL    HW219260   2.128   2.054   2.753
 6121SOL     OW19261   0.002   1.875   3.282
 6121SOL    HW119262   0.045   1.808   3.221
 6121SOL    HW219263   0.062   1.892   3.361
 6122SOL     OW19264   3.688   5.711   3.801
 6122SOL    HW119265   3.757   5.781   3.787
 6122SOL    HW219266   3.727   5.620   3.785
 6123SOL     OW19267   6.425   2.000   3.067
 6123SOL    HW119268   6.385   2.025   3.155
 6123SOL    HW219269   6.524   2.010   3.071
 6124SOL     OW19270   2.878   0.398   4.995
 6124SOL    HW119271   2.933   0.385   5.078
 6124SOL    HW219272   2.849   0.308   4.960
 6125SOL     OW19273   1.267   4.299   2.690
 6125SOL    HW119274   1.215   4.238   2.750
 6125SOL    HW219275   1.215   4.383   2.676
 6126SOL     OW19276   3.600   6.783   3.036
 6126SOL    HW119277   3.656   6.778   2.953
 6126SOL    HW219278   3.535   6.707   3.036
 6127SOL     OW19279   1.767   5.754   0.962
 6127SOL    HW119280   1.749   5.814   1.040
 6127SOL    HW219281   1.813   5.671   0.994
 6128SOL     OW19282   5.621   4.004   1.862
 6128SOL    HW119283   5.634   4.052   1.775
 6128SOL    HW219284   5.567   3.921   1.847
 6129SOL     OW19285   6.613   3.657   3.565
 6129SOL    HW119286   6.593   3.693   3.657
 6129SOL    HW219287   6.676   3.719   3.518
 6130SOL     OW19288   5.893   3.312   2.826
 6130SOL    HW119289   5.854   3.328   2.917
 6130SOL    HW219290   5.851   3.376   2.761
 6131SOL     OW19291   0.150   1.236   5.551
 6131SOL    HW119292   0.102   1.233   5.463
 6131SOL    HW219293   0.141   1.327   5.591
 6132SOL     OW19294   6.922   2.674   0.327
 6132SOL    HW119295   6.928   2.582   0.289
 6132SOL    HW219296   6.967   2.676   0.416
 6133SOL     OW19297   1.213   4.967   0.454
 6133SOL    HW119298   1.189   4.936   0.546
 6133SOL    HW219299   1.225   5.067   0.455
 6134SOL     OW19300   4.605   4.225   6.094
 6134SOL    HW119301   4.527   4.282   6.121
 6134SOL    HW219302   4.662   4.206   6.174
 6135SOL     OW19303   5.928   6.597   2.214
 6135SOL    HW119304   5.938   6.685   2.168
 6135SOL    HW219305   5.868   6.538   2.161
 6136SOL     OW19306   0.968   2.189   2.650
 6136SOL    HW119307   1.065   2.189   2.675
 6136SOL    HW219308   0.946   2.104   2.602
 6137SOL     OW19309   3.278   0.461   6.174
 6137SOL    HW119310   3.376   0.473   6.163
 6137SOL    HW219311   3.255   0.461   6.271
 6138SOL     OW19312   4.784   0.959   3.101
 6138SOL    HW119313   4.873   0.918   3.117
 6138SOL    HW219314   4.790   1.059   3.110
 6139SOL     OW19315   2.315   6.219   4.029
 6139SOL    HW119316   2.266   6.146   4.077
 6139SOL    HW219317   2.264   6.245   3.947
 6140SOL     OW19318   2.305   5.888   1.352
 6140SOL    HW119319   2.243   5.842   1.415
 6140SOL    HW219320   2.315   5.984   1.380
 6141SOL     OW19321   0.913   6.425   4.596
 6141SOL    HW119322   0.912   6.337   4.643
 6141SOL    HW219323   0.827   6.473   4.613
 6142SOL     OW19324   0.121   3.039   4.229
 6142SOL    HW119325   0.123   2.960   4.167
 6142SOL    HW219326   0.026   3.063   4.249
 6143SOL     OW19327   6.433   5.634   6.662
 6143SOL    HW119328   6.441   5.732   6.644
 6143SOL    HW219329   6.367   5.594   6.599
 6144SOL     OW19330   0.186   5.701   4.740
 6144SOL    HW119331   0.112   5.732   4.680
 6144SOL    HW219332   0.274   5.718   4.696
 6145SOL     OW19333   5.951   5.172   3.780
 6145SOL    HW119334   5.855   5.200   3.793
 6145SOL    HW219335   6.006   5.211   3.854
 6146SOL     OW19336   5.942   1.715   3.873
 6146SOL    HW119337   5.966   1.680   3.782
 6146SOL    HW219338   5.860   1.772   3.866
 6147SOL     OW19339   1.347   3.799   3.842
 6147SOL    HW119340   1.317   3.746   3.763
 6147SOL    HW219341   1.420   3.750   3.889
 6148SOL     OW19342   5.634   6.712   3.486
 6148SOL    HW119343   5.688   6.657   3.550
 6148SOL    HW219344   5.581   6.651   3.427
 6149SOL     OW19345   1.013   5.736   4.593
 6149SOL    HW119346   1.031   5.834   4.599
 6149SOL    HW219347   1.025   5.706   4.498
 6150SOL     OW19348   4.483   6.621   6.808
 6150SOL    HW119349   4.540   6.690   6.764
 6150SOL    HW219350   4.540   6.565   6.869
 6151SOL     OW19351   3.808   0.202   4.945
 6151SOL    HW119352   3.717   0.229   4.911
 6151SOL    HW219353   3.868   0.184   4.867
 6152SOL     OW19354   6.581   3.821   5.915
 6152SOL    HW119355   6.567   3.798   6.011
 6152SOL    HW219356   6.515   3.771   5.859
 6153SOL     OW19357   3.812   5.663   5.714
 6153SOL    HW119358   3.868   5.583   5.692
 6153SOL    HW219359   3.807   5.723   5.634
 6154SOL     OW19360   5.262   2.609   3.509
 6154SOL    HW119361   5.248   2.544   3.434
 6154SOL    HW219362   5.175   2.647   3.538
 6155SOL     OW19363   2.894   4.843   4.569
 6155SOL    HW119364   2.847   4.801   4.492
 6155SOL    HW219365   2.851   4.814   4.654
 6156SOL     OW19366   5.902   0.558   4.222
 6156SOL    HW119367   5.819   0.613   4.206
 6156SOL    HW219368   5.888   0.466   4.185
 6157SOL     OW19369   1.171   0.333   4.776
 6157SOL    HW119370   1.101   0.339   4.846
 6157SOL    HW219371   1.227   0.252   4.791
 6158SOL     OW19372   4.949   6.531   0.113
 6158SOL    HW119373   4.901   6.559   0.031
 6158SOL    HW219374   4.948   6.431   0.119
 6159SOL     OW19375   4.789   3.802   6.333
 6159SOL    HW119376   4.721   3.834   6.267
 6159SOL    HW219377   4.768   3.708   6.360
 6160SOL     OW19378   6.225   5.115   0.336
 6160SOL    HW119379   6.268   5.027   0.317
 6160SOL    HW219380   6.260   5.152   0.422
 6161SOL     OW19381   5.406   0.505   6.201
 6161SOL    HW119382   5.456   0.443   6.260
 6161SOL    HW219383   5.314   0.470   6.185
 6162SOL     OW19384   5.500   5.913   3.681
 6162SOL    HW119385   5.471   5.823   3.647
 6162SOL    HW219386   5.539   5.966   3.605
 6163SOL     OW19387   6.934   4.141   2.768
 6163SOL    HW119388   6.871   4.197   2.714
 6163SOL    HW219389   6.884   4.100   2.845
 6164SOL     OW19390   4.792   3.488   1.283
 6164SOL    HW119391   4.771   3.394   1.258
 6164SOL    HW219392   4.734   3.550   1.229
 6165SOL     OW19393   3.535   0.114   1.188
 6165SOL    HW119394   3.471   0.160   1.250
 6165SOL    HW219395   3.502   0.123   1.094
 6166SOL     OW19396   3.473   0.908   0.363
 6166SOL    HW119397   3.462   0.826   0.419
 6166SOL    HW219398   3.469   0.990   0.421
 6167SOL     OW19399   0.157   5.071   3.522
 6167SOL    HW119400   0.124   5.011   3.449
 6167SOL    HW219401   0.092   5.069   3.598
 6168SOL     OW19402   6.952   2.539   1.768
 6168SOL    HW119403   7.012   2.460   1.784
 6168SOL    HW219404   6.988   2.619   1.816
 6169SOL     OW19405   1.497   4.195   1.152
 6169SOL    HW119406   1.468   4.107   1.190
 6169SOL    HW219407   1.591   4.188   1.119
 6170SOL     OW19408   5.541   2.031   3.682
 6170SOL    HW119409   5.492   1.947   3.706
 6170SOL    HW219410   5.490   2.110   3.716
 6171SOL     OW19411   5.645   2.385   6.163
 6171SOL    HW119412   5.673   2.299   6.207
 6171SOL    HW219413   5.699   2.460   6.199
 6172SOL     OW19414   0.016   4.810   3.590
 6172SOL    HW119415   6.948   4.787   3.561
 6172SOL    HW219416   0.014   4.891   3.649
 6173SOL     OW19417   5.532   6.319   2.723
 6173SOL    HW119418   5.573   6.371   2.648
 6173SOL    HW219419   5.594   6.246   2.751
 6174SOL     OW19420   0.552   1.922   3.476
 6174SOL    HW119421   0.585   1.948   3.386
 6174SOL    HW219422   0.459   1.886   3.468
 6175SOL     OW19423   4.662   2.340   6.558
 6175SOL    HW119424   4.665   2.438   6.577
 6175SOL    HW219425   4.569   2.306   6.571
 6176SOL     OW19426   2.524   5.392   5.924
 6176SOL    HW119427   2.550   5.421   6.016
 6176SOL    HW219428   2.453   5.452   5.889
 6177SOL     OW19429   5.965   5.209   1.877
 6177SOL    HW119430   5.906   5.288   1.894
 6177SOL    HW219431   5.917   5.144   1.818
 6178SOL     OW19432   4.189   4.638   1.920
 6178SOL    HW119433   4.268   4.612   1.865
 6178SOL    HW219434   4.107   4.637   1.862
 6179SOL     OW19435   4.957   5.310   4.541
 6179SOL    HW119436   4.996   5.392   4.500
 6179SOL    HW219437   4.857   5.320   4.547
 6180SOL     OW19438   1.520   3.284   6.457
 6180SOL    HW119439   1.472   3.342   6.523
 6180SOL    HW219440   1.547   3.198   6.501
 6181SOL     OW19441   6.830   6.376   0.272
 6181SOL    HW119442   6.897   6.355   0.201
 6181SOL    HW219443   6.845   6.470   0.305
 6182SOL     OW19444   2.692   2.618   6.060
 6182SOL    HW119445   2.657   2.624   5.967
 6182SOL    HW219446   2.763   2.686   6.074
 6183SOL     OW19447   0.372   0.770   0.621
 6183SOL    HW119448   0.398   0.687   0.671
 6183SOL    HW219449   0.327   0.834   0.684
 6184SOL     OW19450   3.730   6.396   5.164
 6184SOL    HW119451   3.644   6.433   5.128
 6184SOL    HW219452   3.806   6.449   5.128
 6185SOL     OW19453   3.453   3.134   3.420
 6185SOL    HW119454   3.479   3.039   3.437
 6185SOL    HW219455   3.526   3.180   3.369
 6186SOL     OW19456   0.750   1.324   1.738
 6186SOL    HW119457   0.745   1.423   1.750
 6186SOL    HW219458   0.689   1.279   1.804
 6187SOL     OW19459   3.644   2.361   5.601
 6187SOL    HW119460   3.722   2.353   5.663
 6187SOL    HW219461   3.572   2.298   5.629
 6188SOL     OW19462   0.801   1.417   5.711
 6188SOL    HW119463   0.889   1.458   5.737
 6188SOL    HW219464   0.767   1.362   5.787
 6189SOL     OW19465   6.846   5.467   0.966
 6189SOL    HW119466   6.817   5.451   1.060
 6189SOL    HW219467   6.833   5.384   0.911
 6190SOL     OW19468   0.896   3.125   3.962
 6190SOL    HW119469   0.841   3.168   3.891
 6190SOL    HW219470   0.844   3.051   4.005
 6191SOL     OW19471   2.971   4.824   0.378
 6191SOL    HW119472   2.927   4.809   0.290
 6191SOL    HW219473   3.069   4.808   0.369
 6192SOL     OW19474   2.623   1.798   1.164
 6192SOL    HW119475   2.555   1.870   1.168
 6192SOL    HW219476   2.599   1.734   1.090
 6193SOL     OW19477   4.496   5.281   6.763
 6193SOL    HW119478   4.554   5.245   6.690
 6193SOL    HW219479   4.463   5.372   6.739
 6194SOL     OW19480   5.460   6.950   6.016
 6194SOL    HW119481   5.512   6.927   6.098
 6194SOL    HW219482   5.507   0.002   5.968
 6195SOL     OW19483   5.110   5.410   5.624
 6195SOL    HW119484   5.175   5.453   5.686
 6195SOL    HW219485   5.057   5.481   5.577
 6196SOL     OW19486   6.576   3.934   3.215
 6196SOL    HW119487   6.570   3.837   3.237
 6196SOL    HW219488   6.510   3.985   3.269
 6197SOL     OW19489   0.194   5.462   0.540
 6197SOL    HW119490   0.280   5.510   0.554
 6197SOL    HW219491   0.170   5.411   0.622
 6198SOL     OW19492   6.458   1.873   6.082
 6198SOL    HW119493   6.401   1.950   6.114
 6198SOL    HW219494   6.479   1.813   6.159
 6199SOL     OW19495   2.270   6.957   6.303
 6199SOL    HW119496   2.245   6.895   6.228
 6199SOL    HW219497   2.187   6.991   6.348
 6200SOL     OW19498   2.065   0.041   6.499
 6200SOL    HW119499   2.078   0.138   6.476
 6200SOL    HW219500   2.097   0.024   6.592
 6201SOL     OW19501   0.886   4.802   3.721
 6201SOL    HW119502   0.919   4.832   3.811
 6201SOL    HW219503   0.792   4.833   3.708
 6202SOL     OW19504   5.071   1.491   1.665
 6202SOL    HW119505   5.117   1.405   1.691
 6202SOL    HW219506   5.081   1.557   1.739
 6203SOL     OW19507   0.288   1.089   2.390
 6203SOL    HW119508   0.315   1.174   2.345
 6203SOL    HW219509   0.342   1.075   2.472
 6204SOL     OW19510   1.031   6.013   4.502
 6204SOL    HW119511   1.019   6.038   4.406
 6204SOL    HW219512   0.988   6.083   4.560
 6205SOL     OW19513   0.184   4.577   3.427
 6205SOL    HW119514   0.147   4.610   3.514
 6205SOL    HW219515   0.243   4.499   3.443
 6206SOL     OW19516   5.505   2.165   4.089
 6206SOL    HW119517   5.417   2.168   4.136
 6206SOL    HW219518   5.570   2.113   4.143
 6207SOL     OW19519   1.766   5.276   3.422
 6207SOL    HW119520   1.793   5.358   3.472
 6207SOL    HW219521   1.821   5.198   3.454
 6208SOL     OW19522   3.770   4.514   6.206
 6208SOL    HW119523   3.731   4.424   6.228
 6208SOL    HW219524   3.747   4.537   6.111
 6209SOL     OW19525   3.372   1.215   2.816
 6209SOL    HW119526   3.289   1.253   2.774
 6209SOL    HW219527   3.440   1.198   2.745
 6210SOL     OW19528   5.415   0.141   4.370
 6210SOL    HW119529   5.455   0.050   4.384
 6210SOL    HW219530   5.327   0.132   4.324
 6211SOL     OW19531   5.333   3.112   5.378
 6211SOL    HW119532   5.407   3.086   5.440
 6211SOL    HW219533   5.312   3.035   5.317
 6212SOL     OW19534   4.787   4.105   4.750
 6212SOL    HW119535   4.793   4.052   4.665
 6212SOL    HW219536   4.751   4.196   4.729
 6213SOL     OW19537   5.372   5.874   0.610
 6213SOL    HW119538   5.351   5.817   0.530
 6213SOL    HW219539   5.291   5.880   0.668
 6214SOL     OW19540   6.629   6.276   6.002
 6214SOL    HW119541   6.594   6.368   6.018
 6214SOL    HW219542   6.558   6.209   6.025
 6215SOL     OW19543   5.495   2.715   4.958
 6215SOL    HW119544   5.530   2.800   4.997
 6215SOL    HW219545   5.545   2.637   4.996
 6216SOL     OW19546   5.541   2.923   6.389
 6216SOL    HW119547   5.598   2.967   6.319
 6216SOL    HW219548   5.533   2.983   6.468
 6217SOL     OW19549   0.299   4.429   2.289
 6217SOL    HW119550   0.281   4.331   2.281
 6217SOL    HW219551   0.249   4.466   2.367
 6218SOL     OW19552   5.153   6.735   1.394
 6218SOL    HW119553   5.128   6.826   1.425
 6218SOL    HW219554   5.139   6.728   1.295
 6219SOL     OW19555   2.706   0.554   0.414
 6219SOL    HW119556   2.770   0.625   0.384
 6219SOL    HW219557   2.614   0.575   0.379
 6220SOL     OW19558   2.647   0.709   2.655
 6220SOL    HW119559   2.641   0.808   2.649
 6220SOL    HW219560   2.587   0.676   2.728
 6221SOL     OW19561   4.533   5.228   5.264
 6221SOL    HW119562   4.496   5.221   5.172
 6221SOL    HW219563   4.561   5.137   5.295
 6222SOL     OW19564   0.419   0.915   1.910
 6222SOL    HW119565   0.367   0.999   1.926
 6222SOL    HW219566   0.367   0.837   1.942
 6223SOL     OW19567   6.340   5.015   3.695
 6223SOL    HW119568   6.299   5.093   3.647
 6223SOL    HW219569   6.437   5.010   3.672
 6224SOL     OW19570   3.958   6.903   0.182
 6224SOL    HW119571   3.937   6.867   0.091
 6224SOL    HW219572   4.023   6.842   0.227
 6225SOL     OW19573   5.820   5.263   6.319
 6225SOL    HW119574   5.725   5.245   6.291
 6225SOL    HW219575   5.821   5.296   6.414
 6226SOL     OW19576   1.552   0.999   4.215
 6226SOL    HW119577   1.573   0.936   4.140
 6226SOL    HW219578   1.618   1.075   4.213
 6227SOL     OW19579   2.295   4.197   6.043
 6227SOL    HW119580   2.285   4.243   5.955
 6227SOL    HW219581   2.207   4.156   6.069
 6228SOL     OW19582   0.796   2.823   4.067
 6228SOL    HW119583   0.824   2.770   3.987
 6228SOL    HW219584   0.784   2.762   4.145
 6229SOL     OW19585   0.354   5.026   4.756
 6229SOL    HW119586   0.335   5.009   4.853
 6229SOL    HW219587   0.442   4.985   4.732
 6230SOL     OW19588   0.996   0.889   0.974
 6230SOL    HW119589   0.962   0.961   1.035
 6230SOL    HW219590   1.096   0.887   0.978
 6231SOL     OW19591   1.636   5.074   5.418
 6231SOL    HW119592   1.711   5.111   5.364
 6231SOL    HW219593   1.565   5.038   5.357
 6232SOL     OW19594   3.784   1.204   6.240
 6232SOL    HW119595   3.798   1.174   6.334
 6232SOL    HW219596   3.863   1.257   6.209
 6233SOL     OW19597   0.058   4.413   1.129
 6233SOL    HW119598   0.115   4.334   1.151
 6233SOL    HW219599   0.012   4.445   1.212
 6234SOL     OW19600   4.687   4.994   2.850
 6234SOL    HW119601   4.643   5.079   2.877
 6234SOL    HW219602   4.682   4.928   2.926
 6235SOL     OW19603   0.875   1.134   1.081
 6235SOL    HW119604   0.896   1.231   1.066
 6235SOL    HW219605   0.793   1.126   1.137
 6236SOL     OW19606   6.196   6.200   1.660
 6236SOL    HW119607   6.258   6.277   1.669
 6236SOL    HW219608   6.232   6.136   1.592
 6237SOL     OW19609   4.413   1.215   3.275
 6237SOL    HW119610   4.407   1.136   3.335
 6237SOL    HW219611   4.504   1.256   3.281
 6238SOL     OW19612   1.905   6.660   3.559
 6238SOL    HW119613   1.843   6.625   3.629
 6238SOL    HW219614   2.000   6.652   3.591
 6239SOL     OW19615   4.030   1.546   4.095
 6239SOL    HW119616   3.963   1.609   4.055
 6239SOL    HW219617   4.015   1.539   4.193
 6240SOL     OW19618   4.113   3.438   4.292
 6240SOL    HW119619   4.095   3.342   4.272
 6240SOL    HW219620   4.062   3.496   4.229
 6241SOL     OW19621   4.001   0.522   3.128
 6241SOL    HW119622   4.018   0.508   3.031
 6241SOL    HW219623   4.057   0.459   3.181
 6242SOL     OW19624   3.163   2.181   4.554
 6242SOL    HW119625   3.260   2.201   4.537
 6242SOL    HW219626   3.115   2.170   4.467
 6243SOL     OW19627   3.236   0.442   0.301
 6243SOL    HW119628   3.326   0.485   0.300
 6243SOL    HW219629   3.210   0.420   0.396
 6244SOL     OW19630   5.415   2.482   1.550
 6244SOL    HW119631   5.462   2.426   1.618
 6244SOL    HW219632   5.370   2.423   1.483
 6245SOL     OW19633   7.007   4.686   1.507
 6245SOL    HW119634   0.018   4.654   1.595
 6245SOL    HW219635   0.056   4.733   1.458
 6246SOL     OW19636   0.963   5.967   5.325
 6246SOL    HW119637   0.896   6.017   5.381
 6246SOL    HW219638   0.959   6.001   5.231
 6247SOL     OW19639   5.672   5.014   2.172
 6247SOL    HW119640   5.745   4.951   2.198
 6247SOL    HW219641   5.613   5.032   2.251
 6248SOL     OW19642   4.671   2.567   6.055
 6248SOL    HW119643   4.680   2.653   6.005
 6248SOL    HW219644   4.708   2.578   6.147
 6249SOL     OW19645   5.638   2.465   3.152
 6249SOL    HW119646   5.625   2.531   3.078
 6249SOL    HW219647   5.620   2.373   3.119
 6250SOL     OW19648   5.047   6.970   4.941
 6250SOL    HW119649   5.084   6.959   4.849
 6250SOL    HW219650   5.094   0.020   4.988
 6251SOL     OW19651   2.931   0.875   4.003
 6251SOL    HW119652   3.023   0.894   3.967
 6251SOL    HW219653   2.893   0.795   3.957
 6252SOL     OW19654   2.387   4.542   0.304
 6252SOL    HW119655   2.301   4.590   0.318
 6252SOL    HW219656   2.422   4.508   0.392
 6253SOL     OW19657   4.729   6.177   4.008
 6253SOL    HW119658   4.653   6.217   3.956
 6253SOL    HW219659   4.790   6.128   3.946
 6254SOL     OW19660   0.116   6.332   1.663
 6254SOL    HW119661   0.120   6.274   1.581
 6254SOL    HW219662   0.084   6.423   1.638
 6255SOL     OW19663   2.865   0.702   0.991
 6255SOL    HW119664   2.831   0.771   1.055
 6255SOL    HW219665   2.927   0.641   1.039
 6256SOL     OW19666   0.158   4.633   2.165
 6256SOL    HW119667   0.205   4.549   2.192
 6256SOL    HW219668   0.208   4.677   2.091
 6257SOL     OW19669   4.175   4.146   0.387
 6257SOL    HW119670   4.165   4.118   0.483
 6257SOL    HW219671   4.127   4.233   0.373
 6258SOL     OW19672   4.347   4.987   3.548
 6258SOL    HW119673   4.429   4.959   3.598
 6258SOL    HW219674   4.373   5.020   3.457
 6259SOL     OW19675   5.045   0.116   4.563
 6259SOL    HW119676   5.029   0.197   4.619
 6259SOL    HW219677   5.114   0.059   4.606
 6260SOL     OW19678   3.616   2.167   6.770
 6260SOL    HW119679   3.682   2.219   6.824
 6260SOL    HW219680   3.656   2.144   6.681
 6261SOL     OW19681   4.592   6.162   1.594
 6261SOL    HW119682   4.680   6.165   1.547
 6261SOL    HW219683   4.530   6.230   1.553
 6262SOL     OW19684   6.074   1.656   3.626
 6262SOL    HW119685   6.040   1.731   3.568
 6262SOL    HW219686   6.155   1.687   3.676
 6263SOL     OW19687   6.034   6.312   5.965
 6263SOL    HW119688   6.105   6.241   5.963
 6263SOL    HW219689   5.944   6.269   5.954
 6264SOL     OW19690   1.095   6.180   0.892
 6264SOL    HW119691   1.049   6.251   0.838
 6264SOL    HW219692   1.041   6.160   0.974
 6265SOL     OW19693   3.892   6.199   6.776
 6265SOL    HW119694   3.936   6.288   6.788
 6265SOL    HW219695   3.873   6.159   6.866
 6266SOL     OW19696   2.750   5.118   3.319
 6266SOL    HW119697   2.698   5.073   3.246
 6266SOL    HW219698   2.723   5.215   3.324
 6267SOL     OW19699   0.570   6.609   4.122
 6267SOL    HW119700   0.536   6.594   4.029
 6267SOL    HW219701   0.644   6.544   4.141
 6268SOL     OW19702   3.248   1.880   1.164
 6268SOL    HW119703   3.243   1.949   1.092
 6268SOL    HW219704   3.341   1.843   1.167
 6269SOL     OW19705   6.984   5.542   0.414
 6269SOL    HW119706   0.028   5.497   0.473
 6269SOL    HW219707   6.896   5.545   0.461
 6270SOL     OW19708   1.228   5.950   1.016
 6270SOL    HW119709   1.185   6.023   0.964
 6270SOL    HW219710   1.195   5.953   1.111
 6271SOL     OW19711   6.742   3.415   5.940
 6271SOL    HW119712   6.774   3.500   5.982
 6271SOL    HW219713   6.645   3.425   5.915
 6272SOL     OW19714   6.746   0.930   1.054
 6272SOL    HW119715   6.670   0.953   0.993
 6272SOL    HW219716   6.832   0.942   1.005
 6273SOL     OW19717   0.555   6.437   2.415
 6273SOL    HW119718   0.516   6.510   2.472
 6273SOL    HW219719   0.653   6.454   2.403
 6274SOL     OW19720   3.564   6.145   3.896
 6274SOL    HW119721   3.523   6.092   3.822
 6274SOL    HW219722   3.571   6.241   3.869
 6275SOL     OW19723   3.545   5.522   1.173
 6275SOL    HW119724   3.467   5.479   1.128
 6275SOL    HW219725   3.526   5.532   1.270
 6276SOL     OW19726   1.809   4.443   2.675
 6276SOL    HW119727   1.822   4.455   2.773
 6276SOL    HW219728   1.712   4.432   2.655
 6277SOL     OW19729   5.442   2.119   1.351
 6277SOL    HW119730   5.521   2.060   1.337
 6277SOL    HW219731   5.363   2.065   1.379
 6278SOL     OW19732   3.929   3.201   0.036
 6278SOL    HW119733   3.870   3.136   0.084
 6278SOL    HW219734   3.894   3.294   0.051
 6279SOL     OW19735   0.869   6.092   1.747
 6279SOL    HW119736   0.958   6.116   1.784
 6279SOL    HW219737   0.881   6.034   1.666
 6280SOL     OW19738   4.859   0.745   0.012
 6280SOL    HW119739   4.837   0.649   7.018
 6280SOL    HW219740   4.923   0.751   0.089
 6281SOL     OW19741   6.059   3.808   6.243
 6281SOL    HW119742   5.969   3.775   6.271
 6281SOL    HW219743   6.121   3.805   6.322
 6282SOL     OW19744   0.129   4.531   5.448
 6282SOL    HW119745   0.116   4.439   5.485
 6282SOL    HW219746   0.130   4.598   5.522
 6283SOL     OW19747   2.866   6.326   4.332
 6283SOL    HW119748   2.949   6.286   4.294
 6283SOL    HW219749   2.828   6.264   4.401
 6284SOL     OW19750   1.937   4.078   6.372
 6284SOL    HW119751   1.968   4.058   6.279
 6284SOL    HW219752   2.013   4.111   6.426
 6285SOL     OW19753   1.551   4.361   4.276
 6285SOL    HW119754   1.650   4.361   4.286
 6285SOL    HW219755   1.508   4.372   4.366
 6286SOL     OW19756   1.163   3.603   6.959
 6286SOL    HW119757   1.099   3.559   6.896
 6286SOL    HW219758   1.145   3.570   0.028
 6287SOL     OW19759   3.623   5.002   4.712
 6287SOL    HW119760   3.563   4.983   4.634
 6287SOL    HW219761   3.577   4.975   4.796
 6288SOL     OW19762   3.411   4.151   5.905
 6288SOL    HW119763   3.456   4.197   5.982
 6288SOL    HW219764   3.407   4.213   5.827
 6289SOL     OW19765   3.010   5.590   5.816
 6289SOL    HW119766   2.933   5.531   5.795
 6289SOL    HW219767   3.002   5.623   5.910
 6290SOL     OW19768   6.460   0.827   3.177
 6290SOL    HW119769   6.506   0.765   3.113
 6290SOL    HW219770   6.526   0.859   3.245
 6291SOL     OW19771   3.097   3.468   1.706
 6291SOL    HW119772   3.145   3.438   1.623
 6291SOL    HW219773   2.999   3.472   1.688
 6292SOL     OW19774   0.836   4.352   4.750
 6292SOL    HW119775   0.849   4.312   4.841
 6292SOL    HW219776   0.856   4.284   4.680
 6293SOL     OW19777   3.182   1.488   0.424
 6293SOL    HW119778   3.175   1.399   0.380
 6293SOL    HW219779   3.142   1.558   0.365
 6294SOL     OW19780   1.283   0.153   2.066
 6294SOL    HW119781   1.370   0.155   2.016
 6294SOL    HW219782   1.224   0.082   2.026
 6295SOL     OW19783   4.694   3.141   5.683
 6295SOL    HW119784   4.657   3.227   5.647
 6295SOL    HW219785   4.642   3.115   5.765
 6296SOL     OW19786   6.772   2.177   0.215
 6296SOL    HW119787   6.727   2.258   0.179
 6296SOL    HW219788   6.745   2.163   0.310
 6297SOL     OW19789   0.393   1.593   4.714
 6297SOL    HW119790   0.343   1.535   4.650
 6297SOL    HW219791   0.334   1.616   4.791
 6298SOL     OW19792   6.886   0.817   6.820
 6298SOL    HW119793   6.826   0.875   6.876
 6298SOL    HW219794   6.957   0.777   6.878
 6299SOL     OW19795   3.187   1.775   3.714
 6299SOL    HW119796   3.276   1.749   3.677
 6299SOL    HW219797   3.185   1.755   3.812
 6300SOL     OW19798   2.819   2.288   0.873
 6300SOL    HW119799   2.783   2.271   0.782
 6300SOL    HW219800   2.748   2.272   0.941
 6301SOL     OW19801   4.319   6.019   0.748
 6301SOL    HW119802   4.358   6.097   0.698
 6301SOL    HW219803   4.281   5.954   0.683
 6302SOL     OW19804   1.646   3.784   0.664
 6302SOL    HW119805   1.624   3.742   0.752
 6302SOL    HW219806   1.746   3.789   0.653
 6303SOL     OW19807   6.653   4.607   5.217
 6303SOL    HW119808   6.724   4.623   5.286
 6303SOL    HW219809   6.572   4.568   5.261
 6304SOL     OW19810   2.080   2.641   4.977
 6304SOL    HW119811   2.021   2.615   4.900
 6304SOL    HW219812   2.162   2.686   4.942
 6305SOL     OW19813   1.101   6.071   5.046
 6305SOL    HW119814   1.064   6.014   4.973
 6305SOL    HW219815   1.194   6.101   5.022
 6306SOL     OW19816   1.284   4.273   4.162
 6306SOL    HW119817   1.337   4.349   4.200
 6306SOL    HW219818   1.272   4.287   4.063
 6307SOL     OW19819   3.725   3.231   2.345
 6307SOL    HW119820   3.728   3.218   2.444
 6307SOL    HW219821   3.630   3.229   2.314
 6308SOL     OW19822   1.422   0.832   1.150
 6308SOL    HW119823   1.385   0.897   1.216
 6308SOL    HW219824   1.398   0.739   1.178
 6309SOL     OW19825   1.917   6.008   5.341
 6309SOL    HW119826   1.915   6.077   5.414
 6309SOL    HW219827   1.826   5.997   5.304
 6310SOL     OW19828   1.001   6.603   2.207
 6310SOL    HW119829   1.057   6.581   2.127
 6310SOL    HW219830   1.020   6.538   2.281
 6311SOL     OW19831   5.564   1.115   6.079
 6311SOL    HW119832   5.601   1.160   5.998
 6311SOL    HW219833   5.624   1.132   6.157
 6312SOL     OW19834   4.270   4.929   1.596
 6312SOL    HW119835   4.327   4.942   1.676
 6312SOL    HW219836   4.227   4.839   1.600
 6313SOL     OW19837   5.127   5.042   3.253
 6313SOL    HW119838   5.190   4.975   3.292
 6313SOL    HW219839   5.170   5.132   3.250
 6314SOL     OW19840   1.843   5.979   3.165
 6314SOL    HW119841   1.932   5.961   3.206
 6314SOL    HW219842   1.848   5.963   3.067
 6315SOL     OW19843   2.055   2.441   3.145
 6315SOL    HW119844   2.031   2.385   3.065
 6315SOL    HW219845   2.141   2.488   3.128
 6316SOL     OW19846   4.880   0.684   5.586
 6316SOL    HW119847   4.968   0.648   5.616
 6316SOL    HW219848   4.825   0.610   5.547
 6317SOL     OW19849   4.871   3.724   3.263
 6317SOL    HW119850   4.879   3.803   3.324
 6317SOL    HW219851   4.957   3.672   3.265
 6318SOL     OW19852   5.474   6.740   0.320
 6318SOL    HW119853   5.563   6.743   0.365
 6318SOL    HW219854   5.485   6.709   0.225
 6319SOL     OW19855   4.951   2.166   4.162
 6319SOL    HW119856   5.049   2.166   4.144
 6319SOL    HW219857   4.925   2.252   4.207
 6320SOL     OW19858   5.710   2.166   6.344
 6320SOL    HW119859   5.636   2.187   6.409
 6320SOL    HW219860   5.693   2.075   6.304
 6321SOL     OW19861   0.704   3.381   0.253
 6321SOL    HW119862   0.761   3.454   0.216
 6321SOL    HW219863   0.615   3.418   0.279
 6322SOL     OW19864   1.843   1.129   2.709
 6322SOL    HW119865   1.743   1.132   2.713
 6322SOL    HW219866   1.874   1.160   2.619
 6323SOL     OW19867   1.886   5.943   0.741
 6323SOL    HW119868   1.796   5.986   0.741
 6323SOL    HW219869   1.913   5.924   0.835
 6324SOL     OW19870   5.121   4.333   1.784
 6324SOL    HW119871   5.110   4.282   1.698
 6324SOL    HW219872   5.068   4.290   1.856
 6325SOL     OW19873   0.736   3.283   3.792
 6325SOL    HW119874   0.744   3.285   3.693
 6325SOL    HW219875   0.664   3.218   3.818
 6326SOL     OW19876   5.653   5.634   4.723
 6326SOL    HW119877   5.731   5.683   4.684
 6326SOL    HW219878   5.569   5.680   4.696
 6327SOL     OW19879   0.868   0.832   2.612
 6327SOL    HW119880   0.851   0.768   2.537
 6327SOL    HW219881   0.805   0.909   2.605
 6328SOL     OW19882   4.170   3.609   4.836
 6328SOL    HW119883   4.173   3.583   4.739
 6328SOL    HW219884   4.186   3.708   4.845
 6329SOL     OW19885   0.271   3.379   4.990
 6329SOL    HW119886   0.201   3.450   4.997
 6329SOL    HW219887   0.323   3.376   5.076
 6330SOL     OW19888   4.432   1.847   3.397
 6330SOL    HW119889   4.490   1.779   3.443
 6330SOL    HW219890   4.453   1.938   3.433
 6331SOL     OW19891   1.620   3.058   3.379
 6331SOL    HW119892   1.635   3.152   3.349
 6331SOL    HW219893   1.522   3.036   3.372
 6332SOL     OW19894   4.385   1.925   0.019
 6332SOL    HW119895   4.402   1.987   6.967
 6332SOL    HW219896   4.318   1.856   7.015
 6333SOL     OW19897   5.773   1.507   6.914
 6333SOL    HW119898   5.865   1.544   6.903
 6333SOL    HW219899   5.775   1.408   6.897
 6334SOL     OW19900   2.804   1.018   1.935
 6334SOL    HW119901   2.873   1.063   1.992
 6334SOL    HW219902   2.736   0.974   1.994
 6335SOL     OW19903   5.894   2.350   5.660
 6335SOL    HW119904   5.989   2.324   5.642
 6335SOL    HW219905   5.872   2.432   5.608
 6336SOL     OW19906   1.148   5.769   5.654
 6336SOL    HW119907   1.068   5.709   5.657
 6336SOL    HW219908   1.123   5.861   5.684
 6337SOL     OW19909   6.142   0.482   6.034
 6337SOL    HW119910   6.169   0.390   6.063
 6337SOL    HW219911   6.220   0.544   6.045
 6338SOL     OW19912   1.101   0.727   2.000
 6338SOL    HW119913   1.072   0.729   2.096
 6338SOL    HW219914   1.201   0.726   1.996
 6339SOL     OW19915   0.427   4.053   3.599
 6339SOL    HW119916   0.435   3.986   3.672
 6339SOL    HW219917   0.513   4.057   3.548
 6340SOL     OW19918   2.594   5.324   7.006
 6340SOL    HW119919   2.567   5.279   0.067
 6340SOL    HW219920   2.691   5.347   7.009
 6341SOL     OW19921   1.067   4.440   2.984
 6341SOL    HW119922   1.055   4.410   3.079
 6341SOL    HW219923   1.027   4.372   2.922
 6342SOL     OW19924   2.544   6.768   1.161
 6342SOL    HW119925   2.549   6.783   1.260
 6342SOL    HW219926   2.449   6.755   1.135
 6343SOL     OW19927   1.813   4.113   0.184
 6343SOL    HW119928   1.794   4.041   0.117
 6343SOL    HW219929   1.800   4.203   0.142
 6344SOL     OW19930   1.951   1.028   3.880
 6344SOL    HW119931   1.992   1.070   3.962
 6344SOL    HW219932   1.958   0.929   3.886
 6345SOL     OW19933   7.011   3.324   3.757
 6345SOL    HW119934   0.016   3.364   3.844
 6345SOL    HW219935   0.064   3.328   3.692
 6346SOL     OW19936   0.486   4.549   3.897
 6346SOL    HW119937   0.563   4.545   3.833
 6346SOL    HW219938   0.509   4.609   3.974
 6347SOL     OW19939   1.782   1.530   2.424
 6347SOL    HW119940   1.805   1.468   2.349
 6347SOL    HW219941   1.701   1.496   2.472
 6348SOL     OW19942   0.711   2.567   0.409
 6348SOL    HW119943   0.767   2.533   0.484
 6348SOL    HW219944   0.769   2.601   0.336
 6349SOL     OW19945   6.206   1.348   0.878
 6349SOL    HW119946   6.302   1.320   0.882
 6349SOL    HW219947   6.182   1.395   0.963
 6350SOL     OW19948   0.453   6.992   1.462
 6350SOL    HW119949   0.432   0.050   1.409
 6350SOL    HW219950   0.424   7.005   1.557
 6351SOL     OW19951   6.295   2.286   2.399
 6351SOL    HW119952   6.208   2.238   2.393
 6351SOL    HW219953   6.349   2.249   2.474
 6352SOL     OW19954   3.876   0.831   4.998
 6352SOL    HW119955   3.887   0.886   4.915
 6352SOL    HW219956   3.800   0.766   4.986
 6353SOL     OW19957   3.970   6.067   5.884
 6353SOL    HW119958   3.896   6.098   5.944
 6353SOL    HW219959   3.951   6.096   5.790
 6354SOL     OW19960   5.942   4.865   3.510
 6354SOL    HW119961   5.961   4.839   3.604
 6354SOL    HW219962   5.975   4.958   3.493
 6355SOL     OW19963   4.690   6.369   6.969
 6355SOL    HW119964   4.674   6.314   6.887
 6355SOL    HW219965   4.783   6.352   7.003
 6356SOL     OW19966   0.058   6.564   6.735
 6356SOL    HW119967   0.138   6.552   6.676
 6356SOL    HW219968   7.012   6.616   6.687
 6357SOL     OW19969   4.944   2.356   3.146
 6357SOL    HW119970   4.981   2.273   3.106
 6357SOL    HW219971   4.848   2.343   3.169
 6358SOL     OW19972   1.306   0.792   5.112
 6358SOL    HW119973   1.341   0.735   5.038
 6358SOL    HW219974   1.293   0.885   5.080
 6359SOL     OW19975   6.772   4.409   1.049
 6359SOL    HW119976   6.714   4.474   0.999
 6359SOL    HW219977   6.819   4.456   1.123
 6360SOL     OW19978   3.125   2.787   0.728
 6360SOL    HW119979   3.107   2.690   0.740
 6360SOL    HW219980   3.223   2.803   0.722
 6361SOL     OW19981   6.787   1.876   2.976
 6361SOL    HW119982   6.883   1.848   2.971
 6361SOL    HW219983   6.732   1.798   3.004
 6362SOL     OW19984   1.777   5.421   0.535
 6362SOL    HW119985   1.763   5.518   0.554
 6362SOL    HW219986   1.706   5.388   0.473
 6363SOL     OW19987   0.503   1.967   1.220
 6363SOL    HW119988   0.414   1.991   1.183
 6363SOL    HW219989   0.496   1.882   1.272
 6364SOL     OW19990   2.871   2.269   3.548
 6364SOL    HW119991   2.879   2.192   3.611
 6364SOL    HW219992   2.918   2.248   3.462
 6365SOL     OW19993   5.951   6.849   2.146
 6365SOL    HW119994   5.920   6.926   2.201
 6365SOL    HW219995   5.986   6.882   2.058
 6366SOL     OW19996   6.256   1.737   5.203
 6366SOL    HW119997   6.284   1.702   5.292
 6366SOL    HW219998   6.172   1.791   5.213
 6367SOL     OW19999   1.795   3.804   4.687
 6367SOL    HW120000   1.887   3.769   4.702
 6367SOL    HW220001   1.746   3.807   4.775
 6368SOL     OW20002   5.208   3.563   4.797
 6368SOL    HW120003   5.116   3.533   4.775
 6368SOL    HW220004   5.209   3.601   4.890
 6369SOL     OW20005   3.111   4.218   0.744
 6369SOL    HW120006   3.197   4.188   0.786
 6369SOL    HW220007   3.078   4.148   0.681
 6370SOL     OW20008   6.548   3.115   4.643
 6370SOL    HW120009   6.607   3.195   4.638
 6370SOL    HW220010   6.456   3.139   4.611
 6371SOL     OW20011   5.794   4.426   1.115
 6371SOL    HW120012   5.841   4.512   1.091
 6371SOL    HW220013   5.755   4.434   1.206
 6372SOL     OW20014   5.742   1.381   2.057
 6372SOL    HW120015   5.763   1.475   2.030
 6372SOL    HW220016   5.698   1.382   2.147
 6373SOL     OW20017   5.725   1.855   1.631
 6373SOL    HW120018   5.766   1.856   1.539
 6373SOL    HW220019   5.684   1.765   1.647
 6374SOL     OW20020   3.488   3.560   6.086
 6374SOL    HW120021   3.481   3.630   6.157
 6374SOL    HW220022   3.399   3.549   6.042
 6375SOL     OW20023   5.044   1.174   1.717
 6375SOL    HW120024   5.040   1.075   1.727
 6375SOL    HW220025   5.031   1.217   1.807
 6376SOL     OW20026   3.139   6.625   6.839
 6376SOL    HW120027   3.141   6.555   6.768
 6376SOL    HW220028   3.118   6.714   6.798
 6377SOL     OW20029   0.015   1.747   0.436
 6377SOL    HW120030   0.041   1.729   0.531
 6377SOL    HW220031   0.076   1.696   0.374
 6378SOL     OW20032   6.164   3.391   3.024
 6378SOL    HW120033   6.121   3.321   3.081
 6378SOL    HW220034   6.216   3.346   2.951
 6379SOL     OW20035   2.444   4.563   6.918
 6379SOL    HW120036   2.452   4.515   6.830
 6379SOL    HW220037   2.459   4.498   6.993
 6380SOL     OW20038   1.842   2.677   4.710
 6380SOL    HW120039   1.785   2.724   4.643
 6380SOL    HW220040   1.934   2.716   4.710
 6381SOL     OW20041   3.684   4.572   0.769
 6381SOL    HW120042   3.726   4.522   0.693
 6381SOL    HW220043   3.615   4.635   0.733
 6382SOL     OW20044   1.958   1.314   1.042
 6382SOL    HW120045   2.031   1.365   0.996
 6382SOL    HW220046   1.870   1.346   1.008
 6383SOL     OW20047   2.835   2.111   1.936
 6383SOL    HW120048   2.920   2.100   1.884
 6383SOL    HW220049   2.834   2.202   1.979
 6384SOL     OW20050   0.393   1.335   2.296
 6384SOL    HW120051   0.425   1.340   2.201
 6384SOL    HW220052   0.454   1.390   2.354
 6385SOL     OW20053   0.382   3.626   1.905
 6385SOL    HW120054   0.469   3.603   1.949
 6385SOL    HW220055   0.388   3.608   1.807
 6386SOL     OW20056   2.890   4.635   1.032
 6386SOL    HW120057   2.972   4.617   0.977
 6386SOL    HW220058   2.874   4.734   1.037
 6387SOL     OW20059   6.173   1.657   5.862
 6387SOL    HW120060   6.108   1.732   5.875
 6387SOL    HW220061   6.210   1.660   5.770
 6388SOL     OW20062   6.742   5.149   2.471
 6388SOL    HW120063   6.705   5.210   2.401
 6388SOL    HW220064   6.783   5.069   2.427
 6389SOL     OW20065   6.544   0.217   0.517
 6389SOL    HW120066   6.627   0.272   0.505
 6389SOL    HW220067   6.480   0.267   0.575
 6390SOL     OW20068   4.412   6.244   0.309
 6390SOL    HW120069   4.484   6.175   0.302
 6390SOL    HW220070   4.348   6.233   0.233
 6391SOL     OW20071   0.842   1.892   4.837
 6391SOL    HW120072   0.809   1.798   4.841
 6391SOL    HW220073   0.793   1.942   4.765
 6392SOL     OW20074   4.479   6.417   3.000
 6392SOL    HW120075   4.476   6.510   2.965
 6392SOL    HW220076   4.393   6.395   3.046
 6393SOL     OW20077   2.166   3.973   0.708
 6393SOL    HW120078   2.108   3.985   0.628
 6393SOL    HW220079   2.150   3.882   0.748
 6394SOL     OW20080   1.554   5.196   1.842
 6394SOL    HW120081   1.470   5.247   1.852
 6394SOL    HW220082   1.534   5.098   1.841
 6395SOL     OW20083   1.259   3.853   4.878
 6395SOL    HW120084   1.305   3.936   4.849
 6395SOL    HW220085   1.215   3.868   4.966
 6396SOL     OW20086   0.999   3.822   4.114
 6396SOL    HW120087   1.064   3.770   4.169
 6396SOL    HW220088   1.008   3.919   4.134
 6397SOL     OW20089   0.796   3.614   4.521
 6397SOL    HW120090   0.805   3.599   4.619
 6397SOL    HW220091   0.724   3.556   4.484
 6398SOL     OW20092   0.463   6.979   2.162
 6398SOL    HW120093   0.506   0.022   2.222
 6398SOL    HW220094   0.398   0.001   2.101
 6399SOL     OW20095   2.647   0.119   6.468
 6399SOL    HW120096   2.584   0.197   6.471
 6399SOL    HW220097   2.602   0.038   6.503
 6400SOL     OW20098   1.168   6.376   3.032
 6400SOL    HW120099   1.226   6.362   2.952
 6400SOL    HW220100   1.218   6.430   3.100
 6401SOL     OW20101   3.950   4.903   1.066
 6401SOL    HW120102   3.878   4.926   1.132
 6401SOL    HW220103   3.921   4.826   1.010
 6402SOL     OW20104   3.191   3.202   6.220
 6402SOL    HW120105   3.262   3.154   6.168
 6402SOL    HW220106   3.222   3.294   6.242
 6403SOL     OW20107   3.893   5.321   6.098
 6403SOL    HW120108   3.876   5.419   6.108
 6403SOL    HW220109   3.825   5.281   6.037
 6404SOL     OW20110   5.221   5.993   6.333
 6404SOL    HW120111   5.196   6.089   6.320
 6404SOL    HW220112   5.139   5.937   6.322
 6405SOL     OW20113   4.396   0.988   3.401
 6405SOL    HW120114   4.341   0.922   3.349
 6405SOL    HW220115   4.431   0.944   3.483
 6406SOL     OW20116   0.326   3.145   2.600
 6406SOL    HW120117   0.335   3.229   2.654
 6406SOL    HW220118   0.259   3.158   2.527
 6407SOL     OW20119   0.678   6.986   2.825
 6407SOL    HW120120   0.580   6.982   2.805
 6407SOL    HW220121   0.707   6.901   2.869
 6408SOL     OW20122   0.140   0.778   2.082
 6408SOL    HW120123   0.136   0.812   2.176
 6408SOL    HW220124   0.049   0.784   2.041
 6409SOL     OW20125   6.442   4.446   4.230
 6409SOL    HW120126   6.435   4.447   4.330
 6409SOL    HW220127   6.537   4.436   4.203
 6410SOL     OW20128   2.121   0.554   7.018
 6410SOL    HW120129   2.122   0.546   0.094
 6410SOL    HW220130   2.185   0.487   6.980
 6411SOL     OW20131   1.321   2.416   4.207
 6411SOL    HW120132   1.254   2.466   4.152
 6411SOL    HW220133   1.300   2.318   4.203
 6412SOL     OW20134   4.874   0.266   0.113
 6412SOL    HW120135   4.859   0.177   0.158
 6412SOL    HW220136   4.953   0.259   0.053
 6413SOL     OW20137   4.629   5.754   3.505
 6413SOL    HW120138   4.631   5.717   3.412
 6413SOL    HW220139   4.685   5.837   3.510
 6414SOL     OW20140   3.664   0.329   6.826
 6414SOL    HW120141   3.690   0.257   6.890
 6414SOL    HW220142   3.688   0.418   6.865
 6415SOL     OW20143   0.101   1.872   3.554
 6415SOL    HW120144   0.185   1.821   3.539
 6415SOL    HW220145   0.023   1.809   3.556
 6416SOL     OW20146   2.867   4.062   0.857
 6416SOL    HW120147   2.842   4.159   0.854
 6416SOL    HW220148   2.908   4.035   0.770
 6417SOL     OW20149   4.978   3.257   5.783
 6417SOL    HW120150   5.054   3.254   5.719
 6417SOL    HW220151   4.916   3.332   5.757
 6418SOL     OW20152   4.801   5.734   0.013
 6418SOL    HW120153   4.867   5.738   0.087
 6418SOL    HW220154   4.752   5.647   0.016
 6419SOL     OW20155   1.562   6.916   6.588
 6419SOL    HW120156   1.549   6.962   6.675
 6419SOL    HW220157   1.490   6.847   6.575
 6420SOL     OW20158   2.170   4.809   3.351
 6420SOL    HW120159   2.150   4.734   3.415
 6420SOL    HW220160   2.242   4.780   3.288
 6421SOL     OW20161   5.041   6.381   1.580
 6421SOL    HW120162   4.980   6.459   1.591
 6421SOL    HW220163   5.131   6.413   1.550
 6422SOL     OW20164   0.948   0.801   5.646
 6422SOL    HW120165   0.942   0.701   5.646
 6422SOL    HW220166   0.993   0.832   5.730
 6423SOL     OW20167   1.332   3.621   4.465
 6423SOL    HW120168   1.382   3.658   4.543
 6423SOL    HW220169   1.254   3.567   4.498
 6424SOL     OW20170   6.074   4.088   5.641
 6424SOL    HW120171   6.044   4.097   5.736
 6424SOL    HW220172   6.034   4.162   5.587
 6425SOL     OW20173   0.800   0.462   4.364
 6425SOL    HW120174   0.761   0.532   4.304
 6425SOL    HW220175   0.726   0.406   4.402
 6426SOL     OW20176   2.964   5.165   4.052
 6426SOL    HW120177   2.917   5.138   4.136
 6426SOL    HW220178   3.061   5.181   4.073
 6427SOL     OW20179   3.448   3.224   2.915
 6427SOL    HW120180   3.379   3.295   2.900
 6427SOL    HW220181   3.415   3.159   2.984
 6428SOL     OW20182   6.573   3.293   6.696
 6428SOL    HW120183   6.517   3.353   6.640
 6428SOL    HW220184   6.650   3.345   6.734
 6429SOL     OW20185   2.870   1.651   4.329
 6429SOL    HW120186   2.897   1.558   4.303
 6429SOL    HW220187   2.919   1.717   4.273
 6430SOL     OW20188   6.535   1.298   3.822
 6430SOL    HW120189   6.445   1.326   3.855
 6430SOL    HW220190   6.588   1.259   3.898
 6431SOL     OW20191   3.640   5.149   3.174
 6431SOL    HW120192   3.688   5.185   3.094
 6431SOL    HW220193   3.696   5.163   3.255
 6432SOL     OW20194   3.850   3.452   0.092
 6432SOL    HW120195   3.864   3.551   0.087
 6432SOL    HW220196   3.815   3.428   0.183
 6433SOL     OW20197   4.122   5.609   6.138
 6433SOL    HW120198   4.022   5.614   6.145
 6433SOL    HW220199   4.151   5.643   6.049
 6434SOL     OW20200   6.429   4.674   6.715
 6434SOL    HW120201   6.430   4.762   6.762
 6434SOL    HW220202   6.383   4.684   6.627
 6435SOL     OW20203   4.417   0.894   0.678
 6435SOL    HW120204   4.438   0.975   0.732
 6435SOL    HW220205   4.479   0.890   0.599
 6436SOL     OW20206   0.816   1.547   3.570
 6436SOL    HW120207   0.909   1.577   3.550
 6436SOL    HW220208   0.795   1.564   3.666
 6437SOL     OW20209   1.001   3.002   6.426
 6437SOL    HW120210   1.041   2.922   6.381
 6437SOL    HW220211   1.017   3.083   6.370
 6438SOL     OW20212   0.974   5.754   1.782
 6438SOL    HW120213   0.991   5.682   1.850
 6438SOL    HW220214   0.937   5.713   1.699
 6439SOL     OW20215   4.338   5.936   2.792
 6439SOL    HW120216   4.279   5.914   2.715
 6439SOL    HW220217   4.429   5.961   2.759
 6440SOL     OW20218   2.264   2.293   5.079
 6440SOL    HW120219   2.187   2.351   5.104
 6440SOL    HW220220   2.349   2.343   5.095
 6441SOL     OW20221   1.257   1.308   1.935
 6441SOL    HW120222   1.172   1.262   1.963
 6441SOL    HW220223   1.332   1.277   1.993
 6442SOL     OW20224   3.092   2.181   4.137
 6442SOL    HW120225   3.036   2.227   4.067
 6442SOL    HW220226   3.134   2.100   4.096
 6443SOL     OW20227   2.451   1.804   5.831
 6443SOL    HW120228   2.399   1.764   5.755
 6443SOL    HW220229   2.492   1.890   5.801
 6444SOL     OW20230   6.412   4.486   5.266
 6444SOL    HW120231   6.448   4.406   5.315
 6444SOL    HW220232   6.312   4.485   5.271
 6445SOL     OW20233   3.252   2.979   3.291
 6445SOL    HW120234   3.216   2.913   3.356
 6445SOL    HW220235   3.308   3.047   3.340
 6446SOL     OW20236   0.914   0.005   1.688
 6446SOL    HW120237   0.906   6.976   1.604
 6446SOL    HW220238   0.848   0.080   1.687
 6447SOL     OW20239   0.397   3.987   1.726
 6447SOL    HW120240   0.469   4.020   1.787
 6447SOL    HW220241   0.323   4.053   1.722
 6448SOL     OW20242   4.041   4.144   1.452
 6448SOL    HW120243   4.049   4.049   1.484
 6448SOL    HW220244   3.980   4.194   1.513
 6449SOL     OW20245   4.570   6.199   6.777
 6449SOL    HW120246   4.545   6.277   6.719
 6449SOL    HW220247   4.487   6.151   6.806
 6450SOL     OW20248   4.298   3.930   0.862
 6450SOL    HW120249   4.268   3.912   0.956
 6450SOL    HW220250   4.397   3.944   0.861
 6451SOL     OW20251   4.399   3.608   1.719
 6451SOL    HW120252   4.338   3.623   1.641
 6451SOL    HW220253   4.415   3.695   1.765
 6452SOL     OW20254   4.615   1.843   4.105
 6452SOL    HW120255   4.562   1.761   4.128
 6452SOL    HW220256   4.552   1.918   4.086
 6453SOL     OW20257   3.287   0.804   3.208
 6453SOL    HW120258   3.274   0.871   3.280
 6453SOL    HW220259   3.259   0.843   3.120
 6454SOL     OW20260   4.863   3.478   5.658
 6454SOL    HW120261   4.815   3.563   5.681
 6454SOL    HW220262   4.923   3.494   5.580
 6455SOL     OW20263   0.192   3.383   5.412
 6455SOL    HW120264   0.277   3.346   5.448
 6455SOL    HW220265   0.115   3.346   5.462
 6456SOL     OW20266   6.201   2.081   2.941
 6456SOL    HW120267   6.160   2.129   3.018
 6456SOL    HW220268   6.295   2.055   2.963
 6457SOL     OW20269   1.509   6.166   3.425
 6457SOL    HW120270   1.522   6.184   3.522
 6457SOL    HW220271   1.411   6.173   3.403
 6458SOL     OW20272   1.099   6.766   4.589
 6458SOL    HW120273   1.165   6.715   4.644
 6458SOL    HW220274   1.034   6.812   4.650
 6459SOL     OW20275   6.968   2.934   3.466
 6459SOL    HW120276   6.996   2.841   3.445
 6459SOL    HW220277   7.022   2.969   3.544
 6460SOL     OW20278   1.409   4.908   5.579
 6460SOL    HW120279   1.313   4.904   5.604
 6460SOL    HW220280   1.429   4.996   5.535
 6461SOL     OW20281   6.726   0.231   2.307
 6461SOL    HW120282   6.687   0.237   2.215
 6461SOL    HW220283   6.797   0.160   2.308
 6462SOL     OW20284   2.820   4.202   5.720
 6462SOL    HW120285   2.751   4.153   5.666
 6462SOL    HW220286   2.804   4.186   5.817
 6463SOL     OW20287   4.842   3.375   1.847
 6463SOL    HW120288   4.852   3.276   1.857
 6463SOL    HW220289   4.753   3.396   1.808
 6464SOL     OW20290   0.843   3.712   3.168
 6464SOL    HW120291   0.877   3.630   3.214
 6464SOL    HW220292   0.765   3.687   3.110
 6465SOL     OW20293   2.367   1.139   2.521
 6465SOL    HW120294   2.447   1.197   2.539
 6465SOL    HW220295   2.285   1.196   2.515
 6466SOL     OW20296   6.338   5.178   0.067
 6466SOL    HW120297   6.324   5.173   0.166
 6466SOL    HW220298   6.434   5.200   0.049
 6467SOL     OW20299   2.825   3.617   5.951
 6467SOL    HW120300   2.897   3.640   5.885
 6467SOL    HW220301   2.852   3.535   6.001
 6468SOL     OW20302   0.927   0.830   0.045
 6468SOL    HW120303   0.937   0.755   7.004
 6468SOL    HW220304   0.943   0.795   0.138
 6469SOL     OW20305   3.170   0.996   0.923
 6469SOL    HW120306   3.189   0.901   0.947
 6469SOL    HW220307   3.124   1.041   1.000
 6470SOL     OW20308   6.114   0.511   6.447
 6470SOL    HW120309   6.092   0.591   6.502
 6470SOL    HW220310   6.210   0.515   6.420
 6471SOL     OW20311   0.490   6.537   5.286
 6471SOL    HW120312   0.459   6.480   5.363
 6471SOL    HW220313   0.543   6.481   5.222
 6472SOL     OW20314   1.106   5.987   0.703
 6472SOL    HW120315   1.126   5.895   0.737
 6472SOL    HW220316   1.104   6.051   0.780
 6473SOL     OW20317   3.103   1.374   3.815
 6473SOL    HW120318   3.121   1.465   3.851
 6473SOL    HW220319   3.182   1.315   3.830
 6474SOL     OW20320   4.076   0.465   4.500
 6474SOL    HW120321   4.106   0.513   4.418
 6474SOL    HW220322   4.147   0.470   4.570
 6475SOL     OW20323   5.725   5.909   3.876
 6475SOL    HW120324   5.681   5.875   3.794
 6475SOL    HW220325   5.658   5.957   3.933
 6476SOL     OW20326   5.290   4.159   4.117
 6476SOL    HW120327   5.367   4.177   4.178
 6476SOL    HW220328   5.259   4.064   4.130
 6477SOL     OW20329   1.370   6.764   1.094
 6477SOL    HW120330   1.446   6.713   1.134
 6477SOL    HW220331   1.341   6.836   1.157
 6478SOL     OW20332   1.942   6.509   0.052
 6478SOL    HW120333   1.935   6.526   0.150
 6478SOL    HW220334   1.851   6.499   0.013
 6479SOL     OW20335   4.613   5.186   4.268
 6479SOL    HW120336   4.620   5.142   4.357
 6479SOL    HW220337   4.530   5.153   4.222
 6480SOL     OW20338   2.633   0.491   4.964
 6480SOL    HW120339   2.720   0.450   4.989
 6480SOL    HW220340   2.610   0.563   5.029
 6481SOL     OW20341   4.103   3.893   1.464
 6481SOL    HW120342   4.058   3.851   1.543
 6481SOL    HW220343   4.201   3.874   1.467
 6482SOL     OW20344   5.194   3.200   3.926
 6482SOL    HW120345   5.124   3.243   3.984
 6482SOL    HW220346   5.189   3.101   3.936
 6483SOL     OW20347   1.966   6.498   5.718
 6483SOL    HW120348   2.055   6.485   5.762
 6483SOL    HW220349   1.978   6.545   5.631
 6484SOL     OW20350   3.607   0.781   3.620
 6484SOL    HW120351   3.588   0.684   3.636
 6484SOL    HW220352   3.530   0.823   3.573
 6485SOL     OW20353   2.407   4.768   5.464
 6485SOL    HW120354   2.376   4.863   5.462
 6485SOL    HW220355   2.408   4.732   5.370
 6486SOL     OW20356   6.610   3.945   2.536
 6486SOL    HW120357   6.591   3.991   2.622
 6486SOL    HW220358   6.530   3.893   2.507
 6487SOL     OW20359   6.416   5.442   4.710
 6487SOL    HW120360   6.466   5.455   4.625
 6487SOL    HW220361   6.387   5.531   4.746
 6488SOL     OW20362   3.608   4.880   3.254
 6488SOL    HW120363   3.641   4.969   3.221
 6488SOL    HW220364   3.673   4.808   3.228
 6489SOL     OW20365   6.535   3.762   5.197
 6489SOL    HW120366   6.561   3.669   5.174
 6489SOL    HW220367   6.514   3.812   5.112
 6490SOL     OW20368   1.434   3.342   6.206
 6490SOL    HW120369   1.478   3.318   6.293
 6490SOL    HW220370   1.477   3.290   6.132
 6491SOL     OW20371   1.086   6.855   2.285
 6491SOL    HW120372   1.057   6.763   2.258
 6491SOL    HW220373   1.008   6.918   2.277
 6492SOL     OW20374   4.083   3.627   3.226
 6492SOL    HW120375   4.090   3.533   3.194
 6492SOL    HW220376   4.102   3.630   3.324
 6493SOL     OW20377   2.124   4.920   3.664
 6493SOL    HW120378   2.205   4.866   3.644
 6493SOL    HW220379   2.145   5.017   3.652
 6494SOL     OW20380   0.049   0.830   1.667
 6494SOL    HW120381   0.125   0.817   1.731
 6494SOL    HW220382   6.988   0.846   1.719
 6495SOL     OW20383   6.068   6.325   2.634
 6495SOL    HW120384   6.067   6.424   2.644
 6495SOL    HW220385   6.131   6.300   2.560
 6496SOL     OW20386   2.798   2.635   0.926
 6496SOL    HW120387   2.888   2.624   0.884
 6496SOL    HW220388   2.800   2.602   1.020
 6497SOL     OW20389   6.988   2.767   0.779
 6497SOL    HW120390   6.982   2.862   0.746
 6497SOL    HW220391   6.915   2.713   0.737
 6498SOL     OW20392   2.710   5.077   4.559
 6498SOL    HW120393   2.777   5.003   4.555
 6498SOL    HW220394   2.718   5.134   4.477
 6499SOL     OW20395   5.145   2.210   2.998
 6499SOL    HW120396   5.170   2.118   3.027
 6499SOL    HW220397   5.129   2.211   2.900
 6500SOL     OW20398   1.717   3.611   2.800
 6500SOL    HW120399   1.714   3.511   2.791
 6500SOL    HW220400   1.750   3.635   2.891
 6501SOL     OW20401   6.389   1.452   2.667
 6501SOL    HW120402   6.302   1.452   2.717
 6501SOL    HW220403   6.453   1.514   2.712
 6502SOL     OW20404   0.817   2.910   2.518
 6502SOL    HW120405   0.751   2.950   2.454
 6502SOL    HW220406   0.870   2.983   2.561
 6503SOL     OW20407   0.517   2.942   5.710
 6503SOL    HW120408   0.433   2.992   5.685
 6503SOL    HW220409   0.562   2.910   5.627
 6504SOL     OW20410   4.225   6.525   5.499
 6504SOL    HW120411   4.169   6.442   5.497
 6504SOL    HW220412   4.207   6.580   5.417
 6505SOL     OW20413   0.801   6.929   6.647
 6505SOL    HW120414   0.764   6.847   6.603
 6505SOL    HW220415   0.830   6.994   6.577
 6506SOL     OW20416   0.971   4.904   2.212
 6506SOL    HW120417   0.939   4.827   2.267
 6506SOL    HW220418   1.063   4.885   2.179
 6507SOL     OW20419   5.297   5.106   0.586
 6507SOL    HW120420   5.314   5.195   0.627
 6507SOL    HW220421   5.336   5.035   0.644
 6508SOL     OW20422   0.197   1.070   4.883
 6508SOL    HW120423   0.128   1.009   4.846
 6508SOL    HW220424   0.170   1.099   4.975
 6509SOL     OW20425   2.633   1.895   6.432
 6509SOL    HW120426   2.694   1.876   6.355
 6509SOL    HW220427   2.539   1.901   6.399
 6510SOL     OW20428   4.112   5.132   4.001
 6510SOL    HW120429   4.030   5.184   4.025
 6510SOL    HW220430   4.127   5.137   3.902
 6511SOL     OW20431   3.756   3.063   0.195
 6511SOL    HW120432   3.751   3.013   0.108
 6511SOL    HW220433   3.794   3.003   0.265
 6512SOL     OW20434   5.349   1.607   2.318
 6512SOL    HW120435   5.281   1.605   2.245
 6512SOL    HW220436   5.344   1.522   2.371
 6513SOL     OW20437   3.533   4.949   1.740
 6513SOL    HW120438   3.582   4.871   1.778
 6513SOL    HW220439   3.466   4.982   1.806
 6514SOL     OW20440   5.394   5.606   5.481
 6514SOL    HW120441   5.318   5.661   5.516
 6514SOL    HW220442   5.480   5.642   5.517
 6515SOL     OW20443   0.839   5.150   2.297
 6515SOL    HW120444   0.862   5.055   2.318
 6515SOL    HW220445   0.880   5.211   2.364
 6516SOL     OW20446   5.659   1.447   3.811
 6516SOL    HW120447   5.742   1.408   3.852
 6516SOL    HW220448   5.671   1.546   3.800
 6517SOL     OW20449   6.836   4.132   1.138
 6517SOL    HW120450   6.844   4.129   1.238
 6517SOL    HW220451   6.858   4.224   1.106
 6518SOL     OW20452   1.065   1.862   2.294
 6518SOL    HW120453   1.128   1.825   2.226
 6518SOL    HW220454   0.971   1.839   2.269
 6519SOL     OW20455   1.632   2.230   3.087
 6519SOL    HW120456   1.671   2.155   3.140
 6519SOL    HW220457   1.538   2.247   3.117
 6520SOL     OW20458   5.963   6.874   6.802
 6520SOL    HW120459   5.896   6.879   6.728
 6520SOL    HW220460   6.051   6.907   6.770
 6521SOL     OW20461   1.522   4.509   4.530
 6521SOL    HW120462   1.615   4.485   4.504
 6521SOL    HW220463   1.521   4.599   4.573
 6522SOL     OW20464   2.344   3.295   5.265
 6522SOL    HW120465   2.334   3.336   5.174
 6522SOL    HW220466   2.380   3.202   5.255
 6523SOL     OW20467   4.569   6.579   0.773
 6523SOL    HW120468   4.646   6.644   0.773
 6523SOL    HW220469   4.605   6.486   0.772
 6524SOL     OW20470   3.702   1.952   1.151
 6524SOL    HW120471   3.639   2.013   1.199
 6524SOL    HW220472   3.669   1.938   1.057
 6525SOL     OW20473   2.935   4.853   3.643
 6525SOL    HW120474   3.006   4.837   3.575
 6525SOL    HW220475   2.845   4.845   3.600
 6526SOL     OW20476   6.300   6.657   0.642
 6526SOL    HW120477   6.383   6.634   0.591
 6526SOL    HW220478   6.308   6.623   0.736
 6527SOL     OW20479   5.511   2.100   0.803
 6527SOL    HW120480   5.518   2.064   0.896
 6527SOL    HW220481   5.547   2.033   0.738
 6528SOL     OW20482   4.340   6.832   0.900
 6528SOL    HW120483   4.379   6.906   0.846
 6528SOL    HW220484   4.298   6.765   0.840
 6529SOL     OW20485   3.788   6.462   1.305
 6529SOL    HW120486   3.725   6.520   1.357
 6529SOL    HW220487   3.842   6.518   1.242
 6530SOL     OW20488   0.398   2.925   4.388
 6530SOL    HW120489   0.448   2.917   4.474
 6530SOL    HW220490   0.349   3.012   4.386
 6531SOL     OW20491   2.931   3.542   4.312
 6531SOL    HW120492   2.993   3.478   4.358
 6531SOL    HW220493   2.839   3.502   4.308
 6532SOL     OW20494   0.739   6.036   6.674
 6532SOL    HW120495   0.734   5.959   6.611
 6532SOL    HW220496   0.660   6.035   6.735
 6533SOL     OW20497   5.571   5.064   1.248
 6533SOL    HW120498   5.560   4.977   1.199
 6533SOL    HW220499   5.589   5.136   1.182
 6534SOL     OW20500   6.300   3.091   4.554
 6534SOL    HW120501   6.377   3.042   4.513
 6534SOL    HW220502   6.263   3.038   4.630
 6535SOL     OW20503   5.633   3.258   6.719
 6535SOL    HW120504   5.624   3.256   6.619
 6535SOL    HW220505   5.722   3.222   6.746
 6536SOL     OW20506   6.712   6.021   5.455
 6536SOL    HW120507   6.687   5.967   5.374
 6536SOL    HW220508   6.629   6.045   5.505
 6537SOL     OW20509   6.416   5.501   4.148
 6537SOL    HW120510   6.373   5.488   4.059
 6537SOL    HW220511   6.501   5.553   4.137
 6538SOL     OW20512   1.375   3.768   3.238
 6538SOL    HW120513   1.400   3.689   3.293
 6538SOL    HW220514   1.297   3.745   3.179
 6539SOL     OW20515   5.622   6.572   5.316
 6539SOL    HW120516   5.658   6.552   5.408
 6539SOL    HW220517   5.535   6.622   5.325
 6540SOL     OW20518   0.987   2.290   5.378
 6540SOL    HW120519   1.028   2.262   5.291
 6540SOL    HW220520   0.889   2.269   5.377
 6541SOL     OW20521   3.343   1.910   5.610
 6541SOL    HW120522   3.303   1.891   5.520
 6541SOL    HW220523   3.272   1.905   5.680
 6542SOL     OW20524   1.737   4.821   1.678
 6542SOL    HW120525   1.734   4.825   1.578
 6542SOL    HW220526   1.818   4.770   1.706
 6543SOL     OW20527   3.679   1.976   3.933
 6543SOL    HW120528   3.646   2.047   3.996
 6543SOL    HW220529   3.742   2.017   3.868
 6544SOL     OW20530   1.504   0.935   1.509
 6544SOL    HW120531   1.453   0.992   1.445
 6544SOL    HW220532   1.447   0.858   1.538
 6545SOL     OW20533   6.441   4.386   0.613
 6545SOL    HW120534   6.363   4.441   0.642
 6545SOL    HW220535   6.525   4.440   0.621
 6546SOL     OW20536   4.368   5.590   3.940
 6546SOL    HW120537   4.418   5.568   3.855
 6546SOL    HW220538   4.363   5.508   3.997
 6547SOL     OW20539   0.354   6.936   5.072
 6547SOL    HW120540   0.259   6.962   5.089
 6547SOL    HW220541   0.385   6.976   4.985
 6548SOL     OW20542   1.700   0.939   5.228
 6548SOL    HW120543   1.648   0.962   5.311
 6548SOL    HW220544   1.777   0.881   5.253
 6549SOL     OW20545   2.076   1.613   2.385
 6549SOL    HW120546   1.996   1.573   2.431
 6549SOL    HW220547   2.072   1.712   2.391
 6550SOL     OW20548   5.522   0.286   1.774
 6550SOL    HW120549   5.455   0.217   1.802
 6550SOL    HW220550   5.476   0.361   1.727
 6551SOL     OW20551   2.225   5.839   1.061
 6551SOL    HW120552   2.172   5.754   1.053
 6551SOL    HW220553   2.255   5.850   1.156
 6552SOL     OW20554   2.343   3.628   6.849
 6552SOL    HW120555   2.289   3.693   6.902
 6552SOL    HW220556   2.310   3.626   6.755
 6553SOL     OW20557   0.131   1.677   3.138
 6553SOL    HW120558   0.060   1.670   3.067
 6553SOL    HW220559   0.219   1.694   3.095
 6554SOL     OW20560   2.133   1.839   3.880
 6554SOL    HW120561   2.096   1.789   3.801
 6554SOL    HW220562   2.094   1.802   3.964
 6555SOL     OW20563   2.075   3.622   1.754
 6555SOL    HW120564   2.112   3.714   1.737
 6555SOL    HW220565   2.128   3.577   1.826
 6556SOL     OW20566   4.786   2.965   3.396
 6556SOL    HW120567   4.837   3.020   3.330
 6556SOL    HW220568   4.819   2.984   3.488
 6557SOL     OW20569   1.621   6.794   2.198
 6557SOL    HW120570   1.717   6.817   2.183
 6557SOL    HW220571   1.563   6.857   2.146
 6558SOL     OW20572   4.879   5.777   0.553
 6558SOL    HW120573   4.968   5.760   0.595
 6558SOL    HW220574   4.891   5.832   0.470
 6559SOL     OW20575   0.184   1.779   5.983
 6559SOL    HW120576   0.219   1.863   6.023
 6559SOL    HW220577   0.085   1.773   6.000
 6560SOL     OW20578   6.579   4.341   6.232
 6560SOL    HW120579   6.652   4.328   6.299
 6560SOL    HW220580   6.617   4.336   6.140
 6561SOL     OW20581   2.606   4.977   6.992
 6561SOL    HW120582   2.656   4.964   6.907
 6561SOL    HW220583   2.660   5.033   0.031
 6562SOL     OW20584   4.358   2.829   1.221
 6562SOL    HW120585   4.384   2.764   1.293
 6562SOL    HW220586   4.395   2.798   1.134
 6563SOL     OW20587   6.008   4.191   5.895
 6563SOL    HW120588   6.050   4.144   5.973
 6563SOL    HW220589   6.035   4.287   5.895
 6564SOL     OW20590   5.886   3.809   2.213
 6564SOL    HW120591   5.945   3.729   2.201
 6564SOL    HW220592   5.821   3.815   2.138
 6565SOL     OW20593   5.607   5.265   1.575
 6565SOL    HW120594   5.557   5.323   1.511
 6565SOL    HW220595   5.702   5.258   1.545
 6566SOL     OW20596   5.440   6.275   4.465
 6566SOL    HW120597   5.374   6.215   4.510
 6566SOL    HW220598   5.511   6.303   4.530
 6567SOL     OW20599   2.460   0.592   2.469
 6567SOL    HW120600   2.536   0.624   2.524
 6567SOL    HW220601   2.446   0.494   2.484
 6568SOL     OW20602   5.264   1.523   0.383
 6568SOL    HW120603   5.188   1.587   0.372
 6568SOL    HW220604   5.347   1.562   0.344
 6569SOL     OW20605   1.262   3.654   3.629
 6569SOL    HW120606   1.216   3.577   3.587
 6569SOL    HW220607   1.211   3.738   3.610
 6570SOL     OW20608   4.100   0.459   2.530
 6570SOL    HW120609   4.174   0.520   2.501
 6570SOL    HW220610   4.138   0.370   2.556
 6571SOL     OW20611   2.488   6.805   2.991
 6571SOL    HW120612   2.495   6.714   2.950
 6571SOL    HW220613   2.405   6.850   2.959
 6572SOL     OW20614   0.960   6.555   3.792
 6572SOL    HW120615   0.930   6.633   3.737
 6572SOL    HW220616   1.002   6.588   3.877
 6573SOL     OW20617   1.336   2.585   3.692
 6573SOL    HW120618   1.244   2.586   3.654
 6573SOL    HW220619   1.349   2.664   3.751
 6574SOL     OW20620   1.461   4.872   1.461
 6574SOL    HW120621   1.546   4.822   1.447
 6574SOL    HW220622   1.409   4.874   1.375
 6575SOL     OW20623   6.984   1.176   4.112
 6575SOL    HW120624   6.977   1.100   4.177
 6575SOL    HW220625   6.984   1.263   4.162
 6576SOL     OW20626   4.249   0.806   2.833
 6576SOL    HW120627   4.176   0.760   2.783
 6576SOL    HW220628   4.338   0.772   2.800
 6577SOL     OW20629   2.907   0.770   5.471
 6577SOL    HW120630   2.808   0.774   5.457
 6577SOL    HW220631   2.950   0.845   5.420
 6578SOL     OW20632   0.904   5.996   6.906
 6578SOL    HW120633   0.862   5.978   6.817
 6578SOL    HW220634   0.867   6.081   6.944
 6579SOL     OW20635   1.864   2.203   2.714
 6579SOL    HW120636   1.917   2.184   2.797
 6579SOL    HW220637   1.889   2.136   2.644
 6580SOL     OW20638   2.938   2.640   0.204
 6580SOL    HW120639   2.993   2.709   0.251
 6580SOL    HW220640   2.980   2.550   0.218
 6581SOL     OW20641   1.008   2.213   1.846
 6581SOL    HW120642   1.047   2.185   1.759
 6581SOL    HW220643   0.926   2.158   1.865
 6582SOL     OW20644   3.463   6.169   3.031
 6582SOL    HW120645   3.534   6.159   2.961
 6582SOL    HW220646   3.374   6.169   2.987
 6583SOL     OW20647   2.324   4.626   0.793
 6583SOL    HW120648   2.266   4.564   0.846
 6583SOL    HW220649   2.381   4.679   0.856
 6584SOL     OW20650   4.572   3.871   5.483
 6584SOL    HW120651   4.651   3.839   5.431
 6584SOL    HW220652   4.488   3.856   5.431
 6585SOL     OW20653   5.176   6.858   1.874
 6585SOL    HW120654   5.193   6.761   1.856
 6585SOL    HW220655   5.166   6.872   1.973
 6586SOL     OW20656   6.947   1.727   6.575
 6586SOL    HW120657   6.935   1.788   6.653
 6586SOL    HW220658   6.871   1.740   6.511
 6587SOL     OW20659   2.925   4.953   5.613
 6587SOL    HW120660   2.905   4.943   5.516
 6587SOL    HW220661   2.990   4.884   5.642
 6588SOL     OW20662   1.439   2.465   0.441
 6588SOL    HW120663   1.348   2.430   0.416
 6588SOL    HW220664   1.438   2.565   0.440
 6589SOL     OW20665   6.122   0.616   0.738
 6589SOL    HW120666   6.176   0.664   0.669
 6589SOL    HW220667   6.028   0.649   0.735
 6590SOL     OW20668   0.958   6.071   4.229
 6590SOL    HW120669   0.892   6.007   4.189
 6590SOL    HW220670   0.910   6.153   4.260
 6591SOL     OW20671   6.644   3.388   3.277
 6591SOL    HW120672   6.709   3.371   3.203
 6591SOL    HW220673   6.604   3.479   3.267
 6592SOL     OW20674   0.308   0.166   4.621
 6592SOL    HW120675   0.304   0.195   4.525
 6592SOL    HW220676   0.357   0.235   4.675
 6593SOL     OW20677   1.055   6.814   3.590
 6593SOL    HW120678   0.970   6.818   3.643
 6593SOL    HW220679   1.130   6.786   3.650
 6594SOL     OW20680   5.475   0.023   6.741
 6594SOL    HW120681   5.447   0.086   6.668
 6594SOL    HW220682   5.574   0.012   6.739
 6595SOL     OW20683   0.712   6.936   4.799
 6595SOL    HW120684   0.802   6.921   4.839
 6595SOL    HW220685   0.706   6.887   4.712
 6596SOL     OW20686   4.936   0.359   3.238
 6596SOL    HW120687   4.950   0.458   3.232
 6596SOL    HW220688   4.869   0.339   3.310
 6597SOL     OW20689   1.004   5.364   1.452
 6597SOL    HW120690   0.972   5.455   1.424
 6597SOL    HW220691   0.933   5.296   1.432
 6598SOL     OW20692   1.492   5.110   1.548
 6598SOL    HW120693   1.575   5.128   1.601
 6598SOL    HW220694   1.485   5.012   1.530
 6599SOL     OW20695   0.259   6.233   0.095
 6599SOL    HW120696   0.250   6.146   0.143
 6599SOL    HW220697   0.301   6.218   0.005
 6600SOL     OW20698   5.326   0.197   4.917
 6600SOL    HW120699   5.303   0.291   4.893
 6600SOL    HW220700   5.279   0.172   5.002
 6601SOL     OW20701   0.965   2.358   3.803
 6601SOL    HW120702   0.920   2.342   3.715
 6601SOL    HW220703   0.932   2.291   3.870
 6602SOL     OW20704   6.416   6.185   0.864
 6602SOL    HW120705   6.503   6.202   0.910
 6602SOL    HW220706   6.425   6.205   0.767
 6603SOL     OW20707   0.131   4.946   2.465
 6603SOL    HW120708   0.071   4.925   2.388
 6603SOL    HW220709   0.154   5.043   2.465
 6604SOL     OW20710   2.365   4.935   2.188
 6604SOL    HW120711   2.332   4.845   2.159
 6604SOL    HW220712   2.465   4.937   2.181
 6605SOL     OW20713   0.080   5.589   0.927
 6605SOL    HW120714   7.011   5.557   0.947
 6605SOL    HW220715   0.130   5.519   0.876
 6606SOL     OW20716   1.109   5.070   3.162
 6606SOL    HW120717   1.181   5.032   3.104
 6606SOL    HW220718   1.107   5.169   3.151
 6607SOL     OW20719   0.478   2.727   4.200
 6607SOL    HW120720   0.456   2.813   4.246
 6607SOL    HW220721   0.577   2.711   4.204
 6608SOL     OW20722   1.671   0.194   5.461
 6608SOL    HW120723   1.630   0.193   5.369
 6608SOL    HW220724   1.749   0.256   5.462
 6609SOL     OW20725   2.727   1.881   0.144
 6609SOL    HW120726   2.785   1.880   0.063
 6609SOL    HW220727   2.636   1.915   0.119
 6610SOL     OW20728   3.392   5.621   0.812
 6610SOL    HW120729   3.334   5.569   0.875
 6610SOL    HW220730   3.349   5.709   0.791
 6611SOL     OW20731   2.802   1.171   5.274
 6611SOL    HW120732   2.852   1.241   5.221
 6611SOL    HW220733   2.705   1.175   5.251
 6612SOL     OW20734   5.996   0.174   6.701
 6612SOL    HW120735   6.070   0.207   6.641
 6612SOL    HW220736   6.034   0.114   6.771
 6613SOL     OW20737   5.045   6.769   1.047
 6613SOL    HW120738   5.072   6.681   1.086
 6613SOL    HW220739   5.127   6.815   1.011
 6614SOL     OW20740   4.352   5.649   0.451
 6614SOL    HW120741   4.309   5.581   0.393
 6614SOL    HW220742   4.425   5.606   0.505
 6615SOL     OW20743   3.875   5.816   5.930
 6615SOL    HW120744   3.854   5.750   5.858
 6615SOL    HW220745   3.900   5.903   5.888
 6616SOL     OW20746   4.202   2.104   6.739
 6616SOL    HW120747   4.301   2.099   6.744
 6616SOL    HW220748   4.175   2.182   6.683
 6617SOL     OW20749   3.732   1.552   4.562
 6617SOL    HW120750   3.703   1.485   4.494
 6617SOL    HW220751   3.651   1.591   4.607
 6618SOL     OW20752   6.443   2.459   3.669
 6618SOL    HW120753   6.379   2.435   3.596
 6618SOL    HW220754   6.511   2.522   3.632
 6619SOL     OW20755   4.434   5.102   3.279
 6619SOL    HW120756   4.337   5.108   3.254
 6619SOL    HW220757   4.464   5.007   3.273
 6620SOL     OW20758   1.157   2.937   3.688
 6620SOL    HW120759   1.156   2.975   3.781
 6620SOL    HW220760   1.220   2.990   3.631
 6621SOL     OW20761   3.505   3.425   3.186
 6621SOL    HW120762   3.434   3.366   3.148
 6621SOL    HW220763   3.584   3.369   3.213
 6622SOL     OW20764   6.706   5.085   1.827
 6622SOL    HW120765   6.720   5.166   1.884
 6622SOL    HW220766   6.793   5.036   1.817
 6623SOL     OW20767   3.447   3.221   4.418
 6623SOL    HW120768   3.511   3.288   4.456
 6623SOL    HW220769   3.408   3.256   4.333
 6624SOL     OW20770   2.464   2.408   2.577
 6624SOL    HW120771   2.559   2.378   2.592
 6624SOL    HW220772   2.459   2.508   2.589
 6625SOL     OW20773   1.073   5.352   6.224
 6625SOL    HW120774   1.068   5.264   6.270
 6625SOL    HW220775   1.142   5.348   6.152
 6626SOL     OW20776   3.786   5.885   5.556
 6626SOL    HW120777   3.688   5.905   5.553
 6626SOL    HW220778   3.837   5.970   5.571
 6627SOL     OW20779   2.725   0.425   4.411
 6627SOL    HW120780   2.776   0.464   4.489
 6627SOL    HW220781   2.736   0.325   4.411
 6628SOL     OW20782   3.697   6.221   4.177
 6628SOL    HW120783   3.686   6.177   4.088
 6628SOL    HW220784   3.718   6.318   4.163
 6629SOL     OW20785   5.026   5.967   5.348
 6629SOL    HW120786   5.011   6.020   5.264
 6629SOL    HW220787   5.014   6.026   5.428
 6630SOL     OW20788   1.604   6.997   0.605
 6630SOL    HW120789   1.556   0.012   0.527
 6630SOL    HW220790   1.703   7.012   0.595
 6631SOL     OW20791   1.261   1.464   5.630
 6631SOL    HW120792   1.302   1.381   5.591
 6631SOL    HW220793   1.227   1.522   5.556
 6632SOL     OW20794   1.202   0.546   5.699
 6632SOL    HW120795   1.102   0.540   5.693
 6632SOL    HW220796   1.239   0.577   5.611
 6633SOL     OW20797   5.070   0.221   5.578
 6633SOL    HW120798   5.162   0.201   5.544
 6633SOL    HW220799   5.005   0.217   5.502
 6634SOL     OW20800   2.718   2.202   3.928
 6634SOL    HW120801   2.668   2.285   3.903
 6634SOL    HW220802   2.814   2.211   3.901
 6635SOL     OW20803   4.628   5.788   6.152
 6635SOL    HW120804   4.536   5.781   6.190
 6635SOL    HW220805   4.626   5.845   6.069
 6636SOL     OW20806   4.963   1.562   1.294
 6636SOL    HW120807   5.030   1.494   1.261
 6636SOL    HW220808   4.984   1.651   1.253
 6637SOL     OW20809   0.370   3.693   0.110
 6637SOL    HW120810   0.308   3.758   0.155
 6637SOL    HW220811   0.428   3.650   0.179
 6638SOL     OW20812   3.311   3.362   4.218
 6638SOL    HW120813   3.230   3.372   4.275
 6638SOL    HW220814   3.326   3.447   4.167
 6639SOL     OW20815   5.951   2.583   2.572
 6639SOL    HW120816   5.896   2.534   2.641
 6639SOL    HW220817   5.951   2.530   2.487
 6640SOL     OW20818   0.372   3.404   4.309
 6640SOL    HW120819   0.408   3.338   4.244
 6640SOL    HW220820   0.441   3.426   4.377
 6641SOL     OW20821   5.218   2.360   0.324
 6641SOL    HW120822   5.266   2.409   0.251
 6641SOL    HW220823   5.126   2.336   0.292
 6642SOL     OW20824   0.387   4.754   6.465
 6642SOL    HW120825   0.402   4.723   6.371
 6642SOL    HW220826   0.371   4.675   6.524
 6643SOL     OW20827   5.997   5.721   5.558
 6643SOL    HW120828   6.078   5.724   5.615
 6643SOL    HW220829   5.916   5.704   5.614
 6644SOL     OW20830   2.035   6.258   3.582
 6644SOL    HW120831   2.117   6.224   3.535
 6644SOL    HW220832   1.956   6.203   3.555
 6645SOL     OW20833   4.863   3.036   5.510
 6645SOL    HW120834   4.888   3.105   5.441
 6645SOL    HW220835   4.788   3.070   5.565
 6646SOL     OW20836   4.411   0.086   6.059
 6646SOL    HW120837   4.508   0.107   6.044
 6646SOL    HW220838   4.400   0.043   6.149
 6647SOL     OW20839   3.031   4.887   0.724
 6647SOL    HW120840   3.116   4.917   0.682
 6647SOL    HW220841   2.960   4.956   0.709
 6648SOL     OW20842   3.180   5.699   4.942
 6648SOL    HW120843   3.234   5.623   4.979
 6648SOL    HW220844   3.158   5.763   5.016
 6649SOL     OW20845   5.611   2.944   5.081
 6649SOL    HW120846   5.708   2.928   5.063
 6649SOL    HW220847   5.595   3.041   5.100
 6650SOL     OW20848   2.663   0.498   4.688
 6650SOL    HW120849   2.691   0.404   4.669
 6650SOL    HW220850   2.658   0.512   4.787
 6651SOL     OW20851   6.007   0.848   3.474
 6651SOL    HW120852   5.940   0.865   3.546
 6651SOL    HW220853   6.099   0.850   3.512
 6652SOL     OW20854   6.886   4.964   6.770
 6652SOL    HW120855   6.825   5.043   6.766
 6652SOL    HW220856   6.880   4.922   6.861
 6653SOL     OW20857   5.560   3.730   6.522
 6653SOL    HW120858   5.601   3.741   6.613
 6653SOL    HW220859   5.534   3.635   6.509
 6654SOL     OW20860   6.529   1.872   3.398
 6654SOL    HW120861   6.487   1.808   3.463
 6654SOL    HW220862   6.628   1.871   3.409
 6655SOL     OW20863   6.678   5.251   1.594
 6655SOL    HW120864   6.761   5.306   1.604
 6655SOL    HW220865   6.691   5.163   1.639
 6656SOL     OW20866   5.450   1.788   2.498
 6656SOL    HW120867   5.409   1.879   2.499
 6656SOL    HW220868   5.411   1.735   2.422
 6657SOL     OW20869   4.833   1.967   4.004
 6657SOL    HW120870   4.866   2.032   4.072
 6657SOL    HW220871   4.744   1.932   4.031
 6658SOL     OW20872   6.324   5.498   3.881
 6658SOL    HW120873   6.388   5.535   3.814
 6658SOL    HW220874   6.247   5.456   3.832
 6659SOL     OW20875   1.042   6.403   0.707
 6659SOL    HW120876   1.058   6.368   0.615
 6659SOL    HW220877   1.066   6.500   0.711
 6660SOL     OW20878   1.547   0.869   3.492
 6660SOL    HW120879   1.632   0.922   3.490
 6660SOL    HW220880   1.560   0.784   3.441
 6661SOL     OW20881   3.641   6.310   3.659
 6661SOL    HW120882   3.741   6.313   3.656
 6661SOL    HW220883   3.605   6.403   3.654
 6662SOL     OW20884   3.977   6.220   1.157
 6662SOL    HW120885   3.882   6.191   1.166
 6662SOL    HW220886   3.984   6.291   1.087
 6663SOL     OW20887   1.834   4.321   5.206
 6663SOL    HW120888   1.781   4.308   5.290
 6663SOL    HW220889   1.925   4.357   5.229
 6664SOL     OW20890   3.445   0.015   1.691
 6664SOL    HW120891   3.361   7.024   1.743
 6664SOL    HW220892   3.436   0.101   1.639
 6665SOL     OW20893   2.983   0.513   6.542
 6665SOL    HW120894   2.939   0.534   6.455
 6665SOL    HW220895   2.994   0.597   6.595
 6666SOL     OW20896   3.038   6.879   5.965
 6666SOL    HW120897   3.086   6.957   5.924
 6666SOL    HW220898   2.946   6.872   5.927
 6667SOL     OW20899   1.472   5.594   6.653
 6667SOL    HW120900   1.521   5.568   6.736
 6667SOL    HW220901   1.496   5.687   6.627
 6668SOL     OW20902   6.844   3.820   5.948
 6668SOL    HW120903   6.901   3.803   5.868
 6668SOL    HW220904   6.748   3.803   5.926
 6669SOL     OW20905   0.677   3.592   3.458
 6669SOL    HW120906   0.616   3.620   3.532
 6669SOL    HW220907   0.766   3.636   3.470
 6670SOL     OW20908   2.502   3.677   0.689
 6670SOL    HW120909   2.485   3.771   0.718
 6670SOL    HW220910   2.459   3.614   0.754
 6671SOL     OW20911   5.265   5.259   0.311
 6671SOL    HW120912   5.201   5.215   0.374
 6671SOL    HW220913   5.230   5.252   0.218
 6672SOL     OW20914   1.675   2.386   0.948
 6672SOL    HW120915   1.683   2.288   0.963
 6672SOL    HW220916   1.748   2.418   0.889
 6673SOL     OW20917   5.597   3.875   4.353
 6673SOL    HW120918   5.582   3.972   4.372
 6673SOL    HW220919   5.636   3.864   4.262
 6674SOL     OW20920   6.552   1.454   6.832
 6674SOL    HW120921   6.594   1.389   6.769
 6674SOL    HW220922   6.480   1.505   6.785
 6675SOL     OW20923   5.038   1.184   0.803
 6675SOL    HW120924   5.035   1.086   0.818
 6675SOL    HW220925   5.052   1.202   0.705
 6676SOL     OW20926   0.965   3.258   5.455
 6676SOL    HW120927   0.919   3.322   5.517
 6676SOL    HW220928   1.054   3.295   5.429
 6677SOL     OW20929   0.682   2.331   0.024
 6677SOL    HW120930   0.685   2.299   0.118
 6677SOL    HW220931   0.748   2.278   6.993
 6678SOL     OW20932   2.949   4.138   6.786
 6678SOL    HW120933   2.975   4.060   6.729
 6678SOL    HW220934   3.030   4.191   6.810
 6679SOL     OW20935   1.518   0.316   3.494
 6679SOL    HW120936   1.425   0.289   3.469
 6679SOL    HW220937   1.524   0.416   3.495
 6680SOL     OW20938   6.351   5.445   1.817
 6680SOL    HW120939   6.271   5.483   1.863
 6680SOL    HW220940   6.326   5.359   1.772
 6681SOL     OW20941   3.112   6.464   1.156
 6681SOL    HW120942   3.148   6.549   1.117
 6681SOL    HW220943   3.073   6.408   1.083
 6682SOL     OW20944   2.223   5.103   6.720
 6682SOL    HW120945   2.238   5.011   6.684
 6682SOL    HW220946   2.159   5.151   6.660
 6683SOL     OW20947   6.542   6.546   6.032
 6683SOL    HW120948   6.529   6.561   5.934
 6683SOL    HW220949   6.493   6.617   6.083
 6684SOL     OW20950   3.055   0.099   5.855
 6684SOL    HW120951   2.957   0.087   5.870
 6684SOL    HW220952   3.085   0.184   5.897
 6685SOL     OW20953   3.830   2.990   0.647
 6685SOL    HW120954   3.743   3.031   0.623
 6685SOL    HW220955   3.841   2.990   0.746
 6686SOL     OW20956   4.215   4.604   5.615
 6686SOL    HW120957   4.158   4.686   5.606
 6686SOL    HW220958   4.232   4.565   5.524
 6687SOL     OW20959   7.015   2.886   1.148
 6687SOL    HW120960   0.060   2.834   1.097
 6687SOL    HW220961   6.926   2.875   1.104
 6688SOL     OW20962   5.597   6.030   0.277
 6688SOL    HW120963   5.537   5.976   0.218
 6688SOL    HW220964   5.569   6.126   0.275
 6689SOL     OW20965   3.905   4.433   5.693
 6689SOL    HW120966   3.853   4.517   5.703
 6689SOL    HW220967   3.975   4.428   5.764
 6690SOL     OW20968   1.154   0.397   6.857
 6690SOL    HW120969   1.123   0.489   6.880
 6690SOL    HW220970   1.082   0.331   6.882
 6691SOL     OW20971   1.473   2.023   2.093
 6691SOL    HW120972   1.426   2.040   2.006
 6691SOL    HW220973   1.517   2.107   2.124
 6692SOL     OW20974   4.234   6.127   2.233
 6692SOL    HW120975   4.143   6.100   2.199
 6692SOL    HW220976   4.223   6.201   2.299
 6693SOL     OW20977   3.121   1.305   6.007
 6693SOL    HW120978   3.151   1.318   6.101
 6693SOL    HW220979   3.174   1.231   5.965
 6694SOL     OW20980   4.561   4.059   1.654
 6694SOL    HW120981   4.509   4.098   1.730
 6694SOL    HW220982   4.649   4.105   1.647
 6695SOL     OW20983   3.269   2.134   0.051
 6695SOL    HW120984   3.269   2.131   6.974
 6695SOL    HW220985   3.363   2.138   0.084
 6696SOL     OW20986   3.427   3.132   5.099
 6696SOL    HW120987   3.511   3.144   5.153
 6696SOL    HW220988   3.396   3.037   5.107
 6697SOL     OW20989   4.900   1.074   2.750
 6697SOL    HW120990   4.836   1.087   2.827
 6697SOL    HW220991   4.930   1.163   2.717
 6698SOL     OW20992   2.712   3.529   1.262
 6698SOL    HW120993   2.757   3.456   1.314
 6698SOL    HW220994   2.782   3.587   1.220
 6699SOL     OW20995   1.272   3.614   5.825
 6699SOL    HW120996   1.353   3.656   5.865
 6699SOL    HW220997   1.292   3.583   5.733
 6700SOL     OW20998   5.051   0.053   1.354
 6700SOL    HW120999   5.040   0.095   1.264
 6700SOL    HW221000   4.961   0.024   1.388
 6701SOL     OW21001   6.661   6.756   1.418
 6701SOL    HW121002   6.742   6.697   1.413
 6701SOL    HW221003   6.583   6.711   1.376
 6702SOL     OW21004   5.070   2.619   1.429
 6702SOL    HW121005   4.994   2.680   1.405
 6702SOL    HW221006   5.151   2.646   1.377
 6703SOL     OW21007   0.131   1.057   0.898
 6703SOL    HW121008   0.068   0.981   0.882
 6703SOL    HW221009   0.084   1.127   0.951
 6704SOL     OW21010   2.255   5.921   6.628
 6704SOL    HW121011   2.354   5.912   6.618
 6704SOL    HW221012   2.220   5.983   6.557
 6705SOL     OW21013   1.587   4.240   3.041
 6705SOL    HW121014   1.514   4.308   3.054
 6705SOL    HW221015   1.554   4.151   3.073
 6706SOL     OW21016   0.504   5.667   1.766
 6706SOL    HW121017   0.581   5.640   1.823
 6706SOL    HW221018   0.459   5.747   1.805
 6707SOL     OW21019   5.249   0.786   2.827
 6707SOL    HW121020   5.337   0.815   2.864
 6707SOL    HW221021   5.224   0.697   2.867
 6708SOL     OW21022   7.011   3.279   1.101
 6708SOL    HW121023   6.953   3.237   1.032
 6708SOL    HW221024   7.017   3.220   1.182
 6709SOL     OW21025   2.314   4.214   1.982
 6709SOL    HW121026   2.247   4.141   1.989
 6709SOL    HW221027   2.370   4.201   1.901
 6710SOL     OW21028   4.919   2.399   2.063
 6710SOL    HW121029   4.895   2.464   1.992
 6710SOL    HW221030   4.875   2.425   2.149
 6711SOL     OW21031   4.345   5.459   6.183
 6711SOL    HW121032   4.366   5.472   6.280
 6711SOL    HW221033   4.249   5.483   6.167
 6712SOL     OW21034   5.623   3.500   1.085
 6712SOL    HW121035   5.586   3.454   1.005
 6712SOL    HW221036   5.701   3.450   1.120
 6713SOL     OW21037   2.085   4.582   4.381
 6713SOL    HW121038   2.161   4.614   4.437
 6713SOL    HW221039   2.100   4.608   4.286
 6714SOL     OW21040   6.056   0.654   2.778
 6714SOL    HW121041   5.999   0.584   2.822
 6714SOL    HW221042   6.019   0.745   2.799
 6715SOL     OW21043   0.934   6.752   5.393
 6715SOL    HW121044   0.890   6.692   5.326
 6715SOL    HW221045   0.864   6.789   5.455
 6716SOL     OW21046   1.614   4.440   1.710
 6716SOL    HW121047   1.527   4.487   1.695
 6716SOL    HW221048   1.653   4.469   1.797
 6717SOL     OW21049   6.344   2.428   5.241
 6717SOL    HW121050   6.365   2.496   5.311
 6717SOL    HW221051   6.375   2.462   5.152
 6718SOL     OW21052   4.738   2.231   0.847
 6718SOL    HW121053   4.703   2.233   0.753
 6718SOL    HW221054   4.674   2.181   0.905
 6719SOL     OW21055   1.705   0.236   0.220
 6719SOL    HW121056   1.699   0.177   0.139
 6719SOL    HW221057   1.793   0.222   0.265
 6720SOL     OW21058   1.661   1.772   4.559
 6720SOL    HW121059   1.703   1.742   4.644
 6720SOL    HW221060   1.732   1.790   4.491
 6721SOL     OW21061   6.474   6.432   0.488
 6721SOL    HW121062   6.440   6.339   0.495
 6721SOL    HW221063   6.510   6.448   0.396
 6722SOL     OW21064   6.948   3.765   1.862
 6722SOL    HW121065   0.011   3.805   1.892
 6722SOL    HW221066   6.954   3.741   1.765
 6723SOL     OW21067   2.135   3.552   3.708
 6723SOL    HW121068   2.129   3.499   3.792
 6723SOL    HW221069   2.076   3.511   3.638
 6724SOL     OW21070   2.184   3.399   5.050
 6724SOL    HW121071   2.184   3.479   5.110
 6724SOL    HW221072   2.139   3.422   4.963
 6725SOL     OW21073   4.531   2.580   3.479
 6725SOL    HW121074   4.506   2.635   3.399
 6725SOL    HW221075   4.594   2.508   3.452
 6726SOL     OW21076   0.179   1.590   0.282
 6726SOL    HW121077   0.167   1.505   0.334
 6726SOL    HW221078   0.276   1.605   0.265
 6727SOL     OW21079   0.802   5.500   5.429
 6727SOL    HW121080   0.827   5.407   5.403
 6727SOL    HW221081   0.704   5.513   5.417
 6728SOL     OW21082   3.565   1.722   5.322
 6728SOL    HW121083   3.501   1.715   5.245
 6728SOL    HW221084   3.656   1.695   5.292
 6729SOL     OW21085   4.375   1.207   2.631
 6729SOL    HW121086   4.418   1.158   2.555
 6729SOL    HW221087   4.333   1.142   2.693
 6730SOL     OW21088   0.019   2.129   1.345
 6730SOL    HW121089   6.962   2.076   1.371
 6730SOL    HW221090   0.098   2.069   1.341
 6731SOL     OW21091   3.706   0.629   5.588
 6731SOL    HW121092   3.760   0.688   5.527
 6731SOL    HW221093   3.683   0.680   5.671
 6732SOL     OW21094   6.350   4.765   6.044
 6732SOL    HW121095   6.404   4.793   6.123
 6732SOL    HW221096   6.253   4.764   6.068
 6733SOL     OW21097   5.317   4.657   5.655
 6733SOL    HW121098   5.335   4.752   5.678
 6733SOL    HW221099   5.274   4.651   5.565
 6734SOL     OW21100   5.508   1.799   5.297
 6734SOL    HW121101   5.451   1.859   5.242
 6734SOL    HW221102   5.589   1.850   5.328
 6735SOL     OW21103   5.961   2.583   4.504
 6735SOL    HW121104   5.903   2.648   4.552
 6735SOL    HW221105   6.028   2.544   4.567
 6736SOL     OW21106   4.038   3.297   0.659
 6736SOL    HW121107   4.025   3.213   0.711
 6736SOL    HW221108   4.092   3.362   0.713
 6737SOL     OW21109   5.836   2.730   1.319
 6737SOL    HW121110   5.770   2.806   1.323
 6737SOL    HW221111   5.929   2.767   1.321
 6738SOL     OW21112   1.876   6.953   3.611
 6738SOL    HW121113   1.940   6.923   3.540
 6738SOL    HW221114   1.864   6.880   3.678
 6739SOL     OW21115   0.282   0.398   5.633
 6739SOL    HW121116   0.314   0.322   5.577
 6739SOL    HW221117   0.188   0.380   5.663
 6740SOL     OW21118   0.946   6.882   1.430
 6740SOL    HW121119   0.861   6.830   1.431
 6740SOL    HW221120   0.937   6.960   1.368
 6741SOL     OW21121   3.130   2.031   0.259
 6741SOL    HW121122   3.184   2.084   0.193
 6741SOL    HW221123   3.088   1.954   0.212
 6742SOL     OW21124   6.654   5.426   2.628
 6742SOL    HW121125   6.673   5.336   2.587
 6742SOL    HW221126   6.562   5.455   2.602
 6743SOL     OW21127   3.852   4.431   6.805
 6743SOL    HW121128   3.800   4.479   6.875
 6743SOL    HW221129   3.948   4.461   6.809
 6744SOL     OW21130   6.639   6.662   5.567
 6744SOL    HW121131   6.615   6.605   5.645
 6744SOL    HW221132   6.607   6.755   5.582
 6745SOL     OW21133   5.806   3.412   4.709
 6745SOL    HW121134   5.828   3.401   4.806
 6745SOL    HW221135   5.713   3.447   4.701
 6746SOL     OW21136   1.776   2.699   2.634
 6746SOL    HW121137   1.762   2.766   2.706
 6746SOL    HW221138   1.818   2.617   2.672
 6747SOL     OW21139   0.733   6.223   5.295
 6747SOL    HW121140   0.768   6.296   5.354
 6747SOL    HW221141   0.686   6.263   5.216
 6748SOL     OW21142   1.529   2.257   3.897
 6748SOL    HW121143   1.470   2.270   3.817
 6748SOL    HW221144   1.588   2.337   3.908
 6749SOL     OW21145   3.329   5.197   1.958
 6749SOL    HW121146   3.404   5.130   1.958
 6749SOL    HW221147   3.316   5.232   1.866
 6750SOL     OW21148   3.446   0.332   5.464
 6750SOL    HW121149   3.527   0.370   5.421
 6750SOL    HW221150   3.381   0.405   5.485
 6751SOL     OW21151   3.973   1.550   4.349
 6751SOL    HW121152   4.067   1.566   4.378
 6751SOL    HW221153   3.923   1.502   4.421
 6752SOL     OW21154   2.239   5.184   2.686
 6752SOL    HW121155   2.186   5.166   2.604
 6752SOL    HW221156   2.254   5.282   2.695
 6753SOL     OW21157   3.379   4.385   6.795
 6753SOL    HW121158   3.332   4.467   6.763
 6753SOL    HW221159   3.432   4.406   6.877
 6754SOL     OW21160   5.721   0.652   0.475
 6754SOL    HW121161   5.779   0.731   0.450
 6754SOL    HW221162   5.711   0.592   0.396
 6755SOL     OW21163   3.838   5.705   5.355
 6755SOL    HW121164   3.752   5.654   5.360
 6755SOL    HW221165   3.843   5.769   5.432
 6756SOL     OW21166   4.319   3.331   5.351
 6756SOL    HW121167   4.379   3.410   5.338
 6756SOL    HW221168   4.373   3.253   5.382
 6757SOL     OW21169   4.074   0.115   1.857
 6757SOL    HW121170   4.024   0.110   1.944
 6757SOL    HW221171   4.011   0.100   1.781
 6758SOL     OW21172   5.187   2.344   3.680
 6758SOL    HW121173   5.233   2.262   3.716
 6758SOL    HW221174   5.232   2.373   3.595
 6759SOL     OW21175   1.441   2.478   1.526
 6759SOL    HW121176   1.342   2.486   1.519
 6759SOL    HW221177   1.484   2.505   1.440
 6760SOL     OW21178   5.150   1.673   5.791
 6760SOL    HW121179   5.058   1.656   5.826
 6760SOL    HW221180   5.204   1.589   5.800
 6761SOL     OW21181   2.813   0.116   4.897
 6761SOL    HW121182   2.743   0.061   4.943
 6761SOL    HW221183   2.902   0.073   4.910
 6762SOL     OW21184   5.540   4.448   4.333
 6762SOL    HW121185   5.472   4.499   4.281
 6762SOL    HW221186   5.494   4.380   4.390
 6763SOL     OW21187   5.428   5.652   3.661
 6763SOL    HW121188   5.351   5.642   3.724
 6763SOL    HW221189   5.486   5.570   3.666
 6764SOL     OW21190   1.106   4.622   2.227
 6764SOL    HW121191   1.091   4.537   2.176
 6764SOL    HW221192   1.124   4.696   2.163
 6765SOL     OW21193   0.158   4.551   2.569
 6765SOL    HW121194   0.058   4.556   2.559
 6765SOL    HW221195   0.200   4.631   2.527
 6766SOL     OW21196   5.988   0.106   1.369
 6766SOL    HW121197   6.040   0.178   1.416
 6766SOL    HW221198   6.020   0.016   1.400
 6767SOL     OW21199   3.035   0.567   1.418
 6767SOL    HW121200   3.072   0.491   1.471
 6767SOL    HW221201   2.963   0.613   1.470
 6768SOL     OW21202   2.345   0.207   6.338
 6768SOL    HW121203   2.283   0.249   6.405
 6768SOL    HW221204   2.337   0.107   6.344
 6769SOL     OW21205   5.527   2.669   1.378
 6769SOL    HW121206   5.593   2.740   1.402
 6769SOL    HW221207   5.497   2.622   1.460
 6770SOL     OW21208   0.222   1.930   1.342
 6770SOL    HW121209   0.279   1.872   1.400
 6770SOL    HW221210   0.178   1.873   1.272
 6771SOL     OW21211   4.656   1.248   3.625
 6771SOL    HW121212   4.594   1.277   3.553
 6771SOL    HW221213   4.642   1.151   3.644
 6772SOL     OW21214   3.347   1.475   5.098
 6772SOL    HW121215   3.254   1.510   5.084
 6772SOL    HW221216   3.410   1.552   5.108
 6773SOL     OW21217   6.720   3.146   2.309
 6773SOL    HW121218   6.750   3.156   2.214
 6773SOL    HW221219   6.736   3.232   2.358
 6774SOL     OW21220   1.183   1.571   6.103
 6774SOL    HW121221   1.210   1.579   6.007
 6774SOL    HW221222   1.100   1.515   6.110
 6775SOL     OW21223   0.166   3.262   0.704
 6775SOL    HW121224   0.184   3.340   0.645
 6775SOL    HW221225   0.251   3.229   0.744
 6776SOL     OW21226   5.768   6.494   6.624
 6776SOL    HW121227   5.777   6.431   6.547
 6776SOL    HW221228   5.811   6.581   6.601
 6777SOL     OW21229   4.536   4.748   6.982
 6777SOL    HW121230   4.604   4.692   6.934
 6777SOL    HW221231   4.542   4.730   0.056
 6778SOL     OW21232   6.598   5.363   3.131
 6778SOL    HW121233   6.574   5.267   3.143
 6778SOL    HW221234   6.656   5.373   3.050
 6779SOL     OW21235   5.443   3.530   6.222
 6779SOL    HW121236   5.498   3.548   6.140
 6779SOL    HW221237   5.430   3.431   6.232
 6780SOL     OW21238   1.190   2.521   1.414
 6780SOL    HW121239   1.172   2.427   1.386
 6780SOL    HW221240   1.234   2.571   1.339
 6781SOL     OW21241   5.546   4.523   5.295
 6781SOL    HW121242   5.611   4.576   5.240
 6781SOL    HW221243   5.597   4.453   5.346
 6782SOL     OW21244   6.263   1.784   3.814
 6782SOL    HW121245   6.199   1.860   3.828
 6782SOL    HW221246   6.320   1.774   3.896
 6783SOL     OW21247   1.362   5.315   6.853
 6783SOL    HW121248   1.398   5.401   6.889
 6783SOL    HW221249   1.414   5.288   6.772
 6784SOL     OW21250   4.186   3.387   0.089
 6784SOL    HW121251   4.156   3.326   0.162
 6784SOL    HW221252   4.122   3.464   0.083
 6785SOL     OW21253   5.370   5.932   1.768
 6785SOL    HW121254   5.440   5.978   1.824
 6785SOL    HW221255   5.280   5.968   1.791
 6786SOL     OW21256   1.717   3.332   5.110
 6786SOL    HW121257   1.810   3.319   5.144
 6786SOL    HW221258   1.654   3.276   5.164
 6787SOL     OW21259   0.900   3.963   2.242
 6787SOL    HW121260   0.817   4.008   2.208
 6787SOL    HW221261   0.883   3.865   2.252
 6788SOL     OW21262   2.740   3.859   1.011
 6788SOL    HW121263   2.811   3.839   1.079
 6788SOL    HW221264   2.772   3.931   0.950
 6789SOL     OW21265   1.944   4.554   3.245
 6789SOL    HW121266   1.914   4.635   3.195
 6789SOL    HW221267   2.006   4.581   3.318
 6790SOL     OW21268   1.184   3.402   0.857
 6790SOL    HW121269   1.165   3.412   0.954
 6790SOL    HW221270   1.282   3.413   0.840
 6791SOL     OW21271   3.732   4.023   5.722
 6791SOL    HW121272   3.670   4.069   5.658
 6791SOL    HW221273   3.705   3.928   5.733
 6792SOL     OW21274   0.541   5.327   0.564
 6792SOL    HW121275   0.619   5.367   0.613
 6792SOL    HW221276   0.574   5.265   0.494
 6793SOL     OW21277   5.983   1.155   0.850
 6793SOL    HW121278   6.011   1.074   0.901
 6793SOL    HW221279   6.064   1.209   0.826
 6794SOL     OW21280   3.015   1.603   5.063
 6794SOL    HW121281   2.921   1.613   5.095
 6794SOL    HW221282   3.047   1.690   5.027
 6795SOL     OW21283   3.967   5.686   0.019
 6795SOL    HW121284   4.066   5.669   0.014
 6795SOL    HW221285   3.937   5.734   6.961
 6796SOL     OW21286   4.525   1.937   2.338
 6796SOL    HW121287   4.461   1.937   2.261
 6796SOL    HW221288   4.478   1.967   2.421
 6797SOL     OW21289   6.572   2.612   2.765
 6797SOL    HW121290   6.604   2.629   2.858
 6797SOL    HW221291   6.649   2.621   2.701
 6798SOL     OW21292   6.522   0.031   2.062
 6798SOL    HW121293   6.508   7.000   2.144
 6798SOL    HW221294   6.558   6.996   1.988
 6799SOL     OW21295   4.924   5.819   2.297
 6799SOL    HW121296   4.942   5.722   2.276
 6799SOL    HW221297   5.004   5.859   2.341
 6800SOL     OW21298   3.514   3.638   6.351
 6800SOL    HW121299   3.456   3.713   6.383
 6800SOL    HW221300   3.610   3.666   6.357
 6801SOL     OW21301   0.505   2.685   3.302
 6801SOL    HW121302   0.477   2.589   3.299
 6801SOL    HW221303   0.452   2.737   3.234
 6802SOL     OW21304   3.250   5.017   2.351
 6802SOL    HW121305   3.251   4.982   2.257
 6802SOL    HW221306   3.221   5.113   2.350
 6803SOL     OW21307   4.195   2.428   0.026
 6803SOL    HW121308   4.189   2.500   0.096
 6803SOL    HW221309   4.115   2.432   6.991
 6804SOL     OW21310   1.587   5.938   3.236
 6804SOL    HW121311   1.553   6.014   3.291
 6804SOL    HW221312   1.687   5.946   3.226
 6805SOL     OW21313   6.262   1.774   5.626
 6805SOL    HW121314   6.283   1.826   5.543
 6805SOL    HW221315   6.323   1.804   5.700
 6806SOL     OW21316   5.033   5.721   5.208
 6806SOL    HW121317   5.128   5.701   5.183
 6806SOL    HW221318   5.028   5.813   5.247
 6807SOL     OW21319   4.276   3.435   6.754
 6807SOL    HW121320   4.185   3.395   6.768
 6807SOL    HW221321   4.318   3.452   6.843
 6808SOL     OW21322   2.608   4.707   4.000
 6808SOL    HW121323   2.608   4.725   3.901
 6808SOL    HW221324   2.520   4.734   4.038
 6809SOL     OW21325   1.416   3.506   6.903
 6809SOL    HW121326   1.472   3.563   6.963
 6809SOL    HW221327   1.322   3.539   6.906
 6810SOL     OW21328   5.924   1.493   3.433
 6810SOL    HW121329   5.859   1.546   3.378
 6810SOL    HW221330   5.977   1.555   3.491
 6811SOL     OW21331   5.186   6.358   2.473
 6811SOL    HW121332   5.171   6.266   2.510
 6811SOL    HW221333   5.215   6.419   2.546
 6812SOL     OW21334   4.042   3.241   2.815
 6812SOL    HW121335   4.112   3.291   2.764
 6812SOL    HW221336   3.953   3.252   2.770
 6813SOL     OW21337   5.406   3.862   1.154
 6813SOL    HW121338   5.337   3.810   1.105
 6813SOL    HW221339   5.370   3.891   1.243
 6814SOL     OW21340   2.560   2.505   0.497
 6814SOL    HW121341   2.462   2.490   0.480
 6814SOL    HW221342   2.613   2.458   0.427
 6815SOL     OW21343   1.491   6.842   0.232
 6815SOL    HW121344   1.422   6.881   0.171
 6815SOL    HW221345   1.521   6.912   0.297
 6816SOL     OW21346   4.885   4.466   1.292
 6816SOL    HW121347   4.824   4.417   1.355
 6816SOL    HW221348   4.966   4.410   1.275
 6817SOL     OW21349   1.855   1.922   5.829
 6817SOL    HW121350   1.853   1.980   5.911
 6817SOL    HW221351   1.929   1.855   5.838
 6818SOL     OW21352   4.457   4.908   0.943
 6818SOL    HW121353   4.363   4.877   0.960
 6818SOL    HW221354   4.489   4.961   1.021
 6819SOL     OW21355   2.677   1.487   4.041
 6819SOL    HW121356   2.607   1.558   4.041
 6819SOL    HW221357   2.700   1.463   3.947
 6820SOL     OW21358   1.898   5.087   4.617
 6820SOL    HW121359   1.926   5.044   4.531
 6820SOL    HW221360   1.798   5.089   4.622
 6821SOL     OW21361   2.423   2.636   3.890
 6821SOL    HW121362   2.367   2.710   3.927
 6821SOL    HW221363   2.426   2.644   3.790
 6822SOL     OW21364   5.498   1.376   5.631
 6822SOL    HW121365   5.521   1.459   5.581
 6822SOL    HW221366   5.406   1.345   5.604
 6823SOL     OW21367   4.189   3.372   1.937
 6823SOL    HW121368   4.143   3.295   1.982
 6823SOL    HW221369   4.196   3.449   2.001
 6824SOL     OW21370   0.639   5.681   4.905
 6824SOL    HW121371   0.571   5.631   4.851
 6824SOL    HW221372   0.628   5.656   5.002
 6825SOL     OW21373   5.482   0.870   4.608
 6825SOL    HW121374   5.575   0.871   4.644
 6825SOL    HW221375   5.430   0.946   4.647
 6826SOL     OW21376   0.838   2.646   3.465
 6826SOL    HW121377   0.776   2.621   3.391
 6826SOL    HW221378   0.879   2.563   3.503
 6827SOL     OW21379   4.071   5.347   4.998
 6827SOL    HW121380   4.011   5.272   5.027
 6827SOL    HW221381   4.045   5.431   5.047
 6828SOL     OW21382   2.249   2.190   0.942
 6828SOL    HW121383   2.181   2.255   0.908
 6828SOL    HW221384   2.264   2.206   1.040
 6829SOL     OW21385   5.616   4.887   3.887
 6829SOL    HW121386   5.555   4.828   3.834
 6829SOL    HW221387   5.586   4.890   3.982
 6830SOL     OW21388   4.983   1.275   3.387
 6830SOL    HW121389   5.081   1.256   3.384
 6830SOL    HW221390   4.953   1.280   3.482
 6831SOL     OW21391   0.550   1.588   6.462
 6831SOL    HW121392   0.649   1.600   6.451
 6831SOL    HW221393   0.519   1.642   6.541
 6832SOL     OW21394   2.239   5.011   1.616
 6832SOL    HW121395   2.276   5.070   1.543
 6832SOL    HW221396   2.311   4.993   1.683
 6833SOL     OW21397   4.314   6.064   6.866
 6833SOL    HW121398   4.352   5.972   6.854
 6833SOL    HW221399   4.239   6.077   6.802
 6834SOL     OW21400   2.505   4.791   2.729
 6834SOL    HW121401   2.505   4.886   2.696
 6834SOL    HW221402   2.443   4.736   2.673
 6835SOL     OW21403   3.648   6.662   4.312
 6835SOL    HW121404   3.707   6.741   4.330
 6835SOL    HW221405   3.694   6.598   4.251
 6836SOL     OW21406   3.724   5.689   0.114
 6836SOL    HW121407   3.810   5.690   0.063
 6836SOL    HW221408   3.719   5.770   0.173
 6837SOL     OW21409   0.346   3.395   2.887
 6837SOL    HW121410   0.282   3.317   2.888
 6837SOL    HW221411   0.399   3.394   2.802
 6838SOL     OW21412   2.655   2.187   0.675
 6838SOL    HW121413   2.687   2.140   0.593
 6838SOL    HW221414   2.556   2.201   0.668
 6839SOL     OW21415   3.461   1.180   2.063
 6839SOL    HW121416   3.404   1.188   1.981
 6839SOL    HW221417   3.440   1.256   2.125
 6840SOL     OW21418   0.640   0.577   5.987
 6840SOL    HW121419   0.694   0.658   5.965
 6840SOL    HW221420   0.701   0.501   6.010
 6841SOL     OW21421   6.962   2.929   5.631
 6841SOL    HW121422   6.913   2.925   5.718
 6841SOL    HW221423   0.036   2.917   5.648
 6842SOL     OW21424   2.632   4.657   2.913
 6842SOL    HW121425   2.603   4.738   2.860
 6842SOL    HW221426   2.582   4.654   2.999
 6843SOL     OW21427   4.525   6.777   1.545
 6843SOL    HW121428   4.533   6.822   1.634
 6843SOL    HW221429   4.477   6.690   1.555
 6844SOL     OW21430   5.587   0.564   5.387
 6844SOL    HW121431   5.615   0.483   5.336
 6844SOL    HW221432   5.645   0.575   5.468
 6845SOL     OW21433   5.490   2.359   2.782
 6845SOL    HW121434   5.458   2.447   2.748
 6845SOL    HW221435   5.526   2.305   2.706
 6846SOL     OW21436   1.736   3.309   7.007
 6846SOL    HW121437   1.654   3.253   6.994
 6846SOL    HW221438   1.817   3.256   6.981
 6847SOL     OW21439   6.877   2.429   3.771
 6847SOL    HW121440   6.820   2.367   3.718
 6847SOL    HW221441   6.892   2.514   3.720
 6848SOL     OW21442   6.670   4.918   4.312
 6848SOL    HW121443   6.584   4.865   4.314
 6848SOL    HW221444   6.746   4.856   4.297
 6849SOL     OW21445   3.160   4.200   5.535
 6849SOL    HW121446   3.109   4.121   5.571
 6849SOL    HW221447   3.192   4.179   5.443
 6850SOL     OW21448   5.178   0.862   4.749
 6850SOL    HW121449   5.113   0.805   4.798
 6850SOL    HW221450   5.268   0.817   4.749
 6851SOL     OW21451   1.805   4.221   3.767
 6851SOL    HW121452   1.787   4.129   3.803
 6851SOL    HW221453   1.900   4.246   3.788
 6852SOL     OW21454   4.540   2.877   0.707
 6852SOL    HW121455   4.566   2.794   0.657
 6852SOL    HW221456   4.618   2.941   0.708
 6853SOL     OW21457   4.445   5.464   5.713
 6853SOL    HW121458   4.492   5.376   5.718
 6853SOL    HW221459   4.451   5.511   5.802
 6854SOL     OW21460   5.205   6.113   5.592
 6854SOL    HW121461   5.168   6.198   5.555
 6854SOL    HW221462   5.187   6.109   5.690
 6855SOL     OW21463   3.813   5.377   2.350
 6855SOL    HW121464   3.864   5.443   2.295
 6855SOL    HW221465   3.721   5.411   2.367
 6856SOL     OW21466   6.300   2.654   0.945
 6856SOL    HW121467   6.359   2.630   1.022
 6856SOL    HW221468   6.316   2.749   0.919
 6857SOL     OW21469   1.689   4.583   6.318
 6857SOL    HW121470   1.777   4.582   6.366
 6857SOL    HW221471   1.685   4.506   6.254
 6858SOL     OW21472   1.258   3.545   1.932
 6858SOL    HW121473   1.232   3.635   1.969
 6858SOL    HW221474   1.279   3.483   2.007
 6859SOL     OW21475   2.578   2.520   0.785
 6859SOL    HW121476   2.585   2.537   0.687
 6859SOL    HW221477   2.664   2.542   0.830
 6860SOL     OW21478   0.619   7.019   6.843
 6860SOL    HW121479   0.681   6.987   6.771
 6860SOL    HW221480   0.548   6.949   6.859
 6861SOL     OW21481   6.044   3.546   6.779
 6861SOL    HW121482   6.049   3.635   6.734
 6861SOL    HW221483   6.053   3.559   6.878
 6862SOL     OW21484   0.816   4.942   3.424
 6862SOL    HW121485   0.892   4.885   3.456
 6862SOL    HW221486   0.733   4.887   3.420
 6863SOL     OW21487   5.048   1.151   5.678
 6863SOL    HW121488   5.007   1.174   5.767
 6863SOL    HW221489   4.985   1.092   5.627
 6864SOL     OW21490   2.121   3.213   6.401
 6864SOL    HW121491   2.083   3.193   6.311
 6864SOL    HW221492   2.072   3.291   6.441
 6865SOL     OW21493   1.426   0.593   2.932
 6865SOL    HW121494   1.346   0.597   2.992
 6865SOL    HW221495   1.492   0.528   2.969
 6866SOL     OW21496   1.928   4.840   6.729
 6866SOL    HW121497   1.845   4.786   6.716
 6866SOL    HW221498   2.000   4.783   6.767
 6867SOL     OW21499   1.787   2.247   6.325
 6867SOL    HW121500   1.694   2.238   6.359
 6867SOL    HW221501   1.852   2.235   6.400
 6868SOL     OW21502   4.142   5.385   3.418
 6868SOL    HW121503   4.103   5.379   3.510
 6868SOL    HW221504   4.086   5.445   3.362
 6869SOL     OW21505   1.348   0.269   5.555
 6869SOL    HW121506   1.363   0.170   5.558
 6869SOL    HW221507   1.432   0.317   5.582
 6870SOL     OW21508   6.286   2.909   6.814
 6870SOL    HW121509   6.259   2.878   6.723
 6870SOL    HW221510   6.296   2.830   6.875
 6871SOL     OW21511   6.103   2.263   3.176
 6871SOL    HW121512   6.014   2.238   3.214
 6871SOL    HW221513   6.088   2.324   3.097
 6872SOL     OW21514   1.547   5.313   0.974
 6872SOL    HW121515   1.585   5.258   0.900
 6872SOL    HW221516   1.455   5.344   0.949
 6873SOL     OW21517   0.436   3.729   2.216
 6873SOL    HW121518   0.369   3.660   2.191
 6873SOL    HW221519   0.422   3.811   2.161
 6874SOL     OW21520   4.232   6.199   1.796
 6874SOL    HW121521   4.310   6.152   1.839
 6874SOL    HW221522   4.208   6.153   1.711
 6875SOL     OW21523   2.930   1.074   6.189
 6875SOL    HW121524   2.919   1.146   6.121
 6875SOL    HW221525   2.889   1.103   6.276
 6876SOL     OW21526   5.634   5.554   3.194
 6876SOL    HW121527   5.734   5.560   3.203
 6876SOL    HW221528   5.604   5.618   3.123
 6877SOL     OW21529   1.389   4.531   1.349
 6877SOL    HW121530   1.295   4.527   1.313
 6877SOL    HW221531   1.421   4.439   1.369
 6878SOL     OW21532   1.639   0.603   3.740
 6878SOL    HW121533   1.687   0.691   3.734
 6878SOL    HW221534   1.700   0.530   3.708
 6879SOL     OW21535   1.357   1.664   1.255
 6879SOL    HW121536   1.397   1.657   1.346
 6879SOL    HW221537   1.371   1.579   1.205
 6880SOL     OW21538   1.858   6.851   0.121
 6880SOL    HW121539   1.943   6.819   0.079
 6880SOL    HW221540   1.862   6.836   0.220
 6881SOL     OW21541   6.804   3.481   1.443
 6881SOL    HW121542   6.723   3.535   1.419
 6881SOL    HW221543   6.864   3.474   1.363
 6882SOL     OW21544   2.448   6.465   0.092
 6882SOL    HW121545   2.447   6.373   0.132
 6882SOL    HW221546   2.542   6.498   0.086
 6883SOL     OW21547   4.710   6.871   1.127
 6883SOL    HW121548   4.741   6.818   1.206
 6883SOL    HW221549   4.618   6.841   1.101
 6884SOL     OW21550   1.266   5.103   3.393
 6884SOL    HW121551   1.193   5.083   3.327
 6884SOL    HW221552   1.336   5.159   3.349
 6885SOL     OW21553   5.811   5.102   4.472
 6885SOL    HW121554   5.876   5.109   4.396
 6885SOL    HW221555   5.745   5.176   4.466
 6886SOL     OW21556   5.720   3.554   0.777
 6886SOL    HW121557   5.652   3.558   0.703
 6886SOL    HW221558   5.806   3.517   0.742
 6887SOL     OW21559   5.133   6.623   5.444
 6887SOL    HW121560   5.108   6.540   5.395
 6887SOL    HW221561   5.135   6.700   5.379
 6888SOL     OW21562   6.923   4.216   1.385
 6888SOL    HW121563   6.843   4.236   1.442
 6888SOL    HW221564   7.000   4.273   1.415
 6889SOL     OW21565   0.647   2.653   5.760
 6889SOL    HW121566   0.713   2.603   5.816
 6889SOL    HW221567   0.695   2.705   5.690
 6890SOL     OW21568   4.503   4.466   3.979
 6890SOL    HW121569   4.490   4.529   4.056
 6890SOL    HW221570   4.577   4.402   4.002
 6891SOL     OW21571   1.363   1.180   1.024
 6891SOL    HW121572   1.448   1.148   1.064
 6891SOL    HW221573   1.372   1.277   1.000
 6892SOL     OW21574   1.579   0.914   5.507
 6892SOL    HW121575   1.514   0.924   5.582
 6892SOL    HW221576   1.546   0.846   5.442
 6893SOL     OW21577   5.590   3.013   0.980
 6893SOL    HW121578   5.593   3.084   0.909
 6893SOL    HW221579   5.535   3.045   1.056
 6894SOL     OW21580   5.662   5.220   6.700
 6894SOL    HW121581   5.579   5.272   6.723
 6894SOL    HW221582   5.728   5.228   6.774
 6895SOL     OW21583   1.525   5.468   2.590
 6895SOL    HW121584   1.489   5.542   2.533
 6895SOL    HW221585   1.590   5.505   2.656
 6896SOL     OW21586   5.083   0.881   6.144
 6896SOL    HW121587   5.141   0.958   6.170
 6896SOL    HW221588   5.018   0.862   6.218
 6897SOL     OW21589   4.267   2.329   4.818
 6897SOL    HW121590   4.236   2.385   4.895
 6897SOL    HW221591   4.220   2.241   4.820
 6898SOL     OW21592   2.032   6.872   1.508
 6898SOL    HW121593   1.945   6.830   1.486
 6898SOL    HW221594   2.031   6.968   1.479
 6899SOL     OW21595   5.126   5.040   2.923
 6899SOL    HW121596   5.141   5.098   2.842
 6899SOL    HW221597   5.210   5.034   2.976
 6900SOL     OW21598   0.076   4.156   4.662
 6900SOL    HW121599   0.110   4.223   4.729
 6900SOL    HW221600   0.114   4.178   4.572
 6901SOL     OW21601   5.300   3.868   6.752
 6901SOL    HW121602   5.397   3.868   6.778
 6901SOL    HW221603   5.283   3.943   6.687
 6902SOL     OW21604   0.303   5.775   5.694
 6902SOL    HW121605   0.370   5.828   5.642
 6902SOL    HW221606   0.335   5.765   5.788
 6903SOL     OW21607   1.227   6.498   5.282
 6903SOL    HW121608   1.253   6.555   5.360
 6903SOL    HW221609   1.127   6.494   5.276
 6904SOL     OW21610   0.492   0.129   6.544
 6904SOL    HW121611   0.451   0.061   6.483
 6904SOL    HW221612   0.586   0.101   6.567
 6905SOL     OW21613   4.615   6.261   5.171
 6905SOL    HW121614   4.561   6.338   5.204
 6905SOL    HW221615   4.554   6.186   5.144
 6906SOL     OW21616   2.713   1.693   3.154
 6906SOL    HW121617   2.648   1.618   3.143
 6906SOL    HW221618   2.749   1.693   3.247
 6907SOL     OW21619   5.401   3.036   0.454
 6907SOL    HW121620   5.309   3.031   0.491
 6907SOL    HW221621   5.428   3.132   0.443
 6908SOL     OW21622   3.993   5.627   0.806
 6908SOL    HW121623   3.953   5.625   0.714
 6908SOL    HW221624   3.958   5.707   0.855
 6909SOL     OW21625   5.470   4.769   3.018
 6909SOL    HW121626   5.553   4.759   2.962
 6909SOL    HW221627   5.393   4.729   2.969
 6910SOL     OW21628   1.730   2.436   2.031
 6910SOL    HW121629   1.828   2.439   2.014
 6910SOL    HW221630   1.682   2.487   1.960
 6911SOL     OW21631   2.368   6.821   5.172
 6911SOL    HW121632   2.415   6.770   5.100
 6911SOL    HW221633   2.278   6.850   5.140
 6912SOL     OW21634   2.175   4.117   6.500
 6912SOL    HW121635   2.220   4.206   6.495
 6912SOL    HW221636   2.224   4.051   6.442
 6913SOL     OW21637   4.484   6.047   5.987
 6913SOL    HW121638   4.472   6.087   6.078
 6913SOL    HW221639   4.405   6.068   5.931
 6914SOL     OW21640   0.734   2.144   2.139
 6914SOL    HW121641   0.783   2.101   2.215
 6914SOL    HW221642   0.658   2.198   2.176
 6915SOL     OW21643   6.064   3.246   4.238
 6915SOL    HW121644   6.102   3.158   4.210
 6915SOL    HW221645   5.969   3.234   4.267
 6916SOL     OW21646   4.603   5.946   5.499
 6916SOL    HW121647   4.565   5.856   5.522
 6916SOL    HW221648   4.528   6.011   5.486
 6917SOL     OW21649   3.786   5.574   1.777
 6917SOL    HW121650   3.773   5.530   1.866
 6917SOL    HW221651   3.785   5.674   1.789
 6918SOL     OW21652   1.977   3.779   0.055
 6918SOL    HW121653   1.915   3.856   0.038
 6918SOL    HW221654   1.931   3.694   0.028
 6919SOL     OW21655   6.311   6.050   3.562
 6919SOL    HW121656   6.394   6.094   3.597
 6919SOL    HW221657   6.334   5.992   3.485
 6920SOL     OW21658   0.630   2.928   5.408
 6920SOL    HW121659   0.577   3.012   5.419
 6920SOL    HW221660   0.594   2.875   5.331
 6921SOL     OW21661   3.476   0.722   5.347
 6921SOL    HW121662   3.440   0.748   5.257
 6921SOL    HW221663   3.536   0.643   5.337
 6922SOL     OW21664   3.171   4.365   6.550
 6922SOL    HW121665   3.210   4.400   6.465
 6922SOL    HW221666   3.225   4.287   6.581
 6923SOL     OW21667   5.180   6.996   3.206
 6923SOL    HW121668   5.275   6.986   3.178
 6923SOL    HW221669   5.140   6.905   3.222
 6924SOL     OW21670   2.683   5.454   1.661
 6924SOL    HW121671   2.656   5.369   1.705
 6924SOL    HW221672   2.611   5.523   1.675
 6925SOL     OW21673   6.358   6.923   4.637
 6925SOL    HW121674   6.375   6.892   4.543
 6925SOL    HW221675   6.445   6.933   4.685
 6926SOL     OW21676   2.682   2.617   0.182
 6926SOL    HW121677   2.633   2.684   0.127
 6926SOL    HW221678   2.779   2.642   0.188
 6927SOL     OW21679   3.373   6.286   5.629
 6927SOL    HW121680   3.470   6.288   5.606
 6927SOL    HW221681   3.342   6.192   5.637
 6928SOL     OW21682   4.249   5.526   0.734
 6928SOL    HW121683   4.183   5.518   0.809
 6928SOL    HW221684   4.203   5.561   0.653
 6929SOL     OW21685   4.794   5.992   3.492
 6929SOL    HW121686   4.776   6.058   3.420
 6929SOL    HW221687   4.858   5.923   3.458
 6930SOL     OW21688   0.492   6.569   2.097
 6930SOL    HW121689   0.557   6.605   2.164
 6930SOL    HW221690   0.487   6.470   2.106
 6931SOL     OW21691   4.158   2.784   0.052
 6931SOL    HW121692   4.175   2.880   0.075
 6931SOL    HW221693   4.189   2.726   0.128
 6932SOL     OW21694   3.882   1.024   0.053
 6932SOL    HW121695   3.830   0.983   0.129
 6932SOL    HW221696   3.826   1.021   6.994
 6933SOL     OW21697   3.747   6.182   6.050
 6933SOL    HW121698   3.684   6.197   5.975
 6933SOL    HW221699   3.761   6.268   6.100
 6934SOL     OW21700   4.514   5.342   0.091
 6934SOL    HW121701   4.578   5.345   0.014
 6934SOL    HW221702   4.420   5.336   0.056
 6935SOL     OW21703   4.130   5.320   2.418
 6935SOL    HW121704   4.164   5.353   2.331
 6935SOL    HW221705   4.109   5.397   2.478
 6936SOL     OW21706   1.063   1.583   6.990
 6936SOL    HW121707   1.101   1.571   6.898
 6936SOL    HW221708   1.098   1.511   0.027
 6937SOL     OW21709   6.492   4.250   0.060
 6937SOL    HW121710   6.494   4.206   0.150
 6937SOL    HW221711   6.484   4.180   7.013
 6938SOL     OW21712   2.725   0.166   5.235
 6938SOL    HW121713   2.674   0.104   5.174
 6938SOL    HW221714   2.734   0.124   5.325
 6939SOL     OW21715   6.087   2.935   3.013
 6939SOL    HW121716   6.137   2.872   2.954
 6939SOL    HW221717   6.052   2.885   3.092
 6940SOL     OW21718   1.075   6.248   1.449
 6940SOL    HW121719   1.087   6.309   1.527
 6940SOL    HW221720   1.119   6.286   1.368
 6941SOL     OW21721   3.979   3.015   2.025
 6941SOL    HW121722   4.042   3.076   2.072
 6941SOL    HW221723   3.931   2.959   2.093
 6942SOL     OW21724   0.120   5.220   2.770
 6942SOL    HW121725   0.064   5.145   2.806
 6942SOL    HW221726   0.138   5.285   2.843
 6943SOL     OW21727   3.303   5.474   5.086
 6943SOL    HW121728   3.355   5.394   5.115
 6943SOL    HW221729   3.239   5.501   5.159
 6944SOL     OW21730   0.746   5.078   5.629
 6944SOL    HW121731   0.821   5.082   5.562
 6944SOL    HW221732   0.784   5.063   5.721
 6945SOL     OW21733   4.186   1.864   0.796
 6945SOL    HW121734   4.189   1.780   0.850
 6945SOL    HW221735   4.122   1.853   0.720
 6946SOL     OW21736   5.678   5.217   3.849
 6946SOL    HW121737   5.625   5.134   3.833
 6946SOL    HW221738   5.635   5.271   3.921
 6947SOL     OW21739   6.491   3.666   5.505
 6947SOL    HW121740   6.553   3.588   5.505
 6947SOL    HW221741   6.457   3.682   5.413
 6948SOL     OW21742   6.921   5.172   6.429
 6948SOL    HW121743   6.837   5.222   6.450
 6948SOL    HW221744   6.992   5.237   6.401
 6949SOL     OW21745   2.085   1.437   3.289
 6949SOL    HW121746   1.995   1.480   3.294
 6949SOL    HW221747   2.076   1.339   3.311
 6950SOL     OW21748   1.524   1.148   4.618
 6950SOL    HW121749   1.459   1.134   4.543
 6950SOL    HW221750   1.610   1.100   4.597
 6951SOL     OW21751   1.275   3.331   0.146
 6951SOL    HW121752   1.186   3.318   0.102
 6951SOL    HW221753   1.305   3.245   0.188
 6952SOL     OW21754   4.081   4.862   3.368
 6952SOL    HW121755   4.036   4.932   3.312
 6952SOL    HW221756   4.101   4.900   3.458
 6953SOL     OW21757   0.918   0.663   1.779
 6953SOL    HW121758   0.998   0.676   1.838
 6953SOL    HW221759   0.840   0.712   1.818
 6954SOL     OW21760   6.402   5.210   6.038
 6954SOL    HW121761   6.443   5.160   5.962
 6954SOL    HW221762   6.317   5.253   6.008
 6955SOL     OW21763   3.729   5.240   2.923
 6955SOL    HW121764   3.667   5.205   2.853
 6955SOL    HW221765   3.804   5.290   2.879
 6956SOL     OW21766   6.195   4.699   2.777
 6956SOL    HW121767   6.287   4.668   2.802
 6956SOL    HW221768   6.155   4.748   2.854
 6957SOL     OW21769   5.643   3.969   5.294
 6957SOL    HW121770   5.725   4.012   5.256
 6957SOL    HW221771   5.562   4.006   5.248
 6958SOL     OW21772   3.407   3.764   1.541
 6958SOL    HW121773   3.375   3.725   1.455
 6958SOL    HW221774   3.365   3.853   1.555
 6959SOL     OW21775   0.439   3.035   3.164
 6959SOL    HW121776   0.501   2.970   3.119
 6959SOL    HW221777   0.348   2.993   3.172
 6960SOL     OW21778   5.277   4.598   1.121
 6960SOL    HW121779   5.236   4.637   1.203
 6960SOL    HW221780   5.369   4.564   1.142
 6961SOL     OW21781   4.875   2.665   4.330
 6961SOL    HW121782   4.956   2.672   4.388
 6961SOL    HW221783   4.827   2.579   4.348
 6962SOL     OW21784   2.655   6.874   0.627
 6962SOL    HW121785   2.600   6.794   0.602
 6962SOL    HW221786   2.632   6.902   0.720
 6963SOL     OW21787   1.185   6.970   6.669
 6963SOL    HW121788   1.193   0.045   6.662
 6963SOL    HW221789   1.192   6.929   6.578
 6964SOL     OW21790   1.970   1.202   5.791
 6964SOL    HW121791   1.951   1.145   5.710
 6964SOL    HW221792   2.068   1.203   5.808
 6965SOL     OW21793   1.466   1.287   0.275
 6965SOL    HW121794   1.392   1.338   0.231
 6965SOL    HW221795   1.528   1.251   0.206
 6966SOL     OW21796   1.333   6.303   0.942
 6966SOL    HW121797   1.355   6.384   0.887
 6966SOL    HW221798   1.237   6.279   0.930
 6967SOL     OW21799   3.733   6.946   6.500
 6967SOL    HW121800   3.793   6.971   6.424
 6967SOL    HW221801   3.695   0.004   6.542
 6968SOL     OW21802   4.361   0.604   2.501
 6968SOL    HW121803   4.414   0.613   2.585
 6968SOL    HW221804   4.417   0.631   2.423
 6969SOL     OW21805   1.321   3.104   2.677
 6969SOL    HW121806   1.330   3.030   2.610
 6969SOL    HW221807   1.233   3.098   2.723
 6970SOL     OW21808   3.575   5.940   6.003
 6970SOL    HW121809   3.632   6.012   5.964
 6970SOL    HW221810   3.578   5.859   5.944
 6971SOL     OW21811   0.141   4.146   0.141
 6971SOL    HW121812   0.075   4.131   0.067
 6971SOL    HW221813   0.159   4.060   0.187
 6972SOL     OW21814   5.856   3.765   1.103
 6972SOL    HW121815   5.922   3.790   1.032
 6972SOL    HW221816   5.834   3.846   1.158
 6973SOL     OW21817   1.010   1.052   3.086
 6973SOL    HW121818   1.060   1.134   3.060
 6973SOL    HW221819   0.914   1.076   3.104
 6974SOL     OW21820   3.966   3.841   3.079
 6974SOL    HW121821   4.026   3.779   3.129
 6974SOL    HW221822   3.966   3.930   3.124
 6975SOL     OW21823   3.396   5.223   5.160
 6975SOL    HW121824   3.486   5.181   5.149
 6975SOL    HW221825   3.325   5.152   5.156
 6976SOL     OW21826   4.948   4.927   6.056
 6976SOL    HW121827   5.026   4.916   6.118
 6976SOL    HW221828   4.879   4.858   6.076
 6977SOL     OW21829   4.193   4.837   2.584
 6977SOL    HW121830   4.213   4.934   2.599
 6977SOL    HW221831   4.276   4.791   2.552
 6978SOL     OW21832   0.495   3.331   1.464
 6978SOL    HW121833   0.422   3.302   1.402
 6978SOL    HW221834   0.583   3.296   1.431
 6979SOL     OW21835   0.681   3.930   2.818
 6979SOL    HW121836   0.592   3.954   2.779
 6979SOL    HW221837   0.673   3.844   2.868
 6980SOL     OW21838   2.690   4.692   3.255
 6980SOL    HW121839   2.779   4.723   3.222
 6980SOL    HW221840   2.682   4.593   3.245
 6981SOL     OW21841   4.119   2.809   6.819
 6981SOL    HW121842   4.134   2.753   6.900
 6981SOL    HW221843   4.175   2.891   6.824
 6982SOL     OW21844   6.797   6.419   1.772
 6982SOL    HW121845   6.711   6.417   1.823
 6982SOL    HW221846   6.873   6.412   1.836
 6983SOL     OW21847   6.879   0.783   3.938
 6983SOL    HW121848   6.953   0.846   3.962
 6983SOL    HW221849   6.871   0.712   4.007
 6984SOL     OW21850   1.378   4.253   3.528
 6984SOL    HW121851   1.477   4.240   3.537
 6984SOL    HW221852   1.341   4.185   3.464
 6985SOL     OW21853   5.012   3.398   1.045
 6985SOL    HW121854   4.969   3.322   1.094
 6985SOL    HW221855   4.966   3.410   0.957
 6986SOL     OW21856   4.339   5.902   4.936
 6986SOL    HW121857   4.247   5.941   4.927
 6986SOL    HW221858   4.334   5.817   4.988
 6987SOL     OW21859   0.027   1.270   6.879
 6987SOL    HW121860   0.065   1.351   6.924
 6987SOL    HW221861   0.024   1.285   6.781
 6988SOL     OW21862   1.579   0.539   6.073
 6988SOL    HW121863   1.565   0.638   6.073
 6988SOL    HW221864   1.511   0.496   6.013
 6989SOL     OW21865   0.624   3.330   2.406
 6989SOL    HW121866   0.694   3.360   2.342
 6989SOL    HW221867   0.638   3.234   2.430
 6990SOL     OW21868   3.575   5.187   6.853
 6990SOL    HW121869   3.616   5.136   6.928
 6990SOL    HW221870   3.500   5.134   6.814
 6991SOL     OW21871   5.326   3.935   3.503
 6991SOL    HW121872   5.348   4.026   3.468
 6991SOL    HW221873   5.227   3.927   3.515
 6992SOL     OW21874   1.753   5.276   6.021
 6992SOL    HW121875   1.802   5.266   5.935
 6992SOL    HW221876   1.780   5.204   6.084
 6993SOL     OW21877   4.114   2.262   1.761
 6993SOL    HW121878   4.128   2.185   1.700
 6993SOL    HW221879   4.202   2.291   1.799
 6994SOL     OW21880   2.549   0.777   3.096
 6994SOL    HW121881   2.566   0.875   3.090
 6994SOL    HW221882   2.555   0.747   3.192
 6995SOL     OW21883   6.922   5.240   0.816
 6995SOL    HW121884   6.909   5.145   0.844
 6995SOL    HW221885   6.902   5.249   0.718
 6996SOL     OW21886   1.175   1.349   6.368
 6996SOL    HW121887   1.237   1.334   6.292
 6996SOL    HW221888   1.158   1.261   6.414
 6997SOL     OW21889   6.142   6.065   6.099
 6997SOL    HW121890   6.156   6.013   6.184
 6997SOL    HW221891   6.210   6.038   6.032
 6998SOL     OW21892   0.349   1.125   6.801
 6998SOL    HW121893   0.258   1.116   6.760
 6998SOL    HW221894   0.393   1.035   6.803
 6999SOL     OW21895   0.376   2.928   0.197
 6999SOL    HW121896   0.429   2.964   0.120
 6999SOL    HW221897   0.404   2.974   0.281
 7000SOL     OW21898   0.831   5.120   3.162
 7000SOL    HW121899   0.798   5.069   3.242
 7000SOL    HW221900   0.926   5.097   3.145
 7001SOL     OW21901   1.114   1.027   4.288
 7001SOL    HW121902   1.121   0.974   4.373
 7001SOL    HW221903   1.168   0.982   4.217
 7002SOL     OW21904   1.430   4.604   3.287
 7002SOL    HW121905   1.435   4.658   3.203
 7002SOL    HW221906   1.519   4.563   3.306
 7003SOL     OW21907   0.132   5.271   6.336
 7003SOL    HW121908   0.107   5.272   6.239
 7003SOL    HW221909   0.214   5.327   6.350
 7004SOL     OW21910   1.171   0.871   6.819
 7004SOL    HW121911   1.071   0.871   6.816
 7004SOL    HW221912   1.206   0.794   6.766
 7005SOL     OW21913   1.321   5.249   0.224
 7005SOL    HW121914   1.341   5.310   0.148
 7005SOL    HW221915   1.245   5.188   0.200
 7006SOL     OW21916   0.890   0.180   3.976
 7006SOL    HW121917   0.893   0.173   4.075
 7006SOL    HW221918   0.913   0.273   3.948
 7007SOL     OW21919   1.944   6.396   6.504
 7007SOL    HW121920   1.946   6.479   6.448
 7007SOL    HW221921   2.033   6.383   6.549
 7008SOL     OW21922   6.089   3.013   2.547
 7008SOL    HW121923   6.126   2.924   2.571
 7008SOL    HW221924   5.994   3.020   2.580
 7009SOL     OW21925   5.337   5.228   2.315
 7009SOL    HW121926   5.374   5.263   2.229
 7009SOL    HW221927   5.369   5.134   2.329
 7010SOL     OW21928   5.348   2.331   3.144
 7010SOL    HW121929   5.272   2.299   3.088
 7010SOL    HW221930   5.431   2.334   3.089
 7011SOL     OW21931   2.069   5.700   6.651
 7011SOL    HW121932   2.044   5.667   6.560
 7011SOL    HW221933   2.107   5.792   6.644
 7012SOL     OW21934   0.618   3.926   0.210
 7012SOL    HW121935   0.670   3.861   0.265
 7012SOL    HW221936   0.531   3.946   0.255
 7013SOL     OW21937   2.525   2.824   0.066
 7013SOL    HW121938   2.556   2.885   0.138
 7013SOL    HW221939   2.434   2.790   0.089
 7014SOL     OW21940   6.712   3.447   0.903
 7014SOL    HW121941   6.791   3.416   0.850
 7014SOL    HW221942   6.635   3.385   0.887
 7015SOL     OW21943   5.980   6.345   1.558
 7015SOL    HW121944   6.040   6.278   1.602
 7015SOL    HW221945   5.967   6.423   1.620
 7016SOL     OW21946   2.873   5.192   1.000
 7016SOL    HW121947   2.811   5.166   1.074
 7016SOL    HW221948   2.968   5.183   1.030
 7017SOL     OW21949   5.768   4.085   6.859
 7017SOL    HW121950   5.843   4.026   6.890
 7017SOL    HW221951   5.791   4.123   6.770
 7018SOL     OW21952   6.128   2.691   4.166
 7018SOL    HW121953   6.158   2.694   4.261
 7018SOL    HW221954   6.193   2.636   4.112
 7019SOL     OW21955   3.277   6.453   2.639
 7019SOL    HW121956   3.321   6.421   2.555
 7019SOL    HW221957   3.186   6.489   2.617
 7020SOL     OW21958   6.660   1.639   0.987
 7020SOL    HW121959   6.669   1.706   1.060
 7020SOL    HW221960   6.672   1.684   0.898
 7021SOL     OW21961   0.461   2.127   4.462
 7021SOL    HW121962   0.370   2.165   4.444
 7021SOL    HW221963   0.531   2.194   4.438
 7022SOL     OW21964   1.957   3.827   1.324
 7022SOL    HW121965   1.928   3.735   1.301
 7022SOL    HW221966   2.053   3.826   1.353
 7023SOL     OW21967   6.836   2.082   0.979
 7023SOL    HW121968   6.743   2.098   0.945
 7023SOL    HW221969   6.873   2.166   1.017
 7024SOL     OW21970   3.474   4.424   5.319
 7024SOL    HW121971   3.520   4.345   5.279
 7024SOL    HW221972   3.536   4.470   5.383
 7025SOL     OW21973   3.527   0.841   0.946
 7025SOL    HW121974   3.506   0.816   1.041
 7025SOL    HW221975   3.592   0.916   0.944
 7026SOL     OW21976   2.855   2.544   1.193
 7026SOL    HW121977   2.865   2.462   1.248
 7026SOL    HW221978   2.928   2.608   1.215
 7027SOL     OW21979   2.513   4.268   0.623
 7027SOL    HW121980   2.564   4.249   0.706
 7027SOL    HW221981   2.498   4.366   0.614
 7028SOL     OW21982   2.951   0.637   2.363
 7028SOL    HW121983   2.913   0.664   2.451
 7028SOL    HW221984   2.973   0.540   2.364
 7029SOL     OW21985   3.442   3.916   3.179
 7029SOL    HW121986   3.405   3.825   3.197
 7029SOL    HW221987   3.540   3.909   3.163
 7030SOL     OW21988   5.647   0.253   4.655
 7030SOL    HW121989   5.610   0.308   4.581
 7030SOL    HW221990   5.724   0.199   4.622
 7031SOL     OW21991   5.855   4.969   0.334
 7031SOL    HW121992   5.902   4.972   0.245
 7031SOL    HW221993   5.848   4.874   0.364
 7032SOL     OW21994   3.697   4.957   4.050
 7032SOL    HW121995   3.669   4.968   4.145
 7032SOL    HW221996   3.617   4.946   3.992
 7033SOL     OW21997   2.313   1.815   5.285
 7033SOL    HW121998   2.248   1.847   5.354
 7033SOL    HW221999   2.374   1.747   5.326
 7034SOL     OW22000   6.193   2.556   2.371
 7034SOL    HW122001   6.129   2.539   2.296
 7034SOL    HW222002   6.241   2.472   2.395
 7035SOL     OW22003   3.948   2.638   1.191
 7035SOL    HW122004   3.962   2.730   1.226
 7035SOL    HW222005   4.036   2.601   1.160
 7036SOL     OW22006   6.912   1.829   1.904
 7036SOL    HW122007   6.989   1.835   1.967
 7036SOL    HW222008   6.833   1.876   1.942
 7037SOL     OW22009   0.581   1.558   5.673
 7037SOL    HW122010   0.527   1.474   5.666
 7037SOL    HW222011   0.666   1.540   5.722
 7038SOL     OW22012   1.022   4.011   0.386
 7038SOL    HW122013   1.029   4.014   0.485
 7038SOL    HW222014   0.978   4.093   0.352
 7039SOL     OW22015   6.589   0.349   1.833
 7039SOL    HW122016   6.687   0.358   1.849
 7039SOL    HW222017   6.539   0.366   1.918
 7040SOL     OW22018   4.918   3.229   4.797
 7040SOL    HW122019   4.864   3.152   4.764
 7040SOL    HW222020   5.015   3.212   4.780
 7041SOL     OW22021   1.113   6.903   2.667
 7041SOL    HW122022   1.146   6.809   2.657
 7041SOL    HW222023   1.150   6.943   2.750
 7042SOL     OW22024   4.898   5.179   5.121
 7042SOL    HW122025   4.930   5.273   5.132
 7042SOL    HW222026   4.946   5.120   5.186
 7043SOL     OW22027   2.332   5.870   0.411
 7043SOL    HW122028   2.341   5.936   0.485
 7043SOL    HW222029   2.281   5.790   0.443
 7044SOL     OW22030   4.580   6.741   5.247
 7044SOL    HW122031   4.607   6.769   5.154
 7044SOL    HW222032   4.551   6.822   5.298
 7045SOL     OW22033   5.386   0.216   1.502
 7045SOL    HW122034   5.432   0.281   1.441
 7045SOL    HW222035   5.294   0.250   1.523
 7046SOL     OW22036   2.948   0.947   2.522
 7046SOL    HW122037   2.922   1.022   2.583
 7046SOL    HW222038   2.908   0.963   2.432
 7047SOL     OW22039   1.458   6.977   0.867
 7047SOL    HW122040   1.512   6.965   0.951
 7047SOL    HW222041   1.371   6.930   0.877
 7048SOL     OW22042   0.431   5.760   4.628
 7048SOL    HW122043   0.499   5.687   4.635
 7048SOL    HW222044   0.460   5.827   4.559
 7049SOL     OW22045   2.415   1.273   4.974
 7049SOL    HW122046   2.324   1.283   4.932
 7049SOL    HW222047   2.460   1.362   4.977
 7050SOL     OW22048   4.235   4.526   0.287
 7050SOL    HW122049   4.227   4.602   0.222
 7050SOL    HW222050   4.143   4.490   0.307
 7051SOL     OW22051   2.181   1.075   1.928
 7051SOL    HW122052   2.266   1.126   1.944
 7051SOL    HW222053   2.201   0.977   1.926
 7052SOL     OW22054   5.382   2.071   2.520
 7052SOL    HW122055   5.429   2.153   2.485
 7052SOL    HW222056   5.292   2.064   2.476
 7053SOL     OW22057   0.432   4.401   3.500
 7053SOL    HW122058   0.440   4.332   3.428
 7053SOL    HW222059   0.371   4.367   3.572
 7054SOL     OW22060   5.688   6.692   1.218
 7054SOL    HW122061   5.597   6.668   1.185
 7054SOL    HW222062   5.732   6.754   1.152
 7055SOL     OW22063   2.218   0.281   6.981
 7055SOL    HW122064   2.164   0.278   0.041
 7055SOL    HW222065   2.309   0.244   7.000
 7056SOL     OW22066   0.440   5.323   1.381
 7056SOL    HW122067   0.529   5.367   1.391
 7056SOL    HW222068   0.368   5.392   1.378
 7057SOL     OW22069   3.080   5.329   4.970
 7057SOL    HW122070   3.001   5.366   5.018
 7057SOL    HW222071   3.164   5.354   5.019
 7058SOL     OW22072   5.797   2.808   5.610
 7058SOL    HW122073   5.753   2.898   5.608
 7058SOL    HW222074   5.728   2.737   5.599
 7059SOL     OW22075   1.476   0.848   4.773
 7059SOL    HW122076   1.516   0.872   4.861
 7059SOL    HW222077   1.419   0.923   4.740
 7060SOL     OW22078   2.652   2.164   1.230
 7060SOL    HW122079   2.751   2.168   1.242
 7060SOL    HW222080   2.627   2.074   1.194
 7061SOL     OW22081   1.638   6.973   1.095
 7061SOL    HW122082   1.694   6.890   1.091
 7061SOL    HW222083   1.683   0.023   1.044
 7062SOL     OW22084   3.572   1.083   5.196
 7062SOL    HW122085   3.563   1.070   5.097
 7062SOL    HW222086   3.654   1.036   5.228
 7063SOL     OW22087   6.997   1.313   1.393
 7063SOL    HW122088   6.958   1.369   1.319
 7063SOL    HW222089   0.054   1.359   1.430
 7064SOL     OW22090   2.545   1.444   5.240
 7064SOL    HW122091   2.501   1.356   5.259
 7064SOL    HW222092   2.494   1.517   5.287
 7065SOL     OW22093   3.165   0.042   3.422
 7065SOL    HW122094   3.200   6.976   3.446
 7065SOL    HW222095   3.099   0.072   3.491
 7066SOL     OW22096   4.153   0.891   1.597
 7066SOL    HW122097   4.086   0.856   1.533
 7066SOL    HW222098   4.114   0.968   1.648
 7067SOL     OW22099   2.560   4.626   6.177
 7067SOL    HW122100   2.511   4.691   6.119
 7067SOL    HW222101   2.576   4.542   6.126
 7068SOL     OW22102   4.417   4.697   2.486
 7068SOL    HW122103   4.458   4.606   2.477
 7068SOL    HW222104   4.473   4.754   2.546
 7069SOL     OW22105   3.504   1.482   5.532
 7069SOL    HW122106   3.431   1.535   5.488
 7069SOL    HW222107   3.545   1.420   5.465
 7070SOL     OW22108   0.353   1.649   5.145
 7070SOL    HW122109   0.309   1.591   5.077
 7070SOL    HW222110   0.357   1.602   5.233
 7071SOL     OW22111   4.674   5.511   6.913
 7071SOL    HW122112   4.707   5.418   6.930
 7071SOL    HW222113   4.676   5.530   6.815
 7072SOL     OW22114   1.504   3.819   5.700
 7072SOL    HW122115   1.444   3.834   5.779
 7072SOL    HW222116   1.494   3.725   5.668
 7073SOL     OW22117   4.092   1.096   4.028
 7073SOL    HW122118   4.095   1.080   4.127
 7073SOL    HW222119   4.000   1.128   4.003
 7074SOL     OW22120   5.761   2.912   1.923
 7074SOL    HW122121   5.749   2.959   1.835
 7074SOL    HW222122   5.709   2.827   1.922
 7075SOL     OW22123   1.757   4.950   2.489
 7075SOL    HW122124   1.787   4.861   2.525
 7075SOL    HW222125   1.702   4.935   2.407
 7076SOL     OW22126   6.023   2.764   0.701
 7076SOL    HW122127   5.982   2.684   0.658
 7076SOL    HW222128   5.989   2.847   0.656
 7077SOL     OW22129   3.402   5.932   2.299
 7077SOL    HW122130   3.330   5.871   2.332
 7077SOL    HW222131   3.368   5.985   2.221
 7078SOL     OW22132   0.020   1.777   0.087
 7078SOL    HW122133   0.031   1.874   0.063
 7078SOL    HW222134   0.029   1.767   0.186
 7079SOL     OW22135   3.133   5.537   5.311
 7079SOL    HW122136   3.040   5.568   5.327
 7079SOL    HW222137   3.187   5.547   5.395
 7080SOL     OW22138   3.936   2.027   6.582
 7080SOL    HW122139   3.875   2.098   6.549
 7080SOL    HW222140   4.031   2.058   6.575
 7081SOL     OW22141   3.057   6.460   6.540
 7081SOL    HW122142   2.957   6.453   6.534
 7081SOL    HW222143   3.090   6.521   6.467
 7082SOL     OW22144   1.631   4.917   2.244
 7082SOL    HW122145   1.543   4.958   2.221
 7082SOL    HW222146   1.699   4.944   2.176
 7083SOL     OW22147   5.745   2.831   2.891
 7083SOL    HW122148   5.732   2.803   2.796
 7083SOL    HW222149   5.825   2.891   2.898
 7084SOL     OW22150   1.104   5.316   6.986
 7084SOL    HW122151   1.111   5.244   0.031
 7084SOL    HW222152   1.182   5.312   6.924
 7085SOL     OW22153   0.141   3.151   2.331
 7085SOL    HW122154   0.095   3.225   2.283
 7085SOL    HW222155   0.074   3.085   2.365
 7086SOL     OW22156   4.285   1.228   3.620
 7086SOL    HW122157   4.261   1.139   3.581
 7086SOL    HW222158   4.306   1.292   3.546
 7087SOL     OW22159   6.356   3.007   3.742
 7087SOL    HW122160   6.351   2.989   3.840
 7087SOL    HW222161   6.315   2.930   3.692
 7088SOL     OW22162   6.090   1.941   5.305
 7088SOL    HW122163   6.012   1.965   5.363
 7088SOL    HW222164   6.174   1.976   5.345
 7089SOL     OW22165   3.677   6.515   1.938
 7089SOL    HW122166   3.620   6.464   1.873
 7089SOL    HW222167   3.762   6.543   1.893
 7090SOL     OW22168   5.657   3.188   1.698
 7090SOL    HW122169   5.615   3.208   1.610
 7090SOL    HW222170   5.748   3.231   1.702
 7091SOL     OW22171   5.576   0.462   6.671
 7091SOL    HW122172   5.604   0.549   6.630
 7091SOL    HW222173   5.624   0.387   6.625
 7092SOL     OW22174   3.926   6.987   6.282
 7092SOL    HW122175   4.005   6.962   6.337
 7092SOL    HW222176   3.936   0.058   6.251
 7093SOL     OW22177   4.181   3.080   0.013
 7093SOL    HW122178   4.092   3.123   0.025
 7093SOL    HW222179   4.240   3.102   0.091
 7094SOL     OW22180   4.189   0.970   4.922
 7094SOL    HW122181   4.165   0.919   4.840
 7094SOL    HW222182   4.175   1.067   4.907
 7095SOL     OW22183   2.397   4.858   3.531
 7095SOL    HW122184   2.358   4.854   3.439
 7095SOL    HW222185   2.479   4.916   3.530
 7096SOL     OW22186   0.237   5.545   7.008
 7096SOL    HW122187   0.205   5.499   0.067
 7096SOL    HW222188   0.274   5.477   6.944
 7097SOL     OW22189   4.784   2.135   3.005
 7097SOL    HW122190   4.774   2.060   3.069
 7097SOL    HW222191   4.754   2.106   2.914
 7098SOL     OW22192   1.017   1.100   2.252
 7098SOL    HW122193   1.088   1.061   2.193
 7098SOL    HW222194   0.997   1.193   2.222
 7099SOL     OW22195   2.776   1.402   4.867
 7099SOL    HW122196   2.862   1.402   4.815
 7099SOL    HW222197   2.788   1.458   4.949
 7100SOL     OW22198   0.527   4.364   1.677
 7100SOL    HW122199   0.591   4.377   1.752
 7100SOL    HW222200   0.563   4.297   1.613
 7101SOL     OW22201   2.905   6.445   4.671
 7101SOL    HW122202   2.996   6.487   4.673
 7101SOL    HW222203   2.913   6.348   4.690
 7102SOL     OW22204   5.123   2.060   2.363
 7102SOL    HW122205   5.115   2.011   2.276
 7102SOL    HW222206   5.060   2.137   2.364
 7103SOL     OW22207   6.584   3.415   4.709
 7103SOL    HW122208   6.501   3.447   4.755
 7103SOL    HW222209   6.658   3.480   4.726
 7104SOL     OW22210   4.558   2.272   4.200
 7104SOL    HW122211   4.562   2.180   4.238
 7104SOL    HW222212   4.463   2.296   4.180
 7105SOL     OW22213   3.406   3.704   1.933
 7105SOL    HW122214   3.317   3.723   1.893
 7105SOL    HW222215   3.420   3.762   2.013
 7106SOL     OW22216   2.071   2.162   2.909
 7106SOL    HW122217   2.077   2.087   2.975
 7106SOL    HW222218   2.159   2.210   2.906
 7107SOL     OW22219   3.688   0.437   0.817
 7107SOL    HW122220   3.724   0.362   0.761
 7107SOL    HW222221   3.607   0.405   0.866
 7108SOL     OW22222   3.012   6.769   1.717
 7108SOL    HW122223   2.999   6.831   1.640
 7108SOL    HW222224   3.046   6.681   1.684
 7109SOL     OW22225   2.289   5.210   6.285
 7109SOL    HW122226   2.371   5.265   6.272
 7109SOL    HW222227   2.312   5.113   6.280
 7110SOL     OW22228   2.719   5.579   5.786
 7110SOL    HW122229   2.664   5.516   5.840
 7110SOL    HW222230   2.737   5.540   5.696
 7111SOL     OW22231   6.227   2.009   4.135
 7111SOL    HW122232   6.239   2.102   4.099
 7111SOL    HW222233   6.312   1.958   4.122
 7112SOL     OW22234   6.642   5.154   4.590
 7112SOL    HW122235   6.681   5.070   4.629
 7112SOL    HW222236   6.686   5.234   4.631
 7113SOL     OW22237   2.982   6.913   5.231
 7113SOL    HW122238   2.947   7.006   5.239
 7113SOL    HW222239   2.953   6.874   5.143
 7114SOL     OW22240   6.338   4.157   0.736
 7114SOL    HW122241   6.362   4.234   0.676
 7114SOL    HW222242   6.294   4.192   0.819
 7115SOL     OW22243   5.116   2.835   6.304
 7115SOL    HW122244   5.095   2.910   6.241
 7115SOL    HW222245   5.035   2.776   6.312
 7116SOL     OW22246   6.256   5.081   4.386
 7116SOL    HW122247   6.307   5.091   4.300
 7116SOL    HW222248   6.158   5.076   4.366
 7117SOL     OW22249   2.987   0.777   2.757
 7117SOL    HW122250   2.976   0.829   2.672
 7117SOL    HW222251   2.951   0.684   2.744
 7118SOL     OW22252   4.984   4.488   5.592
 7118SOL    HW122253   5.019   4.443   5.509
 7118SOL    HW222254   5.002   4.430   5.671
 7119SOL     OW22255   2.367   6.472   4.256
 7119SOL    HW122256   2.382   6.515   4.166
 7119SOL    HW222257   2.277   6.429   4.257
 7120SOL     OW22258   4.393   2.049   2.130
 7120SOL    HW122259   4.481   2.032   2.086
 7120SOL    HW222260   4.367   2.145   2.119
 7121SOL     OW22261   1.782   6.123   2.221
 7121SOL    HW122262   1.700   6.069   2.201
 7121SOL    HW222263   1.758   6.196   2.285
 7122SOL     OW22264   2.831   2.328   6.698
 7122SOL    HW122265   2.826   2.380   6.613
 7122SOL    HW222266   2.800   2.385   6.774
 7123SOL     OW22267   5.006   3.556   6.889
 7123SOL    HW122268   4.924   3.571   6.832
 7123SOL    HW222269   5.010   3.460   6.915
 7124SOL     OW22270   2.907   2.790   6.181
 7124SOL    HW122271   2.971   2.727   6.137
 7124SOL    HW222272   2.939   2.884   6.167
 7125SOL     OW22273   0.841   5.833   1.493
 7125SOL    HW122274   0.922   5.886   1.516
 7125SOL    HW222275   0.765   5.896   1.472
 7126SOL     OW22276   3.745   4.988   0.825
 7126SOL    HW122277   3.772   4.962   0.732
 7126SOL    HW222278   3.827   4.993   0.883
 7127SOL     OW22279   2.328   0.118   5.016
 7127SOL    HW122280   2.347   0.135   5.113
 7127SOL    HW222281   2.369   0.191   4.961
 7128SOL     OW22282   4.336   3.772   0.298
 7128SOL    HW122283   4.364   3.678   0.277
 7128SOL    HW222284   4.338   3.826   0.215
 7129SOL     OW22285   6.918   1.646   0.700
 7129SOL    HW122286   6.964   1.619   0.784
 7129SOL    HW222287   6.922   1.571   0.634
 7130SOL     OW22288   3.636   6.852   3.637
 7130SOL    HW122289   3.718   6.814   3.679
 7130SOL    HW222290   3.577   6.778   3.605
 7131SOL     OW22291   2.229   1.742   2.800
 7131SOL    HW122292   2.319   1.770   2.832
 7131SOL    HW222293   2.193   1.670   2.859
 7132SOL     OW22294   4.912   5.081   2.434
 7132SOL    HW122295   4.950   5.026   2.359
 7132SOL    HW222296   4.913   5.027   2.518
 7133SOL     OW22297   3.394   6.145   2.100
 7133SOL    HW122298   3.364   6.240   2.104
 7133SOL    HW222299   3.487   6.137   2.137
 7134SOL     OW22300   5.946   4.932   6.739
 7134SOL    HW122301   5.874   4.891   6.794
 7134SOL    HW222302   5.975   5.018   6.781
 7135SOL     OW22303   2.312   5.580   0.691
 7135SOL    HW122304   2.351   5.643   0.758
 7135SOL    HW222305   2.377   5.506   0.673
 7136SOL     OW22306   1.375   2.818   2.539
 7136SOL    HW122307   1.301   2.775   2.487
 7136SOL    HW222308   1.463   2.796   2.495
 7137SOL     OW22309   1.410   6.870   1.855
 7137SOL    HW122310   1.376   6.840   1.944
 7137SOL    HW222311   1.509   6.883   1.860
 7138SOL     OW22312   6.543   4.001   0.822
 7138SOL    HW122313   6.610   4.016   0.748
 7138SOL    HW222314   6.464   4.060   0.808
 7139SOL     OW22315   5.675   5.561   0.776
 7139SOL    HW122316   5.612   5.560   0.854
 7139SOL    HW222317   5.642   5.498   0.706
 7140SOL     OW22318   6.661   4.113   0.486
 7140SOL    HW122319   6.723   4.145   0.557
 7140SOL    HW222320   6.608   4.191   0.451
 7141SOL     OW22321   2.391   2.397   0.101
 7141SOL    HW122322   2.325   2.460   0.141
 7141SOL    HW222323   2.410   2.425   0.007
 7142SOL     OW22324   3.961   6.639   5.707
 7142SOL    HW122325   4.036   6.703   5.694
 7142SOL    HW222326   3.903   6.639   5.625
 7143SOL     OW22327   2.878   3.216   5.872
 7143SOL    HW122328   2.890   3.118   5.856
 7143SOL    HW222329   2.788   3.244   5.838
 7144SOL     OW22330   6.308   1.847   6.648
 7144SOL    HW122331   6.245   1.910   6.602
 7144SOL    HW222332   6.383   1.898   6.689
 7145SOL     OW22333   0.330   3.097   0.402
 7145SOL    HW122334   0.301   3.185   0.363
 7145SOL    HW222335   0.265   3.026   0.374
 7146SOL     OW22336   6.902   1.205   4.538
 7146SOL    HW122337   6.866   1.159   4.457
 7146SOL    HW222338   6.880   1.151   4.619
 7147SOL     OW22339   6.725   0.646   0.464
 7147SOL    HW122340   6.747   0.549   0.451
 7147SOL    HW222341   6.797   0.702   0.423
 7148SOL     OW22342   5.750   6.445   0.841
 7148SOL    HW122343   5.848   6.429   0.837
 7148SOL    HW222344   5.712   6.397   0.920
 7149SOL     OW22345   6.768   3.620   6.936
 7149SOL    HW122346   6.748   3.696   6.998
 7149SOL    HW222347   6.698   3.550   6.945
 7150SOL     OW22348   2.476   2.235   6.737
 7150SOL    HW122349   2.549   2.173   6.766
 7150SOL    HW222350   2.393   2.214   6.790
 7151SOL     OW22351   5.622   2.697   0.061
 7151SOL    HW122352   5.630   2.627   7.014
 7151SOL    HW222353   5.681   2.674   0.138
 7152SOL     OW22354   5.728   0.890   4.726
 7152SOL    HW122355   5.809   0.862   4.777
 7152SOL    HW222356   5.692   0.975   4.763
 7153SOL     OW22357   5.303   5.711   0.376
 7153SOL    HW122358   5.353   5.632   0.342
 7153SOL    HW222359   5.218   5.723   0.325
 7154SOL     OW22360   5.120   6.914   2.128
 7154SOL    HW122361   5.173   6.849   2.183
 7154SOL    HW222362   5.112   7.001   2.177
 7155SOL     OW22363   1.540   0.068   1.307
 7155SOL    HW122364   1.566   0.164   1.298
 7155SOL    HW222365   1.583   0.015   1.234
 7156SOL     OW22366   6.556   2.931   5.561
 7156SOL    HW122367   6.474   2.881   5.588
 7156SOL    HW222368   6.625   2.866   5.528
 7157SOL     OW22369   0.022   3.759   5.767
 7157SOL    HW122370   0.052   3.709   5.686
 7157SOL    HW222371   0.080   3.734   5.845
 7158SOL     OW22372   4.889   6.664   3.815
 7158SOL    HW122373   4.983   6.639   3.796
 7158SOL    HW222374   4.874   6.669   3.914
 7159SOL     OW22375   0.980   6.980   3.383
 7159SOL    HW122376   0.955   0.048   3.414
 7159SOL    HW222377   1.010   6.926   3.462
 7160SOL     OW22378   6.167   6.181   2.007
 7160SOL    HW122379   6.204   6.089   1.991
 7160SOL    HW222380   6.167   6.200   2.106
 7161SOL     OW22381   3.760   2.981   1.700
 7161SOL    HW122382   3.824   3.042   1.654
 7161SOL    HW222383   3.805   2.895   1.722
 7162SOL     OW22384   0.816   6.277   0.341
 7162SOL    HW122385   0.818   6.178   0.351
 7162SOL    HW222386   0.887   6.305   0.276
 7163SOL     OW22387   6.737   6.191   6.921
 7163SOL    HW122388   6.697   6.171   6.832
 7163SOL    HW222389   6.746   6.107   6.974
 7164SOL     OW22390   0.672   6.430   6.726
 7164SOL    HW122391   0.684   6.332   6.739
 7164SOL    HW222392   0.611   6.466   6.796
 7165SOL     OW22393   4.396   2.636   5.936
 7165SOL    HW122394   4.401   2.554   5.879
 7165SOL    HW222395   4.477   2.640   5.995
 7166SOL     OW22396   0.065   6.453   5.516
 7166SOL    HW122397   0.047   6.374   5.574
 7166SOL    HW222398   7.007   6.511   5.513
 7167SOL     OW22399   0.474   3.666   5.794
 7167SOL    HW122400   0.422   3.715   5.724
 7167SOL    HW222401   0.564   3.707   5.805
 7168SOL     OW22402   0.293   6.744   2.175
 7168SOL    HW122403   0.362   6.815   2.186
 7168SOL    HW222404   0.335   6.662   2.136
 7169SOL     OW22405   1.752   4.781   5.296
 7169SOL    HW122406   1.755   4.866   5.243
 7169SOL    HW222407   1.744   4.703   5.233
 7170SOL     OW22408   4.269   2.293   2.091
 7170SOL    HW122409   4.284   2.334   2.001
 7170SOL    HW222410   4.180   2.249   2.093
 7171SOL     OW22411   0.235   5.671   1.931
 7171SOL    HW122412   0.296   5.592   1.931
 7171SOL    HW222413   0.230   5.709   2.024
 7172SOL     OW22414   1.483   2.853   3.578
 7172SOL    HW122415   1.506   2.890   3.668
 7172SOL    HW222416   1.549   2.782   3.555
 7173SOL     OW22417   3.513   5.308   4.520
 7173SOL    HW122418   3.484   5.311   4.616
 7173SOL    HW222419   3.514   5.213   4.489
 7174SOL     OW22420   6.860   3.739   2.589
 7174SOL    HW122421   6.805   3.818   2.565
 7174SOL    HW222422   6.847   3.718   2.686
 7175SOL     OW22423   5.951   2.714   5.830
 7175SOL    HW122424   5.891   2.648   5.874
 7175SOL    HW222425   5.907   2.751   5.748
 7176SOL     OW22426   6.630   1.986   6.741
 7176SOL    HW122427   6.713   2.039   6.724
 7176SOL    HW222428   6.653   1.890   6.754
 7177SOL     OW22429   1.507   5.721   3.919
 7177SOL    HW122430   1.530   5.661   3.843
 7177SOL    HW222431   1.408   5.738   3.920
 7178SOL     OW22432   0.740   6.267   5.677
 7178SOL    HW122433   0.779   6.281   5.768
 7178SOL    HW222434   0.784   6.327   5.611
 7179SOL     OW22435   5.368   4.746   5.381
 7179SOL    HW122436   5.429   4.671   5.405
 7179SOL    HW222437   5.329   4.730   5.290
 7180SOL     OW22438   6.956   2.142   2.473
 7180SOL    HW122439   6.868   2.153   2.520
 7180SOL    HW222440   7.006   2.066   2.513
 7181SOL     OW22441   3.608   0.386   0.084
 7181SOL    HW122442   3.587   0.289   0.074
 7181SOL    HW222443   3.551   0.425   0.156
 7182SOL     OW22444   1.767   0.869   2.326
 7182SOL    HW122445   1.799   0.964   2.320
 7182SOL    HW222446   1.779   0.836   2.420
 7183SOL     OW22447   1.958   7.018   1.153
 7183SOL    HW122448   1.995   0.045   1.231
 7183SOL    HW222449   1.975   6.921   1.165
 7184SOL     OW22450   6.706   1.606   3.079
 7184SOL    HW122451   6.648   1.531   3.046
 7184SOL    HW222452   6.726   1.593   3.176
 7185SOL     OW22453   3.432   0.280   3.711
 7185SOL    HW122454   3.500   0.208   3.722
 7185SOL    HW222455   3.424   0.304   3.614
 7186SOL     OW22456   6.102   2.510   0.405
 7186SOL    HW122457   6.145   2.420   0.392
 7186SOL    HW222458   6.018   2.499   0.458
 7187SOL     OW22459   3.133   3.779   3.699
 7187SOL    HW122460   3.150   3.863   3.751
 7187SOL    HW222461   3.189   3.705   3.736
 7188SOL     OW22462   4.604   4.979   0.060
 7188SOL    HW122463   4.564   4.891   0.035
 7188SOL    HW222464   4.662   5.012   7.009
 7189SOL     OW22465   6.816   2.201   6.011
 7189SOL    HW122466   6.769   2.286   6.036
 7189SOL    HW222467   6.906   2.200   6.053
 7190SOL     OW22468   5.574   5.400   0.573
 7190SOL    HW122469   5.602   5.306   0.556
 7190SOL    HW222470   5.501   5.403   0.641
 7191SOL     OW22471   0.596   5.049   2.696
 7191SOL    HW122472   0.586   5.117   2.624
 7191SOL    HW222473   0.661   5.082   2.765
 7192SOL     OW22474   3.551   4.125   5.568
 7192SOL    HW122475   3.503   4.055   5.516
 7192SOL    HW222476   3.490   4.202   5.585
 7193SOL     OW22477   3.585   1.322   4.092
 7193SOL    HW122478   3.598   1.405   4.148
 7193SOL    HW222479   3.669   1.268   4.095
 7194SOL     OW22480   3.487   2.607   5.589
 7194SOL    HW122481   3.559   2.543   5.563
 7194SOL    HW222482   3.447   2.647   5.506
 7195SOL     OW22483   6.394   4.228   5.389
 7195SOL    HW122484   6.396   4.129   5.380
 7195SOL    HW222485   6.304   4.262   5.364
 7196SOL     OW22486   2.835   4.398   1.456
 7196SOL    HW122487   2.934   4.387   1.449
 7196SOL    HW222488   2.796   4.408   1.365
 7197SOL     OW22489   3.362   4.309   6.216
 7197SOL    HW122490   3.307   4.390   6.236
 7197SOL    HW222491   3.455   4.322   6.249
 7198SOL     OW22492   1.564   6.502   2.115
 7198SOL    HW122493   1.653   6.503   2.160
 7198SOL    HW222494   1.572   6.544   2.024
 7199SOL     OW22495   6.174   0.964   3.700
 7199SOL    HW122496   6.224   0.918   3.773
 7199SOL    HW222497   6.171   1.062   3.718
 7200SOL     OW22498   0.976   4.172   6.271
 7200SOL    HW122499   0.950   4.078   6.251
 7200SOL    HW222500   0.894   4.230   6.275
 7201SOL     OW22501   5.710   5.735   5.006
 7201SOL    HW122502   5.703   5.691   5.096
 7201SOL    HW222503   5.700   5.665   4.935
 7202SOL     OW22504   4.551   6.635   5.913
 7202SOL    HW122505   4.581   6.644   5.818
 7202SOL    HW222506   4.484   6.706   5.934
 7203SOL     OW22507   0.978   1.406   0.547
 7203SOL    HW122508   0.880   1.392   0.561
 7203SOL    HW222509   0.993   1.498   0.509
 7204SOL     OW22510   5.180   1.114   2.943
 7204SOL    HW122511   5.145   1.021   2.957
 7204SOL    HW222512   5.119   1.180   2.986
 7205SOL     OW22513   2.751   1.153   3.850
 7205SOL    HW122514   2.835   1.115   3.890
 7205SOL    HW222515   2.679   1.084   3.854
 7206SOL     OW22516   1.567   2.728   6.451
 7206SOL    HW122517   1.526   2.787   6.520
 7206SOL    HW222518   1.666   2.722   6.467
 7207SOL     OW22519   1.910   2.674   3.170
 7207SOL    HW122520   1.926   2.575   3.165
 7207SOL    HW222521   1.977   2.715   3.232
 7208SOL     OW22522   2.595   0.180   3.057
 7208SOL    HW122523   2.522   0.194   3.124
 7208SOL    HW222524   2.679   0.221   3.091
 7209SOL     OW22525   4.314   1.602   2.129
 7209SOL    HW122526   4.313   1.508   2.165
 7209SOL    HW222527   4.236   1.652   2.167
 7210SOL     OW22528   3.265   1.276   4.938
 7210SOL    HW122529   3.338   1.307   5.000
 7210SOL    HW222530   3.212   1.355   4.907
 7211SOL     OW22531   4.879   6.030   6.199
 7211SOL    HW122532   4.847   5.957   6.139
 7211SOL    HW222533   4.944   6.088   6.150
 7212SOL     OW22534   0.087   5.857   3.854
 7212SOL    HW122535   0.125   5.932   3.909
 7212SOL    HW222536   7.012   5.856   3.865
 7213SOL     OW22537   5.191   2.701   0.206
 7213SOL    HW122538   5.239   2.732   0.124
 7213SOL    HW222539   5.240   2.733   0.287
 7214SOL     OW22540   6.486   1.800   5.810
 7214SOL    HW122541   6.516   1.882   5.760
 7214SOL    HW222542   6.457   1.826   5.902
 7215SOL     OW22543   6.151   1.134   2.716
 7215SOL    HW122544   6.205   1.127   2.631
 7215SOL    HW222545   6.213   1.137   2.794
 7216SOL     OW22546   5.425   6.347   3.781
 7216SOL    HW122547   5.374   6.352   3.695
 7216SOL    HW222548   5.452   6.439   3.810
 7217SOL     OW22549   0.897   3.429   3.257
 7217SOL    HW122550   0.997   3.432   3.254
 7217SOL    HW222551   0.868   3.337   3.283
 7218SOL     OW22552   6.792   2.789   5.481
 7218SOL    HW122553   6.847   2.767   5.401
 7218SOL    HW222554   6.848   2.839   5.547
 7219SOL     OW22555   3.922   5.838   0.978
 7219SOL    HW122556   3.991   5.862   1.046
 7219SOL    HW222557   3.833   5.826   1.022
 7220SOL     OW22558   0.044   3.721   3.856
 7220SOL    HW122559   0.079   3.662   3.783
 7220SOL    HW222560   0.038   3.668   3.941
 7221SOL     OW22561   4.724   4.741   3.569
 7221SOL    HW122562   4.679   4.829   3.557
 7221SOL    HW222563   4.775   4.741   3.656
 7222SOL     OW22564   6.295   5.894   3.788
 7222SOL    HW122565   6.221   5.833   3.760
 7222SOL    HW222566   6.318   5.956   3.713
 7223SOL     OW22567   6.404   5.486   1.558
 7223SOL    HW122568   6.388   5.462   1.654
 7223SOL    HW222569   6.502   5.486   1.540
 7224SOL     OW22570   5.754   2.782   2.622
 7224SOL    HW122571   5.746   2.840   2.541
 7224SOL    HW222572   5.820   2.710   2.605
 7225SOL     OW22573   0.849   5.166   0.329
 7225SOL    HW122574   0.764   5.149   0.377
 7225SOL    HW222575   0.888   5.079   0.299
 7226SOL     OW22576   6.348   6.483   7.015
 7226SOL    HW122577   6.397   6.534   6.944
 7226SOL    HW222578   6.414   6.445   0.056
 7227SOL     OW22579   2.210   0.800   1.953
 7227SOL    HW122580   2.210   0.810   2.052
 7227SOL    HW222581   2.260   0.717   1.929
 7228SOL     OW22582   6.948   3.407   2.909
 7228SOL    HW122583   6.918   3.361   2.992
 7228SOL    HW222584   6.880   3.475   2.882
 7229SOL     OW22585   5.750   6.938   5.411
 7229SOL    HW122586   5.656   6.969   5.427
 7229SOL    HW222587   5.754   6.889   5.324
 7230SOL     OW22588   2.754   4.964   6.058
 7230SOL    HW122589   2.829   4.911   6.097
 7230SOL    HW222590   2.685   4.902   6.021
 7231SOL     OW22591   3.536   3.156   6.956
 7231SOL    HW122592   3.533   3.211   6.873
 7231SOL    HW222593   3.446   3.153   6.998
 7232SOL     OW22594   4.351   5.884   3.075
 7232SOL    HW122595   4.360   5.890   2.976
 7232SOL    HW222596   4.374   5.973   3.116
 7233SOL     OW22597   0.662   1.774   6.703
 7233SOL    HW122598   0.700   1.788   6.611
 7233SOL    HW222599   0.664   1.677   6.725
 7234SOL     OW22600   5.361   5.105   3.748
 7234SOL    HW122601   5.303   5.185   3.734
 7234SOL    HW222602   5.307   5.031   3.788
 7235SOL     OW22603   6.893   0.465   1.166
 7235SOL    HW122604   6.832   0.542   1.181
 7235SOL    HW222605   6.968   0.493   1.105
 7236SOL     OW22606   0.341   3.913   3.059
 7236SOL    HW122607   0.435   3.893   3.087
 7236SOL    HW222608   0.315   3.855   2.982
 7237SOL     OW22609   4.919   1.177   6.712
 7237SOL    HW122610   5.016   1.192   6.732
 7237SOL    HW222611   4.898   1.080   6.718
 7238SOL     OW22612   4.579   3.296   0.252
 7238SOL    HW122613   4.653   3.249   0.300
 7238SOL    HW222614   4.508   3.230   0.227
 7239SOL     OW22615   6.164   2.974   2.244
 7239SOL    HW122616   6.163   2.993   2.343
 7239SOL    HW222617   6.257   2.953   2.215
 7240SOL     OW22618   0.680   2.266   0.597
 7240SOL    HW122619   0.631   2.349   0.626
 7240SOL    HW222620   0.778   2.281   0.607
 7241SOL     OW22621   2.027   0.321   2.640
 7241SOL    HW122622   2.010   0.419   2.632
 7241SOL    HW222623   2.102   0.305   2.703
 7242SOL     OW22624   6.593   3.762   6.182
 7242SOL    HW122625   6.624   3.709   6.261
 7242SOL    HW222626   6.623   3.857   6.193
 7243SOL     OW22627   6.297   4.727   6.484
 7243SOL    HW122628   6.313   4.642   6.435
 7243SOL    HW222629   6.199   4.738   6.502
 7244SOL     OW22630   6.524   6.033   0.370
 7244SOL    HW122631   6.497   5.945   0.332
 7244SOL    HW222632   6.623   6.033   0.389
 7245SOL     OW22633   1.702   2.606   0.108
 7245SOL    HW122634   1.607   2.577   0.123
 7245SOL    HW222635   1.763   2.529   0.124
 7246SOL     OW22636   4.827   0.184   4.897
 7246SOL    HW122637   4.821   0.103   4.838
 7246SOL    HW222638   4.751   0.185   4.961
 7247SOL     OW22639   3.162   4.058   4.252
 7247SOL    HW122640   3.114   3.989   4.306
 7247SOL    HW222641   3.136   4.049   4.156
 7248SOL     OW22642   2.686   2.164   5.025
 7248SOL    HW122643   2.675   2.226   4.947
 7248SOL    HW222644   2.598   2.122   5.047
 7249SOL     OW22645   3.494   5.890   3.054
 7249SOL    HW122646   3.477   5.825   3.129
 7249SOL    HW222647   3.490   5.984   3.090
 7250SOL     OW22648   4.992   5.436   5.232
 7250SOL    HW122649   5.022   5.532   5.229
 7250SOL    HW222650   5.041   5.388   5.305
 7251SOL     OW22651   0.225   5.863   4.160
 7251SOL    HW122652   0.128   5.841   4.173
 7251SOL    HW222653   0.280   5.780   4.168
 7252SOL     OW22654   3.844   4.190   1.660
 7252SOL    HW122655   3.779   4.114   1.655
 7252SOL    HW222656   3.801   4.269   1.704
 7253SOL     OW22657   1.189   5.367   5.972
 7253SOL    HW122658   1.119   5.396   5.906
 7253SOL    HW222659   1.274   5.415   5.954
 7254SOL     OW22660   0.109   4.007   3.772
 7254SOL    HW122661   0.166   4.036   3.695
 7254SOL    HW222662   0.123   3.910   3.789
 7255SOL     OW22663   4.661   3.970   0.578
 7255SOL    HW122664   4.569   3.935   0.559
 7255SOL    HW222665   4.656   4.068   0.596
 7256SOL     OW22666   3.033   0.052   4.399
 7256SOL    HW122667   3.063   0.145   4.422
 7256SOL    HW222668   3.019   0.000   4.483
 7257SOL     OW22669   1.013   1.098   4.847
 7257SOL    HW122670   0.923   1.095   4.804
 7257SOL    HW222671   1.082   1.117   4.777
 7258SOL     OW22672   6.752   1.976   2.666
 7258SOL    HW122673   6.751   1.937   2.758
 7258SOL    HW222674   6.708   2.066   2.667
 7259SOL     OW22675   1.428   3.844   2.307
 7259SOL    HW122676   1.428   3.894   2.220
 7259SOL    HW222677   1.361   3.885   2.369
 7260SOL     OW22678   5.682   2.760   1.000
 7260SOL    HW122679   5.772   2.774   1.041
 7260SOL    HW222680   5.649   2.846   0.962
 7261SOL     OW22681   0.073   4.264   6.805
 7261SOL    HW122682   0.026   4.268   6.717
 7261SOL    HW222683   0.006   4.272   6.879
 7262SOL     OW22684   3.070   0.316   5.190
 7262SOL    HW122685   3.020   0.320   5.277
 7262SOL    HW222686   3.133   0.393   5.184
 7263SOL     OW22687   6.148   5.293   5.977
 7263SOL    HW122688   6.122   5.196   5.980
 7263SOL    HW222689   6.109   5.335   5.896
 7264SOL     OW22690   5.253   1.918   1.375
 7264SOL    HW122691   5.165   1.963   1.357
 7264SOL    HW222692   5.262   1.838   1.316
 7265SOL     OW22693   3.276   6.987   5.431
 7265SOL    HW122694   3.273   0.004   5.339
 7265SOL    HW222695   3.220   0.017   5.493
 7266SOL     OW22696   6.952   0.723   3.275
 7266SOL    HW122697   6.919   0.794   3.212
 7266SOL    HW222698   6.883   0.709   3.347
 7267SOL     OW22699   6.670   4.253   5.318
 7267SOL    HW122700   6.599   4.238   5.386
 7267SOL    HW222701   6.643   4.210   5.232
 7268SOL     OW22702   5.597   6.132   4.305
 7268SOL    HW122703   5.544   6.131   4.220
 7268SOL    HW222704   5.548   6.185   4.374
 7269SOL     OW22705   2.950   5.688   4.502
 7269SOL    HW122706   2.898   5.717   4.582
 7269SOL    HW222707   3.034   5.741   4.495
 7270SOL     OW22708   0.510   1.424   4.377
 7270SOL    HW122709   0.600   1.460   4.399
 7270SOL    HW222710   0.499   1.418   4.278
 7271SOL     OW22711   0.760   5.535   2.877
 7271SOL    HW122712   0.683   5.529   2.814
 7271SOL    HW222713   0.752   5.465   2.947
 7272SOL     OW22714   6.574   3.941   1.839
 7272SOL    HW122715   6.608   4.000   1.766
 7272SOL    HW222716   6.493   3.892   1.808
 7273SOL     OW22717   0.047   1.343   4.849
 7273SOL    HW122718   0.052   1.245   4.828
 7273SOL    HW222719   6.986   1.362   4.899
 7274SOL     OW22720   0.381   5.589   6.544
 7274SOL    HW122721   0.429   5.535   6.613
 7274SOL    HW222722   0.284   5.592   6.566
 7275SOL     OW22723   0.498   5.441   3.313
 7275SOL    HW122724   0.423   5.391   3.356
 7275SOL    HW222725   0.461   5.508   3.249
 7276SOL     OW22726   5.248   6.398   3.568
 7276SOL    HW122727   5.161   6.402   3.616
 7276SOL    HW222728   5.252   6.316   3.512
 7277SOL     OW22729   5.066   1.214   0.040
 7277SOL    HW122730   5.048   1.312   0.041
 7277SOL    HW222731   5.098   1.187   6.973
 7278SOL     OW22732   3.730   2.885   2.464
 7278SOL    HW122733   3.751   2.789   2.482
 7278SOL    HW222734   3.747   2.905   2.367
 7279SOL     OW22735   3.408   6.490   6.227
 7279SOL    HW122736   3.413   6.494   6.128
 7279SOL    HW222737   3.500   6.491   6.265
 7280SOL     OW22738   4.151   6.824   5.675
 7280SOL    HW122739   4.225   6.847   5.612
 7280SOL    HW222740   4.176   6.852   5.768
 7281SOL     OW22741   5.716   0.671   6.584
 7281SOL    HW122742   5.799   0.616   6.595
 7281SOL    HW222743   5.699   0.688   6.487
 7282SOL     OW22744   5.985   5.880   3.194
 7282SOL    HW122745   5.995   5.911   3.288
 7282SOL    HW222746   5.965   5.782   3.193
 7283SOL     OW22747   2.099   1.569   2.949
 7283SOL    HW122748   2.082   1.473   2.926
 7283SOL    HW222749   2.133   1.576   3.043
 7284SOL     OW22750   1.410   1.227   4.884
 7284SOL    HW122751   1.473   1.304   4.874
 7284SOL    HW222752   1.417   1.168   4.803
 7285SOL     OW22753   6.284   5.007   2.271
 7285SOL    HW122754   6.331   5.086   2.232
 7285SOL    HW222755   6.199   4.991   2.222
 7286SOL     OW22756   1.392   4.050   0.476
 7286SOL    HW122757   1.339   4.027   0.394
 7286SOL    HW222758   1.488   4.063   0.450
 7287SOL     OW22759   6.728   1.944   6.128
 7287SOL    HW122760   6.633   1.943   6.098
 7287SOL    HW222761   6.774   2.025   6.092
 7288SOL     OW22762   2.773   0.285   0.024
 7288SOL    HW122763   2.805   0.202   7.002
 7288SOL    HW222764   2.794   0.280   0.121
 7289SOL     OW22765   4.245   1.760   3.179
 7289SOL    HW122766   4.278   1.809   3.098
 7289SOL    HW222767   4.266   1.813   3.261
 7290SOL     OW22768   2.347   5.796   4.551
 7290SOL    HW122769   2.444   5.818   4.538
 7290SOL    HW222770   2.298   5.877   4.582
 7291SOL     OW22771   3.689   5.164   1.452
 7291SOL    HW122772   3.670   5.239   1.388
 7291SOL    HW222773   3.787   5.159   1.469
 7292SOL     OW22774   3.467   0.172   4.684
 7292SOL    HW122775   3.553   0.201   4.643
 7292SOL    HW222776   3.452   0.221   4.770
 7293SOL     OW22777   2.314   1.445   6.317
 7293SOL    HW122778   2.227   1.469   6.273
 7293SOL    HW222779   2.307   1.354   6.356
 7294SOL     OW22780   5.821   5.637   6.594
 7294SOL    HW122781   5.731   5.674   6.574
 7294SOL    HW222782   5.876   5.635   6.510
 7295SOL     OW22783   4.942   6.645   1.638
 7295SOL    HW122784   4.901   6.689   1.558
 7295SOL    HW222785   4.999   6.711   1.688
 7296SOL     OW22786   4.333   5.004   0.534
 7296SOL    HW122787   4.390   4.933   0.575
 7296SOL    HW222788   4.363   5.021   0.440
 7297SOL     OW22789   4.851   6.244   2.819
 7297SOL    HW122790   4.845   6.269   2.723
 7297SOL    HW222791   4.901   6.315   2.869
 7298SOL     OW22792   6.197   2.992   4.216
 7298SOL    HW122793   6.161   2.994   4.309
 7298SOL    HW222794   6.163   2.911   4.169
 7299SOL     OW22795   5.480   3.242   0.092
 7299SOL    HW122796   5.574   3.219   0.117
 7299SOL    HW222797   5.480   3.299   0.010
 7300SOL     OW22798   4.721   5.031   1.120
 7300SOL    HW122799   4.723   5.045   1.219
 7300SOL    HW222800   4.641   5.076   1.081
 7301SOL     OW22801   6.818   1.499   6.336
 7301SOL    HW122802   6.846   1.406   6.359
 7301SOL    HW222803   6.747   1.496   6.265
 7302SOL     OW22804   6.920   1.026   6.629
 7302SOL    HW122805   6.952   0.962   6.698
 7302SOL    HW222806   6.825   1.005   6.605
 7303SOL     OW22807   4.472   0.478   1.392
 7303SOL    HW122808   4.426   0.553   1.344
 7303SOL    HW222809   4.493   0.507   1.485
 7304SOL     OW22810   4.042   3.307   4.570
 7304SOL    HW122811   4.116   3.370   4.595
 7304SOL    HW222812   3.996   3.341   4.488
 7305SOL     OW22813   5.731   2.318   0.240
 7305SOL    HW122814   5.704   2.294   0.334
 7305SOL    HW222815   5.664   2.281   0.176
 7306SOL     OW22816   4.504   4.850   1.761
 7306SOL    HW122817   4.484   4.862   1.858
 7306SOL    HW222818   4.585   4.792   1.750
 7307SOL     OW22819   4.363   6.584   2.311
 7307SOL    HW122820   4.304   6.664   2.323
 7307SOL    HW222821   4.403   6.586   2.219
 7308SOL     OW22822   5.513   0.501   4.086
 7308SOL    HW122823   5.544   0.542   4.000
 7308SOL    HW222824   5.544   0.406   4.091
 7309SOL     OW22825   4.445   4.497   0.459
 7309SOL    HW122826   4.511   4.464   0.392
 7309SOL    HW222827   4.358   4.515   0.414
 7310SOL     OW22828   2.230   5.669   1.783
 7310SOL    HW122829   2.257   5.659   1.879
 7310SOL    HW222830   2.160   5.602   1.760
 7311SOL     OW22831   3.234   2.092   2.037
 7311SOL    HW122832   3.256   2.010   2.090
 7311SOL    HW222833   3.314   2.117   1.982
 7312SOL     OW22834   0.170   2.550   6.761
 7312SOL    HW122835   0.233   2.600   6.820
 7312SOL    HW222836   0.210   2.539   6.670
 7313SOL     OW22837   3.601   2.482   6.539
 7313SOL    HW122838   3.627   2.579   6.541
 7313SOL    HW222839   3.535   2.468   6.466
 7314SOL     OW22840   1.112   1.883   4.685
 7314SOL    HW122841   1.118   1.801   4.628
 7314SOL    HW222842   1.046   1.868   4.759
 7315SOL     OW22843   0.029   1.050   5.717
 7315SOL    HW122844   0.076   1.119   5.662
 7315SOL    HW222845   6.954   1.071   5.718
 7316SOL     OW22846   3.972   3.607   3.840
 7316SOL    HW122847   4.045   3.555   3.796
 7316SOL    HW222848   3.906   3.637   3.771
 7317SOL     OW22849   3.162   0.644   4.172
 7317SOL    HW122850   3.131   0.738   4.187
 7317SOL    HW222851   3.107   0.581   4.227
 7318SOL     OW22852   1.843   0.918   1.046
 7318SOL    HW122853   1.938   0.890   1.035
 7318SOL    HW222854   1.835   0.981   1.122
 7319SOL     OW22855   6.968   4.505   6.173
 7319SOL    HW122856   6.949   4.439   6.101
 7319SOL    HW222857   6.968   4.458   6.262
 7320SOL     OW22858   0.548   1.832   2.632
 7320SOL    HW122859   0.539   1.849   2.534
 7320SOL    HW222860   0.574   1.737   2.648
 7321SOL     OW22861   3.874   1.731   3.928
 7321SOL    HW122862   3.875   1.673   3.847
 7321SOL    HW222863   3.790   1.786   3.929
 7322SOL     OW22864   1.122   2.815   1.565
 7322SOL    HW122865   1.219   2.828   1.544
 7322SOL    HW222866   1.066   2.858   1.495
 7323SOL     OW22867   2.292   4.238   3.155
 7323SOL    HW122868   2.284   4.163   3.090
 7323SOL    HW222869   2.287   4.203   3.249
 7324SOL     OW22870   4.728   5.609   3.717
 7324SOL    HW122871   4.728   5.670   3.638
 7324SOL    HW222872   4.639   5.564   3.724
 7325SOL     OW22873   3.012   6.200   0.591
 7325SOL    HW122874   2.933   6.261   0.594
 7325SOL    HW222875   2.984   6.107   0.611
 7326SOL     OW22876   2.676   0.687   4.018
 7326SOL    HW122877   2.698   0.599   4.060
 7326SOL    HW222878   2.662   0.756   4.090
 7327SOL     OW22879   1.570   3.229   6.013
 7327SOL    HW122880   1.560   3.175   5.930
 7327SOL    HW222881   1.622   3.178   6.082
 7328SOL     OW22882   2.101   6.391   0.322
 7328SOL    HW122883   2.157   6.321   0.279
 7328SOL    HW222884   2.010   6.354   0.341
 7329SOL     OW22885   4.733   3.829   1.746
 7329SOL    HW122886   4.668   3.897   1.711
 7329SOL    HW222887   4.722   3.744   1.695
 7330SOL     OW22888   3.881   2.164   0.965
 7330SOL    HW122889   3.864   2.170   1.064
 7330SOL    HW222890   3.950   2.232   0.940
 7331SOL     OW22891   6.455   1.222   1.158
 7331SOL    HW122892   6.477   1.308   1.111
 7331SOL    HW222893   6.503   1.220   1.246
 7332SOL     OW22894   3.482   6.657   0.529
 7332SOL    HW122895   3.456   6.667   0.625
 7332SOL    HW222896   3.574   6.692   0.515
 7333SOL     OW22897   0.379   4.897   2.210
 7333SOL    HW122898   0.332   4.865   2.129
 7333SOL    HW222899   0.476   4.872   2.204
 7334SOL     OW22900   2.997   0.168   4.135
 7334SOL    HW122901   3.081   0.212   4.166
 7334SOL    HW222902   2.975   0.091   4.195
 7335SOL     OW22903   2.021   3.016   3.414
 7335SOL    HW122904   1.942   2.999   3.474
 7335SOL    HW222905   2.061   2.929   3.387
 7336SOL     OW22906   1.434   6.039   4.711
 7336SOL    HW122907   1.499   5.974   4.671
 7336SOL    HW222908   1.477   6.086   4.789
 7337SOL     OW22909   5.092   2.234   1.192
 7337SOL    HW122910   5.048   2.165   1.251
 7337SOL    HW222911   5.034   2.251   1.113
 7338SOL     OW22912   0.178   3.893   0.264
 7338SOL    HW122913   0.254   3.899   0.328
 7338SOL    HW222914   0.103   3.843   0.306
 7339SOL     OW22915   1.914   5.818   4.986
 7339SOL    HW122916   1.851   5.766   4.929
 7339SOL    HW222917   1.863   5.873   5.051
 7340SOL     OW22918   2.992   6.793   6.430
 7340SOL    HW122919   3.052   6.739   6.371
 7340SOL    HW222920   2.940   6.858   6.373
 7341SOL     OW22921   6.014   2.126   0.287
 7341SOL    HW122922   6.068   2.169   0.359
 7341SOL    HW222923   5.927   2.174   0.277
 7342SOL     OW22924   0.419   6.073   1.640
 7342SOL    HW122925   0.507   6.121   1.638
 7342SOL    HW222926   0.416   6.007   1.565
 7343SOL     OW22927   6.364   2.980   0.632
 7343SOL    HW122928   6.438   3.039   0.599
 7343SOL    HW222929   6.382   2.885   0.605
 7344SOL     OW22930   2.798   0.068   5.945
 7344SOL    HW122931   2.710   0.109   5.920
 7344SOL    HW222932   2.789   6.992   5.946
 7345SOL     OW22933   3.800   5.827   6.377
 7345SOL    HW122934   3.845   5.916   6.380
 7345SOL    HW222935   3.704   5.839   6.353
 7346SOL     OW22936   4.259   5.054   2.179
 7346SOL    HW122937   4.329   5.122   2.201
 7346SOL    HW222938   4.203   5.036   2.259
 7347SOL     OW22939   5.019   0.649   6.509
 7347SOL    HW122940   5.013   0.558   6.468
 7347SOL    HW222941   5.103   0.656   6.564
 7348SOL     OW22942   0.570   6.038   0.079
 7348SOL    HW122943   0.538   5.960   0.025
 7348SOL    HW222944   0.635   6.006   0.148
 7349SOL     OW22945   4.764   1.426   1.398
 7349SOL    HW122946   4.778   1.342   1.451
 7349SOL    HW222947   4.850   1.455   1.358
 7350SOL     OW22948   3.587   1.339   5.304
 7350SOL    HW122949   3.557   1.250   5.268
 7350SOL    HW222950   3.605   1.401   5.228
 7351SOL     OW22951   2.197   4.895   4.780
 7351SOL    HW122952   2.270   4.949   4.739
 7351SOL    HW222953   2.110   4.917   4.735
 7352SOL     OW22954   5.775   3.190   4.014
 7352SOL    HW122955   5.706   3.136   3.967
 7352SOL    HW222956   5.847   3.216   3.949
 7353SOL     OW22957   6.953   2.273   5.642
 7353SOL    HW122958   0.012   2.228   5.675
 7353SOL    HW222959   6.967   2.303   5.547
 7354SOL     OW22960   0.685   2.258   2.674
 7354SOL    HW122961   0.781   2.245   2.699
 7354SOL    HW222962   0.655   2.349   2.701
 7355SOL     OW22963   3.486   1.727   0.524
 7355SOL    HW122964   3.404   1.780   0.546
 7355SOL    HW222965   3.523   1.757   0.436
 7356SOL     OW22966   3.857   4.934   6.043
 7356SOL    HW122967   3.887   4.905   5.952
 7356SOL    HW222968   3.931   4.922   6.108
 7357SOL     OW22969   4.486   6.605   2.060
 7357SOL    HW122970   4.533   6.517   2.063
 7357SOL    HW222971   4.466   6.629   1.965
 7358SOL     OW22972   4.526   0.072   3.031
 7358SOL    HW122973   4.543   0.052   2.934
 7358SOL    HW222974   4.566   7.023   3.087
 7359SOL     OW22975   3.660   0.219   2.570
 7359SOL    HW122976   3.699   0.143   2.623
 7359SOL    HW222977   3.577   0.189   2.523
 7360SOL     OW22978   2.795   3.890   6.487
 7360SOL    HW122979   2.844   3.967   6.447
 7360SOL    HW222980   2.748   3.839   6.415
 7361SOL     OW22981   6.275   0.850   3.913
 7361SOL    HW122982   6.369   0.850   3.947
 7361SOL    HW222983   6.211   0.862   3.989
 7362SOL     OW22984   3.632   6.014   0.578
 7362SOL    HW122985   3.714   5.970   0.614
 7362SOL    HW222986   3.572   6.040   0.654
 7363SOL     OW22987   4.583   0.523   0.886
 7363SOL    HW122988   4.605   0.453   0.818
 7363SOL    HW222989   4.507   0.579   0.852
 7364SOL     OW22990   5.637   5.966   2.092
 7364SOL    HW122991   5.698   6.040   2.063
 7364SOL    HW222992   5.549   6.004   2.120
 7365SOL     OW22993   4.869   3.566   2.076
 7365SOL    HW122994   4.839   3.646   2.023
 7365SOL    HW222995   4.862   3.484   2.019
 7366SOL     OW22996   2.054   6.391   3.002
 7366SOL    HW122997   1.974   6.389   2.942
 7366SOL    HW222998   2.085   6.486   3.012
 7367SOL     OW22999   4.499   0.946   0.096
 7367SOL    HW123000   4.442   0.975   0.020
 7367SOL    HW223001   4.587   0.912   0.061
 7368SOL     OW23002   3.217   4.046   3.067
 7368SOL    HW123003   3.273   3.982   3.120
 7368SOL    HW223004   3.126   4.009   3.054
 7369SOL     OW23005   5.737   3.492   7.013
 7369SOL    HW123006   5.832   3.510   6.985
 7369SOL    HW223007   5.734   3.410   0.046
 7370SOL     OW23008   2.025   0.986   4.152
 7370SOL    HW123009   2.010   0.969   4.249
 7370SOL    HW223010   2.094   0.922   4.117
 7371SOL     OW23011   4.143   0.304   3.766
 7371SOL    HW123012   4.196   0.254   3.835
 7371SOL    HW223013   4.050   0.318   3.800
 7372SOL     OW23014   3.827   1.561   5.305
 7372SOL    HW123015   3.803   1.469   5.336
 7372SOL    HW223016   3.878   1.608   5.378
 7373SOL     OW23017   6.780   2.778   4.132
 7373SOL    HW123018   6.716   2.763   4.057
 7373SOL    HW223019   6.729   2.793   4.217
 7374SOL     OW23020   0.022   3.386   6.413
 7374SOL    HW123021   0.046   3.482   6.397
 7374SOL    HW223022   0.083   3.348   6.482
 7375SOL     OW23023   2.027   2.874   1.338
 7375SOL    HW123024   1.968   2.946   1.300
 7375SOL    HW223025   1.977   2.821   1.406
 7376SOL     OW23026   6.511   5.294   0.496
 7376SOL    HW123027   6.555   5.204   0.495
 7376SOL    HW223028   6.424   5.287   0.545
 7377SOL     OW23029   2.833   6.135   0.961
 7377SOL    HW123030   2.879   6.097   1.042
 7377SOL    HW223031   2.735   6.119   0.968
 7378SOL     OW23032   2.499   5.125   5.880
 7378SOL    HW123033   2.509   5.222   5.902
 7378SOL    HW223034   2.571   5.097   5.816
 7379SOL     OW23035   5.394   2.594   2.361
 7379SOL    HW123036   5.455   2.519   2.333
 7379SOL    HW223037   5.300   2.561   2.361
 7380SOL     OW23038   5.205   3.859   1.472
 7380SOL    HW123039   5.276   3.801   1.513
 7380SOL    HW223040   5.123   3.804   1.458
 7381SOL     OW23041   3.857   0.116   2.056
 7381SOL    HW123042   3.880   0.214   2.054
 7381SOL    HW223043   3.777   0.100   2.000
 7382SOL     OW23044   0.302   2.608   7.014
 7382SOL    HW123045   0.306   2.536   0.059
 7382SOL    HW223046   0.389   2.613   6.965
 7383SOL     OW23047   2.567   6.963   0.906
 7383SOL    HW123048   2.468   6.965   0.888
 7383SOL    HW223049   2.584   6.918   0.993
 7384SOL     OW23050   6.863   0.561   0.056
 7384SOL    HW123051   6.906   0.494   0.116
 7384SOL    HW223052   6.920   0.643   0.051
 7385SOL     OW23053   6.580   4.625   3.160
 7385SOL    HW123054   6.642   4.547   3.150
 7385SOL    HW223055   6.514   4.605   3.233
 7386SOL     OW23056   6.510   4.312   0.335
 7386SOL    HW123057   6.475   4.363   0.413
 7386SOL    HW223058   6.537   4.376   0.263
 7387SOL     OW23059   6.862   5.565   3.759
 7387SOL    HW123060   6.822   5.650   3.724
 7387SOL    HW223061   6.899   5.581   3.851
 7388SOL     OW23062   2.340   4.235   2.740
 7388SOL    HW123063   2.252   4.281   2.754
 7388SOL    HW223064   2.411   4.303   2.724
 7389SOL     OW23065   0.209   2.770   1.021
 7389SOL    HW123066   0.202   2.768   0.922
 7389SOL    HW223067   0.301   2.741   1.049
 7390SOL     OW23068   3.997   2.144   4.109
 7390SOL    HW123069   3.897   2.137   4.107
 7390SOL    HW223070   4.037   2.066   4.062
 7391SOL     OW23071   3.429   3.777   2.411
 7391SOL    HW123072   3.374   3.798   2.492
 7391SOL    HW223073   3.521   3.749   2.439
 7392SOL     OW23074   3.375   6.733   0.785
 7392SOL    HW123075   3.355   6.686   0.871
 7392SOL    HW223076   3.291   6.769   0.746
 7393SOL     OW23077   4.864   5.531   3.287
 7393SOL    HW123078   4.804   5.570   3.217
 7393SOL    HW223079   4.817   5.457   3.335
 7394SOL     OW23080   1.716   1.815   6.202
 7394SOL    HW123081   1.691   1.767   6.118
 7394SOL    HW223082   1.639   1.869   6.234
 7395SOL     OW23083   2.976   5.982   1.172
 7395SOL    HW123084   3.009   5.919   1.102
 7395SOL    HW223085   2.970   5.934   1.260
 7396SOL     OW23086   1.370   5.279   2.212
 7396SOL    HW123087   1.451   5.254   2.265
 7396SOL    HW223088   1.398   5.327   2.129
 7397SOL     OW23089   5.909   5.024   4.094
 7397SOL    HW123090   5.981   5.038   4.026
 7397SOL    HW223091   5.834   4.972   4.054
 7398SOL     OW23092   3.305   5.226   1.694
 7398SOL    HW123093   3.273   5.195   1.605
 7398SOL    HW223094   3.304   5.326   1.697
 7399SOL     OW23095   6.294   2.103   5.354
 7399SOL    HW123096   6.352   2.097   5.272
 7399SOL    HW223097   6.352   2.110   5.435
 7400SOL     OW23098   4.146   3.658   5.513
 7400SOL    HW123099   4.115   3.565   5.532
 7400SOL    HW223100   4.136   3.714   5.595
 7401SOL     OW23101   2.204   2.109   4.142
 7401SOL    HW123102   2.116   2.156   4.144
 7401SOL    HW223103   2.277   2.174   4.123
 7402SOL     OW23104   3.248   5.200   4.207
 7402SOL    HW123105   3.343   5.230   4.215
 7402SOL    HW223106   3.246   5.107   4.168
 7403SOL     OW23107   1.797   5.114   4.031
 7403SOL    HW123108   1.807   5.135   4.128
 7403SOL    HW223109   1.886   5.087   3.993
 7404SOL     OW23110   1.831   3.251   1.254
 7404SOL    HW123111   1.784   3.257   1.166
 7404SOL    HW223112   1.763   3.247   1.327
 7405SOL     OW23113   3.456   6.842   6.235
 7405SOL    HW123114   3.525   6.770   6.243
 7405SOL    HW223115   3.426   6.869   6.327
 7406SOL     OW23116   0.621   2.381   4.634
 7406SOL    HW123117   0.564   2.401   4.713
 7406SOL    HW223118   0.563   2.359   4.556
 7407SOL     OW23119   1.500   6.146   4.383
 7407SOL    HW123120   1.466   6.061   4.425
 7407SOL    HW223121   1.459   6.224   4.429
 7408SOL     OW23122   4.385   5.161   5.506
 7408SOL    HW123123   4.433   5.239   5.466
 7408SOL    HW223124   4.399   5.080   5.448
 7409SOL     OW23125   6.354   4.972   1.438
 7409SOL    HW123126   6.309   4.948   1.524
 7409SOL    HW223127   6.421   5.044   1.455
 7410SOL     OW23128   6.215   1.149   0.542
 7410SOL    HW123129   6.176   1.237   0.517
 7410SOL    HW223130   6.244   1.151   0.638
 7411SOL     OW23131   3.623   1.798   5.586
 7411SOL    HW123132   3.606   1.758   5.496
 7411SOL    HW223133   3.535   1.818   5.630
 7412SOL     OW23134   4.314   6.807   6.940
 7412SOL    HW123135   4.321   6.818   0.015
 7412SOL    HW223136   4.374   6.733   6.909
 7413SOL     OW23137   4.989   0.949   3.839
 7413SOL    HW123138   4.989   0.950   3.739
 7413SOL    HW223139   5.021   1.038   3.873
 7414SOL     OW23140   3.020   0.866   4.346
 7414SOL    HW123141   2.958   0.938   4.315
 7414SOL    HW223142   3.091   0.906   4.403
 7415SOL     OW23143   4.303   0.733   6.074
 7415SOL    HW123144   4.279   0.792   5.997
 7415SOL    HW223145   4.220   0.705   6.122
 7416SOL     OW23146   0.763   0.210   1.443
 7416SOL    HW123147   0.847   0.259   1.421
 7416SOL    HW223148   0.737   0.151   1.367
 7417SOL     OW23149   0.281   0.342   1.871
 7417SOL    HW123150   0.358   0.402   1.891
 7417SOL    HW223151   0.249   0.358   1.778
 7418SOL     OW23152   1.982   3.442   6.471
 7418SOL    HW123153   2.041   3.515   6.437
 7418SOL    HW223154   1.915   3.480   6.534
 7419SOL     OW23155   6.588   2.970   4.867
 7419SOL    HW123156   6.678   2.990   4.907
 7419SOL    HW223157   6.582   3.013   4.777
 7420SOL     OW23158   6.918   0.147   0.288
 7420SOL    HW123159   6.884   0.055   0.308
 7420SOL    HW223160   6.878   0.180   0.202
 7421SOL     OW23161   6.351   3.781   1.115
 7421SOL    HW123162   6.360   3.699   1.172
 7421SOL    HW223163   6.333   3.755   1.021
 7422SOL     OW23164   6.141   3.619   1.500
 7422SOL    HW123165   6.073   3.547   1.485
 7422SOL    HW223166   6.173   3.616   1.594
 7423SOL     OW23167   4.135   2.554   5.613
 7423SOL    HW123168   4.137   2.474   5.672
 7423SOL    HW223169   4.095   2.631   5.663
 7424SOL     OW23170   0.729   1.789   4.186
 7424SOL    HW123171   0.664   1.794   4.262
 7424SOL    HW223172   0.786   1.871   4.187
 7425SOL     OW23173   5.616   0.235   1.007
 7425SOL    HW123174   5.701   0.231   1.059
 7425SOL    HW223175   5.539   0.238   1.071
 7426SOL     OW23176   3.789   3.437   5.410
 7426SOL    HW123177   3.818   3.495   5.333
 7426SOL    HW223178   3.744   3.355   5.374
 7427SOL     OW23179   2.686   1.035   1.434
 7427SOL    HW123180   2.704   1.053   1.530
 7427SOL    HW223181   2.753   1.084   1.378
 7428SOL     OW23182   1.397   0.034   5.689
 7428SOL    HW123183   1.483   7.017   5.661
 7428SOL    HW223184   1.353   7.001   5.759
 7429SOL     OW23185   1.170   0.617   2.654
 7429SOL    HW123186   1.094   0.652   2.708
 7429SOL    HW223187   1.145   0.528   2.615
 7430SOL     OW23188   6.311   3.972   2.478
 7430SOL    HW123189   6.342   3.993   2.385
 7430SOL    HW223190   6.298   4.058   2.529
 7431SOL     OW23191   1.247   2.781   4.390
 7431SOL    HW123192   1.300   2.770   4.474
 7431SOL    HW223193   1.152   2.803   4.414
 7432SOL     OW23194   1.237   1.015   2.886
 7432SOL    HW123195   1.320   1.013   2.831
 7432SOL    HW223196   1.260   1.013   2.983
 7433SOL     OW23197   3.613   0.276   6.342
 7433SOL    HW123198   3.580   0.259   6.435
 7433SOL    HW223199   3.579   0.205   6.281
 7434SOL     OW23200   4.056   7.000   3.980
 7434SOL    HW123201   4.038   6.958   3.891
 7434SOL    HW223202   4.149   6.980   4.008
 7435SOL     OW23203   5.141   4.669   3.374
 7435SOL    HW123204   5.043   4.654   3.392
 7435SOL    HW223205   5.153   4.696   3.279
 7436SOL     OW23206   4.537   2.736   6.309
 7436SOL    HW123207   4.560   2.799   6.384
 7436SOL    HW223208   4.603   2.661   6.308
 7437SOL     OW23209   3.831   0.514   1.681
 7437SOL    HW123210   3.914   0.520   1.625
 7437SOL    HW223211   3.827   0.593   1.743
 7438SOL     OW23212   1.871   1.071   6.610
 7438SOL    HW123213   1.935   1.075   6.686
 7438SOL    HW223214   1.896   1.139   6.541
 7439SOL     OW23215   1.645   4.215   6.362
 7439SOL    HW123216   1.728   4.261   6.332
 7439SOL    HW223217   1.616   4.150   6.291
 7440SOL     OW23218   6.241   2.737   4.438
 7440SOL    HW123219   6.265   2.686   4.521
 7440SOL    HW223220   6.197   2.823   4.464
 7441SOL     OW23221   4.386   6.719   0.382
 7441SOL    HW123222   4.484   6.715   0.361
 7441SOL    HW223223   4.358   6.634   0.426
 7442SOL     OW23224   6.369   1.197   6.411
 7442SOL    HW123225   6.269   1.196   6.406
 7442SOL    HW223226   6.406   1.130   6.347
 7443SOL     OW23227   0.237   6.873   0.819
 7443SOL    HW123228   0.187   6.933   0.757
 7443SOL    HW223229   0.174   6.806   0.859
 7444SOL     OW23230   1.566   5.786   6.481
 7444SOL    HW123231   1.483   5.815   6.435
 7444SOL    HW223232   1.608   5.710   6.431
 7445SOL     OW23233   3.807   6.187   2.505
 7445SOL    HW123234   3.893   6.159   2.547
 7445SOL    HW223235   3.819   6.274   2.457
 7446SOL     OW23236   6.545   5.001   0.453
 7446SOL    HW123237   6.604   4.954   0.519
 7446SOL    HW223238   6.464   4.945   0.436
 7447SOL     OW23239   0.445   5.610   0.584
 7447SOL    HW123240   0.477   5.515   0.576
 7447SOL    HW223241   0.472   5.661   0.503
 7448SOL     OW23242   5.089   5.022   6.956
 7448SOL    HW123243   5.176   4.977   6.932
 7448SOL    HW223244   5.018   4.953   6.967
 7449SOL     OW23245   6.633   3.492   6.342
 7449SOL    HW123246   6.575   3.489   6.423
 7449SOL    HW223247   6.673   3.402   6.325
 7450SOL     OW23248   5.198   3.271   0.620
 7450SOL    HW123249   5.223   3.318   0.535
 7450SOL    HW223250   5.244   3.314   0.697
 7451SOL     OW23251   4.263   5.163   2.905
 7451SOL    HW123252   4.212   5.080   2.882
 7451SOL    HW223253   4.259   5.177   3.004
 7452SOL     OW23254   6.592   5.769   7.005
 7452SOL    HW123255   6.569   5.672   6.996
 7452SOL    HW223256   6.675   5.788   6.952
 7453SOL     OW23257   4.499   4.934   6.263
 7453SOL    HW123258   4.444   4.874   6.206
 7453SOL    HW223259   4.482   4.914   6.360
 7454SOL     OW23260   3.896   2.248   1.241
 7454SOL    HW123261   3.889   2.215   1.335
 7454SOL    HW223262   3.887   2.347   1.240
 7455SOL     OW23263   6.610   0.677   2.998
 7455SOL    HW123264   6.687   0.651   2.939
 7455SOL    HW223265   6.527   0.685   2.942
 7456SOL     OW23266   3.002   1.047   5.441
 7456SOL    HW123267   3.032   1.116   5.507
 7456SOL    HW223268   2.955   1.091   5.364
 7457SOL     OW23269   1.055   1.921   2.547
 7457SOL    HW123270   1.141   1.971   2.544
 7457SOL    HW223271   1.041   1.873   2.461
 7458SOL     OW23272   0.299   6.097   5.325
 7458SOL    HW123273   0.209   6.124   5.291
 7458SOL    HW223274   0.370   6.128   5.262
 7459SOL     OW23275   5.625   6.804   3.029
 7459SOL    HW123276   5.633   6.877   3.097
 7459SOL    HW223277   5.580   6.839   2.947
 7460SOL     OW23278   0.632   0.602   1.140
 7460SOL    HW123279   0.712   0.547   1.118
 7460SOL    HW223280   0.567   0.548   1.193
 7461SOL     OW23281   1.923   4.563   5.414
 7461SOL    HW123282   1.855   4.633   5.394
 7461SOL    HW223283   2.001   4.573   5.352
 7462SOL     OW23284   2.084   4.495   0.085
 7462SOL    HW123285   2.093   4.497   0.185
 7462SOL    HW223286   2.126   4.412   0.049
 7463SOL     OW23287   5.089   4.971   0.902
 7463SOL    HW123288   5.034   4.896   0.938
 7463SOL    HW223289   5.036   5.019   0.832
 7464SOL     OW23290   5.329   5.114   5.162
 7464SOL    HW123291   5.358   5.029   5.117
 7464SOL    HW223292   5.406   5.154   5.210
 7465SOL     OW23293   1.446   3.482   6.628
 7465SOL    HW123294   1.463   3.485   6.726
 7465SOL    HW223295   1.487   3.563   6.585
 7466SOL     OW23296   0.371   0.161   5.495
 7466SOL    HW123297   0.312   0.084   5.522
 7466SOL    HW223298   0.466   0.137   5.512
 7467SOL     OW23299   0.791   3.602   4.101
 7467SOL    HW123300   0.826   3.524   4.050
 7467SOL    HW223301   0.862   3.672   4.106
 7468SOL     OW23302   6.316   2.686   4.716
 7468SOL    HW123303   6.341   2.614   4.781
 7468SOL    HW223304   6.396   2.744   4.698
 7469SOL     OW23305   0.170   2.012   0.009
 7469SOL    HW123306   0.113   2.094   7.023
 7469SOL    HW223307   0.184   1.970   6.943
 7470SOL     OW23308   5.112   2.932   3.968
 7470SOL    HW123309   5.104   2.869   4.045
 7470SOL    HW223310   5.123   2.880   3.884
 7471SOL     OW23311   3.386   0.176   6.175
 7471SOL    HW123312   3.398   0.077   6.165
 7471SOL    HW223313   3.289   0.197   6.188
 7472SOL     OW23314   6.744   0.138   5.644
 7472SOL    HW123315   6.701   0.150   5.733
 7472SOL    HW223316   6.828   0.193   5.640
 7473SOL     OW23317   4.273   6.669   3.217
 7473SOL    HW123318   4.259   6.691   3.313
 7473SOL    HW223319   4.233   6.741   3.160
 7474SOL     OW23320   6.060   2.187   1.283
 7474SOL    HW123321   6.048   2.167   1.185
 7474SOL    HW223322   5.971   2.188   1.328
 7475SOL     OW23323   5.264   2.727   1.265
 7475SOL    HW123324   5.357   2.722   1.301
 7475SOL    HW223325   5.255   2.669   1.185
 7476SOL     OW23326   2.329   1.337   2.775
 7476SOL    HW123327   2.282   1.250   2.765
 7476SOL    HW223328   2.405   1.341   2.709
 7477SOL     OW23329   2.333   3.746   6.048
 7477SOL    HW123330   2.247   3.697   6.034
 7477SOL    HW223331   2.386   3.746   5.963
 7478SOL     OW23332   0.661   2.833   6.855
 7478SOL    HW123333   0.621   2.863   6.768
 7478SOL    HW223334   0.624   2.743   6.879
 7479SOL     OW23335   5.649   2.687   1.748
 7479SOL    HW123336   5.647   2.649   1.840
 7479SOL    HW223337   5.670   2.614   1.683
 7480SOL     OW23338   3.998   6.080   2.133
 7480SOL    HW123339   4.009   6.021   2.053
 7480SOL    HW223340   3.932   6.152   2.114
 7481SOL     OW23341   0.327   4.244   6.773
 7481SOL    HW123342   0.352   4.158   6.727
 7481SOL    HW223343   0.229   4.243   6.792
 7482SOL     OW23344   4.166   1.767   4.668
 7482SOL    HW123345   4.068   1.749   4.678
 7482SOL    HW223346   4.198   1.728   4.582
 7483SOL     OW23347   5.611   1.241   5.847
 7483SOL    HW123348   5.662   1.166   5.806
 7483SOL    HW223349   5.558   1.288   5.777
 7484SOL     OW23350   2.380   0.002   4.770
 7484SOL    HW123351   2.375   6.927   4.754
 7484SOL    HW223352   2.367   0.020   4.867
 7485SOL     OW23353   3.721   0.120   6.990
 7485SOL    HW123354   3.744   0.023   6.986
 7485SOL    HW223355   3.787   0.168   0.025
 7486SOL     OW23356   4.384   6.003   1.024
 7486SOL    HW123357   4.390   6.102   1.031
 7486SOL    HW223358   4.348   5.978   0.933
 7487SOL     OW23359   3.245   6.429   4.489
 7487SOL    HW123360   3.318   6.436   4.421
 7487SOL    HW223361   3.163   6.475   4.455
 7488SOL     OW23362   1.740   5.835   3.631
 7488SOL    HW123363   1.703   5.797   3.546
 7488SOL    HW223364   1.676   5.901   3.670
 7489SOL     OW23365   5.180   3.492   6.402
 7489SOL    HW123366   5.091   3.522   6.436
 7489SOL    HW223367   5.240   3.570   6.393
 7490SOL     OW23368   1.949   2.358   1.166
 7490SOL    HW123369   2.029   2.360   1.226
 7490SOL    HW223370   1.978   2.333   1.073
 7491SOL     OW23371   4.734   4.184   6.402
 7491SOL    HW123372   4.639   4.155   6.412
 7491SOL    HW223373   4.794   4.115   6.442
 7492SOL     OW23374   1.593   1.077   3.151
 7492SOL    HW123375   1.496   1.071   3.127
 7492SOL    HW223376   1.604   1.133   3.233
 7493SOL     OW23377   5.926   4.819   4.354
 7493SOL    HW123378   5.992   4.888   4.324
 7493SOL    HW223379   5.875   4.786   4.274
 7494SOL     OW23380   6.006   1.104   2.343
 7494SOL    HW123381   5.956   1.023   2.375
 7494SOL    HW223382   5.981   1.124   2.248
 7495SOL     OW23383   1.599   3.267   4.174
 7495SOL    HW123384   1.638   3.250   4.083
 7495SOL    HW223385   1.627   3.357   4.206
 7496SOL     OW23386   5.621   2.714   3.280
 7496SOL    HW123387   5.609   2.615   3.273
 7496SOL    HW223388   5.538   2.760   3.249
 7497SOL     OW23389   6.293   0.466   1.381
 7497SOL    HW123390   6.340   0.544   1.341
 7497SOL    HW223391   6.321   0.382   1.334
 7498SOL     OW23392   2.246   6.179   3.425
 7498SOL    HW123393   2.316   6.177   3.354
 7498SOL    HW223394   2.165   6.227   3.391
 7499SOL     OW23395   2.631   1.189   3.225
 7499SOL    HW123396   2.554   1.217   3.167
 7499SOL    HW223397   2.676   1.110   3.185
 7500SOL     OW23398   3.695   1.324   4.726
 7500SOL    HW123399   3.638   1.404   4.710
 7500SOL    HW223400   3.714   1.278   4.638
 7501SOL     OW23401   6.048   2.000   3.772
 7501SOL    HW123402   6.097   2.087   3.767
 7501SOL    HW223403   5.955   2.016   3.803
 7502SOL     OW23404   3.823   1.383   3.549
 7502SOL    HW123405   3.851   1.328   3.628
 7502SOL    HW223406   3.834   1.329   3.466
 7503SOL     OW23407   1.053   5.739   0.960
 7503SOL    HW123408   0.983   5.724   1.031
 7503SOL    HW223409   1.116   5.810   0.990
 7504SOL     OW23410   5.612   6.373   4.928
 7504SOL    HW123411   5.678   6.337   4.996
 7504SOL    HW223412   5.636   6.467   4.905
 7505SOL     OW23413   0.338   6.300   6.597
 7505SOL    HW123414   0.412   6.313   6.531
 7505SOL    HW223415   0.278   6.381   6.596
 7506SOL     OW23416   3.768   2.103   4.457
 7506SOL    HW123417   3.706   2.155   4.516
 7506SOL    HW223418   3.754   2.005   4.471
 7507SOL     OW23419   6.820   3.671   6.442
 7507SOL    HW123420   6.742   3.619   6.408
 7507SOL    HW223421   6.787   3.751   6.492
 7508SOL     OW23422   3.393   6.375   0.115
 7508SOL    HW123423   3.293   6.370   0.121
 7508SOL    HW223424   3.430   6.411   0.200
 7509SOL     OW23425   5.584   4.372   3.069
 7509SOL    HW123426   5.652   4.439   3.101
 7509SOL    HW223427   5.590   4.363   2.970
 7510SOL     OW23428   3.584   4.707   1.416
 7510SOL    HW123429   3.653   4.775   1.438
 7510SOL    HW223430   3.529   4.687   1.497
 7511SOL     OW23431   5.217   5.974   3.587
 7511SOL    HW123432   5.204   5.886   3.541
 7511SOL    HW223433   5.272   5.960   3.670
 7512SOL     OW23434   3.966   6.327   0.905
 7512SOL    HW123435   4.065   6.341   0.907
 7512SOL    HW223436   3.939   6.286   0.818
 7513SOL     OW23437   0.486   0.439   2.347
 7513SOL    HW123438   0.547   0.381   2.401
 7513SOL    HW223439   0.407   0.386   2.316
 7514SOL     OW23440   7.023   0.562   0.496
 7514SOL    HW123441   0.062   0.523   0.565
 7514SOL    HW223442   0.020   0.659   0.483
 7515SOL     OW23443   0.084   4.969   5.199
 7515SOL    HW123444   0.119   4.903   5.265
 7515SOL    HW223445   0.068   5.056   5.245
 7516SOL     OW23446   2.356   5.979   5.196
 7516SOL    HW123447   2.406   5.951   5.278
 7516SOL    HW223448   2.375   5.916   5.121
 7517SOL     OW23449   0.455   2.618   0.335
 7517SOL    HW123450   0.458   2.711   0.298
 7517SOL    HW223451   0.547   2.586   0.354
 7518SOL     OW23452   3.850   2.105   4.801
 7518SOL    HW123453   3.877   2.149   4.887
 7518SOL    HW223454   3.927   2.106   4.737
 7519SOL     OW23455   2.932   6.186   4.956
 7519SOL    HW123456   2.923   6.112   5.022
 7519SOL    HW223457   3.008   6.246   4.982
 7520SOL     OW23458   2.027   0.677   0.704
 7520SOL    HW123459   1.990   0.649   0.792
 7520SOL    HW223460   2.127   0.666   0.705
 7521SOL     OW23461   4.430   1.384   5.748
 7521SOL    HW123462   4.402   1.425   5.662
 7521SOL    HW223463   4.352   1.378   5.810
 7522SOL     OW23464   1.671   6.522   4.210
 7522SOL    HW123465   1.703   6.557   4.121
 7522SOL    HW223466   1.573   6.542   4.219
 7523SOL     OW23467   5.602   1.867   6.759
 7523SOL    HW123468   5.518   1.831   6.799
 7523SOL    HW223469   5.645   1.932   6.822
 7524SOL     OW23470   0.266   3.968   4.748
 7524SOL    HW123471   0.234   4.058   4.720
 7524SOL    HW223472   0.220   3.942   4.834
 7525SOL     OW23473   2.522   4.844   5.958
 7525SOL    HW123474   2.482   4.930   5.988
 7525SOL    HW223475   2.533   4.845   5.858
 7526SOL     OW23476   1.148   4.451   0.515
 7526SOL    HW123477   1.238   4.409   0.502
 7526SOL    HW223478   1.155   4.527   0.578
 7527SOL     OW23479   2.916   5.141   2.519
 7527SOL    HW123480   2.841   5.118   2.581
 7527SOL    HW223481   2.898   5.103   2.429
 7528SOL     OW23482   6.567   2.986   0.200
 7528SOL    HW123483   6.611   2.906   0.160
 7528SOL    HW223484   6.582   3.066   0.142
 7529SOL     OW23485   5.806   2.935   4.861
 7529SOL    HW123486   5.876   3.003   4.884
 7529SOL    HW223487   5.820   2.852   4.914
 7530SOL     OW23488   1.452   2.621   3.131
 7530SOL    HW123489   1.518   2.687   3.165
 7530SOL    HW223490   1.429   2.556   3.203
 7531SOL     OW23491   4.299   1.573   3.996
 7531SOL    HW123492   4.328   1.518   3.917
 7531SOL    HW223493   4.201   1.562   4.010
 7532SOL     OW23494   4.422   4.853   6.514
 7532SOL    HW123495   4.335   4.880   6.555
 7532SOL    HW223496   4.495   4.861   6.582
 7533SOL     OW23497   4.272   4.628   1.267
 7533SOL    HW123498   4.245   4.579   1.350
 7533SOL    HW223499   4.237   4.580   1.187
 7534SOL     OW23500   4.482   6.349   4.886
 7534SOL    HW123501   4.457   6.347   4.789
 7534SOL    HW223502   4.519   6.261   4.912
 7535SOL     OW23503   0.437   6.823   4.539
 7535SOL    HW123504   0.431   6.807   4.440
 7535SOL    HW223505   0.375   6.898   4.564
 7536SOL     OW23506   5.972   0.072   2.827
 7536SOL    HW123507   5.958   0.132   2.906
 7536SOL    HW223508   6.047   0.107   2.771
 7537SOL     OW23509   2.247   0.427   2.262
 7537SOL    HW123510   2.216   0.438   2.168
 7537SOL    HW223511   2.173   0.454   2.324
 7538SOL     OW23512   0.130   4.683   0.067
 7538SOL    HW123513   0.198   4.609   0.071
 7538SOL    HW223514   0.061   4.669   0.138
 7539SOL     OW23515   6.423   0.351   5.044
 7539SOL    HW123516   6.452   0.300   4.962
 7539SOL    HW223517   6.330   0.322   5.070
 7540SOL     OW23518   5.366   3.490   3.381
 7540SOL    HW123519   5.420   3.406   3.379
 7540SOL    HW223520   5.311   3.492   3.465
 7541SOL     OW23521   2.382   3.945   0.130
 7541SOL    HW123522   2.348   3.852   0.142
 7541SOL    HW223523   2.388   3.966   0.032
 7542SOL     OW23524   6.414   5.749   4.793
 7542SOL    HW123525   6.346   5.791   4.854
 7542SOL    HW223526   6.477   5.820   4.760
 7543SOL     OW23527   2.309   0.674   0.699
 7543SOL    HW123528   2.316   0.699   0.602
 7543SOL    HW223529   2.384   0.613   0.723
 7544SOL     OW23530   5.832   1.711   5.120
 7544SOL    HW123531   5.766   1.667   5.059
 7544SOL    HW223532   5.906   1.646   5.141
 7545SOL     OW23533   1.239   5.478   4.971
 7545SOL    HW123534   1.252   5.462   5.069
 7545SOL    HW223535   1.232   5.576   4.953
 7546SOL     OW23536   2.269   3.021   1.638
 7546SOL    HW123537   2.249   3.115   1.610
 7546SOL    HW223538   2.283   2.964   1.556
 7547SOL     OW23539   4.022   0.079   2.296
 7547SOL    HW123540   4.002   0.174   2.318
 7547SOL    HW223541   3.956   0.045   2.229
 7548SOL     OW23542   2.343   2.085   6.184
 7548SOL    HW123543   2.341   2.010   6.251
 7548SOL    HW223544   2.428   2.080   6.132
 7549SOL     OW23545   4.659   0.389   4.753
 7549SOL    HW123546   4.657   0.467   4.816
 7549SOL    HW223547   4.726   0.322   4.784
 7550SOL     OW23548   2.435   5.727   5.130
 7550SOL    HW123549   2.480   5.658   5.073
 7550SOL    HW223550   2.376   5.682   5.197
 7551SOL     OW23551   6.384   3.212   6.309
 7551SOL    HW123552   6.461   3.161   6.348
 7551SOL    HW223553   6.419   3.286   6.251
 7552SOL     OW23554   2.655   6.566   4.411
 7552SOL    HW123555   2.637   6.619   4.494
 7552SOL    HW223556   2.713   6.620   4.349
 7553SOL     OW23557   6.407   0.039   5.445
 7553SOL    HW123558   6.399   0.124   5.496
 7553SOL    HW223559   6.454   0.056   5.358
 7554SOL     OW23560   4.961   1.335   1.922
 7554SOL    HW123561   5.012   1.353   2.006
 7554SOL    HW223562   4.903   1.413   1.900
 7555SOL     OW23563   4.602   5.462   4.304
 7555SOL    HW123564   4.567   5.526   4.236
 7555SOL    HW223565   4.620   5.373   4.261
 7556SOL     OW23566   0.902   5.924   0.547
 7556SOL    HW123567   0.850   5.854   0.595
 7556SOL    HW223568   0.969   5.964   0.609
 7557SOL     OW23569   4.241   5.937   0.174
 7557SOL    HW123570   4.282   6.028   0.171
 7557SOL    HW223571   4.293   5.875   0.116
 7558SOL     OW23572   0.957   1.386   3.879
 7558SOL    HW123573   0.924   1.317   3.814
 7558SOL    HW223574   0.889   1.459   3.887
 7559SOL     OW23575   1.259   6.966   5.451
 7559SOL    HW123576   1.284   6.870   5.441
 7559SOL    HW223577   1.283   6.998   5.543
 7560SOL     OW23578   0.893   0.514   5.640
 7560SOL    HW123579   0.811   0.516   5.582
 7560SOL    HW223580   0.884   0.440   5.707
 7561SOL     OW23581   5.276   1.286   5.174
 7561SOL    HW123582   5.250   1.245   5.261
 7561SOL    HW223583   5.195   1.295   5.116
 7562SOL     OW23584   1.826   5.475   3.696
 7562SOL    HW123585   1.735   5.506   3.669
 7562SOL    HW223586   1.869   5.545   3.753
 7563SOL     OW23587   2.783   6.680   3.508
 7563SOL    HW123588   2.776   6.666   3.409
 7563SOL    HW223589   2.696   6.715   3.543
 7564SOL     OW23590   5.239   3.032   5.841
 7564SOL    HW123591   5.230   3.000   5.935
 7564SOL    HW223592   5.161   3.000   5.787
 7565SOL     OW23593   6.858   3.532   5.638
 7565SOL    HW123594   6.856   3.627   5.668
 7565SOL    HW223595   6.894   3.475   5.712
 7566SOL     OW23596   4.713   4.303   1.469
 7566SOL    HW123597   4.771   4.226   1.442
 7566SOL    HW223598   4.689   4.294   1.566
 7567SOL     OW23599   1.485   0.394   3.149
 7567SOL    HW123600   1.394   0.369   3.116
 7567SOL    HW223601   1.524   0.319   3.201
 7568SOL     OW23602   0.246   3.866   1.185
 7568SOL    HW123603   0.217   3.792   1.126
 7568SOL    HW223604   0.180   3.942   1.179
 7569SOL     OW23605   4.515   3.751   1.323
 7569SOL    HW123606   4.452   3.812   1.371
 7569SOL    HW223607   4.543   3.793   1.237
 7570SOL     OW23608   0.870   2.486   1.809
 7570SOL    HW123609   0.887   2.410   1.871
 7570SOL    HW223610   0.910   2.467   1.720
 7571SOL     OW23611   5.040   1.762   3.574
 7571SOL    HW123612   5.110   1.815   3.526
 7571SOL    HW223613   4.983   1.823   3.628
 7572SOL     OW23614   4.661   6.855   3.134
 7572SOL    HW123615   4.673   6.819   3.227
 7572SOL    HW223616   4.590   6.803   3.087
 7573SOL     OW23617   3.465   6.977   5.784
 7573SOL    HW123618   3.494   6.941   5.695
 7573SOL    HW223619   3.438   0.049   5.775
 7574SOL     OW23620   0.726   3.157   3.278
 7574SOL    HW123621   0.684   3.069   3.301
 7574SOL    HW223622   0.656   3.220   3.246
 7575SOL     OW23623   6.906   6.968   0.032
 7575SOL    HW123624   6.948   6.891   0.082
 7575SOL    HW223625   6.807   6.960   0.039
 7576SOL     OW23626   4.419   2.801   0.267
 7576SOL    HW123627   4.509   2.780   0.305
 7576SOL    HW223628   4.368   2.858   0.331
 7577SOL     OW23629   0.122   0.287   6.344
 7577SOL    HW123630   0.119   0.193   6.310
 7577SOL    HW223631   0.211   0.304   6.387
 7578SOL     OW23632   6.025   5.499   2.832
 7578SOL    HW123633   6.032   5.455   2.742
 7578SOL    HW223634   5.973   5.441   2.894
 7579SOL     OW23635   1.379   1.940   6.793
 7579SOL    HW123636   1.282   1.918   6.804
 7579SOL    HW223637   1.435   1.861   6.816
 7580SOL     OW23638   2.285   4.941   2.458
 7580SOL    HW123639   2.217   5.015   2.464
 7580SOL    HW223640   2.338   4.951   2.375
 7581SOL     OW23641   0.351   0.313   0.904
 7581SOL    HW123642   0.295   0.235   0.931
 7581SOL    HW223643   0.447   0.285   0.895
 7582SOL     OW23644   2.013   0.649   5.882
 7582SOL    HW123645   2.023   0.593   5.800
 7582SOL    HW223646   2.096   0.703   5.896
 7583SOL     OW23647   5.607   3.810   2.104
 7583SOL    HW123648   5.560   3.837   2.188
 7583SOL    HW223649   5.622   3.891   2.047
 7584SOL     OW23650   0.132   0.629   3.409
 7584SOL    HW123651   0.072   0.657   3.334
 7584SOL    HW223652   0.225   0.618   3.375
 7585SOL     OW23653   0.793   1.230   5.524
 7585SOL    HW123654   0.700   1.231   5.488
 7585SOL    HW223655   0.796   1.284   5.608
 7586SOL     OW23656   1.801   6.601   3.970
 7586SOL    HW123657   1.782   6.668   3.898
 7586SOL    HW223658   1.893   6.616   4.005
 7587SOL     OW23659   5.663   0.266   2.057
 7587SOL    HW123660   5.652   0.249   1.959
 7587SOL    HW223661   5.757   0.295   2.075
 7588SOL     OW23662   2.164   3.322   4.465
 7588SOL    HW123663   2.186   3.411   4.505
 7588SOL    HW223664   2.086   3.331   4.403
 7589SOL     OW23665   6.811   6.929   2.499
 7589SOL    HW123666   6.881   6.897   2.564
 7589SOL    HW223667   6.743   6.984   2.548
 7590SOL     OW23668   6.004   0.893   6.985
 7590SOL    HW123669   5.994   0.959   0.036
 7590SOL    HW223670   6.032   0.804   7.022
 7591SOL     OW23671   3.142   4.136   4.834
 7591SOL    HW123672   3.213   4.077   4.794
 7591SOL    HW223673   3.150   4.228   4.797
 7592SOL     OW23674   0.239   6.658   3.298
 7592SOL    HW123675   0.317   6.666   3.360
 7592SOL    HW223676   0.228   6.562   3.271
 7593SOL     OW23677   6.777   1.558   5.970
 7593SOL    HW123678   6.738   1.553   5.878
 7593SOL    HW223679   6.712   1.520   6.035
 7594SOL     OW23680   6.877   3.907   6.254
 7594SOL    HW123681   6.801   3.966   6.282
 7594SOL    HW223682   6.888   3.911   6.154
 7595SOL     OW23683   0.255   3.317   0.264
 7595SOL    HW123684   0.287   3.346   0.173
 7595SOL    HW223685   0.193   3.386   0.301
 7596SOL     OW23686   3.380   1.928   6.520
 7596SOL    HW123687   3.451   1.870   6.561
 7596SOL    HW223688   3.321   1.873   6.462
 7597SOL     OW23689   2.507   4.528   0.617
 7597SOL    HW123690   2.434   4.552   0.681
 7597SOL    HW223691   2.592   4.512   0.667
 7598SOL     OW23692   4.897   0.745   1.939
 7598SOL    HW123693   4.891   0.649   1.968
 7598SOL    HW223694   4.807   0.788   1.949
 7599SOL     OW23695   3.092   3.127   0.381
 7599SOL    HW123696   3.036   3.053   0.419
 7599SOL    HW223697   3.032   3.201   0.350
 7600SOL     OW23698   0.833   6.806   3.735
 7600SOL    HW123699   0.764   6.834   3.668
 7600SOL    HW223700   0.803   6.832   3.826
 7601SOL     OW23701   3.008   6.341   0.918
 7601SOL    HW123702   2.941   6.415   0.908
 7601SOL    HW223703   2.960   6.254   0.926
 7602SOL     OW23704   0.370   1.102   1.590
 7602SOL    HW123705   0.386   1.048   1.508
 7602SOL    HW223706   0.435   1.177   1.595
 7603SOL     OW23707   4.379   1.055   6.622
 7603SOL    HW123708   4.472   1.052   6.585
 7603SOL    HW223709   4.316   1.086   6.551
 7604SOL     OW23710   2.481   2.131   5.375
 7604SOL    HW123711   2.450   2.086   5.292
 7604SOL    HW223712   2.422   2.103   5.452
 7605SOL     OW23713   3.053   5.662   0.018
 7605SOL    HW123714   3.077   5.626   0.108
 7605SOL    HW223715   3.038   5.761   0.025
 7606SOL     OW23716   6.254   0.692   3.323
 7606SOL    HW123717   6.161   0.685   3.289
 7606SOL    HW223718   6.312   0.733   3.252
 7607SOL     OW23719   2.036   5.425   5.380
 7607SOL    HW123720   1.966   5.359   5.353
 7607SOL    HW223721   1.991   5.507   5.417
 7608SOL     OW23722   0.546   2.871   6.577
 7608SOL    HW123723   0.482   2.923   6.634
 7608SOL    HW223724   0.590   2.932   6.511
 7609SOL     OW23725   3.047   0.031   4.877
 7609SOL    HW123726   3.118   0.092   4.913
 7609SOL    HW223727   3.085   6.964   4.862
 7610SOL     OW23728   4.333   5.381   4.143
 7610SOL    HW123729   4.338   5.282   4.154
 7610SOL    HW223730   4.302   5.422   4.229
 7611SOL     OW23731   4.011   2.280   0.297
 7611SOL    HW123732   4.027   2.193   0.250
 7611SOL    HW223733   3.948   2.336   0.243
 7612SOL     OW23734   4.754   2.923   2.319
 7612SOL    HW123735   4.738   2.975   2.235
 7612SOL    HW223736   4.723   2.829   2.307
 7613SOL     OW23737   0.286   0.590   6.845
 7613SOL    HW123738   0.306   0.601   6.943
 7613SOL    HW223739   0.224   0.512   6.833
 7614SOL     OW23740   6.085   5.186   6.767
 7614SOL    HW123741   6.135   5.246   6.830
 7614SOL    HW223742   6.150   5.147   6.702
 7615SOL     OW23743   4.963   3.092   6.524
 7615SOL    HW123744   5.053   3.054   6.505
 7615SOL    HW223745   4.894   3.037   6.476
 7616SOL     OW23746   6.536   6.769   2.051
 7616SOL    HW123747   6.542   6.814   2.140
 7616SOL    HW223748   6.622   6.780   2.002
 7617SOL     OW23749   5.772   4.552   3.144
 7617SOL    HW123750   5.869   4.541   3.167
 7617SOL    HW223751   5.721   4.574   3.227
 7618SOL     OW23752   2.918   2.241   0.061
 7618SOL    HW123753   2.965   2.186   7.017
 7618SOL    HW223754   2.823   2.210   0.069
 7619SOL     OW23755   0.574   0.583   4.803
 7619SOL    HW123756   0.581   0.611   4.899
 7619SOL    HW223757   0.508   0.642   4.757
 7620SOL     OW23758   3.557   3.924   0.128
 7620SOL    HW123759   3.495   3.862   0.175
 7620SOL    HW223760   3.567   3.895   0.032
 7621SOL     OW23761   6.161   4.926   0.612
 7621SOL    HW123762   6.240   4.939   0.673
 7621SOL    HW223763   6.080   4.968   0.653
 7622SOL     OW23764   2.553   4.090   1.070
 7622SOL    HW123765   2.598   4.001   1.077
 7622SOL    HW223766   2.467   4.080   1.020
 7623SOL     OW23767   4.864   4.611   3.375
 7623SOL    HW123768   4.823   4.552   3.306
 7623SOL    HW223769   4.791   4.655   3.429
 7624SOL     OW23770   6.724   2.944   2.790
 7624SOL    HW123771   6.698   2.886   2.868
 7624SOL    HW223772   6.682   3.034   2.800
 7625SOL     OW23773   5.313   0.661   1.906
 7625SOL    HW123774   5.262   0.592   1.958
 7625SOL    HW223775   5.252   0.702   1.837
 7626SOL     OW23776   4.659   6.414   0.532
 7626SOL    HW123777   4.674   6.512   0.547
 7626SOL    HW223778   4.743   6.373   0.495
 7627SOL     OW23779   4.699   2.842   5.990
 7627SOL    HW123780   4.758   2.915   5.955
 7627SOL    HW223781   4.612   2.881   6.019
 7628SOL     OW23782   3.835   2.705   0.915
 7628SOL    HW123783   3.879   2.646   0.983
 7628SOL    HW223784   3.769   2.766   0.960
 7629SOL     OW23785   5.634   2.965   3.689
 7629SOL    HW123786   5.726   2.950   3.725
 7629SOL    HW223787   5.573   2.995   3.763
 7630SOL     OW23788   1.342   5.901   3.615
 7630SOL    HW123789   1.304   5.831   3.676
 7630SOL    HW223790   1.423   5.941   3.657
 7631SOL     OW23791   1.090   1.141   6.540
 7631SOL    HW123792   1.069   1.060   6.485
 7631SOL    HW223793   1.151   1.116   6.614
 7632SOL     OW23794   4.251   5.783   1.555
 7632SOL    HW123795   4.161   5.740   1.550
 7632SOL    HW223796   4.240   5.882   1.562
 7633SOL     OW23797   5.187   0.728   1.674
 7633SOL    HW123798   5.196   0.688   1.583
 7633SOL    HW223799   5.111   0.794   1.674
 7634SOL     OW23800   0.313   1.878   6.778
 7634SOL    HW123801   0.408   1.911   6.780
 7634SOL    HW223802   0.311   1.780   6.797
 7635SOL     OW23803   1.416   3.077   5.841
 7635SOL    HW123804   1.328   3.118   5.818
 7635SOL    HW223805   1.403   3.006   5.910
 7636SOL     OW23806   6.707   2.877   3.673
 7636SOL    HW123807   6.752   2.964   3.652
 7636SOL    HW223808   6.683   2.875   3.770
 7637SOL     OW23809   1.407   4.065   4.794
 7637SOL    HW123810   1.360   4.115   4.866
 7637SOL    HW223811   1.431   4.127   4.720
 7638SOL     OW23812   0.643   6.756   0.919
 7638SOL    HW123813   0.565   6.711   0.963
 7638SOL    HW223814   0.666   6.708   0.834
 7639SOL     OW23815   2.354   6.593   0.411
 7639SOL    HW123816   2.277   6.577   0.473
 7639SOL    HW223817   2.333   6.554   0.321
 7640SOL     OW23818   3.443   0.547   1.019
 7640SOL    HW123819   3.403   0.478   0.958
 7640SOL    HW223820   3.519   0.507   1.069
 7641SOL     OW23821   6.444   4.810   5.147
 7641SOL    HW123822   6.512   4.738   5.163
 7641SOL    HW223823   6.440   4.830   5.049
 7642SOL     OW23824   6.107   1.077   4.030
 7642SOL    HW123825   6.047   1.140   4.081
 7642SOL    HW223826   6.147   1.125   3.952
 7643SOL     OW23827   5.220   1.919   4.109
 7643SOL    HW123828   5.160   1.895   4.033
 7643SOL    HW223829   5.233   2.018   4.112
 7644SOL     OW23830   5.555   4.011   0.775
 7644SOL    HW123831   5.612   4.044   0.699
 7644SOL    HW223832   5.464   4.053   0.769
 7645SOL     OW23833   5.227   4.827   6.176
 7645SOL    HW123834   5.237   4.897   6.106
 7645SOL    HW223835   5.302   4.761   6.168
 7646SOL     OW23836   6.323   1.661   1.940
 7646SOL    HW123837   6.326   1.710   2.027
 7646SOL    HW223838   6.412   1.620   1.921
 7647SOL     OW23839   6.848   1.622   3.949
 7647SOL    HW123840   6.944   1.592   3.949
 7647SOL    HW223841   6.838   1.700   3.887
 7648SOL     OW23842   1.837   2.440   0.727
 7648SOL    HW123843   1.805   2.379   0.654
 7648SOL    HW223844   1.867   2.526   0.687
 7649SOL     OW23845   4.324   0.469   0.295
 7649SOL    HW123846   4.340   0.530   0.372
 7649SOL    HW223847   4.354   0.514   0.211
 7650SOL     OW23848   3.596   2.592   0.342
 7650SOL    HW123849   3.646   2.666   0.387
 7650SOL    HW223850   3.547   2.538   0.410
 7651SOL     OW23851   3.862   5.625   6.138
 7651SOL    HW123852   3.810   5.651   6.219
 7651SOL    HW223853   3.841   5.689   6.064
 7652SOL     OW23854   0.323   0.760   5.034
 7652SOL    HW123855   0.409   0.729   5.075
 7652SOL    HW223856   0.262   0.682   5.022
 7653SOL     OW23857   1.950   6.668   6.409
 7653SOL    HW123858   1.958   6.756   6.455
 7653SOL    HW223859   1.917   6.683   6.316
 7654SOL     OW23860   6.597   2.607   5.612
 7654SOL    HW123861   6.603   2.672   5.688
 7654SOL    HW223862   6.682   2.610   5.560
 7655SOL     OW23863   2.688   1.843   5.170
 7655SOL    HW123864   2.761   1.900   5.208
 7655SOL    HW223865   2.648   1.888   5.091
 7656SOL     OW23866   6.239   3.887   0.365
 7656SOL    HW123867   6.306   3.937   0.420
 7656SOL    HW223868   6.254   3.789   0.375
 7657SOL     OW23869   1.082   4.186   4.749
 7657SOL    HW123870   1.064   4.190   4.651
 7657SOL    HW223871   1.163   4.241   4.770
 7658SOL     OW23872   3.234   0.715   1.022
 7658SOL    HW123873   3.313   0.660   0.997
 7658SOL    HW223874   3.166   0.657   1.067
 7659SOL     OW23875   5.419   4.070   5.185
 7659SOL    HW123876   5.415   4.078   5.085
 7659SOL    HW223877   5.383   3.980   5.212
 7660SOL     OW23878   0.424   6.306   4.919
 7660SOL    HW123879   0.341   6.347   4.955
 7660SOL    HW223880   0.430   6.210   4.948
 7661SOL     OW23881   2.141   0.454   4.776
 7661SOL    HW123882   2.211   0.420   4.714
 7661SOL    HW223883   2.113   0.382   4.838
 7662SOL     OW23884   0.072   6.118   1.444
 7662SOL    HW123885   0.150   6.069   1.405
 7662SOL    HW223886   7.014   6.097   1.391
 7663SOL     OW23887   1.236   5.788   3.897
 7663SOL    HW123888   1.177   5.866   3.919
 7663SOL    HW223889   1.190   5.703   3.923
 7664SOL     OW23890   5.581   2.249   3.012
 7664SOL    HW123891   5.558   2.274   2.918
 7664SOL    HW223892   5.568   2.151   3.024
 7665SOL     OW23893   1.899   0.049   5.203
 7665SOL    HW123894   1.965   0.035   5.277
 7665SOL    HW223895   1.866   0.144   5.206
 7666SOL     OW23896   6.172   5.676   4.215
 7666SOL    HW123897   6.186   5.755   4.156
 7666SOL    HW223898   6.250   5.614   4.208
 7667SOL     OW23899   4.157   5.346   1.368
 7667SOL    HW123900   4.122   5.402   1.442
 7667SOL    HW223901   4.086   5.336   1.298
 7668SOL     OW23902   1.504   5.624   0.351
 7668SOL    HW123903   1.548   5.628   0.261
 7668SOL    HW223904   1.525   5.707   0.401
 7669SOL     OW23905   4.064   2.723   6.244
 7669SOL    HW123906   4.014   2.639   6.226
 7669SOL    HW223907   4.114   2.751   6.162
 7670SOL     OW23908   1.269   0.132   0.531
 7670SOL    HW123909   1.250   0.219   0.486
 7670SOL    HW223910   1.307   0.149   0.622
 7671SOL     OW23911   3.822   0.899   1.700
 7671SOL    HW123912   3.813   0.821   1.763
 7671SOL    HW223913   3.873   0.871   1.619
 7672SOL     OW23914   5.730   2.932   2.408
 7672SOL    HW123915   5.726   3.026   2.443
 7672SOL    HW223916   5.789   2.928   2.328
 7673SOL     OW23917   1.781   6.800   5.231
 7673SOL    HW123918   1.844   6.877   5.221
 7673SOL    HW223919   1.754   6.791   5.327
 7674SOL     OW23920   3.328   5.279   3.694
 7674SOL    HW123921   3.392   5.218   3.740
 7674SOL    HW223922   3.370   5.316   3.612
 7675SOL     OW23923   3.706   6.686   3.329
 7675SOL    HW123924   3.681   6.719   3.238
 7675SOL    HW223925   3.773   6.613   3.321
 7676SOL     OW23926   3.068   3.068   4.491
 7676SOL    HW123927   3.140   3.009   4.456
 7676SOL    HW223928   3.040   3.037   4.581
 7677SOL     OW23929   0.525   6.290   0.112
 7677SOL    HW123930   0.556   6.195   0.115
 7677SOL    HW223931   0.425   6.293   0.113
 7678SOL     OW23932   3.320   1.041   5.298
 7678SOL    HW123933   3.328   0.960   5.355
 7678SOL    HW223934   3.411   1.077   5.278
 7679SOL     OW23935   2.967   5.654   3.828
 7679SOL    HW123936   3.042   5.701   3.875
 7679SOL    HW223937   2.932   5.581   3.887
 7680SOL     OW23938   1.380   6.517   3.979
 7680SOL    HW123939   1.369   6.616   3.986
 7680SOL    HW223940   1.433   6.484   4.058
 7681SOL     OW23941   2.099   1.844   5.492
 7681SOL    HW123942   2.099   1.941   5.518
 7681SOL    HW223943   2.012   1.821   5.448
 7682SOL     OW23944   3.318   0.274   1.921
 7682SOL    HW123945   3.305   0.239   2.013
 7682SOL    HW223946   3.262   0.356   1.908
 7683SOL     OW23947   1.319   4.134   4.431
 7683SOL    HW123948   1.284   4.179   4.348
 7683SOL    HW223949   1.248   4.073   4.467
 7684SOL     OW23950   4.989   3.688   1.439
 7684SOL    HW123951   4.917   3.679   1.507
 7684SOL    HW223952   5.024   3.597   1.416
 7685SOL     OW23953   2.434   0.150   0.230
 7685SOL    HW123954   2.440   0.231   0.172
 7685SOL    HW223955   2.520   0.098   0.224
 7686SOL     OW23956   6.117   0.394   4.332
 7686SOL    HW123957   6.025   0.432   4.321
 7686SOL    HW223958   6.184   0.465   4.310
 7687SOL     OW23959   5.804   3.661   5.601
 7687SOL    HW123960   5.844   3.619   5.519
 7687SOL    HW223961   5.720   3.709   5.576
 7688SOL     OW23962   6.569   3.420   0.445
 7688SOL    HW123963   6.630   3.370   0.506
 7688SOL    HW223964   6.481   3.373   0.439
 7689SOL     OW23965   5.494   0.165   2.736
 7689SOL    HW123966   5.437   0.237   2.775
 7689SOL    HW223967   5.450   0.126   2.656
 7690SOL     OW23968   6.264   4.613   2.365
 7690SOL    HW123969   6.333   4.652   2.425
 7690SOL    HW223970   6.195   4.566   2.419
 7691SOL     OW23971   5.179   2.973   4.310
 7691SOL    HW123972   5.261   2.980   4.367
 7691SOL    HW223973   5.204   2.936   4.220
 7692SOL     OW23974   2.210   6.743   2.350
 7692SOL    HW123975   2.166   6.731   2.261
 7692SOL    HW223976   2.293   6.687   2.354
 7693SOL     OW23977   2.427   2.276   1.149
 7693SOL    HW123978   2.438   2.359   1.095
 7693SOL    HW223979   2.516   2.241   1.175
 7694SOL     OW23980   4.240   2.454   1.395
 7694SOL    HW123981   4.249   2.477   1.298
 7694SOL    HW223982   4.144   2.435   1.416
 7695SOL     OW23983   5.081   6.720   4.395
 7695SOL    HW123984   5.157   6.658   4.408
 7695SOL    HW223985   5.100   6.782   4.319
 7696SOL     OW23986   2.311   1.216   5.553
 7696SOL    HW123987   2.285   1.156   5.476
 7696SOL    HW223988   2.290   1.170   5.639
 7697SOL     OW23989   5.872   0.233   3.036
 7697SOL    HW123990   5.805   0.298   3.070
 7697SOL    HW223991   5.840   0.140   3.054
 7698SOL     OW23992   5.835   2.192   1.419
 7698SOL    HW123993   5.805   2.099   1.399
 7698SOL    HW223994   5.766   2.258   1.390
 7699SOL     OW23995   3.763   6.143   6.378
 7699SOL    HW123996   3.730   6.165   6.286
 7699SOL    HW223997   3.723   6.206   6.444
 7700SOL     OW23998   6.477   4.916   1.709
 7700SOL    HW123999   6.381   4.935   1.727
 7700SOL    HW224000   6.533   4.979   1.762
 7701SOL     OW24001   3.087   1.839   6.432
 7701SOL    HW124002   3.051   1.746   6.418
 7701SOL    HW224003   3.011   1.902   6.448
 7702SOL     OW24004   6.292   6.053   5.848
 7702SOL    HW124005   6.307   5.955   5.863
 7702SOL    HW224006   6.220   6.065   5.779
 7703SOL     OW24007   0.075   6.259   6.838
 7703SOL    HW124008   0.055   6.351   6.806
 7703SOL    HW224009   0.171   6.255   6.868
 7704SOL     OW24010   1.573   2.334   5.058
 7704SOL    HW124011   1.487   2.365   5.099
 7704SOL    HW224012   1.572   2.353   4.960
 7705SOL     OW24013   0.906   4.474   0.368
 7705SOL    HW124014   0.979   4.470   0.436
 7705SOL    HW224015   0.820   4.500   0.413
 7706SOL     OW24016   3.176   3.976   2.237
 7706SOL    HW124017   3.241   3.905   2.207
 7706SOL    HW224018   3.088   3.933   2.259
 7707SOL     OW24019   6.800   5.607   5.725
 7707SOL    HW124020   6.788   5.640   5.631
 7707SOL    HW224021   6.897   5.589   5.741
 7708SOL     OW24022   0.608   0.140   4.069
 7708SOL    HW124023   0.644   0.100   3.985
 7708SOL    HW224024   0.678   0.137   4.140
 7709SOL     OW24025   6.433   4.402   0.935
 7709SOL    HW124026   6.481   4.462   0.999
 7709SOL    HW224027   6.488   4.320   0.920
 7710SOL     OW24028   6.196   3.283   2.778
 7710SOL    HW124029   6.101   3.290   2.808
 7710SOL    HW224030   6.199   3.260   2.681
 7711SOL     OW24031   1.059   4.355   3.255
 7711SOL    HW124032   1.109   4.438   3.280
 7711SOL    HW224033   1.032   4.305   3.338
 7712SOL     OW24034   0.802   4.538   4.382
 7712SOL    HW124035   0.870   4.506   4.315
 7712SOL    HW224036   0.849   4.573   4.463
 7713SOL     OW24037   0.846   5.807   0.098
 7713SOL    HW124038   0.871   5.870   0.024
 7713SOL    HW224039   0.891   5.719   0.084
 7714SOL     OW24040   5.648   1.596   4.975
 7714SOL    HW124041   5.641   1.542   4.891
 7714SOL    HW224042   5.609   1.545   5.051
 7715SOL     OW24043   3.994   3.517   6.488
 7715SOL    HW124044   3.952   3.427   6.489
 7715SOL    HW224045   4.016   3.543   6.394
 7716SOL     OW24046   1.867   1.190   0.102
 7716SOL    HW124047   1.954   1.225   0.066
 7716SOL    HW224048   1.844   1.239   0.186
 7717SOL     OW24049   0.505   1.899   6.220
 7717SOL    HW124050   0.507   1.800   6.237
 7717SOL    HW224051   0.492   1.948   6.306
 7718SOL     OW24052   0.310   3.716   3.321
 7718SOL    HW124053   0.245   3.699   3.247
 7718SOL    HW224054   0.262   3.711   3.409
 7719SOL     OW24055   2.254   6.512   5.242
 7719SOL    HW124056   2.297   6.526   5.331
 7719SOL    HW224057   2.171   6.566   5.235
 7720SOL     OW24058   4.704   1.171   6.352
 7720SOL    HW124059   4.759   1.239   6.303
 7720SOL    HW224060   4.643   1.125   6.287
 7721SOL     OW24061   5.822   5.192   2.707
 7721SOL    HW124062   5.865   5.110   2.669
 7721SOL    HW224063   5.812   5.260   2.635
 7722SOL     OW24064   0.323   6.033   4.647
 7722SOL    HW124065   0.344   6.082   4.562
 7722SOL    HW224066   0.388   5.958   4.660
 7723SOL     OW24067   3.782   4.512   6.545
 7723SOL    HW124068   3.807   4.488   6.639
 7723SOL    HW224069   3.864   4.532   6.492
 7724SOL     OW24070   1.322   4.659   0.273
 7724SOL    HW124071   1.225   4.636   0.264
 7724SOL    HW224072   1.331   4.744   0.325
 7725SOL     OW24073   5.520   3.460   4.656
 7725SOL    HW124074   5.517   3.378   4.598
 7725SOL    HW224075   5.443   3.458   4.720
 7726SOL     OW24076   2.087   2.989   0.702
 7726SOL    HW124077   2.152   2.914   0.715
 7726SOL    HW224078   2.094   3.051   0.780
 7727SOL     OW24079   5.482   0.509   3.446
 7727SOL    HW124080   5.480   0.428   3.505
 7727SOL    HW224081   5.390   0.548   3.441
 7728SOL     OW24082   2.118   3.189   5.631
 7728SOL    HW124083   2.164   3.262   5.581
 7728SOL    HW224084   2.021   3.187   5.605
 7729SOL     OW24085   0.340   0.916   2.651
 7729SOL    HW124086   0.296   0.934   2.739
 7729SOL    HW224087   0.310   0.827   2.617
 7730SOL     OW24088   6.190   3.496   6.400
 7730SOL    HW124089   6.128   3.444   6.459
 7730SOL    HW224090   6.194   3.453   6.309
 7731SOL     OW24091   6.999   0.418   6.159
 7731SOL    HW124092   0.046   0.444   6.093
 7731SOL    HW224093   0.018   0.378   6.240
 7732SOL     OW24094   4.087   1.187   0.099
 7732SOL    HW124095   4.121   1.223   0.013
 7732SOL    HW224096   3.998   1.144   0.084
 7733SOL     OW24097   5.508   6.426   1.640
 7733SOL    HW124098   5.472   6.478   1.562
 7733SOL    HW224099   5.563   6.486   1.698
 7734SOL     OW24100   3.977   3.882   3.391
 7734SOL    HW124101   3.908   3.953   3.378
 7734SOL    HW224102   3.935   3.792   3.376
 7735SOL     OW24103   0.680   5.814   0.684
 7735SOL    HW124104   0.602   5.876   0.677
 7735SOL    HW224105   0.715   5.813   0.777
 7736SOL     OW24106   1.799   1.705   0.962
 7736SOL    HW124107   1.750   1.761   0.895
 7736SOL    HW224108   1.749   1.705   1.048
 7737SOL     OW24109   4.894   4.827   6.915
 7737SOL    HW124110   4.950   4.823   6.833
 7737SOL    HW224111   4.839   4.744   6.922
 7738SOL     OW24112   1.423   1.084   5.754
 7738SOL    HW124113   1.370   1.134   5.686
 7738SOL    HW224114   1.516   1.122   5.758
 7739SOL     OW24115   0.993   3.176   6.216
 7739SOL    HW124116   0.897   3.203   6.206
 7739SOL    HW224117   1.029   3.148   6.128
 7740SOL     OW24118   2.237   0.822   4.061
 7740SOL    HW124119   2.296   0.899   4.035
 7740SOL    HW224120   2.287   0.761   4.123
 7741SOL     OW24121   6.275   4.317   6.104
 7741SOL    HW124122   6.341   4.365   6.162
 7741SOL    HW224123   6.184   4.324   6.145
 7742SOL     OW24124   4.741   2.753   3.927
 7742SOL    HW124125   4.733   2.660   3.963
 7742SOL    HW224126   4.695   2.758   3.838
 7743SOL     OW24127   3.294   1.064   5.954
 7743SOL    HW124128   3.377   1.113   5.980
 7743SOL    HW224129   3.280   1.072   5.855
 7744SOL     OW24130   0.025   6.460   4.588
 7744SOL    HW124131   6.981   6.482   4.657
 7744SOL    HW224132   0.114   6.446   4.632
 7745SOL     OW24133   2.904   0.145   0.470
 7745SOL    HW124134   2.835   0.195   0.522
 7745SOL    HW224135   2.893   0.047   0.485
 7746SOL     OW24136   6.995   6.168   0.857
 7746SOL    HW124137   0.040   6.130   0.918
 7746SOL    HW224138   6.948   6.094   0.809
 7747SOL     OW24139   6.906   5.836   1.154
 7747SOL    HW124140   6.929   5.847   1.057
 7747SOL    HW224141   6.955   5.757   1.190
 7748SOL     OW24142   4.475   0.972   5.743
 7748SOL    HW124143   4.428   0.926   5.819
 7748SOL    HW224144   4.436   0.941   5.656
 7749SOL     OW24145   3.323   3.445   2.768
 7749SOL    HW124146   3.379   3.381   2.714
 7749SOL    HW224147   3.364   3.536   2.765
 7750SOL     OW24148   5.383   4.293   6.236
 7750SOL    HW124149   5.377   4.347   6.320
 7750SOL    HW224150   5.316   4.219   6.239
 7751SOL     OW24151   0.572   1.390   4.748
 7751SOL    HW124152   0.522   1.303   4.739
 7751SOL    HW224153   0.508   1.466   4.737
 7752SOL     OW24154   5.625   4.188   6.199
 7752SOL    HW124155   5.538   4.237   6.205
 7752SOL    HW224156   5.618   4.101   6.247
 7753SOL     OW24157   2.641   0.893   4.965
 7753SOL    HW124158   2.626   0.975   4.910
 7753SOL    HW224159   2.730   0.899   5.011
 7754SOL     OW24160   6.589   1.387   0.618
 7754SOL    HW124161   6.639   1.402   0.703
 7754SOL    HW224162   6.589   1.290   0.596
 7755SOL     OW24163   1.617   6.215   5.296
 7755SOL    HW124164   1.621   6.138   5.360
 7755SOL    HW224165   1.522   6.243   5.283
 7756SOL     OW24166   3.624   6.508   2.684
 7756SOL    HW124167   3.691   6.470   2.748
 7756SOL    HW224168   3.547   6.445   2.675
 7757SOL     OW24169   3.481   1.275   5.727
 7757SOL    HW124170   3.425   1.207   5.681
 7757SOL    HW224171   3.480   1.360   5.674
 7758SOL     OW24172   2.569   1.501   6.246
 7758SOL    HW124173   2.566   1.574   6.178
 7758SOL    HW224174   2.476   1.468   6.264
 7759SOL     OW24175   2.544   0.079   4.546
 7759SOL    HW124176   2.524   0.150   4.478
 7759SOL    HW224177   2.470   0.076   4.613
 7760SOL     OW24178   5.102   1.696   2.629
 7760SOL    HW124179   5.037   1.770   2.613
 7760SOL    HW224180   5.164   1.722   2.703
 7761SOL     OW24181   4.840   1.064   0.086
 7761SOL    HW124182   4.816   1.018   0.000
 7761SOL    HW224183   4.915   1.128   0.069
 7762SOL     OW24184   1.791   1.963   0.312
 7762SOL    HW124185   1.717   1.940   0.248
 7762SOL    HW224186   1.803   1.888   0.377
 7763SOL     OW24187   2.203   2.699   0.667
 7763SOL    HW124188   2.296   2.725   0.643
 7763SOL    HW224189   2.200   2.667   0.762
 7764SOL     OW24190   3.255   3.317   1.940
 7764SOL    HW124191   3.218   3.227   1.960
 7764SOL    HW224192   3.216   3.352   1.855
 7765SOL     OW24193   0.202   1.607   2.114
 7765SOL    HW124194   0.271   1.552   2.160
 7765SOL    HW224195   0.111   1.569   2.132
 7766SOL     OW24196   6.778   3.287   0.263
 7766SOL    HW124197   6.687   3.324   0.284
 7766SOL    HW224198   6.818   3.249   0.346
 7767SOL     OW24199   6.209   3.770   5.097
 7767SOL    HW124200   6.306   3.790   5.112
 7767SOL    HW224201   6.172   3.721   5.175
 7768SOL     OW24202   3.941   5.145   1.533
 7768SOL    HW124203   3.941   5.099   1.622
 7768SOL    HW224204   4.000   5.225   1.536
 7769SOL     OW24205   4.798   2.018   3.393
 7769SOL    HW124206   4.888   2.004   3.434
 7769SOL    HW224207   4.740   2.069   3.457
 7770SOL     OW24208   3.107   6.321   1.634
 7770SOL    HW124209   3.171   6.298   1.561
 7770SOL    HW224210   3.153   6.313   1.722
 7771SOL     OW24211   2.332   0.690   4.285
 7771SOL    HW124212   2.408   0.681   4.349
 7771SOL    HW224213   2.276   0.768   4.311
 7772SOL     OW24214   5.393   0.758   5.628
 7772SOL    HW124215   5.453   0.836   5.611
 7772SOL    HW224216   5.307   0.791   5.667
 7773SOL     OW24217   4.358   4.355   6.098
 7773SOL    HW124218   4.289   4.347   6.026
 7773SOL    HW224219   4.315   4.339   6.187
 7774SOL     OW24220   4.354   1.446   0.379
 7774SOL    HW124221   4.421   1.490   0.439
 7774SOL    HW224222   4.398   1.370   0.331
 7775SOL     OW24223   1.508   6.235   1.903
 7775SOL    HW124224   1.525   6.279   1.991
 7775SOL    HW224225   1.488   6.138   1.918
 7776SOL     OW24226   3.013   4.457   0.631
 7776SOL    HW124227   3.039   4.364   0.658
 7776SOL    HW224228   3.051   4.523   0.696
 7777SOL     OW24229   0.439   0.209   6.923
 7777SOL    HW124230   0.362   0.203   6.859
 7777SOL    HW224231   0.515   0.153   6.889
 7778SOL     OW24232   5.206   2.566   1.990
 7778SOL    HW124233   5.116   2.540   1.954
 7778SOL    HW224234   5.259   2.610   1.918
 7779SOL     OW24235   4.239   2.942   0.435
 7779SOL    HW124236   4.188   3.024   0.410
 7779SOL    HW224237   4.228   2.925   0.533
 7780SOL     OW24238   1.905   0.288   4.040
 7780SOL    HW124239   1.812   0.318   4.019
 7780SOL    HW224240   1.953   0.361   4.089
 7781SOL     OW24241   2.160   4.071   5.651
 7781SOL    HW124242   2.068   4.044   5.622
 7781SOL    HW224243   2.157   4.159   5.697
 7782SOL     OW24244   4.903   4.609   0.299
 7782SOL    HW124245   5.000   4.598   0.323
 7782SOL    HW224246   4.887   4.703   0.270
 7783SOL     OW24247   3.312   5.828   6.601
 7783SOL    HW124248   3.316   5.917   6.554
 7783SOL    HW224249   3.381   5.826   6.673
 7784SOL     OW24250   6.295   3.602   0.378
 7784SOL    HW124251   6.226   3.536   0.350
 7784SOL    HW224252   6.326   3.580   0.471
 7785SOL     OW24253   1.389   6.381   6.005
 7785SOL    HW124254   1.436   6.335   6.080
 7785SOL    HW224255   1.391   6.480   6.020
 7786SOL     OW24256   3.859   4.258   5.216
 7786SOL    HW124257   3.881   4.178   5.272
 7786SOL    HW224258   3.764   4.251   5.185
 7787SOL     OW24259   3.196   1.966   5.336
 7787SOL    HW124260   3.113   2.003   5.378
 7787SOL    HW224261   3.181   1.958   5.237
 7788SOL     OW24262   6.730   2.837   1.042
 7788SOL    HW124263   6.711   2.934   1.025
 7788SOL    HW224264   6.715   2.816   1.138
 7789SOL     OW24265   1.038   0.249   1.892
 7789SOL    HW124266   1.094   0.167   1.899
 7789SOL    HW224267   0.960   0.231   1.831
 7790SOL     OW24268   6.903   3.581   2.371
 7790SOL    HW124269   6.884   3.623   2.459
 7790SOL    HW224270   6.952   3.646   2.313
 7791SOL     OW24271   6.580   5.653   5.929
 7791SOL    HW124272   6.650   5.629   5.862
 7791SOL    HW224273   6.576   5.582   5.999
 7792SOL     OW24274   1.774   5.964   6.496
 7792SOL    HW124275   1.739   6.040   6.441
 7792SOL    HW224276   1.705   5.892   6.502
 7793SOL     OW24277   2.597   0.668   6.582
 7793SOL    HW124278   2.652   0.652   6.501
 7793SOL    HW224279   2.500   0.655   6.561
 7794SOL     OW24280   4.924   4.985   2.696
 7794SOL    HW124281   4.863   4.960   2.771
 7794SOL    HW224282   4.977   4.905   2.668
 7795SOL     OW24283   1.688   3.785   6.301
 7795SOL    HW124284   1.757   3.815   6.367
 7795SOL    HW224285   1.652   3.865   6.252
 7796SOL     OW24286   3.962   3.570   4.123
 7796SOL    HW124287   3.984   3.571   4.026
 7796SOL    HW224288   3.900   3.645   4.144
 7797SOL     OW24289   1.048   6.010   3.899
 7797SOL    HW124290   1.067   6.034   3.804
 7797SOL    HW224291   0.966   6.058   3.930
 7798SOL     OW24292   5.009   5.218   6.073
 7798SOL    HW124293   5.001   5.120   6.055
 7798SOL    HW224294   4.931   5.265   6.033
 7799SOL     OW24295   6.009   5.688   1.423
 7799SOL    HW124296   5.918   5.717   1.455
 7799SOL    HW224297   6.037   5.605   1.471
 7800SOL     OW24298   0.412   5.994   2.677
 7800SOL    HW124299   0.491   5.943   2.712
 7800SOL    HW224300   0.438   6.089   2.660
 7801SOL     OW24301   4.544   2.357   5.361
 7801SOL    HW124302   4.534   2.310   5.449
 7801SOL    HW224303   4.618   2.424   5.367
 7802SOL     OW24304   6.035   2.313   6.701
 7802SOL    HW124305   6.027   2.407   6.733
 7802SOL    HW224306   5.992   2.251   6.767
 7803SOL     OW24307   2.887   3.386   6.093
 7803SOL    HW124308   2.904   3.341   6.006
 7803SOL    HW224309   2.793   3.368   6.122
 7804SOL     OW24310   4.904   0.938   5.905
 7804SOL    HW124311   4.951   0.916   5.991
 7804SOL    HW224312   4.880   1.035   5.904
 7805SOL     OW24313   5.927   3.315   1.823
 7805SOL    HW124314   5.967   3.407   1.826
 7805SOL    HW224315   5.862   3.305   1.899
 7806SOL     OW24316   5.257   2.376   0.595
 7806SOL    HW124317   5.172   2.412   0.633
 7806SOL    HW224318   5.243   2.353   0.498
 7807SOL     OW24319   0.665   3.831   6.982
 7807SOL    HW124320   0.655   3.902   6.913
 7807SOL    HW224321   0.636   3.866   0.047
 7808SOL     OW24322   0.207   1.538   4.955
 7808SOL    HW124323   0.178   1.621   4.908
 7808SOL    HW224324   0.163   1.458   4.913
 7809SOL     OW24325   0.902   5.650   5.638
 7809SOL    HW124326   0.839   5.695   5.702
 7809SOL    HW224327   0.849   5.612   5.562
 7810SOL     OW24328   3.244   1.328   6.928
 7810SOL    HW124329   3.269   1.318   0.001
 7810SOL    HW224330   3.324   1.312   6.871
 7811SOL     OW24331   6.312   4.470   4.903
 7811SOL    HW124332   6.280   4.540   4.839
 7811SOL    HW224333   6.398   4.500   4.944
 7812SOL     OW24334   0.748   2.176   3.812
 7812SOL    HW124335   0.824   2.132   3.765
 7812SOL    HW224336   0.707   2.113   3.877
 7813SOL     OW24337   5.847   1.264   1.419
 7813SOL    HW124338   5.857   1.254   1.320
 7813SOL    HW224339   5.936   1.253   1.462
 7814SOL     OW24340   1.779   2.877   3.522
 7814SOL    HW124341   1.727   2.935   3.460
 7814SOL    HW224342   1.737   2.878   3.613
 7815SOL     OW24343   6.940   2.131   5.136
 7815SOL    HW124344   0.005   2.175   5.130
 7815SOL    HW224345   6.935   2.078   5.221
 7816SOL     OW24346   0.234   4.397   4.744
 7816SOL    HW124347   0.173   4.463   4.701
 7816SOL    HW224348   0.312   4.444   4.785
 7817SOL     OW24349   5.553   3.142   5.549
 7817SOL    HW124350   5.531   3.145   5.647
 7817SOL    HW224351   5.558   3.047   5.520
 7818SOL     OW24352   5.844   2.640   3.520
 7818SOL    HW124353   5.867   2.546   3.548
 7818SOL    HW224354   5.745   2.654   3.531
 7819SOL     OW24355   1.047   1.053   0.750
 7819SOL    HW124356   1.120   1.025   0.813
 7819SOL    HW224357   0.967   0.996   0.765
 7820SOL     OW24358   2.981   6.455   5.910
 7820SOL    HW124359   2.912   6.486   5.976
 7820SOL    HW224360   3.062   6.513   5.917
 7821SOL     OW24361   3.272   6.250   0.832
 7821SOL    HW124362   3.224   6.237   0.745
 7821SOL    HW224363   3.221   6.314   0.889
 7822SOL     OW24364   0.942   6.465   5.236
 7822SOL    HW124365   0.867   6.525   5.206
 7822SOL    HW224366   0.968   6.404   5.161
 7823SOL     OW24367   2.277   3.399   5.503
 7823SOL    HW124368   2.309   3.370   5.412
 7823SOL    HW224369   2.257   3.497   5.500
 7824SOL     OW24370   0.839   3.454   5.614
 7824SOL    HW124371   0.916   3.514   5.634
 7824SOL    HW224372   0.826   3.390   5.691
 7825SOL     OW24373   2.312   0.956   0.261
 7825SOL    HW124374   2.310   1.043   0.309
 7825SOL    HW224375   2.363   0.966   0.175
 7826SOL     OW24376   0.541   4.073   5.987
 7826SOL    HW124377   0.448   4.063   6.021
 7826SOL    HW224378   0.571   3.987   5.945
 7827SOL     OW24379   5.994   5.140   3.497
 7827SOL    HW124380   6.053   5.175   3.570
 7827SOL    HW224381   5.899   5.141   3.527
 7828SOL     OW24382   1.090   6.032   5.715
 7828SOL    HW124383   1.147   6.066   5.789
 7828SOL    HW224384   1.089   6.099   5.640
 7829SOL     OW24385   4.825   4.777   0.757
 7829SOL    HW124386   4.753   4.761   0.689
 7829SOL    HW224387   4.914   4.768   0.713
 7830SOL     OW24388   2.120   5.119   4.339
 7830SOL    HW124389   2.046   5.175   4.301
 7830SOL    HW224390   2.084   5.028   4.360
 7831SOL     OW24391   1.768   0.435   6.528
 7831SOL    HW124392   1.707   0.471   6.457
 7831SOL    HW224393   1.729   0.456   6.618
 7832SOL     OW24394   0.224   0.972   5.225
 7832SOL    HW124395   0.167   1.050   5.198
 7832SOL    HW224396   0.244   0.916   5.144
 7833SOL     OW24397   0.634   0.265   2.771
 7833SOL    HW124398   0.593   0.320   2.844
 7833SOL    HW224399   0.665   0.178   2.809
 7834SOL     OW24400   0.517   3.478   5.239
 7834SOL    HW124401   0.480   3.564   5.205
 7834SOL    HW224402   0.568   3.494   5.323
 7835SOL     OW24403   3.239   2.904   5.509
 7835SOL    HW124404   3.178   2.952   5.445
 7835SOL    HW224405   3.302   2.846   5.458
 7836SOL     OW24406   2.972   3.703   4.973
 7836SOL    HW124407   3.050   3.641   4.977
 7836SOL    HW224408   2.905   3.669   4.907
 7837SOL     OW24409   0.676   5.494   6.936
 7837SOL    HW124410   0.767   5.473   6.972
 7837SOL    HW224411   0.626   5.550   7.002
 7838SOL     OW24412   4.210   4.843   1.053
 7838SOL    HW124413   4.114   4.859   1.075
 7838SOL    HW224414   4.240   4.757   1.096
 7839SOL     OW24415   6.185   3.824   4.547
 7839SOL    HW124416   6.118   3.778   4.606
 7839SOL    HW224417   6.139   3.862   4.467
 7840SOL     OW24418   2.327   2.209   3.352
 7840SOL    HW124419   2.347   2.258   3.267
 7840SOL    HW224420   2.348   2.112   3.339
 7841SOL     OW24421   4.627   1.969   5.639
 7841SOL    HW124422   4.689   1.967   5.717
 7841SOL    HW224423   4.571   1.886   5.638
 7842SOL     OW24424   0.950   0.268   0.872
 7842SOL    HW124425   1.011   0.331   0.823
 7842SOL    HW224426   0.911   0.202   0.808
 7843SOL     OW24427   6.791   6.428   2.090
 7843SOL    HW124428   6.857   6.356   2.113
 7843SOL    HW224429   6.786   6.493   2.165
 7844SOL     OW24430   3.506   0.058   2.401
 7844SOL    HW124431   3.464   0.021   2.318
 7844SOL    HW224432   3.488   7.020   2.478
 7845SOL     OW24433   0.089   3.408   1.892
 7845SOL    HW124434   0.100   3.457   1.806
 7845SOL    HW224435   0.031   3.461   1.954
 7846SOL     OW24436   0.888   1.982   0.414
 7846SOL    HW124437   0.895   1.937   0.503
 7846SOL    HW224438   0.851   1.917   0.347
 7847SOL     OW24439   5.548   3.732   5.933
 7847SOL    HW124440   5.471   3.743   5.996
 7847SOL    HW224441   5.619   3.797   5.956
 7848SOL     OW24442   5.175   4.917   0.328
 7848SOL    HW124443   5.107   4.978   0.288
 7848SOL    HW224444   5.266   4.953   0.311
 7849SOL     OW24445   4.678   5.192   6.588
 7849SOL    HW124446   4.703   5.223   6.496
 7849SOL    HW224447   4.654   5.095   6.585
 7850SOL     OW24448   6.725   0.759   3.462
 7850SOL    HW124449   6.775   0.730   3.545
 7850SOL    HW224450   6.682   0.679   3.420
 7851SOL     OW24451   0.554   4.191   0.467
 7851SOL    HW124452   0.515   4.262   0.525
 7851SOL    HW224453   0.526   4.206   0.372
 7852SOL     OW24454   1.532   3.544   5.672
 7852SOL    HW124455   1.618   3.529   5.720
 7852SOL    HW224456   1.491   3.456   5.648
 7853SOL     OW24457   4.337   3.262   1.738
 7853SOL    HW124458   4.262   3.211   1.781
 7853SOL    HW224459   4.353   3.347   1.790
 7854SOL     OW24460   4.169   1.203   1.241
 7854SOL    HW124461   4.176   1.265   1.163
 7854SOL    HW224462   4.155   1.110   1.208
 7855SOL     OW24463   4.879   6.488   3.524
 7855SOL    HW124464   4.937   6.456   3.449
 7855SOL    HW224465   4.802   6.539   3.487
 7856SOL     OW24466   2.017   6.568   6.821
 7856SOL    HW124467   1.999   6.532   6.912
 7856SOL    HW224468   2.067   6.500   6.767
 7857SOL     OW24469   6.912   5.191   0.546
 7857SOL    HW124470   6.863   5.105   0.533
 7857SOL    HW224471   7.005   5.183   0.512
 7858SOL     OW24472   0.467   4.309   6.480
 7858SOL    HW124473   0.382   4.346   6.440
 7858SOL    HW224474   0.464   4.209   6.476
 7859SOL     OW24475   4.774   2.351   1.724
 7859SOL    HW124476   4.859   2.402   1.733
 7859SOL    HW224477   4.787   2.274   1.662
 7860SOL     OW24478   2.468   1.839   2.886
 7860SOL    HW124479   2.530   1.848   2.808
 7860SOL    HW224480   2.481   1.916   2.948
 7861SOL     OW24481   1.931   5.758   0.480
 7861SOL    HW124482   2.011   5.702   0.458
 7861SOL    HW224483   1.930   5.840   0.423
 7862SOL     OW24484   1.067   6.769   6.383
 7862SOL    HW124485   1.063   6.864   6.351
 7862SOL    HW224486   0.974   6.733   6.391
 7863SOL     OW24487   0.505   4.241   3.810
 7863SOL    HW124488   0.492   4.206   3.717
 7863SOL    HW224489   0.477   4.337   3.814
 7864SOL     OW24490   3.163   5.347   4.681
 7864SOL    HW124491   3.082   5.376   4.631
 7864SOL    HW224492   3.141   5.337   4.778
 7865SOL     OW24493   6.409   5.758   3.437
 7865SOL    HW124494   6.397   5.696   3.359
 7865SOL    HW224495   6.453   5.709   3.512
 7866SOL     OW24496   0.938   1.082   5.334
 7866SOL    HW124497   0.885   1.118   5.411
 7866SOL    HW224498   0.941   0.982   5.340
 7867SOL     OW24499   4.589   5.992   2.711
 7867SOL    HW124500   4.584   6.082   2.755
 7867SOL    HW224501   4.619   6.002   2.616
 7868SOL     OW24502   4.413   6.316   1.473
 7868SOL    HW124503   4.417   6.411   1.502
 7868SOL    HW224504   4.321   6.295   1.440
 7869SOL     OW24505   5.832   5.369   0.375
 7869SOL    HW124506   5.833   5.467   0.353
 7869SOL    HW224507   5.738   5.337   0.383
 7870SOL     OW24508   6.555   0.554   3.376
 7870SOL    HW124509   6.456   0.552   3.372
 7870SOL    HW224510   6.593   0.496   3.304
 7871SOL     OW24511   4.446   0.539   0.536
 7871SOL    HW124512   4.400   0.574   0.617
 7871SOL    HW224513   4.528   0.593   0.518
 7872SOL     OW24514   6.758   5.412   4.128
 7872SOL    HW124515   6.704   5.434   4.209
 7872SOL    HW224516   6.769   5.313   4.121
 7873SOL     OW24517   4.889   2.262   6.464
 7873SOL    HW124518   4.956   2.328   6.498
 7873SOL    HW224519   4.798   2.285   6.499
 7874SOL     OW24520   5.904   2.527   0.615
 7874SOL    HW124521   5.933   2.447   0.668
 7874SOL    HW224522   5.804   2.526   0.604
 7875SOL     OW24523   6.559   4.864   0.157
 7875SOL    HW124524   6.551   4.809   0.240
 7875SOL    HW224525   6.472   4.865   0.109
 7876SOL     OW24526   1.274   6.674   2.644
 7876SOL    HW124527   1.285   6.704   2.739
 7876SOL    HW224528   1.209   6.599   2.640
 7877SOL     OW24529   0.660   3.121   2.030
 7877SOL    HW124530   0.685   3.033   1.990
 7877SOL    HW224531   0.682   3.195   1.967
 7878SOL     OW24532   3.912   0.358   2.303
 7878SOL    HW124533   3.977   0.353   2.228
 7878SOL    HW224534   3.954   0.405   2.381
 7879SOL     OW24535   2.520   6.024   1.779
 7879SOL    HW124536   2.593   6.035   1.846
 7879SOL    HW224537   2.445   6.085   1.801
 7880SOL     OW24538   1.397   5.258   2.745
 7880SOL    HW124539   1.400   5.329   2.675
 7880SOL    HW224540   1.474   5.195   2.732
 7881SOL     OW24541   4.853   3.111   2.941
 7881SOL    HW124542   4.759   3.092   2.911
 7881SOL    HW224543   4.903   3.025   2.949
 7882SOL     OW24544   6.914   2.435   0.146
 7882SOL    HW124545   6.924   2.438   0.046
 7882SOL    HW224546   6.817   2.439   0.169
 7883SOL     OW24547   0.213   6.932   4.600
 7883SOL    HW124548   0.250   7.022   4.624
 7883SOL    HW224549   0.136   6.944   4.538
 7884SOL     OW24550   1.525   2.732   3.975
 7884SOL    HW124551   1.476   2.782   4.046
 7884SOL    HW224552   1.581   2.795   3.922
 7885SOL     OW24553   6.491   6.004   6.948
 7885SOL    HW124554   6.490   6.028   6.851
 7885SOL    HW224555   6.523   5.909   6.959
 7886SOL     OW24556   4.858   4.003   0.411
 7886SOL    HW124557   4.890   3.920   0.366
 7886SOL    HW224558   4.798   3.979   0.487
 7887SOL     OW24559   4.636   1.942   6.608
 7887SOL    HW124560   4.545   1.908   6.586
 7887SOL    HW224561   4.663   1.911   6.699
 7888SOL     OW24562   4.124   5.707   3.944
 7888SOL    HW124563   4.131   5.803   3.918
 7888SOL    HW224564   4.215   5.666   3.947
 7889SOL     OW24565   6.259   4.470   3.890
 7889SOL    HW124566   6.331   4.500   3.826
 7889SOL    HW224567   6.235   4.546   3.950
 7890SOL     OW24568   2.260   4.064   2.946
 7890SOL    HW124569   2.256   3.967   2.923
 7890SOL    HW224570   2.316   4.112   2.878
 7891SOL     OW24571   0.158   4.167   2.657
 7891SOL    HW124572   0.083   4.177   2.722
 7891SOL    HW224573   0.126   4.186   2.564
 7892SOL     OW24574   2.271   2.417   4.449
 7892SOL    HW124575   2.251   2.435   4.353
 7892SOL    HW224576   2.323   2.332   4.457
 7893SOL     OW24577   5.433   5.946   1.367
 7893SOL    HW124578   5.339   5.973   1.387
 7893SOL    HW224579   5.474   5.903   1.447
 7894SOL     OW24580   3.102   0.247   1.114
 7894SOL    HW124581   3.168   0.194   1.169
 7894SOL    HW224582   3.011   0.207   1.126
 7895SOL     OW24583   1.043   1.720   4.206
 7895SOL    HW124584   1.053   1.748   4.301
 7895SOL    HW224585   1.037   1.620   4.202
 7896SOL     OW24586   4.093   2.573   6.505
 7896SOL    HW124587   4.012   2.613   6.547
 7896SOL    HW224588   4.130   2.637   6.438
 7897SOL     OW24589   3.444   3.350   0.683
 7897SOL    HW124590   3.408   3.285   0.616
 7897SOL    HW224591   3.396   3.336   0.770
 7898SOL     OW24592   4.877   1.208   4.600
 7898SOL    HW124593   4.833   1.197   4.511
 7898SOL    HW224594   4.875   1.305   4.627
 7899SOL     OW24595   4.407   0.841   1.532
 7899SOL    HW124596   4.320   0.868   1.573
 7899SOL    HW224597   4.478   0.906   1.556
 7900SOL     OW24598   0.283   5.600   1.620
 7900SOL    HW124599   0.255   5.681   1.568
 7900SOL    HW224600   0.361   5.622   1.677
 7901SOL     OW24601   5.953   4.661   1.043
 7901SOL    HW124602   5.953   4.724   0.965
 7901SOL    HW224603   6.042   4.663   1.087
 7902SOL     OW24604   4.790   4.897   6.399
 7902SOL    HW124605   4.800   4.798   6.406
 7902SOL    HW224606   4.719   4.919   6.333
 7903SOL     OW24607   0.481   2.666   1.985
 7903SOL    HW124608   0.553   2.651   2.053
 7903SOL    HW224609   0.400   2.612   2.010
 7904SOL     OW24610   5.257   1.707   3.246
 7904SOL    HW124611   5.344   1.662   3.262
 7904SOL    HW224612   5.182   1.642   3.262
 7905SOL     OW24613   2.239   2.100   1.746
 7905SOL    HW124614   2.260   2.096   1.648
 7905SOL    HW224615   2.302   2.040   1.796
 7906SOL     OW24616   1.709   4.370   0.089
 7906SOL    HW124617   1.612   4.386   0.109
 7906SOL    HW224618   1.721   4.354   7.015
 7907SOL     OW24619   0.343   2.688   2.604
 7907SOL    HW124620   0.336   2.754   2.678
 7907SOL    HW224621   0.336   2.595   2.640
 7908SOL     OW24622   0.382   1.175   3.079
 7908SOL    HW124623   0.398   1.084   3.040
 7908SOL    HW224624   0.373   1.242   3.006
 7909SOL     OW24625   4.081   6.238   5.293
 7909SOL    HW124626   4.020   6.314   5.317
 7909SOL    HW224627   4.046   6.192   5.212
 7910SOL     OW24628   6.107   3.119   6.290
 7910SOL    HW124629   6.122   3.077   6.380
 7910SOL    HW224630   6.174   3.192   6.276
 7911SOL     OW24631   6.758   6.070   6.163
 7911SOL    HW124632   6.735   6.166   6.144
 7911SOL    HW224633   6.742   6.016   6.080
 7912SOL     OW24634   0.058   5.578   4.987
 7912SOL    HW124635   0.093   5.635   4.913
 7912SOL    HW224636   0.132   5.557   5.052
 7913SOL     OW24637   1.769   6.341   6.708
 7913SOL    HW124638   1.859   6.353   6.666
 7913SOL    HW224639   1.706   6.409   6.671
 7914SOL     OW24640   5.958   4.508   0.715
 7914SOL    HW124641   5.906   4.587   0.749
 7914SOL    HW224642   6.048   4.506   0.758
 7915SOL     OW24643   2.770   1.516   2.897
 7915SOL    HW124644   2.773   1.609   2.934
 7915SOL    HW224645   2.714   1.458   2.956
 7916SOL     OW24646   3.901   3.389   4.962
 7916SOL    HW124647   3.946   3.333   4.893
 7916SOL    HW224648   3.924   3.354   5.053
 7917SOL     OW24649   3.797   4.085   3.428
 7917SOL    HW124650   3.715   4.131   3.462
 7917SOL    HW224651   3.863   4.076   3.503
 7918SOL     OW24652   6.349   1.861   1.764
 7918SOL    HW124653   6.342   1.792   1.836
 7918SOL    HW224654   6.310   1.947   1.796
 7919SOL     OW24655   5.372   3.884   2.647
 7919SOL    HW124656   5.442   3.832   2.697
 7919SOL    HW224657   5.308   3.925   2.712
 7920SOL     OW24658   6.919   6.579   0.880
 7920SOL    HW124659   6.837   6.524   0.895
 7920SOL    HW224660   6.997   6.518   0.863
 7921SOL     OW24661   3.504   5.008   2.016
 7921SOL    HW124662   3.568   4.933   1.998
 7921SOL    HW224663   3.530   5.053   2.102
 7922SOL     OW24664   0.887   3.887   4.485
 7922SOL    HW124665   0.821   3.943   4.434
 7922SOL    HW224666   0.854   3.793   4.490
 7923SOL     OW24667   1.931   3.023   2.946
 7923SOL    HW124668   1.991   3.089   2.990
 7923SOL    HW224669   1.906   3.055   2.855
 7924SOL     OW24670   2.418   1.661   3.394
 7924SOL    HW124671   2.476   1.715   3.455
 7924SOL    HW224672   2.442   1.564   3.403
 7925SOL     OW24673   1.266   1.441   0.184
 7925SOL    HW124674   1.276   1.540   0.177
 7925SOL    HW224675   1.173   1.419   0.215
 7926SOL     OW24676   3.349   0.828   1.736
 7926SOL    HW124677   3.425   0.890   1.757
 7926SOL    HW224678   3.281   0.876   1.682
 7927SOL     OW24679   4.716   5.438   4.560
 7927SOL    HW124680   4.632   5.442   4.615
 7927SOL    HW224681   4.692   5.440   4.463
 7928SOL     OW24682   0.587   3.756   0.955
 7928SOL    HW124683   0.549   3.753   0.863
 7928SOL    HW224684   0.683   3.782   0.952
 7929SOL     OW24685   3.605   4.222   5.108
 7929SOL    HW124686   3.633   4.289   5.039
 7929SOL    HW224687   3.612   4.130   5.069
 7930SOL     OW24688   3.784   6.883   2.225
 7930SOL    HW124689   3.707   6.828   2.190
 7930SOL    HW224690   3.788   6.970   2.176
 7931SOL     OW24691   2.639   3.246   5.728
 7931SOL    HW124692   2.620   3.344   5.731
 7931SOL    HW224693   2.601   3.207   5.645
 7932SOL     OW24694   3.261   1.497   0.695
 7932SOL    HW124695   3.235   1.511   0.599
 7932SOL    HW224696   3.189   1.533   0.754
 7933SOL     OW24697   1.706   1.176   6.121
 7933SOL    HW124698   1.634   1.145   6.060
 7933SOL    HW224699   1.676   1.167   6.216
 7934SOL     OW24700   4.591   2.318   6.050
 7934SOL    HW124701   4.530   2.311   6.130
 7934SOL    HW224702   4.625   2.411   6.042
 7935SOL     OW24703   4.733   5.292   2.376
 7935SOL    HW124704   4.725   5.294   2.276
 7935SOL    HW224705   4.799   5.221   2.403
 7936SOL     OW24706   4.454   6.006   1.987
 7936SOL    HW124707   4.534   6.020   2.045
 7936SOL    HW224708   4.372   5.998   2.045
 7937SOL     OW24709   5.650   1.618   6.179
 7937SOL    HW124710   5.600   1.589   6.261
 7937SOL    HW224711   5.734   1.564   6.170
 7938SOL     OW24712   6.213   4.807   4.167
 7938SOL    HW124713   6.221   4.898   4.127
 7938SOL    HW224714   6.164   4.747   4.103
 7939SOL     OW24715   6.539   6.093   3.762
 7939SOL    HW124716   6.525   6.036   3.843
 7939SOL    HW224717   6.495   6.182   3.776
 7940SOL     OW24718   1.966   6.014   0.352
 7940SOL    HW124719   2.061   6.046   0.355
 7940SOL    HW224720   1.908   6.075   0.406
 7941SOL     OW24721   1.419   0.405   0.923
 7941SOL    HW124722   1.444   0.473   0.853
 7941SOL    HW224723   1.417   0.315   0.881
 7942SOL     OW24724   1.021   6.469   1.004
 7942SOL    HW124725   1.021   6.563   1.039
 7942SOL    HW224726   1.001   6.469   0.906
 7943SOL     OW24727   6.272   2.055   6.189
 7943SOL    HW124728   6.186   2.091   6.153
 7943SOL    HW224729   6.342   2.126   6.187
 7944SOL     OW24730   6.119   4.210   2.212
 7944SOL    HW124731   6.142   4.184   2.119
 7944SOL    HW224732   6.061   4.140   2.254
 7945SOL     OW24733   5.697   6.705   0.494
 7945SOL    HW124734   5.638   6.672   0.567
 7945SOL    HW224735   5.778   6.646   0.488
 7946SOL     OW24736   2.096   1.672   5.176
 7946SOL    HW124737   2.005   1.690   5.215
 7946SOL    HW224738   2.162   1.737   5.215
 7947SOL     OW24739   4.328   5.434   6.444
 7947SOL    HW124740   4.356   5.475   6.530
 7947SOL    HW224741   4.288   5.344   6.461
 7948SOL     OW24742   1.333   5.007   4.714
 7948SOL    HW124743   1.326   5.056   4.627
 7948SOL    HW224744   1.264   5.043   4.778
 7949SOL     OW24745   6.618   3.353   4.202
 7949SOL    HW124746   6.589   3.378   4.294
 7949SOL    HW224747   6.539   3.321   4.150
 7950SOL     OW24748   2.826   5.731   3.590
 7950SOL    HW124749   2.865   5.694   3.674
 7950SOL    HW224750   2.889   5.796   3.549
 7951SOL     OW24751   2.345   3.358   0.800
 7951SOL    HW124752   2.391   3.340   0.713
 7951SOL    HW224753   2.375   3.446   0.836
 7952SOL     OW24754   6.266   3.670   0.868
 7952SOL    HW124755   6.188   3.732   0.867
 7952SOL    HW224756   6.343   3.712   0.819
 7953SOL     OW24757   2.082   4.234   1.500
 7953SOL    HW124758   2.085   4.269   1.406
 7953SOL    HW224759   2.044   4.141   1.500
 7954SOL     OW24760   5.952   5.479   4.150
 7954SOL    HW124761   5.903   5.545   4.093
 7954SOL    HW224762   6.045   5.511   4.165
 7955SOL     OW24763   1.760   6.244   6.365
 7955SOL    HW124764   1.828   6.283   6.428
 7955SOL    HW224765   1.676   6.223   6.416
 7956SOL     OW24766   5.437   6.026   3.240
 7956SOL    HW124767   5.438   6.077   3.154
 7956SOL    HW224768   5.415   5.930   3.222
 7957SOL     OW24769   1.565   3.113   0.859
 7957SOL    HW124770   1.579   3.020   0.892
 7957SOL    HW224771   1.561   3.113   0.759
 7958SOL     OW24772   2.048   5.520   3.086
 7958SOL    HW124773   1.995   5.435   3.086
 7958SOL    HW224774   2.050   5.558   3.179
 7959SOL     OW24775   4.377   5.018   1.360
 7959SOL    HW124776   4.336   5.022   1.452
 7959SOL    HW224777   4.425   4.931   1.349
 7960SOL     OW24778   1.829   2.581   1.074
 7960SOL    HW124779   1.752   2.543   1.023
 7960SOL    HW224780   1.882   2.507   1.115
 7961SOL     OW24781   1.449   6.299   0.210
 7961SOL    HW124782   1.431   6.338   0.301
 7961SOL    HW224783   1.527   6.345   0.169
 7962SOL     OW24784   1.779   6.630   2.329
 7962SOL    HW124785   1.719   6.682   2.269
 7962SOL    HW224786   1.766   6.659   2.424
 7963SOL     OW24787   0.116   6.182   6.270
 7963SOL    HW124788   0.079   6.139   6.188
 7963SOL    HW224789   0.123   6.281   6.256
 7964SOL     OW24790   6.064   5.785   3.683
 7964SOL    HW124791   5.993   5.784   3.754
 7964SOL    HW224792   6.076   5.693   3.647
 7965SOL     OW24793   4.158   2.004   1.043
 7965SOL    HW124794   4.170   1.941   1.120
 7965SOL    HW224795   4.140   1.951   0.960
 7966SOL     OW24796   0.010   1.464   4.480
 7966SOL    HW124797   0.109   1.474   4.465
 7966SOL    HW224798   7.014   1.369   4.505
 7967SOL     OW24799   2.031   0.632   3.575
 7967SOL    HW124800   2.092   0.578   3.517
 7967SOL    HW224801   1.963   0.572   3.617
 7968SOL     OW24802   1.856   1.006   0.390
 7968SOL    HW124803   1.931   0.992   0.324
 7968SOL    HW224804   1.832   1.103   0.391
 7969SOL     OW24805   4.003   2.191   3.440
 7969SOL    HW124806   3.976   2.155   3.351
 7969SOL    HW224807   4.075   2.259   3.428
 7970SOL     OW24808   0.359   4.727   3.207
 7970SOL    HW124809   0.277   4.693   3.254
 7970SOL    HW224810   0.393   4.657   3.145
 7971SOL     OW24811   3.579   1.980   2.680
 7971SOL    HW124812   3.599   2.021   2.591
 7971SOL    HW224813   3.502   2.029   2.722
 7972SOL     OW24814   5.432   5.685   1.254
 7972SOL    HW124815   5.421   5.748   1.330
 7972SOL    HW224816   5.359   5.700   1.187
 7973SOL     OW24817   5.501   1.984   2.778
 7973SOL    HW124818   5.566   1.921   2.736
 7973SOL    HW224819   5.467   2.048   2.709
 7974SOL     OW24820   4.416   5.725   4.571
 7974SOL    HW124821   4.342   5.782   4.607
 7974SOL    HW224822   4.502   5.775   4.575
 7975SOL     OW24823   1.890   1.414   2.201
 7975SOL    HW124824   1.847   1.419   2.110
 7975SOL    HW224825   1.989   1.418   2.191
 7976SOL     OW24826   0.322   6.808   6.057
 7976SOL    HW124827   0.384   6.879   6.088
 7976SOL    HW224828   0.235   6.816   6.105
 7977SOL     OW24829   5.623   5.824   1.117
 7977SOL    HW124830   5.542   5.774   1.148
 7977SOL    HW224831   5.596   5.913   1.081
 7978SOL     OW24832   3.110   1.869   5.742
 7978SOL    HW124833   3.125   1.778   5.782
 7978SOL    HW224834   3.032   1.912   5.786
 7979SOL     OW24835   4.621   5.643   4.065
 7979SOL    HW124836   4.650   5.723   4.012
 7979SOL    HW224837   4.535   5.608   4.027
 7980SOL     OW24838   2.910   1.236   1.325
 7980SOL    HW124839   2.838   1.268   1.264
 7980SOL    HW224840   2.965   1.166   1.279
 7981SOL     OW24841   0.212   6.340   2.251
 7981SOL    HW124842   0.191   6.269   2.319
 7981SOL    HW224843   0.306   6.329   2.219
 7982SOL     OW24844   0.339   3.273   1.229
 7982SOL    HW124845   0.305   3.179   1.221
 7982SOL    HW224846   0.350   3.312   1.137
 7983SOL     OW24847   5.358   1.792   0.749
 7983SOL    HW124848   5.410   1.775   0.832
 7983SOL    HW224849   5.327   1.887   0.748
 7984SOL     OW24850   6.226   0.744   0.226
 7984SOL    HW124851   6.307   0.693   0.253
 7984SOL    HW224852   6.237   0.840   0.251
 7985SOL     OW24853   0.901   1.444   0.982
 7985SOL    HW124854   0.966   1.430   0.907
 7985SOL    HW224855   0.808   1.451   0.944
 7986SOL     OW24856   5.017   3.580   0.670
 7986SOL    HW124857   4.956   3.654   0.700
 7986SOL    HW224858   4.988   3.549   0.580
 7987SOL     OW24859   1.223   3.743   5.474
 7987SOL    HW124860   1.322   3.757   5.481
 7987SOL    HW224861   1.205   3.650   5.444
 7988SOL     OW24862   2.505   1.127   5.218
 7988SOL    HW124863   2.465   1.179   5.142
 7988SOL    HW224864   2.500   1.029   5.198
 7989SOL     OW24865   3.207   3.916   0.302
 7989SOL    HW124866   3.142   3.844   0.328
 7989SOL    HW224867   3.215   3.981   0.378
 7990SOL     OW24868   2.252   2.869   4.462
 7990SOL    HW124869   2.223   2.952   4.509
 7990SOL    HW224870   2.193   2.793   4.488
 7991SOL     OW24871   2.280   3.073   5.963
 7991SOL    HW124872   2.283   3.061   5.864
 7991SOL    HW224873   2.346   3.012   6.006
 7992SOL     OW24874   2.932   1.408   0.005
 7992SOL    HW124875   2.916   1.487   6.969
 7992SOL    HW224876   3.029   1.383   0.003
 7993SOL     OW24877   3.055   5.883   6.530
 7993SOL    HW124878   3.138   5.837   6.563
 7993SOL    HW224879   3.075   5.928   6.443
 7994SOL     OW24880   5.713   0.321   4.898
 7994SOL    HW124881   5.698   0.290   4.804
 7994SOL    HW224882   5.634   0.375   4.928
 7995SOL     OW24883   4.253   5.094   2.526
 7995SOL    HW124884   4.189   5.151   2.474
 7995SOL    HW224885   4.335   5.147   2.548
 7996SOL     OW24886   4.316   1.552   5.561
 7996SOL    HW124887   4.334   1.520   5.468
 7996SOL    HW224888   4.220   1.534   5.584
 7997SOL     OW24889   5.268   3.321   1.021
 7997SOL    HW124890   5.174   3.348   1.043
 7997SOL    HW224891   5.269   3.224   0.997
 7998SOL     OW24892   6.932   5.554   6.208
 7998SOL    HW124893   6.908   5.476   6.151
 7998SOL    HW224894   6.873   5.556   6.289
 7999SOL     OW24895   2.867   2.619   5.781
 7999SOL    HW124896   2.918   2.553   5.725
 7999SOL    HW224897   2.771   2.591   5.786
 8000SOL     OW24898   5.193   0.658   5.478
 8000SOL    HW124899   5.121   0.628   5.540
 8000SOL    HW224900   5.273   0.686   5.531
 8001SOL     OW24901   2.414   4.997   1.233
 8001SOL    HW124902   2.419   5.048   1.319
 8001SOL    HW224903   2.437   4.901   1.250
 8002SOL     OW24904   4.410   2.024   5.417
 8002SOL    HW124905   4.470   2.041   5.495
 8002SOL    HW224906   4.463   1.987   5.341
 8003SOL     OW24907   4.988   5.252   3.028
 8003SOL    HW124908   5.053   5.175   3.021
 8003SOL    HW224909   5.015   5.311   3.103
 8004SOL     OW24910   1.441   4.757   3.697
 8004SOL    HW124911   1.408   4.677   3.646
 8004SOL    HW224912   1.506   4.808   3.642
 8005SOL     OW24913   1.946   1.173   2.474
 8005SOL    HW124914   2.008   1.252   2.475
 8005SOL    HW224915   2.000   1.089   2.472
 8006SOL     OW24916   4.834   5.665   2.786
 8006SOL    HW124917   4.830   5.612   2.870
 8006SOL    HW224918   4.912   5.634   2.731
 8007SOL     OW24919   0.941   0.832   3.732
 8007SOL    HW124920   0.865   0.770   3.749
 8007SOL    HW224921   0.936   0.909   3.796
 8008SOL     OW24922   6.042   4.547   1.362
 8008SOL    HW124923   6.060   4.471   1.300
 8008SOL    HW224924   6.128   4.582   1.399
 8009SOL     OW24925   6.767   6.351   3.036
 8009SOL    HW124926   6.699   6.420   3.060
 8009SOL    HW224927   6.724   6.279   2.982
 8010SOL     OW24928   2.120   2.200   6.506
 8010SOL    HW124929   2.211   2.233   6.479
 8010SOL    HW224930   2.129   2.109   6.546
 8011SOL     OW24931   1.940   2.985   0.302
 8011SOL    HW124932   1.962   3.077   0.269
 8011SOL    HW224933   2.007   2.957   0.370
 8012SOL     OW24934   2.057   5.653   3.301
 8012SOL    HW124935   2.041   5.745   3.336
 8012SOL    HW224936   2.119   5.604   3.362
 8013SOL     OW24937   6.560   5.628   4.405
 8013SOL    HW124938   6.611   5.643   4.321
 8013SOL    HW224939   6.514   5.714   4.431
 8014SOL     OW24940   2.759   0.547   6.339
 8014SOL    HW124941   2.707   0.605   6.276
 8014SOL    HW224942   2.803   0.474   6.288
 8015SOL     OW24943   1.912   1.613   0.593
 8015SOL    HW124944   1.969   1.567   0.660
 8015SOL    HW224945   1.817   1.583   0.604
 8016SOL     OW24946   4.572   5.412   2.109
 8016SOL    HW124947   4.584   5.476   2.032
 8016SOL    HW224948   4.555   5.464   2.192
 8017SOL     OW24949   6.361   3.570   4.888
 8017SOL    HW124950   6.335   3.521   4.805
 8017SOL    HW224951   6.307   3.653   4.896
 8018SOL     OW24952   4.867   3.020   3.913
 8018SOL    HW124953   4.953   2.978   3.942
 8018SOL    HW224954   4.790   2.971   3.956
 8019SOL     OW24955   3.410   5.299   1.069
 8019SOL    HW124956   3.470   5.277   0.992
 8019SOL    HW224957   3.422   5.232   1.141
 8020SOL     OW24958   5.155   6.570   6.826
 8020SOL    HW124959   5.189   6.610   6.740
 8020SOL    HW224960   5.206   6.486   6.845
 8021SOL     OW24961   6.744   1.298   1.811
 8021SOL    HW124962   6.800   1.379   1.827
 8021SOL    HW224963   6.797   1.230   1.759
 8022SOL     OW24964   5.579   4.919   4.401
 8022SOL    HW124965   5.502   4.961   4.450
 8022SOL    HW224966   5.664   4.961   4.430
 8023SOL     OW24967   0.042   5.418   3.512
 8023SOL    HW124968   0.132   5.392   3.548
 8023SOL    HW224969   7.010   5.456   3.586
 8024SOL     OW24970   4.479   6.010   3.885
 8024SOL    HW124971   4.524   6.091   3.849
 8024SOL    HW224972   4.454   5.948   3.810
 8025SOL     OW24973   2.791   6.072   0.008
 8025SOL    HW124974   2.875   6.049   6.984
 8025SOL    HW224975   2.747   5.988   0.040
 8026SOL     OW24976   3.038   1.913   6.814
 8026SOL    HW124977   3.055   2.010   6.796
 8026SOL    HW224978   3.118   1.859   6.786
 8027SOL     OW24979   4.314   3.294   5.716
 8027SOL    HW124980   4.318   3.206   5.670
 8027SOL    HW224981   4.220   3.329   5.716
 8028SOL     OW24982   6.206   4.716   1.122
 8028SOL    HW124983   6.209   4.799   1.177
 8028SOL    HW224984   6.289   4.711   1.065
 8029SOL     OW24985   3.297   4.786   5.791
 8029SOL    HW124986   3.274   4.757   5.698
 8029SOL    HW224987   3.338   4.710   5.841
 8030SOL     OW24988   0.049   3.737   2.212
 8030SOL    HW124989   0.134   3.685   2.206
 8030SOL    HW224990   0.061   3.825   2.165
 8031SOL     OW24991   3.801   6.548   0.342
 8031SOL    HW124992   3.828   6.468   0.396
 8031SOL    HW224993   3.832   6.537   0.248
 8032SOL     OW24994   4.645   3.305   5.323
 8032SOL    HW124995   4.715   3.244   5.286
 8032SOL    HW224996   4.657   3.397   5.285
 8033SOL     OW24997   6.183   0.742   2.312
 8033SOL    HW124998   6.203   0.788   2.398
 8033SOL    HW224999   6.229   0.653   2.310
 8034SOL     OW25000   6.337   2.573   5.493
 8034SOL    HW125001   6.285   2.657   5.484
 8034SOL    HW225002   6.429   2.594   5.526
 8035SOL     OW25003   5.502   5.927   5.876
 8035SOL    HW125004   5.479   5.836   5.913
 8035SOL    HW225005   5.473   5.931   5.780
 8036SOL     OW25006   1.371   3.950   1.722
 8036SOL    HW125007   1.431   3.886   1.673
 8036SOL    HW225008   1.416   4.039   1.726
 8037SOL     OW25009   2.153   3.044   1.919
 8037SOL    HW125010   2.178   3.007   1.830
 8037SOL    HW225011   2.098   3.126   1.908
 8038SOL     OW25012   5.643   0.962   4.012
 8038SOL    HW125013   5.740   0.938   4.008
 8038SOL    HW225014   5.632   1.049   4.060
 8039SOL     OW25015   2.530   5.504   3.131
 8039SOL    HW125016   2.480   5.575   3.181
 8039SOL    HW225017   2.597   5.461   3.192
 8040SOL     OW25018   5.907   6.370   6.826
 8040SOL    HW125019   5.937   6.278   6.805
 8040SOL    HW225020   5.852   6.406   6.751
 8041SOL     OW25021   3.212   2.326   1.059
 8041SOL    HW125022   3.144   2.253   1.063
 8041SOL    HW225023   3.255   2.336   1.149
 8042SOL     OW25024   1.652   4.656   0.074
 8042SOL    HW125025   1.663   4.566   0.117
 8042SOL    HW225026   1.674   4.650   7.001
 8043SOL     OW25027   3.387   0.353   1.306
 8043SOL    HW125028   3.302   0.329   1.258
 8043SOL    HW225029   3.447   0.403   1.244
 8044SOL     OW25030   3.059   2.879   1.746
 8044SOL    HW125031   3.114   2.930   1.812
 8044SOL    HW225032   2.965   2.914   1.746
 8045SOL     OW25033   5.875   2.840   3.740
 8045SOL    HW125034   5.898   2.805   3.830
 8045SOL    HW225035   5.898   2.773   3.670
 8046SOL     OW25036   6.733   5.520   5.143
 8046SOL    HW125037   6.716   5.584   5.069
 8046SOL    HW225038   6.798   5.450   5.113
 8047SOL     OW25039   2.610   6.842   4.383
 8047SOL    HW125040   2.688   6.830   4.320
 8047SOL    HW225041   2.643   6.838   4.477
 8048SOL     OW25042   5.319   0.170   5.573
 8048SOL    HW125043   5.342   0.183   5.669
 8048SOL    HW225044   5.331   0.256   5.524
 8049SOL     OW25045   2.467   6.283   6.467
 8049SOL    HW125046   2.548   6.338   6.445
 8049SOL    HW225047   2.493   6.209   6.529
 8050SOL     OW25048   0.270   3.530   2.153
 8050SOL    HW125049   0.307   3.439   2.172
 8050SOL    HW225050   0.265   3.544   2.054
 8051SOL     OW25051   2.577   2.413   3.861
 8051SOL    HW125052   2.606   2.408   3.765
 8051SOL    HW225053   2.528   2.499   3.876
 8052SOL     OW25054   4.195   1.352   2.828
 8052SOL    HW125055   4.245   1.372   2.912
 8052SOL    HW225056   4.253   1.298   2.767
 8053SOL     OW25057   4.711   3.641   1.522
 8053SOL    HW125058   4.731   3.543   1.519
 8053SOL    HW225059   4.641   3.663   1.454
 8054SOL     OW25060   4.657   5.874   4.592
 8054SOL    HW125061   4.707   5.850   4.509
 8054SOL    HW225062   4.699   5.828   4.670
 8055SOL     OW25063   1.471   6.826   4.972
 8055SOL    HW125064   1.495   6.743   5.023
 8055SOL    HW225065   1.520   6.904   5.011
 8056SOL     OW25066   4.552   1.272   3.017
 8056SOL    HW125067   4.475   1.253   3.077
 8056SOL    HW225068   4.592   1.186   2.985
 8057SOL     OW25069   3.619   0.086   3.802
 8057SOL    HW125070   3.605   7.023   3.755
 8057SOL    HW225071   3.707   0.124   3.775
 8058SOL     OW25072   1.866   0.228   3.101
 8058SOL    HW125073   1.861   0.138   3.146
 8058SOL    HW225074   1.882   0.215   3.003
 8059SOL     OW25075   1.602   1.464   4.367
 8059SOL    HW125076   1.511   1.465   4.326
 8059SOL    HW225077   1.597   1.495   4.462
 8060SOL     OW25078   0.797   2.745   5.530
 8060SOL    HW125079   0.723   2.803   5.496
 8060SOL    HW225080   0.809   2.668   5.468
 8061SOL     OW25081   5.338   6.756   3.364
 8061SOL    HW125082   5.373   6.669   3.397
 8061SOL    HW225083   5.296   6.806   3.441
 8062SOL     OW25084   1.646   1.953   1.352
 8062SOL    HW125085   1.730   2.005   1.372
 8062SOL    HW225086   1.598   1.933   1.438
 8063SOL     OW25087   2.327   2.357   5.637
 8063SOL    HW125088   2.379   2.418   5.577
 8063SOL    HW225089   2.301   2.405   5.720
 8064SOL     OW25090   5.574   2.149   5.739
 8064SOL    HW125091   5.558   2.064   5.789
 8064SOL    HW225092   5.491   2.176   5.691
 8065SOL     OW25093   4.299   0.607   6.521
 8065SOL    HW125094   4.379   0.633   6.468
 8065SOL    HW225095   4.254   0.529   6.478
 8066SOL     OW25096   1.232   0.343   1.574
 8066SOL    HW125097   1.238   0.294   1.488
 8066SOL    HW225098   1.237   0.278   1.650
 8067SOL     OW25099   4.353   1.894   2.931
 8067SOL    HW125100   4.355   1.993   2.920
 8067SOL    HW225101   4.430   1.853   2.881
 8068SOL     OW25102   6.955   4.389   3.474
 8068SOL    HW125103   7.015   4.309   3.463
 8068SOL    HW225104   6.983   4.460   3.410
 8069SOL     OW25105   6.859   6.159   2.400
 8069SOL    HW125106   6.900   6.198   2.317
 8069SOL    HW225107   6.888   6.064   2.410
 8070SOL     OW25108   3.829   0.294   2.929
 8070SOL    HW125109   3.797   0.232   3.001
 8070SOL    HW225110   3.755   0.308   2.863
 8071SOL     OW25111   5.509   4.676   7.003
 8071SOL    HW125112   5.491   4.679   0.078
 8071SOL    HW225113   5.600   4.715   6.985
 8072SOL     OW25114   3.845   0.106   3.656
 8072SOL    HW125115   3.905   0.038   3.697
 8072SOL    HW225116   3.837   0.088   3.558
 8073SOL     OW25117   5.326   0.213   6.572
 8073SOL    HW125118   5.314   0.284   6.642
 8073SOL    HW225119   5.239   0.196   6.527
 8074SOL     OW25120   2.898   4.484   0.102
 8074SOL    HW125121   2.836   4.413   0.135
 8074SOL    HW225122   2.845   4.564   0.075
 8075SOL     OW25123   6.566   1.562   3.981
 8075SOL    HW125124   6.545   1.468   3.951
 8075SOL    HW225125   6.665   1.576   3.980
 8076SOL     OW25126   5.038   2.821   6.802
 8076SOL    HW125127   4.960   2.829   6.864
 8076SOL    HW225128   5.005   2.807   6.709
 8077SOL     OW25129   0.910   0.543   6.948
 8077SOL    HW125130   0.859   0.523   6.864
 8077SOL    HW225131   0.877   0.485   7.022
 8078SOL     OW25132   6.368   3.937   1.348
 8078SOL    HW125133   6.459   3.976   1.363
 8078SOL    HW225134   6.368   3.885   1.262
 8079SOL     OW25135   1.401   3.078   0.218
 8079SOL    HW125136   1.448   3.128   0.146
 8079SOL    HW225137   1.445   2.990   0.233
 8080SOL     OW25138   3.532   4.415   0.149
 8080SOL    HW125139   3.611   4.472   0.174
 8080SOL    HW225140   3.532   4.333   0.205
 8081SOL     OW25141   5.590   2.315   4.473
 8081SOL    HW125142   5.589   2.415   4.473
 8081SOL    HW225143   5.497   2.282   4.488
 8082SOL     OW25144   6.935   3.477   5.156
 8082SOL    HW125145   6.958   3.500   5.061
 8082SOL    HW225146   7.010   3.506   5.216
 8083SOL     OW25147   6.208   1.613   4.687
 8083SOL    HW125148   6.212   1.656   4.597
 8083SOL    HW225149   6.121   1.635   4.730
 8084SOL     OW25150   5.736   0.133   6.777
 8084SOL    HW125151   5.684   0.201   6.828
 8084SOL    HW225152   5.831   0.163   6.769
 8085SOL     OW25153   5.089   2.431   1.608
 8085SOL    HW125154   5.065   2.494   1.534
 8085SOL    HW225155   5.157   2.366   1.576
 8086SOL     OW25156   3.428   5.128   6.240
 8086SOL    HW125157   3.389   5.035   6.243
 8086SOL    HW225158   3.511   5.131   6.295
 8087SOL     OW25159   1.901   3.742   0.581
 8087SOL    HW125160   1.884   3.707   0.489
 8087SOL    HW225161   1.943   3.670   0.637
 8088SOL     OW25162   4.909   0.359   2.947
 8088SOL    HW125163   4.916   0.343   3.046
 8088SOL    HW225164   5.000   0.365   2.908
 8089SOL     OW25165   6.741   2.779   0.138
 8089SOL    HW125166   6.739   2.731   0.050
 8089SOL    HW225167   6.785   2.720   0.207
 8090SOL     OW25168   5.199   1.562   4.957
 8090SOL    HW125169   5.126   1.495   4.971
 8090SOL    HW225170   5.222   1.605   5.044
 8091SOL     OW25171   1.976   3.276   5.202
 8091SOL    HW125172   2.058   3.308   5.154
 8091SOL    HW225173   1.984   3.177   5.218
 8092SOL     OW25174   6.164   2.290   4.001
 8092SOL    HW125175   6.170   2.278   3.902
 8092SOL    HW225176   6.078   2.337   4.023
 8093SOL     OW25177   5.933   4.782   0.805
 8093SOL    HW125178   5.898   4.855   0.746
 8093SOL    HW225179   6.024   4.755   0.774
 8094SOL     OW25180   0.531   3.266   4.143
 8094SOL    HW125181   0.598   3.336   4.168
 8094SOL    HW225182   0.572   3.175   4.156
 8095SOL     OW25183   6.272   3.307   5.276
 8095SOL    HW125184   6.325   3.377   5.227
 8095SOL    HW225185   6.241   3.344   5.363
 8096SOL     OW25186   3.867   0.296   0.643
 8096SOL    HW125187   3.846   0.200   0.656
 8096SOL    HW225188   3.966   0.310   0.649
 8097SOL     OW25189   5.094   1.981   3.861
 8097SOL    HW125190   5.075   2.017   3.770
 8097SOL    HW225191   5.009   1.954   3.905
 8098SOL     OW25192   2.281   2.497   4.158
 8098SOL    HW125193   2.336   2.468   4.080
 8098SOL    HW225194   2.286   2.597   4.166
 8099SOL     OW25195   4.015   0.121   4.247
 8099SOL    HW125196   3.954   0.192   4.212
 8099SOL    HW225197   4.046   0.063   4.171
 8100SOL     OW25198   6.493   6.250   1.667
 8100SOL    HW125199   6.592   6.263   1.671
 8100SOL    HW225200   6.450   6.334   1.635
 8101SOL     OW25201   1.159   5.013   2.619
 8101SOL    HW125202   1.225   4.940   2.604
 8101SOL    HW225203   1.192   5.097   2.576
 8102SOL     OW25204   6.681   0.503   5.476
 8102SOL    HW125205   6.662   0.578   5.540
 8102SOL    HW225206   6.778   0.478   5.482
 8103SOL     OW25207   2.676   2.151   2.164
 8103SOL    HW125208   2.760   2.205   2.171
 8103SOL    HW225209   2.613   2.195   2.100
 8104SOL     OW25210   2.680   6.998   5.427
 8104SOL    HW125211   2.735   6.918   5.449
 8104SOL    HW225212   2.610   7.011   5.498
 8105SOL     OW25213   2.578   2.195   2.409
 8105SOL    HW125214   2.644   2.184   2.334
 8105SOL    HW225215   2.617   2.254   2.479
 8106SOL     OW25216   0.234   4.190   5.866
 8106SOL    HW125217   0.190   4.126   5.802
 8106SOL    HW225218   0.230   4.152   5.958
 8107SOL     OW25219   0.795   4.956   6.840
 8107SOL    HW125220   0.821   5.053   6.844
 8107SOL    HW225221   0.767   4.934   6.746
 8108SOL     OW25222   1.777   2.056   6.078
 8108SOL    HW125223   1.787   2.133   6.141
 8108SOL    HW225224   1.793   1.971   6.127
 8109SOL     OW25225   0.311   5.828   5.226
 8109SOL    HW125226   0.255   5.777   5.292
 8109SOL    HW225227   0.320   5.923   5.256
 8110SOL     OW25228   0.952   4.929   0.250
 8110SOL    HW125229   0.952   4.862   0.176
 8110SOL    HW225230   0.997   4.890   0.330
 8111SOL     OW25231   3.275   6.103   4.008
 8111SOL    HW125232   3.360   6.147   3.979
 8111SOL    HW225233   3.296   6.023   4.064
 8112SOL     OW25234   4.170   1.214   4.461
 8112SOL    HW125235   4.176   1.280   4.386
 8112SOL    HW225236   4.219   1.249   4.541
 8113SOL     OW25237   3.022   2.280   6.055
 8113SOL    HW125238   3.092   2.350   6.042
 8113SOL    HW225239   2.935   2.313   6.018
 8114SOL     OW25240   2.904   3.693   1.177
 8114SOL    HW125241   2.968   3.675   1.102
 8114SOL    HW225242   2.955   3.700   1.263
 8115SOL     OW25243   3.917   2.883   1.292
 8115SOL    HW125244   3.841   2.947   1.302
 8115SOL    HW225245   4.003   2.934   1.288
 8116SOL     OW25246   5.884   1.772   5.640
 8116SOL    HW125247   5.941   1.691   5.631
 8116SOL    HW225248   5.788   1.746   5.629
 8117SOL     OW25249   3.078   2.955   5.243
 8117SOL    HW125250   3.024   2.870   5.247
 8117SOL    HW225251   3.018   3.031   5.219
 8118SOL     OW25252   0.926   1.974   4.176
 8118SOL    HW125253   0.919   1.982   4.275
 8118SOL    HW225254   0.978   1.892   4.152
 8119SOL     OW25255   1.634   0.095   2.536
 8119SOL    HW125256   1.700   0.170   2.532
 8119SOL    HW225257   1.579   0.095   2.452
 8120SOL     OW25258   4.921   3.975   2.230
 8120SOL    HW125259   4.859   4.043   2.193
 8120SOL    HW225260   4.992   3.954   2.162
 8121SOL     OW25261   0.068   6.231   3.624
 8121SOL    HW125262   0.018   6.309   3.661
 8121SOL    HW225263   0.046   6.221   3.526
 8122SOL     OW25264   0.335   4.733   1.973
 8122SOL    HW125265   0.408   4.666   1.987
 8122SOL    HW225266   0.337   4.764   1.878
 8123SOL     OW25267   1.484   4.726   5.814
 8123SOL    HW125268   1.516   4.791   5.745
 8123SOL    HW225269   1.549   4.725   5.891
 8124SOL     OW25270   1.968   5.847   2.240
 8124SOL    HW125271   1.887   5.796   2.213
 8124SOL    HW225272   1.954   5.944   2.220
 8125SOL     OW25273   5.108   5.253   3.767
 8125SOL    HW125274   5.084   5.164   3.806
 8125SOL    HW225275   5.024   5.302   3.743
 8126SOL     OW25276   0.492   4.535   2.094
 8126SOL    HW125277   0.412   4.515   2.151
 8126SOL    HW225278   0.553   4.456   2.094
 8127SOL     OW25279   4.345   5.274   0.696
 8127SOL    HW125280   4.304   5.223   0.771
 8127SOL    HW225281   4.324   5.372   0.707
 8128SOL     OW25282   3.885   2.271   5.269
 8128SOL    HW125283   3.931   2.346   5.316
 8128SOL    HW225284   3.794   2.259   5.308
 8129SOL     OW25285   5.000   5.170   6.735
 8129SOL    HW125286   5.003   5.099   6.665
 8129SOL    HW225287   5.037   5.134   6.820
 8130SOL     OW25288   0.418   0.431   6.176
 8130SOL    HW125289   0.428   0.408   6.272
 8130SOL    HW225290   0.429   0.530   6.164
 8131SOL     OW25291   2.243   1.842   1.348
 8131SOL    HW125292   2.307   1.910   1.314
 8131SOL    HW225293   2.153   1.884   1.363
 8132SOL     OW25294   6.067   4.345   3.703
 8132SOL    HW125295   6.017   4.267   3.743
 8132SOL    HW225296   6.116   4.393   3.775
 8133SOL     OW25297   0.027   5.555   2.520
 8133SOL    HW125298   6.964   5.593   2.552
 8133SOL    HW225299   0.079   5.521   2.598
 8134SOL     OW25300   3.500   3.425   1.460
 8134SOL    HW125301   3.500   3.504   1.399
 8134SOL    HW225302   3.513   3.456   1.554
 8135SOL     OW25303   3.928   5.904   2.348
 8135SOL    HW125304   3.966   5.978   2.291
 8135SOL    HW225305   3.906   5.826   2.290
 8136SOL     OW25306   2.531   5.645   1.297
 8136SOL    HW125307   2.575   5.733   1.282
 8136SOL    HW225308   2.456   5.656   1.363
 8137SOL     OW25309   3.490   4.583   5.555
 8137SOL    HW125310   3.532   4.666   5.592
 8137SOL    HW225311   3.548   4.505   5.575
 8138SOL     OW25312   4.212   0.735   3.540
 8138SOL    HW125313   4.282   0.670   3.511
 8138SOL    HW225314   4.122   0.693   3.531
 8139SOL     OW25315   1.885   3.276   5.479
 8139SOL    HW125316   1.875   3.354   5.541
 8139SOL    HW225317   1.934   3.306   5.397
 8140SOL     OW25318   5.319   1.718   1.165
 8140SOL    HW125319   5.386   1.691   1.234
 8140SOL    HW225320   5.258   1.641   1.145
 8141SOL     OW25321   5.745   1.943   5.259
 8141SOL    HW125322   5.798   1.871   5.213
 8141SOL    HW225323   5.788   1.965   5.346
 8142SOL     OW25324   4.024   5.923   0.364
 8142SOL    HW125325   4.111   5.911   0.316
 8142SOL    HW225326   3.960   5.853   0.334
 8143SOL     OW25327   5.889   5.007   0.656
 8143SOL    HW125328   5.829   5.004   0.576
 8143SOL    HW225329   5.892   5.101   0.692
 8144SOL     OW25330   1.989   5.539   6.422
 8144SOL    HW125331   2.026   5.491   6.342
 8144SOL    HW225332   1.889   5.542   6.417
 8145SOL     OW25333   4.965   5.610   5.505
 8145SOL    HW125334   4.905   5.637   5.580
 8145SOL    HW225335   5.014   5.690   5.470
 8146SOL     OW25336   6.951   6.136   5.351
 8146SOL    HW125337   6.988   6.182   5.431
 8146SOL    HW225338   6.857   6.107   5.369
 8147SOL     OW25339   2.152   6.594   4.788
 8147SOL    HW125340   2.128   6.506   4.829
 8147SOL    HW225341   2.122   6.595   4.692
 8148SOL     OW25342   5.333   4.931   0.817
 8148SOL    HW125343   5.335   4.834   0.793
 8148SOL    HW225344   5.242   4.956   0.848
 8149SOL     OW25345   1.608   6.210   4.838
 8149SOL    HW125346   1.621   6.243   4.745
 8149SOL    HW225347   1.666   6.263   4.900
 8150SOL     OW25348   0.436   4.367   0.645
 8150SOL    HW125349   0.487   4.451   0.663
 8150SOL    HW225350   0.338   4.383   0.658
 8151SOL     OW25351   5.943   4.278   2.533
 8151SOL    HW125352   5.950   4.278   2.633
 8151SOL    HW225353   5.982   4.194   2.497
 8152SOL     OW25354   5.000   1.817   4.290
 8152SOL    HW125355   5.057   1.858   4.361
 8152SOL    HW225356   5.050   1.816   4.203
 8153SOL     OW25357   0.388   1.789   0.997
 8153SOL    HW125358   0.472   1.748   1.034
 8153SOL    HW225359   0.408   1.880   0.963
 8154SOL     OW25360   0.043   0.504   4.533
 8154SOL    HW125361   6.985   0.456   4.566
 8154SOL    HW225362   0.095   0.539   4.610
 8155SOL     OW25363   0.899   4.580   4.635
 8155SOL    HW125364   0.901   4.650   4.707
 8155SOL    HW225365   0.864   4.495   4.674
 8156SOL     OW25366   1.240   3.715   0.602
 8156SOL    HW125367   1.324   3.708   0.548
 8156SOL    HW225368   1.165   3.745   0.544
 8157SOL     OW25369   6.360   4.888   5.384
 8157SOL    HW125370   6.397   4.871   5.292
 8157SOL    HW225371   6.277   4.944   5.377
 8158SOL     OW25372   6.554   5.097   6.389
 8158SOL    HW125373   6.539   4.999   6.388
 8158SOL    HW225374   6.466   5.144   6.396
 8159SOL     OW25375   2.054   6.597   5.476
 8159SOL    HW125376   2.131   6.534   5.487
 8159SOL    HW225377   2.084   6.678   5.426
 8160SOL     OW25378   5.025   3.327   2.610
 8160SOL    HW125379   5.088   3.272   2.664
 8160SOL    HW225380   5.077   3.385   2.546
 8161SOL     OW25381   0.440   2.291   0.938
 8161SOL    HW125382   0.362   2.344   0.971
 8161SOL    HW225383   0.416   2.248   0.851
 8162SOL     OW25384   7.022   6.211   5.622
 8162SOL    HW125385   0.056   6.133   5.646
 8162SOL    HW225386   6.975   6.244   5.704
 8163SOL     OW25387   3.920   5.143   5.692
 8163SOL    HW125388   3.988   5.112   5.758
 8163SOL    HW225389   3.921   5.082   5.613
 8164SOL     OW25390   5.740   1.839   0.186
 8164SOL    HW125391   5.807   1.837   0.260
 8164SOL    HW225392   5.713   1.745   0.163
 8165SOL     OW25393   1.456   2.303   5.732
 8165SOL    HW125394   1.508   2.342   5.656
 8165SOL    HW225395   1.519   2.282   5.807
 8166SOL     OW25396   3.442   2.129   4.101
 8166SOL    HW125397   3.418   2.125   4.004
 8166SOL    HW225398   3.393   2.204   4.144
 8167SOL     OW25399   1.315   2.112   1.874
 8167SOL    HW125400   1.259   2.062   1.808
 8167SOL    HW225401   1.362   2.188   1.828
 8168SOL     OW25402   1.017   5.999   2.978
 8168SOL    HW125403   0.974   6.088   2.993
 8168SOL    HW225404   1.092   5.986   3.044
 8169SOL     OW25405   5.249   4.974   6.628
 8169SOL    HW125406   5.176   4.968   6.561
 8169SOL    HW225407   5.328   5.019   6.587
 8170SOL     OW25408   0.259   4.936   3.079
 8170SOL    HW125409   0.308   4.867   3.132
 8170SOL    HW225410   0.260   4.911   2.982
 8171SOL     OW25411   1.669   1.786   1.623
 8171SOL    HW125412   1.722   1.770   1.706
 8171SOL    HW225413   1.598   1.854   1.641
 8172SOL     OW25414   1.570   5.022   0.629
 8172SOL    HW125415   1.538   4.944   0.682
 8172SOL    HW225416   1.634   4.990   0.558
 8173SOL     OW25417   5.449   0.460   1.419
 8173SOL    HW125418   5.524   0.456   1.486
 8173SOL    HW225419   5.484   0.500   1.334
 8174SOL     OW25420   2.406   6.607   4.020
 8174SOL    HW125421   2.457   6.539   3.968
 8174SOL    HW225422   2.427   6.698   3.985
 8175SOL     OW25423   0.799   2.370   6.315
 8175SOL    HW125424   0.748   2.448   6.278
 8175SOL    HW225425   0.897   2.386   6.305
 8176SOL     OW25426   2.673   4.509   0.399
 8176SOL    HW125427   2.596   4.524   0.461
 8176SOL    HW225428   2.657   4.557   0.313
 8177SOL     OW25429   3.413   1.374   2.264
 8177SOL    HW125430   3.424   1.281   2.299
 8177SOL    HW225431   3.394   1.437   2.340
 8178SOL     OW25432   2.810   6.536   0.934
 8178SOL    HW125433   2.730   6.503   0.885
 8178SOL    HW225434   2.782   6.579   1.020
 8179SOL     OW25435   6.055   6.836   4.542
 8179SOL    HW125436   6.143   6.791   4.551
 8179SOL    HW225437   6.062   6.930   4.573
 8180SOL     OW25438   4.361   5.707   0.939
 8180SOL    HW125439   4.318   5.720   0.850
 8180SOL    HW225440   4.434   5.775   0.951
 8181SOL     OW25441   6.449   0.795   6.563
 8181SOL    HW125442   6.373   0.800   6.499
 8181SOL    HW225443   6.508   0.718   6.539
 8182SOL     OW25444   3.220   3.376   3.169
 8182SOL    HW125445   3.161   3.449   3.133
 8182SOL    HW225446   3.167   3.292   3.179
 8183SOL     OW25447   0.257   0.238   5.244
 8183SOL    HW125448   0.322   0.185   5.298
 8183SOL    HW225449   0.256   0.333   5.276
 8184SOL     OW25450   0.136   6.152   4.843
 8184SOL    HW125451   0.137   6.089   4.921
 8184SOL    HW225452   0.209   6.128   4.780
 8185SOL     OW25453   6.858   6.576   4.776
 8185SOL    HW125454   6.818   6.663   4.747
 8185SOL    HW225455   6.803   6.537   4.850
 8186SOL     OW25456   1.062   5.773   6.694
 8186SOL    HW125457   0.972   5.755   6.734
 8186SOL    HW225458   1.051   5.808   6.601
 8187SOL     OW25459   1.345   6.262   4.586
 8187SOL    HW125460   1.401   6.342   4.605
 8187SOL    HW225461   1.382   6.183   4.634
 8188SOL     OW25462   1.523   2.371   2.603
 8188SOL    HW125463   1.474   2.387   2.517
 8188SOL    HW225464   1.490   2.434   2.672
 8189SOL     OW25465   6.644   5.322   3.771
 8189SOL    HW125466   6.628   5.273   3.856
 8189SOL    HW225467   6.709   5.396   3.786
 8190SOL     OW25468   5.222   3.632   2.623
 8190SOL    HW125469   5.252   3.724   2.652
 8190SOL    HW225470   5.133   3.639   2.578
 8191SOL     OW25471   4.698   5.152   0.757
 8191SOL    HW125472   4.788   5.111   0.742
 8191SOL    HW225473   4.635   5.082   0.791
 8192SOL     OW25474   6.459   5.854   2.654
 8192SOL    HW125475   6.398   5.779   2.631
 8192SOL    HW225476   6.491   5.898   2.570
 8193SOL     OW25477   0.923   4.970   4.586
 8193SOL    HW125478   0.874   4.962   4.499
 8193SOL    HW225479   0.972   4.885   4.605
 8194SOL     OW25480   5.489   6.639   2.399
 8194SOL    HW125481   5.404   6.664   2.447
 8194SOL    HW225482   5.523   6.719   2.350
 8195SOL     OW25483   6.381   0.004   3.346
 8195SOL    HW125484   6.333   0.064   3.409
 8195SOL    HW225485   6.333   0.003   3.258
 8196SOL     OW25486   5.139   7.019   2.793
 8196SOL    HW125487   5.124   0.018   2.696
 8196SOL    HW225488   5.051   7.004   2.838
 8197SOL     OW25489   4.120   0.880   3.224
 8197SOL    HW125490   4.042   0.840   3.273
 8197SOL    HW225491   4.087   0.937   3.149
 8198SOL     OW25492   1.961   5.464   0.151
 8198SOL    HW125493   1.926   5.555   0.130
 8198SOL    HW225494   1.987   5.419   0.066
 8199SOL     OW25495   5.950   2.891   6.970
 8199SOL    HW125496   5.869   2.936   7.008
 8199SOL    HW225497   5.963   2.803   7.015
 8200SOL     OW25498   6.053   4.559   6.872
 8200SOL    HW125499   5.993   4.596   6.801
 8200SOL    HW225500   6.055   4.622   6.950
 8201SOL     OW25501   5.407   1.384   5.988
 8201SOL    HW125502   5.308   1.377   6.002
 8201SOL    HW225503   5.449   1.294   6.004
 8202SOL     OW25504   6.954   6.226   2.145
 8202SOL    HW125505   6.938   6.142   2.092
 8202SOL    HW225506   0.025   6.227   2.177
 8203SOL     OW25507   0.841   3.083   0.550
 8203SOL    HW125508   0.748   3.115   0.564
 8203SOL    HW225509   0.886   3.139   0.480
 8204SOL     OW25510   1.659   3.421   0.571
 8204SOL    HW125511   1.602   3.495   0.537
 8204SOL    HW225512   1.702   3.450   0.657
 8205SOL     OW25513   0.093   3.947   6.382
 8205SOL    HW125514   0.001   3.918   6.355
 8205SOL    HW225515   0.158   3.875   6.358
 8206SOL     OW25516   3.167   1.315   1.041
 8206SOL    HW125517   3.102   1.321   0.965
 8206SOL    HW225518   3.125   1.354   1.123
 8207SOL     OW25519   4.044   3.906   4.508
 8207SOL    HW125520   4.087   3.816   4.516
 8207SOL    HW225521   4.049   3.953   4.596
 8208SOL     OW25522   3.436   0.233   5.742
 8208SOL    HW125523   3.449   0.242   5.644
 8208SOL    HW225524   3.446   0.322   5.786
 8209SOL     OW25525   5.243   2.563   3.827
 8209SOL    HW125526   5.229   2.470   3.793
 8209SOL    HW225527   5.170   2.623   3.793
 8210SOL     OW25528   1.443   1.564   6.231
 8210SOL    HW125529   1.352   1.544   6.196
 8210SOL    HW225530   1.500   1.599   6.156
 8211SOL     OW25531   3.746   4.471   1.434
 8211SOL    HW125532   3.838   4.507   1.417
 8211SOL    HW225533   3.678   4.539   1.407
 8212SOL     OW25534   1.726   3.345   2.756
 8212SOL    HW125535   1.678   3.258   2.769
 8212SOL    HW225536   1.749   3.356   2.659
 8213SOL     OW25537   6.443   4.688   0.701
 8213SOL    HW125538   6.467   4.756   0.632
 8213SOL    HW225539   6.523   4.669   0.758
 8214SOL     OW25540   4.722   2.692   3.656
 8214SOL    HW125541   4.650   2.684   3.588
 8214SOL    HW225542   4.807   2.721   3.612
 8215SOL     OW25543   3.282   4.234   1.535
 8215SOL    HW125544   3.326   4.307   1.587
 8215SOL    HW225545   3.346   4.197   1.467
 8216SOL     OW25546   5.829   2.847   4.574
 8216SOL    HW125547   5.822   2.891   4.663
 8216SOL    HW225548   5.887   2.902   4.514
 8217SOL     OW25549   2.400   5.743   0.049
 8217SOL    HW125550   2.363   5.726   0.141
 8217SOL    HW225551   2.340   5.700   7.005
 8218SOL     OW25552   4.643   1.594   0.174
 8218SOL    HW125553   4.614   1.613   0.268
 8218SOL    HW225554   4.572   1.542   0.126
 8219SOL     OW25555   5.379   2.772   7.014
 8219SOL    HW125556   5.472   2.745   0.013
 8219SOL    HW225557   5.362   2.864   0.026
 8220SOL     OW25558   4.145   3.607   1.493
 8220SOL    HW125559   4.083   3.685   1.480
 8220SOL    HW225560   4.135   3.571   1.585
 8221SOL     OW25561   5.429   3.546   3.741
 8221SOL    HW125562   5.454   3.449   3.731
 8221SOL    HW225563   5.343   3.562   3.693
 8222SOL     OW25564   5.811   1.230   2.959
 8222SOL    HW125565   5.787   1.191   2.870
 8222SOL    HW225566   5.728   1.267   3.002
 8223SOL     OW25567   0.995   3.750   0.387
 8223SOL    HW125568   1.080   3.722   0.341
 8223SOL    HW225569   0.993   3.849   0.395
 8224SOL     OW25570   0.982   3.748   2.582
 8224SOL    HW125571   1.060   3.686   2.579
 8224SOL    HW225572   0.897   3.696   2.583
 8225SOL     OW25573   4.949   0.644   1.039
 8225SOL    HW125574   4.865   0.616   0.992
 8225SOL    HW225575   4.925   0.701   1.118
 8226SOL     OW25576   3.996   0.257   0.029
 8226SOL    HW125577   4.022   0.338   7.001
 8226SOL    HW225578   4.014   0.273   0.126
 8227SOL     OW25579   5.855   4.497   3.615
 8227SOL    HW125580   5.803   4.517   3.697
 8227SOL    HW225581   5.938   4.447   3.639
 8228SOL     OW25582   0.198   1.091   3.741
 8228SOL    HW125583   0.222   1.146   3.820
 8228SOL    HW225584   0.242   1.128   3.659
 8229SOL     OW25585   5.882   5.551   6.852
 8229SOL    HW125586   5.863   5.626   6.914
 8229SOL    HW225587   5.844   5.572   6.761
 8230SOL     OW25588   4.937   0.089   3.694
 8230SOL    HW125589   4.845   0.106   3.729
 8230SOL    HW225590   4.980   0.177   3.671
 8231SOL     OW25591   3.917   6.022   1.401
 8231SOL    HW125592   3.949   6.068   1.318
 8231SOL    HW225593   3.823   5.990   1.387
 8232SOL     OW25594   2.476   1.503   0.295
 8232SOL    HW125595   2.483   1.497   0.395
 8232SOL    HW225596   2.410   1.435   0.262
 8233SOL     OW25597   0.957   5.715   6.091
 8233SOL    HW125598   0.913   5.626   6.078
 8233SOL    HW225599   0.904   5.785   6.042
 8234SOL     OW25600   2.025   3.092   6.702
 8234SOL    HW125601   2.005   2.995   6.720
 8234SOL    HW225602   1.940   3.142   6.691
 8235SOL     OW25603   4.716   2.794   6.757
 8235SOL    HW125604   4.743   2.847   6.837
 8235SOL    HW225605   4.669   2.853   6.691
 8236SOL     OW25606   6.303   1.642   1.532
 8236SOL    HW125607   6.362   1.576   1.579
 8236SOL    HW225608   6.310   1.731   1.578
 8237SOL     OW25609   3.692   6.141   5.270
 8237SOL    HW125610   3.707   6.219   5.209
 8237SOL    HW225611   3.766   6.074   5.258
 8238SOL     OW25612   0.445   1.023   5.862
 8238SOL    HW125613   0.405   1.096   5.917
 8238SOL    HW225614   0.450   1.052   5.767
 8239SOL     OW25615   4.971   1.526   6.425
 8239SOL    HW125616   4.948   1.436   6.389
 8239SOL    HW225617   4.901   1.554   6.491
 8240SOL     OW25618   3.794   3.305   2.719
 8240SOL    HW125619   3.764   3.368   2.647
 8240SOL    HW225620   3.748   3.217   2.707
 8241SOL     OW25621   4.453   6.267   1.011
 8241SOL    HW125622   4.512   6.283   0.931
 8241SOL    HW225623   4.479   6.331   1.083
 8242SOL     OW25624   1.623   4.343   4.933
 8242SOL    HW125625   1.615   4.243   4.933
 8242SOL    HW225626   1.698   4.370   4.873
 8243SOL     OW25627   6.861   4.039   4.642
 8243SOL    HW125628   6.947   4.080   4.672
 8243SOL    HW225629   6.832   3.970   4.707
 8244SOL     OW25630   3.553   5.672   5.295
 8244SOL    HW125631   3.487   5.714   5.357
 8244SOL    HW225632   3.538   5.705   5.202
 8245SOL     OW25633   4.448   4.269   0.905
 8245SOL    HW125634   4.482   4.312   0.989
 8245SOL    HW225635   4.453   4.335   0.830
 8246SOL     OW25636   5.512   3.245   5.172
 8246SOL    HW125637   5.448   3.217   5.244
 8246SOL    HW225638   5.464   3.298   5.103
 8247SOL     OW25639   1.217   6.242   0.070
 8247SOL    HW125640   1.300   6.249   0.125
 8247SOL    HW225641   1.241   6.237   6.997
 8248SOL     OW25642   6.694   4.364   3.140
 8248SOL    HW125643   6.744   4.293   3.190
 8248SOL    HW225644   6.599   4.336   3.128
 8249SOL     OW25645   0.478   5.602   3.060
 8249SOL    HW125646   0.571   5.637   3.059
 8249SOL    HW225647   0.413   5.677   3.073
 8250SOL     OW25648   3.054   3.098   2.694
 8250SOL    HW125649   3.059   3.193   2.723
 8250SOL    HW225650   2.987   3.049   2.749
 8251SOL     OW25651   5.428   0.595   4.356
 8251SOL    HW125652   5.417   0.695   4.360
 8251SOL    HW225653   5.457   0.569   4.264
 8252SOL     OW25654   0.670   3.985   4.225
 8252SOL    HW125655   0.604   4.015   4.156
 8252SOL    HW225656   0.731   4.061   4.248
 8253SOL     OW25657   3.199   3.250   5.821
 8253SOL    HW125658   3.100   3.261   5.830
 8253SOL    HW225659   3.229   3.293   5.736
 8254SOL     OW25660   4.978   4.763   2.983
 8254SOL    HW125661   4.903   4.792   3.043
 8254SOL    HW225662   5.014   4.843   2.935
 8255SOL     OW25663   3.888   5.228   3.563
 8255SOL    HW125664   3.849   5.154   3.619
 8255SOL    HW225665   3.848   5.315   3.591
 8256SOL     OW25666   4.918   2.354   2.698
 8256SOL    HW125667   4.982   2.278   2.707
 8256SOL    HW225668   4.835   2.333   2.750
 8257SOL     OW25669   6.171   4.463   4.241
 8257SOL    HW125670   6.153   4.561   4.242
 8257SOL    HW225671   6.270   4.448   4.249
 8258SOL     OW25672   5.432   1.918   0.240
 8258SOL    HW125673   5.525   1.935   0.207
 8258SOL    HW225674   5.430   1.834   0.295
 8259SOL     OW25675   4.609   0.241   0.979
 8259SOL    HW125676   4.672   0.260   1.054
 8259SOL    HW225677   4.574   0.327   0.941
 8260SOL     OW25678   3.351   5.575   6.508
 8260SOL    HW125679   3.255   5.548   6.515
 8260SOL    HW225680   3.358   5.674   6.512
 8261SOL     OW25681   4.865   1.199   1.524
 8261SOL    HW125682   4.917   1.182   1.440
 8261SOL    HW225683   4.927   1.197   1.602
 8262SOL     OW25684   6.388   2.641   1.650
 8262SOL    HW125685   6.322   2.579   1.693
 8262SOL    HW225686   6.416   2.711   1.716
 8263SOL     OW25687   5.953   1.683   0.299
 8263SOL    HW125688   5.936   1.648   0.207
 8263SOL    HW225689   6.045   1.722   0.303
 8264SOL     OW25690   1.527   4.291   1.414
 8264SOL    HW125691   1.594   4.243   1.471
 8264SOL    HW225692   1.566   4.306   1.323
 8265SOL     OW25693   2.065   0.629   2.878
 8265SOL    HW125694   2.132   0.605   2.807
 8265SOL    HW225695   2.085   0.720   2.913
 8266SOL     OW25696   2.570   0.973   2.679
 8266SOL    HW125697   2.555   0.999   2.584
 8266SOL    HW225698   2.657   1.010   2.710
 8267SOL     OW25699   6.931   3.148   1.553
 8267SOL    HW125700   6.877   3.190   1.626
 8267SOL    HW225701   7.019   3.194   1.545
 8268SOL     OW25702   2.340   4.816   6.925
 8268SOL    HW125703   2.410   4.884   6.946
 8268SOL    HW225704   2.381   4.725   6.923
 8269SOL     OW25705   5.594   2.226   0.022
 8269SOL    HW125706   5.495   2.219   0.036
 8269SOL    HW225707   5.629   2.138   7.014
 8270SOL     OW25708   2.215   6.041   4.608
 8270SOL    HW125709   2.216   6.136   4.639
 8270SOL    HW225710   2.128   5.999   4.632
 8271SOL     OW25711   0.288   2.164   2.742
 8271SOL    HW125712   0.220   2.100   2.705
 8271SOL    HW225713   0.352   2.115   2.801
 8272SOL     OW25714   3.353   1.314   3.957
 8272SOL    HW125715   3.438   1.303   4.010
 8272SOL    HW225716   3.275   1.308   4.019
 8273SOL     OW25717   2.294   6.539   2.079
 8273SOL    HW125718   2.207   6.538   2.129
 8273SOL    HW225719   2.368   6.561   2.142
 8274SOL     OW25720   5.192   3.565   3.591
 8274SOL    HW125721   5.129   3.524   3.657
 8274SOL    HW225722   5.162   3.659   3.570
 8275SOL     OW25723   5.916   2.342   0.033
 8275SOL    HW125724   5.932   2.440   0.022
 8275SOL    HW225725   5.855   2.327   0.111
 8276SOL     OW25726   0.892   1.716   3.240
 8276SOL    HW125727   0.935   1.806   3.237
 8276SOL    HW225728   0.939   1.659   3.308
 8277SOL     OW25729   0.266   1.404   0.894
 8277SOL    HW125730   0.272   1.499   0.864
 8277SOL    HW225731   0.332   1.388   0.966
 8278SOL     OW25732   0.886   2.689   0.260
 8278SOL    HW125733   0.933   2.750   0.324
 8278SOL    HW225734   0.934   2.690   0.173
 8279SOL     OW25735   0.498   6.234   3.933
 8279SOL    HW125736   0.585   6.244   3.982
 8279SOL    HW225737   0.514   6.240   3.835
 8280SOL     OW25738   3.039   2.630   6.020
 8280SOL    HW125739   3.131   2.592   6.012
 8280SOL    HW225740   2.988   2.613   5.936
 8281SOL     OW25741   3.988   5.116   2.277
 8281SOL    HW125742   3.944   5.037   2.322
 8281SOL    HW225743   4.023   5.178   2.347
 8282SOL     OW25744   6.665   2.973   6.240
 8282SOL    HW125745   6.670   3.060   6.191
 8282SOL    HW225746   6.652   2.991   6.337
 8283SOL     OW25747   2.299   2.730   6.461
 8283SOL    HW125748   2.355   2.676   6.398
 8283SOL    HW225749   2.347   2.814   6.485
 8284SOL     OW25750   6.724   4.698   1.986
 8284SOL    HW125751   6.672   4.654   2.060
 8284SOL    HW225752   6.798   4.753   2.025
 8285SOL     OW25753   3.594   2.882   3.427
 8285SOL    HW125754   3.692   2.893   3.444
 8285SOL    HW225755   3.580   2.838   3.338
 8286SOL     OW25756   0.061   3.143   0.069
 8286SOL    HW125757   0.060   3.212   0.140
 8286SOL    HW225758   0.105   3.060   0.103
 8287SOL     OW25759   1.562   6.850   4.434
 8287SOL    HW125760   1.575   6.793   4.515
 8287SOL    HW225761   1.651   6.881   4.400
 8288SOL     OW25762   2.406   1.605   3.043
 8288SOL    HW125763   2.420   1.660   2.961
 8288SOL    HW225764   2.335   1.647   3.100
 8289SOL     OW25765   0.840   6.734   0.044
 8289SOL    HW125766   0.871   6.804   7.003
 8289SOL    HW225767   0.873   6.757   0.135
 8290SOL     OW25768   6.293   1.940   0.962
 8290SOL    HW125769   6.221   1.959   1.029
 8290SOL    HW225770   6.268   1.857   0.911
 8291SOL     OW25771   3.862   0.389   1.319
 8291SOL    HW125772   3.841   0.292   1.322
 8291SOL    HW225773   3.792   0.441   1.369
 8292SOL     OW25774   2.534   0.770   6.222
 8292SOL    HW125775   2.582   0.759   6.135
 8292SOL    HW225776   2.581   0.838   6.278
 8293SOL     OW25777   6.328   5.494   5.516
 8293SOL    HW125778   6.397   5.565   5.508
 8293SOL    HW225779   6.305   5.459   5.425
 8294SOL     OW25780   6.139   3.116   0.058
 8294SOL    HW125781   6.079   3.042   0.027
 8294SOL    HW225782   6.185   3.157   7.004
 8295SOL     OW25783   5.707   2.497   6.933
 8295SOL    HW125784   5.650   2.422   6.965
 8295SOL    HW225785   5.794   2.460   6.898
 8296SOL     OW25786   0.064   5.138   5.399
 8296SOL    HW125787   0.026   5.225   5.369
 8296SOL    HW225788   0.127   5.153   5.476
 8297SOL     OW25789   1.230   3.717   4.225
 8297SOL    HW125790   1.290   3.772   4.168
 8297SOL    HW225791   1.284   3.673   4.297
 8298SOL     OW25792   4.449   2.449   2.238
 8298SOL    HW125793   4.385   2.405   2.174
 8298SOL    HW225794   4.458   2.546   2.215
 8299SOL     OW25795   6.154   1.408   1.462
 8299SOL    HW125796   6.225   1.472   1.492
 8299SOL    HW225797   6.107   1.371   1.542
 8300SOL     OW25798   1.384   5.284   3.025
 8300SOL    HW125799   1.339   5.372   3.037
 8300SOL    HW225800   1.411   5.272   2.929
 8301SOL     OW25801   2.982   1.516   5.916
 8301SOL    HW125802   2.886   1.503   5.939
 8301SOL    HW225803   3.034   1.436   5.945
 8302SOL     OW25804   6.012   5.456   6.188
 8302SOL    HW125805   6.051   5.417   6.105
 8302SOL    HW225806   5.960   5.385   6.237
 8303SOL     OW25807   0.351   6.954   6.996
 8303SOL    HW125808   0.425   7.018   7.013
 8303SOL    HW225809   0.269   6.983   0.022
 8304SOL     OW25810   0.005   3.199   0.391
 8304SOL    HW125811   7.006   3.103   0.377
 8304SOL    HW225812   0.104   3.211   0.388
 8305SOL     OW25813   3.133   5.586   2.612
 8305SOL    HW125814   3.141   5.602   2.710
 8305SOL    HW225815   3.061   5.519   2.595
 8306SOL     OW25816   1.634   2.542   3.824
 8306SOL    HW125817   1.621   2.561   3.726
 8306SOL    HW225818   1.577   2.603   3.878
 8307SOL     OW25819   3.672   6.450   1.003
 8307SOL    HW125820   3.676   6.354   1.031
 8307SOL    HW225821   3.607   6.499   1.061
 8308SOL     OW25822   2.483   0.811   2.300
 8308SOL    HW125823   2.401   0.866   2.283
 8308SOL    HW225824   2.456   0.725   2.345
 8309SOL     OW25825   5.791   6.404   2.089
 8309SOL    HW125826   5.826   6.320   2.049
 8309SOL    HW225827   5.721   6.382   2.157
 8310SOL     OW25828   5.974   4.983   0.063
 8310SOL    HW125829   5.982   5.068   0.114
 8310SOL    HW225830   6.051   4.973   0.001
 8311SOL     OW25831   6.588   0.645   6.805
 8311SOL    HW125832   6.567   0.582   6.731
 8311SOL    HW225833   6.687   0.645   6.822
 8312SOL     OW25834   4.699   6.048   1.270
 8312SOL    HW125835   4.631   6.121   1.260
 8312SOL    HW225836   4.655   5.965   1.305
 8313SOL     OW25837   3.771   1.812   2.662
 8313SOL    HW125838   3.694   1.876   2.672
 8313SOL    HW225839   3.830   1.818   2.743
 8314SOL     OW25840   0.015   6.899   4.118
 8314SOL    HW125841   0.077   6.932   4.189
 8314SOL    HW225842   0.054   6.820   4.072
 8315SOL     OW25843   5.064   4.458   0.057
 8315SOL    HW125844   5.025   4.529   0.115
 8315SOL    HW225845   5.088   4.379   0.113
 8316SOL     OW25846   2.751   5.457   6.418
 8316SOL    HW125847   2.690   5.397   6.470
 8316SOL    HW225848   2.796   5.521   6.480
 8317SOL     OW25849   1.980   5.005   1.672
 8317SOL    HW125850   2.056   5.023   1.610
 8317SOL    HW225851   2.016   4.965   1.757
 8318SOL     OW25852   3.010   1.232   5.630
 8318SOL    HW125853   2.915   1.247   5.658
 8318SOL    HW225854   3.039   1.307   5.570
 8319SOL     OW25855   2.060   0.551   5.235
 8319SOL    HW125856   2.056   0.457   5.269
 8319SOL    HW225857   2.119   0.555   5.155
 8320SOL     OW25858   3.736   5.009   1.210
 8320SOL    HW125859   3.715   5.077   1.280
 8320SOL    HW225860   3.652   4.976   1.168
 8321SOL     OW25861   6.628   1.273   1.473
 8321SOL    HW125862   6.672   1.341   1.414
 8321SOL    HW225863   6.695   1.235   1.536
 8322SOL     OW25864   5.221   6.650   0.884
 8322SOL    HW125865   5.284   6.573   0.878
 8322SOL    HW225866   5.272   6.733   0.905
 8323SOL     OW25867   1.486   0.560   1.855
 8323SOL    HW125868   1.465   0.598   1.946
 8323SOL    HW225869   1.402   0.537   1.808
 8324SOL     OW25870   0.045   0.798   2.637
 8324SOL    HW125871   7.017   0.844   2.565
 8324SOL    HW225872   0.087   0.867   2.696
 8325SOL     OW25873   3.658   3.972   4.959
 8325SOL    HW125874   3.605   3.908   5.015
 8325SOL    HW225875   3.753   3.942   4.954
 8326SOL     OW25876   4.061   3.242   5.917
 8326SOL    HW125877   3.970   3.212   5.948
 8326SOL    HW225878   4.131   3.204   5.977
 8327SOL     OW25879   4.629   2.021   6.076
 8327SOL    HW125880   4.595   2.030   6.170
 8327SOL    HW225881   4.616   2.108   6.028
 8328SOL     OW25882   1.928   2.516   3.814
 8328SOL    HW125883   1.831   2.507   3.835
 8328SOL    HW225884   1.964   2.429   3.781
 8329SOL     OW25885   0.942   3.074   4.715
 8329SOL    HW125886   0.960   3.171   4.701
 8329SOL    HW225887   0.932   3.056   4.813
 8330SOL     OW25888   2.604   0.066   6.960
 8330SOL    HW125889   2.570   0.156   6.986
 8330SOL    HW225890   2.669   0.033   0.005
 8331SOL     OW25891   2.327   0.110   1.074
 8331SOL    HW125892   2.298   0.036   1.015
 8331SOL    HW225893   2.260   0.184   1.071
 8332SOL     OW25894   4.679   6.369   3.198
 8332SOL    HW125895   4.655   6.408   3.287
 8332SOL    HW225896   4.622   6.410   3.127
 8333SOL     OW25897   2.169   4.671   5.299
 8333SOL    HW125898   2.174   4.579   5.261
 8333SOL    HW225899   2.169   4.738   5.224
 8334SOL     OW25900   6.664   0.446   3.165
 8334SOL    HW125901   6.670   0.368   3.102
 8334SOL    HW225902   6.637   0.527   3.114
 8335SOL     OW25903   6.404   6.333   4.955
 8335SOL    HW125904   6.311   6.367   4.941
 8335SOL    HW225905   6.417   6.250   4.900
 8336SOL     OW25906   1.285   1.595   2.676
 8336SOL    HW125907   1.342   1.677   2.685
 8336SOL    HW225908   1.270   1.554   2.766
 8337SOL     OW25909   6.326   6.663   2.388
 8337SOL    HW125910   6.238   6.703   2.414
 8337SOL    HW225911   6.330   6.568   2.421
 8338SOL     OW25912   2.632   5.846   0.686
 8338SOL    HW125913   2.706   5.780   0.679
 8338SOL    HW225914   2.584   5.834   0.773
 8339SOL     OW25915   4.640   1.334   3.344
 8339SOL    HW125916   4.671   1.419   3.301
 8339SOL    HW225917   4.712   1.300   3.405
 8340SOL     OW25918   4.899   4.050   1.697
 8340SOL    HW125919   4.833   3.975   1.703
 8340SOL    HW225920   4.942   4.049   1.607
 8341SOL     OW25921   2.018   0.323   0.555
 8341SOL    HW125922   2.118   0.325   0.564
 8341SOL    HW225923   1.988   0.397   0.495
 8342SOL     OW25924   5.317   0.037   1.317
 8342SOL    HW125925   5.218   0.035   1.325
 8342SOL    HW225926   5.356   0.088   1.394
 8343SOL     OW25927   0.074   4.651   4.841
 8343SOL    HW125928   0.056   4.742   4.878
 8343SOL    HW225929   7.011   4.606   4.818
 8344SOL     OW25930   3.677   6.663   4.800
 8344SOL    HW125931   3.759   6.654   4.743
 8344SOL    HW225932   3.602   6.701   4.745
 8345SOL     OW25933   5.550   1.669   3.033
 8345SOL    HW125934   5.638   1.702   2.999
 8345SOL    HW225935   5.514   1.600   2.970
 8346SOL     OW25936   4.181   5.404   2.151
 8346SOL    HW125937   4.255   5.458   2.191
 8346SOL    HW225938   4.208   5.308   2.146
 8347SOL     OW25939   3.258   5.135   4.516
 8347SOL    HW125940   3.226   5.194   4.590
 8347SOL    HW225941   3.218   5.166   4.429
 8348SOL     OW25942   2.396   0.091   0.568
 8348SOL    HW125943   2.379   7.020   0.541
 8348SOL    HW225944   2.493   0.111   0.558
 8349SOL     OW25945   5.694   4.721   2.481
 8349SOL    HW125946   5.666   4.786   2.552
 8349SOL    HW225947   5.780   4.752   2.440
 8350SOL     OW25948   6.217   0.937   5.227
 8350SOL    HW125949   6.267   0.960   5.143
 8350SOL    HW225950   6.150   0.865   5.207
 8351SOL     OW25951   3.203   7.022   2.493
 8351SOL    HW125952   3.253   6.950   2.542
 8351SOL    HW225953   3.234   0.087   2.525
 8352SOL     OW25954   6.342   6.405   1.973
 8352SOL    HW125955   6.300   6.471   2.036
 8352SOL    HW225956   6.279   6.329   1.958
 8353SOL     OW25957   2.037   3.578   2.147
 8353SOL    HW125958   2.119   3.551   2.097
 8353SOL    HW225959   2.059   3.593   2.243
 8354SOL     OW25960   3.129   0.296   0.522
 8354SOL    HW125961   3.059   0.244   0.475
 8354SOL    HW225962   3.156   0.249   0.606
 8355SOL     OW25963   2.890   1.804   0.651
 8355SOL    HW125964   2.984   1.783   0.624
 8355SOL    HW225965   2.828   1.737   0.610
 8356SOL     OW25966   3.028   5.107   0.263
 8356SOL    HW125967   2.943   5.108   0.211
 8356SOL    HW225968   3.008   5.093   0.360
 8357SOL     OW25969   4.157   6.421   2.760
 8357SOL    HW125970   4.200   6.349   2.814
 8357SOL    HW225971   4.196   6.509   2.787
 8358SOL     OW25972   2.829   2.019   4.844
 8358SOL    HW125973   2.814   2.061   4.934
 8358SOL    HW225974   2.874   2.085   4.784
 8359SOL     OW25975   3.698   5.000   4.339
 8359SOL    HW125976   3.772   4.976   4.402
 8359SOL    HW225977   3.611   4.971   4.377
 8360SOL     OW25978   4.677   0.598   3.370
 8360SOL    HW125979   4.647   0.668   3.306
 8360SOL    HW225980   4.639   0.509   3.342
 8361SOL     OW25981   1.468   0.598   3.354
 8361SOL    HW125982   1.486   0.532   3.281
 8361SOL    HW225983   1.382   0.573   3.400
 8362SOL     OW25984   3.041   2.963   0.929
 8362SOL    HW125985   3.063   2.915   0.845
 8362SOL    HW225986   2.972   3.034   0.910
 8363SOL     OW25987   0.692   3.341   1.888
 8363SOL    HW125988   0.747   3.383   1.817
 8363SOL    HW225989   0.674   3.407   1.961
 8364SOL     OW25990   6.781   4.891   5.474
 8364SOL    HW125991   6.803   4.950   5.397
 8364SOL    HW225992   6.814   4.934   5.559
 8365SOL     OW25993   1.725   3.977   5.709
 8365SOL    HW125994   1.630   3.992   5.682
 8365SOL    HW225995   1.736   3.881   5.737
 8366SOL     OW25996   2.746   0.007   2.042
 8366SOL    HW125997   2.721   0.079   1.977
 8366SOL    HW225998   2.814   6.971   2.000
 8367SOL     OW25999   5.042   5.758   3.978
 8367SOL    HW126000   5.083   5.698   3.910
 8367SOL    HW226001   4.975   5.817   3.935
 8368SOL     OW26002   2.979   5.648   6.089
 8368SOL    HW126003   3.029   5.726   6.124
 8368SOL    HW226004   3.026   5.563   6.115
 8369SOL     OW26005   2.227   1.639   1.186
 8369SOL    HW126006   2.233   1.717   1.249
 8369SOL    HW226007   2.307   1.581   1.197
 8370SOL     OW26008   2.338   1.124   0.673
 8370SOL    HW126009   2.278   1.156   0.747
 8370SOL    HW226010   2.318   1.028   0.653
 8371SOL     OW26011   1.174   2.519   0.254
 8371SOL    HW126012   1.087   2.476   0.232
 8371SOL    HW226013   1.232   2.520   0.172
 8372SOL     OW26014   6.009   0.716   0.405
 8372SOL    HW126015   6.068   0.717   0.325
 8372SOL    HW226016   6.012   0.806   0.450
 8373SOL     OW26017   1.891   0.043   3.953
 8373SOL    HW126018   1.802   0.023   3.913
 8373SOL    HW226019   1.889   0.134   3.994
 8374SOL     OW26020   6.771   1.804   5.570
 8374SOL    HW126021   6.784   1.706   5.587
 8374SOL    HW226022   6.795   1.855   5.652
 8375SOL     OW26023   4.080   0.842   6.481
 8375SOL    HW126024   4.136   0.770   6.522
 8375SOL    HW226025   4.139   0.918   6.453
 8376SOL     OW26026   4.334   0.320   3.974
 8376SOL    HW126027   4.417   0.370   3.950
 8376SOL    HW226028   4.331   0.305   4.072
 8377SOL     OW26029   4.970   5.082   0.661
 8377SOL    HW126030   5.023   5.001   0.639
 8377SOL    HW226031   4.994   5.156   0.598
 8378SOL     OW26032   5.001   2.670   3.777
 8378SOL    HW126033   4.937   2.742   3.802
 8378SOL    HW226034   5.023   2.677   3.679
 8379SOL     OW26035   5.418   2.989   2.699
 8379SOL    HW126036   5.482   3.063   2.723
 8379SOL    HW226037   5.444   2.950   2.611
 8380SOL     OW26038   5.928   1.252   4.143
 8380SOL    HW126039   5.833   1.225   4.157
 8380SOL    HW226040   5.933   1.328   4.078
 8381SOL     OW26041   1.884   5.516   4.669
 8381SOL    HW126042   1.844   5.455   4.600
 8381SOL    HW226043   1.913   5.461   4.748
 8382SOL     OW26044   0.767   4.772   2.401
 8382SOL    HW126045   0.778   4.836   2.478
 8382SOL    HW226046   0.763   4.679   2.436
 8383SOL     OW26047   3.206   1.316   5.294
 8383SOL    HW126048   3.270   1.347   5.224
 8383SOL    HW226049   3.209   1.216   5.301
 8384SOL     OW26050   0.614   0.213   1.173
 8384SOL    HW126051   0.587   0.156   1.096
 8384SOL    HW226052   0.699   0.261   1.151
 8385SOL     OW26053   4.379   1.580   1.358
 8385SOL    HW126054   4.284   1.611   1.351
 8385SOL    HW226055   4.410   1.544   1.270
 8386SOL     OW26056   0.249   2.771   1.733
 8386SOL    HW126057   0.348   2.761   1.734
 8386SOL    HW226058   0.223   2.837   1.663
 8387SOL     OW26059   0.518   1.680   1.917
 8387SOL    HW126060   0.495   1.753   1.852
 8387SOL    HW226061   0.463   1.599   1.897
 8388SOL     OW26062   1.406   6.726   2.427
 8388SOL    HW126063   1.385   6.823   2.411
 8388SOL    HW226064   1.367   6.697   2.514
 8389SOL     OW26065   6.159   3.231   3.604
 8389SOL    HW126066   6.222   3.160   3.572
 8389SOL    HW226067   6.091   3.190   3.665
 8390SOL     OW26068   6.173   2.018   6.451
 8390SOL    HW126069   6.209   2.006   6.358
 8390SOL    HW226070   6.110   2.096   6.453
 8391SOL     OW26071   6.349   0.811   1.166
 8391SOL    HW126072   6.297   0.894   1.186
 8391SOL    HW226073   6.286   0.739   1.136
 8392SOL     OW26074   3.655   2.902   4.625
 8392SOL    HW126075   3.555   2.899   4.628
 8392SOL    HW226076   3.688   2.845   4.549
 8393SOL     OW26077   5.882   0.236   1.107
 8393SOL    HW126078   5.906   0.332   1.099
 8393SOL    HW226079   5.868   0.213   1.203
 8394SOL     OW26080   5.170   3.147   2.786
 8394SOL    HW126081   5.160   3.114   2.880
 8394SOL    HW226082   5.257   3.116   2.749
 8395SOL     OW26083   1.900   1.034   5.562
 8395SOL    HW126084   1.967   0.966   5.531
 8395SOL    HW226085   1.907   1.116   5.505
 8396SOL     OW26086   4.836   5.088   4.181
 8396SOL    HW126087   4.876   5.018   4.240
 8396SOL    HW226088   4.760   5.133   4.229
 8397SOL     OW26089   5.738   6.485   2.616
 8397SOL    HW126090   5.739   6.569   2.562
 8397SOL    HW226091   5.742   6.509   2.713
 8398SOL     OW26092   5.918   1.889   6.455
 8398SOL    HW126093   5.872   1.929   6.376
 8398SOL    HW226094   6.001   1.940   6.475
 8399SOL     OW26095   0.456   4.127   2.448
 8399SOL    HW126096   0.473   4.063   2.523
 8399SOL    HW226097   0.359   4.124   2.424
 8400SOL     OW26098   1.386   0.679   4.501
 8400SOL    HW126099   1.465   0.622   4.526
 8400SOL    HW226100   1.319   0.623   4.453
 8401SOL     OW26101   1.374   0.447   5.909
 8401SOL    HW126102   1.349   0.352   5.923
 8401SOL    HW226103   1.310   0.490   5.846
 8402SOL     OW26104   2.864   0.505   6.023
 8402SOL    HW126105   2.784   0.483   5.967
 8402SOL    HW226106   2.901   0.422   6.063
 8403SOL     OW26107   5.949   4.753   6.099
 8403SOL    HW126108   5.940   4.766   6.000
 8403SOL    HW226109   5.952   4.843   6.143
 8404SOL     OW26110   0.994   1.355   0.255
 8404SOL    HW126111   0.950   1.271   0.222
 8404SOL    HW226112   0.995   1.355   0.355
 8405SOL     OW26113   3.667   6.464   5.784
 8405SOL    HW126114   3.619   6.510   5.709
 8405SOL    HW226115   3.765   6.478   5.774
 8406SOL     OW26116   6.245   0.790   6.370
 8406SOL    HW126117   6.309   0.845   6.317
 8406SOL    HW226118   6.177   0.749   6.308
 8407SOL     OW26119   4.682   0.762   5.349
 8407SOL    HW126120   4.745   0.791   5.276
 8407SOL    HW226121   4.734   0.740   5.431
 8408SOL     OW26122   3.907   2.182   1.527
 8408SOL    HW126123   3.987   2.126   1.504
 8408SOL    HW226124   3.938   2.271   1.561
 8409SOL     OW26125   4.684   2.663   1.986
 8409SOL    HW126126   4.628   2.704   1.914
 8409SOL    HW226127   4.753   2.728   2.016
 8410SOL     OW26128   6.819   1.972   1.419
 8410SOL    HW126129   6.763   2.047   1.455
 8410SOL    HW226130   6.816   1.895   1.482
 8411SOL     OW26131   0.591   5.652   1.236
 8411SOL    HW126132   0.544   5.735   1.208
 8411SOL    HW226133   0.557   5.623   1.326
 8412SOL     OW26134   2.612   2.201   0.125
 8412SOL    HW126135   2.562   2.116   0.139
 8412SOL    HW226136   2.548   2.278   0.124
 8413SOL     OW26137   4.060   5.971   4.893
 8413SOL    HW126138   4.070   5.994   4.796
 8413SOL    HW226139   4.008   5.886   4.902
 8414SOL     OW26140   1.805   0.093   0.954
 8414SOL    HW126141   1.770   0.187   0.961
 8414SOL    HW226142   1.869   0.076   1.030
 8415SOL     OW26143   3.700   1.613   6.070
 8415SOL    HW126144   3.713   1.645   5.976
 8415SOL    HW226145   3.651   1.683   6.122
 8416SOL     OW26146   0.331   2.244   4.809
 8416SOL    HW126147   0.317   2.299   4.892
 8416SOL    HW226148   0.330   2.304   4.729
 8417SOL     OW26149   1.954   3.197   6.160
 8417SOL    HW126150   1.927   3.108   6.123
 8417SOL    HW226151   1.873   3.245   6.192
 8418SOL     OW26152   6.311   6.388   2.433
 8418SOL    HW126153   6.409   6.398   2.415
 8418SOL    HW226154   6.278   6.304   2.389
 8419SOL     OW26155   3.662   1.764   4.175
 8419SOL    HW126156   3.627   1.749   4.082
 8419SOL    HW226157   3.705   1.854   4.180
 8420SOL     OW26158   4.034   1.151   2.352
 8420SOL    HW126159   4.016   1.097   2.435
 8420SOL    HW226160   3.948   1.171   2.306
 8421SOL     OW26161   4.703   0.049   6.542
 8421SOL    HW126162   4.610   0.083   6.554
 8421SOL    HW226163   4.767   0.126   6.544
 8422SOL     OW26164   5.161   1.936   4.498
 8422SOL    HW126165   5.185   1.992   4.577
 8422SOL    HW226166   5.229   1.948   4.426
 8423SOL     OW26167   6.399   5.769   0.581
 8423SOL    HW126168   6.447   5.715   0.512
 8423SOL    HW226169   6.346   5.841   0.537
 8424SOL     OW26170   2.733   0.451   5.259
 8424SOL    HW126171   2.756   0.354   5.260
 8424SOL    HW226172   2.793   0.499   5.194
 8425SOL     OW26173   3.531   3.197   2.037
 8425SOL    HW126174   3.521   3.177   2.134
 8425SOL    HW226175   3.484   3.282   2.015
 8426SOL     OW26176   3.636   3.196   1.470
 8426SOL    HW126177   3.594   3.284   1.448
 8426SOL    HW226178   3.710   3.210   1.536
 8427SOL     OW26179   3.929   3.599   2.668
 8427SOL    HW126180   3.933   3.688   2.713
 8427SOL    HW226181   3.922   3.612   2.569
 8428SOL     OW26182   5.436   0.932   1.521
 8428SOL    HW126183   5.442   0.839   1.557
 8428SOL    HW226184   5.431   0.929   1.421
 8429SOL     OW26185   3.252   6.036   5.632
 8429SOL    HW126186   3.159   6.073   5.635
 8429SOL    HW226187   3.255   5.947   5.678
 8430SOL     OW26188   5.468   6.966   5.478
 8430SOL    HW126189   5.404   0.015   5.504
 8430SOL    HW226190   5.470   6.897   5.550
 8431SOL     OW26191   2.467   3.484   6.403
 8431SOL    HW126192   2.561   3.497   6.434
 8431SOL    HW226193   2.465   3.484   6.303
 8432SOL     OW26194   6.524   5.188   5.345
 8432SOL    HW126195   6.462   5.239   5.286
 8432SOL    HW226196   6.474   5.153   5.424
 8433SOL     OW26197   4.541   1.574   0.806
 8433SOL    HW126198   4.523   1.671   0.790
 8433SOL    HW226199   4.458   1.521   0.790
 8434SOL     OW26200   2.667   6.200   4.555
 8434SOL    HW126201   2.615   6.164   4.632
 8434SOL    HW226202   2.764   6.181   4.568
 8435SOL     OW26203   6.739   1.599   3.351
 8435SOL    HW126204   6.662   1.538   3.370
 8435SOL    HW226205   6.743   1.671   3.420
 8436SOL     OW26206   2.503   5.055   2.629
 8436SOL    HW126207   2.508   5.044   2.529
 8436SOL    HW226208   2.420   5.106   2.652
 8437SOL     OW26209   1.565   5.694   0.094
 8437SOL    HW126210   1.528   5.785   0.072
 8437SOL    HW226211   1.653   5.682   0.049
 8438SOL     OW26212   1.048   4.180   2.305
 8438SOL    HW126213   0.975   4.111   2.307
 8438SOL    HW226214   1.131   4.143   2.344
 8439SOL     OW26215   5.654   4.288   2.559
 8439SOL    HW126216   5.745   4.276   2.517
 8439SOL    HW226217   5.598   4.208   2.539
 8440SOL     OW26218   1.495   1.779   2.653
 8440SOL    HW126219   1.532   1.858   2.605
 8440SOL    HW226220   1.567   1.734   2.706
 8441SOL     OW26221   6.947   2.792   6.485
 8441SOL    HW126222   0.016   2.823   6.467
 8441SOL    HW226223   6.904   2.765   6.399
 8442SOL     OW26224   3.808   2.784   6.390
 8442SOL    HW126225   3.866   2.757   6.313
 8442SOL    HW226226   3.712   2.770   6.366
 8443SOL     OW26227   1.997   4.038   3.037
 8443SOL    HW126228   2.081   4.092   3.029
 8443SOL    HW226229   1.996   3.991   3.126
 8444SOL     OW26230   5.302   5.700   5.212
 8444SOL    HW126231   5.339   5.789   5.239
 8444SOL    HW226232   5.346   5.628   5.264
 8445SOL     OW26233   4.696   6.323   6.496
 8445SOL    HW126234   4.622   6.357   6.554
 8445SOL    HW226235   4.774   6.297   6.552
 8446SOL     OW26236   6.384   6.331   4.562
 8446SOL    HW126237   6.470   6.368   4.597
 8446SOL    HW226238   6.310   6.395   4.583
 8447SOL     OW26239   3.435   1.891   4.301
 8447SOL    HW126240   3.491   1.820   4.258
 8447SOL    HW226241   3.396   1.950   4.231
 8448SOL     OW26242   3.511   6.993   2.665
 8448SOL    HW126243   3.563   7.006   2.750
 8448SOL    HW226244   3.438   0.037   2.660
 8449SOL     OW26245   0.860   2.661   3.852
 8449SOL    HW126246   0.857   2.696   3.759
 8449SOL    HW226247   0.905   2.572   3.854
 8450SOL     OW26248   6.715   1.396   0.861
 8450SOL    HW126249   6.803   1.364   0.896
 8450SOL    HW226250   6.693   1.484   0.903
 8451SOL     OW26251   4.363   2.407   0.524
 8451SOL    HW126252   4.267   2.417   0.550
 8451SOL    HW226253   4.369   2.382   0.427
 8452SOL     OW26254   5.152   0.840   5.757
 8452SOL    HW126255   5.097   0.919   5.786
 8452SOL    HW226256   5.148   0.770   5.828
 8453SOL     OW26257   0.302   0.595   0.090
 8453SOL    HW126258   0.297   0.497   0.108
 8453SOL    HW226259   0.390   0.630   0.122
 8454SOL     OW26260   6.233   5.507   0.211
 8454SOL    HW126261   6.189   5.593   0.240
 8454SOL    HW226262   6.184   5.470   0.132
 8455SOL     OW26263   6.024   0.871   3.095
 8455SOL    HW126264   6.068   0.950   3.137
 8455SOL    HW226265   5.946   0.843   3.151
 8456SOL     OW26266   6.147   0.202   2.385
 8456SOL    HW126267   6.200   0.127   2.425
 8456SOL    HW226268   6.126   0.180   2.290
 8457SOL     OW26269   6.106   0.001   5.167
 8457SOL    HW126270   6.093   6.939   5.117
 8457SOL    HW226271   6.064   7.017   5.257
 8458SOL     OW26272   1.417   6.444   0.433
 8458SOL    HW126273   1.499   6.502   0.435
 8458SOL    HW226274   1.335   6.501   0.434
 8459SOL     OW26275   0.655   6.237   3.255
 8459SOL    HW126276   0.585   6.307   3.244
 8459SOL    HW226277   0.745   6.281   3.258
 8460SOL     OW26278   4.021   3.187   3.964
 8460SOL    HW126279   4.032   3.181   4.063
 8460SOL    HW226280   4.044   3.279   3.933
 8461SOL     OW26281   6.332   3.497   3.539
 8461SOL    HW126282   6.282   3.424   3.587
 8461SOL    HW226283   6.333   3.579   3.596
 8462SOL     OW26284   2.400   2.507   2.143
 8462SOL    HW126285   2.482   2.462   2.108
 8462SOL    HW226286   2.346   2.442   2.198
 8463SOL     OW26287   6.672   0.085   1.745
 8463SOL    HW126288   6.630   0.175   1.762
 8463SOL    HW226289   6.702   0.080   1.650
 8464SOL     OW26290   6.621   1.039   4.461
 8464SOL    HW126291   6.550   0.973   4.487
 8464SOL    HW226292   6.611   1.122   4.515
 8465SOL     OW26293   2.325   0.883   0.532
 8465SOL    HW126294   2.234   0.914   0.559
 8465SOL    HW226295   2.335   0.891   0.433
 8466SOL     OW26296   0.952   6.903   4.293
 8466SOL    HW126297   0.884   6.970   4.261
 8466SOL    HW226298   0.909   6.814   4.303
 8467SOL     OW26299   3.723   5.322   1.228
 8467SOL    HW126300   3.807   5.306   1.178
 8467SOL    HW226301   3.665   5.386   1.177
 8468SOL     OW26302   4.557   2.830   0.014
 8468SOL    HW126303   4.482   2.865   6.981
 8468SOL    HW226304   4.523   2.811   0.106
 8469SOL     OW26305   5.196   2.781   5.479
 8469SOL    HW126306   5.280   2.800   5.529
 8469SOL    HW226307   5.173   2.684   5.486
 8470SOL     OW26308   1.709   2.633   6.867
 8470SOL    HW126309   1.609   2.626   6.865
 8470SOL    HW226310   1.741   2.619   6.961
 8471SOL     OW26311   3.914   1.725   5.672
 8471SOL    HW126312   3.949   1.764   5.586
 8471SOL    HW226313   3.814   1.727   5.671
 8472SOL     OW26314   1.738   5.871   2.552
 8472SOL    HW126315   1.673   5.914   2.615
 8472SOL    HW226316   1.819   5.929   2.543
 8473SOL     OW26317   6.475   5.507   6.903
 8473SOL    HW126318   6.557   5.473   6.950
 8473SOL    HW226319   6.502   5.545   6.814
 8474SOL     OW26320   4.446   5.634   0.033
 8474SOL    HW126321   4.523   5.585   7.015
 8474SOL    HW226322   4.416   5.708   6.997
 8475SOL     OW26323   5.084   1.399   2.955
 8475SOL    HW126324   5.179   1.426   2.936
 8475SOL    HW226325   5.024   1.440   2.886
 8476SOL     OW26326   4.999   0.516   2.607
 8476SOL    HW126327   5.001   0.615   2.595
 8476SOL    HW226328   5.056   0.472   2.538
 8477SOL     OW26329   2.721   0.454   3.353
 8477SOL    HW126330   2.625   0.430   3.338
 8477SOL    HW226331   2.728   0.552   3.372
 8478SOL     OW26332   1.114   1.053   6.143
 8478SOL    HW126333   1.187   1.121   6.132
 8478SOL    HW226334   1.155   0.962   6.151
 8479SOL     OW26335   5.295   0.271   2.209
 8479SOL    HW126336   5.375   0.213   2.218
 8479SOL    HW226337   5.317   0.351   2.153
 8480SOL     OW26338   1.948   1.015   2.087
 8480SOL    HW126339   1.895   1.097   2.066
 8480SOL    HW226340   2.041   1.026   2.051
 8481SOL     OW26341   3.664   0.154   5.526
 8481SOL    HW126342   3.602   0.226   5.494
 8481SOL    HW226343   3.616   0.066   5.526
 8482SOL     OW26344   6.551   0.500   1.605
 8482SOL    HW126345   6.519   0.426   1.545
 8482SOL    HW226346   6.555   0.467   1.699
 8483SOL     OW26347   4.908   6.220   1.411
 8483SOL    HW126348   4.965   6.274   1.474
 8483SOL    HW226349   4.828   6.273   1.384
 8484SOL     OW26350   6.196   4.802   5.649
 8484SOL    HW126351   6.130   4.827   5.577
 8484SOL    HW226352   6.209   4.880   5.710
 8485SOL     OW26353   2.336   3.295   6.545
 8485SOL    HW126354   2.277   3.256   6.474
 8485SOL    HW226355   2.386   3.373   6.507
 8486SOL     OW26356   4.538   0.357   2.100
 8486SOL    HW126357   4.472   0.348   2.174
 8486SOL    HW226358   4.574   0.266   2.076
 8487SOL     OW26359   4.134   0.365   0.700
 8487SOL    HW126360   4.102   0.459   0.710
 8487SOL    HW226361   4.177   0.336   0.786
 8488SOL     OW26362   0.035   4.030   5.641
 8488SOL    HW126363   6.976   4.082   5.662
 8488SOL    HW226364   0.028   3.939   5.681
 8489SOL     OW26365   3.568   0.052   3.384
 8489SOL    HW126366   3.602   0.023   3.473
 8489SOL    HW226367   3.513   0.135   3.394
 8490SOL     OW26368   3.717   4.903   2.444
 8490SOL    HW126369   3.813   4.876   2.433
 8490SOL    HW226370   3.703   4.939   2.536
 8491SOL     OW26371   0.361   1.053   1.124
 8491SOL    HW126372   0.306   0.985   1.173
 8491SOL    HW226373   0.453   1.016   1.108
 8492SOL     OW26374   6.024   3.965   4.983
 8492SOL    HW126375   6.094   3.894   4.995
 8492SOL    HW226376   6.069   4.052   4.962
 8493SOL     OW26377   3.915   2.994   0.388
 8493SOL    HW126378   3.887   2.994   0.484
 8493SOL    HW226379   3.974   2.916   0.370
 8494SOL     OW26380   3.395   6.240   6.700
 8494SOL    HW126381   3.306   6.286   6.705
 8494SOL    HW226382   3.391   6.169   6.629
 8495SOL     OW26383   0.337   3.196   6.320
 8495SOL    HW126384   0.332   3.110   6.268
 8495SOL    HW226385   0.272   3.192   6.396
 8496SOL     OW26386   1.294   2.139   4.141
 8496SOL    HW126387   1.388   2.116   4.115
 8496SOL    HW226388   1.237   2.057   4.140
 8497SOL     OW26389   5.553   3.729   3.913
 8497SOL    HW126390   5.483   3.663   3.889
 8497SOL    HW226391   5.527   3.820   3.880
 8498SOL     OW26392   6.830   0.916   1.786
 8498SOL    HW126393   6.742   0.869   1.783
 8498SOL    HW226394   6.842   0.961   1.874
 8499SOL     OW26395   0.030   4.308   0.871
 8499SOL    HW126396   0.059   4.212   0.863
 8499SOL    HW226397   0.032   4.334   0.967
 8500SOL     OW26398   2.082   0.641   4.965
 8500SOL    HW126399   2.105   0.576   4.892
 8500SOL    HW226400   1.983   0.649   4.973
 8501SOL     OW26401   3.139   3.844   6.398
 8501SOL    HW126402   3.133   3.845   6.298
 8501SOL    HW226403   3.067   3.786   6.435
 8502SOL     OW26404   0.522   6.303   0.945
 8502SOL    HW126405   0.606   6.317   0.998
 8502SOL    HW226406   0.460   6.380   0.961
 8503SOL     OW26407   4.070   5.674   3.127
 8503SOL    HW126408   4.066   5.711   3.034
 8503SOL    HW226409   4.157   5.700   3.169
 8504SOL     OW26410   1.889   4.800   3.118
 8504SOL    HW126411   1.880   4.889   3.163
 8504SOL    HW226412   1.937   4.811   3.031
 8505SOL     OW26413   4.164   1.779   2.363
 8505SOL    HW126414   4.165   1.799   2.265
 8505SOL    HW226415   4.161   1.866   2.414
 8506SOL     OW26416   0.614   5.198   6.970
 8506SOL    HW126417   0.577   5.148   6.891
 8506SOL    HW226418   0.706   5.233   6.947
 8507SOL     OW26419   2.031   0.528   4.146
 8507SOL    HW126420   2.125   0.500   4.125
 8507SOL    HW226421   2.015   0.519   4.244
 8508SOL     OW26422   0.890   3.659   5.972
 8508SOL    HW126423   0.959   3.662   6.044
 8508SOL    HW226424   0.932   3.630   5.886
 8509SOL     OW26425   6.595   2.373   4.599
 8509SOL    HW126426   6.659   2.296   4.609
 8509SOL    HW226427   6.617   2.444   4.665
 8510SOL     OW26428   5.283   6.708   2.835
 8510SOL    HW126429   5.302   6.717   2.933
 8510SOL    HW226430   5.230   6.787   2.804
 8511SOL     OW26431   6.552   5.173   1.373
 8511SOL    HW126432   6.609   5.100   1.337
 8511SOL    HW226433   6.606   5.232   1.433
 8512SOL     OW26434   3.916   2.991   0.921
 8512SOL    HW126435   3.823   2.973   0.954
 8512SOL    HW226436   3.982   2.965   0.991
 8513SOL     OW26437   0.666   3.608   0.613
 8513SOL    HW126438   0.605   3.680   0.646
 8513SOL    HW226439   0.635   3.519   0.647
 8514SOL     OW26440   2.185   3.116   5.018
 8514SOL    HW126441   2.272   3.068   5.025
 8514SOL    HW226442   2.201   3.214   5.012
 8515SOL     OW26443   3.296   1.321   0.167
 8515SOL    HW126444   3.219   1.326   0.231
 8515SOL    HW226445   3.353   1.402   0.176
 8516SOL     OW26446   6.680   3.466   5.214
 8516SOL    HW126447   6.775   3.495   5.198
 8516SOL    HW226448   6.668   3.444   5.310
 8517SOL     OW26449   1.291   2.072   5.711
 8517SOL    HW126450   1.362   2.142   5.714
 8517SOL    HW226451   1.303   2.009   5.788
 8518SOL     OW26452   5.454   5.050   0.266
 8518SOL    HW126453   5.433   5.082   0.174
 8518SOL    HW226454   5.431   5.122   0.332
 8519SOL     OW26455   1.128   3.788   1.097
 8519SOL    HW126456   1.158   3.803   1.003
 8519SOL    HW226457   1.050   3.847   1.117
 8520SOL     OW26458   3.593   3.920   6.074
 8520SOL    HW126459   3.523   3.938   6.005
 8520SOL    HW226460   3.582   3.985   6.150
 8521SOL     OW26461   2.051   0.085   4.595
 8521SOL    HW126462   1.990   0.126   4.528
 8521SOL    HW226463   2.106   0.013   4.551
 8522SOL     OW26464   0.560   0.512   7.020
 8522SOL    HW126465   0.622   0.452   0.047
 8522SOL    HW226466   0.540   0.470   6.931
 8523SOL     OW26467   4.112   2.022   1.467
 8523SOL    HW126468   4.109   1.959   1.544
 8523SOL    HW226469   4.206   2.026   1.431
 8524SOL     OW26470   2.798   6.134   5.432
 8524SOL    HW126471   2.771   6.224   5.468
 8524SOL    HW226472   2.801   6.068   5.506
 8525SOL     OW26473   6.073   2.635   3.366
 8525SOL    HW126474   5.982   2.645   3.407
 8525SOL    HW226475   6.085   2.704   3.294
 8526SOL     OW26476   0.698   4.650   6.442
 8526SOL    HW126477   0.618   4.657   6.382
 8526SOL    HW226478   0.677   4.590   6.519
 8527SOL     OW26479   2.263   1.148   6.397
 8527SOL    HW126480   2.229   1.194   6.479
 8527SOL    HW226481   2.283   1.052   6.418
 8528SOL     OW26482   5.742   0.003   0.737
 8528SOL    HW126483   5.664   6.993   0.683
 8528SOL    HW226484   5.749   0.102   0.728
 8529SOL     OW26485   1.087   6.486   6.734
 8529SOL    HW126486   1.033   6.403   6.719
 8529SOL    HW226487   1.174   6.479   6.685
 8530SOL     OW26488   3.641   4.168   2.968
 8530SOL    HW126489   3.673   4.105   3.040
 8530SOL    HW226490   3.645   4.262   3.002
 8531SOL     OW26491   6.451   5.926   2.910
 8531SOL    HW126492   6.447   5.846   2.969
 8531SOL    HW226493   6.423   5.901   2.817
 8532SOL     OW26494   3.481   5.464   0.383
 8532SOL    HW126495   3.391   5.460   0.427
 8532SOL    HW226496   3.517   5.557   0.389
 8533SOL     OW26497   2.883   5.656   5.429
 8533SOL    HW126498   2.885   5.590   5.504
 8533SOL    HW226499   2.795   5.649   5.381
 8534SOL     OW26500   1.872   3.417   2.025
 8534SOL    HW126501   1.806   3.374   2.087
 8534SOL    HW226502   1.936   3.473   2.079
 8535SOL     OW26503   6.376   0.054   1.790
 8535SOL    HW126504   6.372   0.058   1.890
 8535SOL    HW226505   6.411   0.141   1.755
 8536SOL     OW26506   1.857   0.734   4.125
 8536SOL    HW126507   1.914   0.652   4.131
 8536SOL    HW226508   1.916   0.814   4.114
 8537SOL     OW26509   5.508   0.859   3.162
 8537SOL    HW126510   5.491   0.938   3.102
 8537SOL    HW226511   5.572   0.885   3.234
 8538SOL     OW26512   0.447   2.359   6.442
 8538SOL    HW126513   0.498   2.343   6.357
 8538SOL    HW226514   0.483   2.301   6.514
 8539SOL     OW26515   5.239   3.879   2.146
 8539SOL    HW126516   5.265   3.955   2.205
 8539SOL    HW226517   5.203   3.805   2.202
 8540SOL     OW26518   4.161   0.082   0.896
 8540SOL    HW126519   4.159   0.034   0.984
 8540SOL    HW226520   4.238   0.146   0.895
 8541SOL     OW26521   1.329   3.039   3.468
 8541SOL    HW126522   1.276   2.996   3.395
 8541SOL    HW226523   1.391   2.972   3.509
 8542SOL     OW26524   3.131   5.025   6.594
 8542SOL    HW126525   3.171   4.973   6.518
 8542SOL    HW226526   3.050   5.074   6.562
 8543SOL     OW26527   4.208   2.334   6.562
 8543SOL    HW126528   4.166   2.415   6.521
 8543SOL    HW226529   4.240   2.356   6.654
 8544SOL     OW26530   5.621   2.039   4.385
 8544SOL    HW126531   5.644   2.136   4.386
 8544SOL    HW226532   5.636   2.000   4.476
 8545SOL     OW26533   4.302   0.163   5.424
 8545SOL    HW126534   4.261   0.225   5.491
 8545SOL    HW226535   4.234   0.140   5.355
 8546SOL     OW26536   4.375   2.160   6.423
 8546SOL    HW126537   4.297   2.215   6.454
 8546SOL    HW226538   4.385   2.079   6.482
 8547SOL     OW26539   1.374   4.535   2.325
 8547SOL    HW126540   1.285   4.581   2.333
 8547SOL    HW226541   1.436   4.590   2.269
 8548SOL     OW26542   5.948   2.527   5.370
 8548SOL    HW126543   5.988   2.436   5.354
 8548SOL    HW226544   6.000   2.574   5.442
 8549SOL     OW26545   5.248   2.782   4.675
 8549SOL    HW126546   5.333   2.823   4.710
 8549SOL    HW226547   5.196   2.745   4.752
 8550SOL     OW26548   1.514   4.714   5.414
 8550SOL    HW126549   1.602   4.744   5.376
 8550SOL    HW226550   1.479   4.783   5.477
 8551SOL     OW26551   2.480   4.785   0.963
 8551SOL    HW126552   2.437   4.861   1.012
 8551SOL    HW226553   2.529   4.727   1.028
 8552SOL     OW26554   3.030   6.868   3.987
 8552SOL    HW126555   3.023   6.873   4.086
 8552SOL    HW226556   3.126   6.862   3.960
 8553SOL     OW26557   6.067   5.443   0.552
 8553SOL    HW126558   6.087   5.540   0.562
 8553SOL    HW226559   5.996   5.431   0.482
 8554SOL     OW26560   5.606   3.716   0.102
 8554SOL    HW126561   5.510   3.689   0.090
 8554SOL    HW226562   5.665   3.649   0.057
 8555SOL     OW26563   1.920   6.229   4.189
 8555SOL    HW126564   1.854   6.159   4.219
 8555SOL    HW226565   1.888   6.270   4.104
 8556SOL     OW26566   5.357   0.294   5.172
 8556SOL    HW126567   5.367   0.346   5.257
 8556SOL    HW226568   5.413   0.336   5.101
 8557SOL     OW26569   6.725   1.535   1.353
 8557SOL    HW126570   6.769   1.547   1.264
 8557SOL    HW226571   6.689   1.623   1.385
 8558SOL     OW26572   2.015   4.684   2.367
 8558SOL    HW126573   1.959   4.707   2.447
 8558SOL    HW226574   2.024   4.585   2.360
 8559SOL     OW26575   1.227   1.060   5.055
 8559SOL    HW126576   1.135   1.037   5.024
 8559SOL    HW226577   1.278   1.104   4.981
 8560SOL     OW26578   6.551   3.179   7.019
 8560SOL    HW126579   6.625   3.242   6.995
 8560SOL    HW226580   6.553   3.100   6.958
 8561SOL     OW26581   5.027   6.434   6.230
 8561SOL    HW126582   5.009   6.354   6.172
 8561SOL    HW226583   4.942   6.461   6.276
 8562SOL     OW26584   3.790   0.699   4.268
 8562SOL    HW126585   3.732   0.675   4.345
 8562SOL    HW226586   3.845   0.620   4.241
 8563SOL     OW26587   2.674   2.922   6.266
 8563SOL    HW126588   2.627   2.938   6.180
 8563SOL    HW226589   2.755   2.865   6.250
 8564SOL     OW26590   0.881   5.286   3.999
 8564SOL    HW126591   0.843   5.378   3.997
 8564SOL    HW226592   0.915   5.262   3.908
 8565SOL     OW26593   3.545   0.800   1.479
 8565SOL    HW126594   3.549   0.866   1.555
 8565SOL    HW226595   3.486   0.724   1.506
 8566SOL     OW26596   1.244   4.556   4.393
 8566SOL    HW126597   1.185   4.624   4.437
 8566SOL    HW226598   1.334   4.556   4.437
 8567SOL     OW26599   5.189   6.811   6.419
 8567SOL    HW126600   5.138   6.815   6.333
 8567SOL    HW226601   5.127   6.828   6.496
 8568SOL     OW26602   5.421   6.823   0.686
 8568SOL    HW126603   5.435   6.883   0.607
 8568SOL    HW226604   5.473   6.739   0.673
 8569SOL     OW26605   2.577   0.734   5.463
 8569SOL    HW126606   2.579   0.649   5.515
 8569SOL    HW226607   2.531   0.718   5.375
 8570SOL     OW26608   6.922   3.620   6.106
 8570SOL    HW126609   6.903   3.683   6.180
 8570SOL    HW226610   6.911   3.666   6.018
 8571SOL     OW26611   6.798   4.778   6.235
 8571SOL    HW126612   6.870   4.723   6.192
 8571SOL    HW226613   6.836   4.824   6.316
 8572SOL     OW26614   2.587   4.956   6.454
 8572SOL    HW126615   2.594   4.857   6.472
 8572SOL    HW226616   2.571   5.004   6.540
 8573SOL     OW26617   3.381   5.893   4.162
 8573SOL    HW126618   3.341   5.802   4.169
 8573SOL    HW226619   3.465   5.889   4.108
 8574SOL     OW26620   1.132   3.937   4.413
 8574SOL    HW126621   1.183   3.855   4.386
 8574SOL    HW226622   1.041   3.910   4.446
 8575SOL     OW26623   2.728   3.510   6.460
 8575SOL    HW126624   2.727   3.410   6.465
 8575SOL    HW226625   2.809   3.540   6.409
 8576SOL     OW26626   1.890   0.578   0.496
 8576SOL    HW126627   1.797   0.553   0.524
 8576SOL    HW226628   1.936   0.624   0.572
 8577SOL     OW26629   6.487   6.125   4.789
 8577SOL    HW126630   6.411   6.100   4.729
 8577SOL    HW226631   6.570   6.134   4.735
 8578SOL     OW26632   4.577   0.715   4.506
 8578SOL    HW126633   4.649   0.780   4.529
 8578SOL    HW226634   4.509   0.713   4.579
 8579SOL     OW26635   0.327   4.770   2.456
 8579SOL    HW126636   0.356   4.758   2.361
 8579SOL    HW226637   0.261   4.844   2.462
 8580SOL     OW26638   2.035   5.475   6.139
 8580SOL    HW126639   2.030   5.375   6.141
 8580SOL    HW226640   2.021   5.507   6.046
 8581SOL     OW26641   3.553   3.544   0.048
 8581SOL    HW126642   3.592   3.469   0.103
 8581SOL    HW226643   3.488   3.596   0.104
 8582SOL     OW26644   3.211   5.135   0.047
 8582SOL    HW126645   3.281   5.206   0.047
 8582SOL    HW226646   3.159   5.138   0.132
 8583SOL     OW26647   5.593   6.892   4.400
 8583SOL    HW126648   5.600   6.806   4.348
 8583SOL    HW226649   5.667   6.953   4.372
 8584SOL     OW26650   0.609   5.697   6.258
 8584SOL    HW126651   0.510   5.706   6.248
 8584SOL    HW226652   0.646   5.646   6.180
 8585SOL     OW26653   1.463   1.103   0.468
 8585SOL    HW126654   1.493   1.171   0.401
 8585SOL    HW226655   1.367   1.118   0.490
 8586SOL     OW26656   3.684   5.429   3.650
 8586SOL    HW126657   3.689   5.428   3.750
 8586SOL    HW226658   3.588   5.425   3.621
 8587SOL     OW26659   6.929   1.843   0.888
 8587SOL    HW126660   6.887   1.930   0.916
 8587SOL    HW226661   6.880   1.807   0.809
 8588SOL     OW26662   3.679   3.017   6.540
 8588SOL    HW126663   3.743   2.953   6.498
 8588SOL    HW226664   3.600   3.030   6.480
 8589SOL     OW26665   3.163   1.617   3.940
 8589SOL    HW126666   3.106   1.665   4.007
 8589SOL    HW226667   3.253   1.598   3.980
 8590SOL     OW26668   5.181   4.255   5.649
 8590SOL    HW126669   5.215   4.278   5.558
 8590SOL    HW226670   5.152   4.160   5.651
 8591SOL     OW26671   0.384   3.186   0.879
 8591SOL    HW126672   0.472   3.227   0.901
 8591SOL    HW226673   0.398   3.093   0.844
 8592SOL     OW26674   6.396   6.165   0.130
 8592SOL    HW126675   6.429   6.117   0.049
 8592SOL    HW226676   6.409   6.106   0.210
 8593SOL     OW26677   0.775   5.133   3.611
 8593SOL    HW126678   0.784   5.053   3.552
 8593SOL    HW226679   0.758   5.214   3.555
 8594SOL     OW26680   3.945   3.682   2.395
 8594SOL    HW126681   3.942   3.774   2.434
 8594SOL    HW226682   3.860   3.662   2.347
 8595SOL     OW26683   1.310   2.513   2.016
 8595SOL    HW126684   1.389   2.535   1.959
 8595SOL    HW226685   1.286   2.591   2.072
 8596SOL     OW26686   6.592   4.090   2.782
 8596SOL    HW126687   6.636   4.014   2.829
 8596SOL    HW226688   6.560   4.156   2.850
 8597SOL     OW26689   1.924   2.035   1.049
 8597SOL    HW126690   1.973   2.066   1.131
 8597SOL    HW226691   1.949   1.940   1.030
 8598SOL     OW26692   6.157   2.503   1.770
 8598SOL    HW126693   6.096   2.539   1.700
 8598SOL    HW226694   6.163   2.404   1.760
 8599SOL     OW26695   0.927   2.510   0.601
 8599SOL    HW126696   0.965   2.433   0.651
 8599SOL    HW226697   1.001   2.566   0.564
 8600SOL     OW26698   0.398   2.699   5.845
 8600SOL    HW126699   0.359   2.770   5.787
 8600SOL    HW226700   0.494   2.685   5.822
 8601SOL     OW26701   0.781   0.196   4.687
 8601SOL    HW126702   0.741   0.137   4.756
 8601SOL    HW226703   0.852   0.146   4.638
 8602SOL     OW26704   1.086   6.194   2.561
 8602SOL    HW126705   0.993   6.174   2.592
 8602SOL    HW226706   1.150   6.133   2.606
 8603SOL     OW26707   4.938   3.825   1.912
 8603SOL    HW126708   5.005   3.897   1.892
 8603SOL    HW226709   4.857   3.839   1.856
 8604SOL     OW26710   6.049   2.049   3.458
 8604SOL    HW126711   6.064   2.088   3.549
 8604SOL    HW226712   6.135   2.049   3.407
 8605SOL     OW26713   2.386   5.628   1.546
 8605SOL    HW126714   2.448   5.697   1.584
 8605SOL    HW226715   2.301   5.628   1.599
 8606SOL     OW26716   3.974   5.397   4.425
 8606SOL    HW126717   4.022   5.312   4.449
 8606SOL    HW226718   3.927   5.384   4.338
 8607SOL     OW26719   3.094   6.070   0.231
 8607SOL    HW126720   3.130   6.012   0.157
 8607SOL    HW226721   3.152   6.060   0.312
 8608SOL     OW26722   5.666   6.293   2.337
 8608SOL    HW126723   5.571   6.295   2.306
 8608SOL    HW226724   5.675   6.348   2.420
 8609SOL     OW26725   5.854   6.993   5.818
 8609SOL    HW126726   5.801   0.045   5.780
 8609SOL    HW226727   5.820   6.907   5.782
 8610SOL     OW26728   6.708   6.783   4.672
 8610SOL    HW126729   6.681   6.789   4.576
 8610SOL    HW226730   6.657   6.851   4.726
 8611SOL     OW26731   1.656   1.698   2.867
 8611SOL    HW126732   1.698   1.625   2.813
 8611SOL    HW226733   1.727   1.759   2.903
 8612SOL     OW26734   5.010   3.304   4.406
 8612SOL    HW126735   5.101   3.269   4.428
 8612SOL    HW226736   4.955   3.230   4.368
 8613SOL     OW26737   1.582   0.701   0.626
 8613SOL    HW126738   1.553   0.786   0.671
 8613SOL    HW226739   1.572   0.710   0.527
 8614SOL     OW26740   1.648   2.777   3.238
 8614SOL    HW126741   1.744   2.768   3.215
 8614SOL    HW226742   1.638   2.802   3.334
 8615SOL     OW26743   5.005   1.596   6.129
 8615SOL    HW126744   4.935   1.582   6.059
 8615SOL    HW226745   4.967   1.572   6.219
 8616SOL     OW26746   1.535   3.376   1.241
 8616SOL    HW126747   1.476   3.311   1.193
 8616SOL    HW226748   1.559   3.341   1.331
 8617SOL     OW26749   6.332   3.259   0.492
 8617SOL    HW126750   6.243   3.283   0.531
 8617SOL    HW226751   6.319   3.195   0.417
 8618SOL     OW26752   3.121   1.346   2.987
 8618SOL    HW126753   3.142   1.289   3.066
 8618SOL    HW226754   3.026   1.375   2.991
 8619SOL     OW26755   3.709   6.534   0.770
 8619SOL    HW126756   3.808   6.535   0.755
 8619SOL    HW226757   3.689   6.499   0.861
 8620SOL     OW26758   5.989   6.111   3.947
 8620SOL    HW126759   5.917   6.042   3.955
 8620SOL    HW226760   5.994   6.144   3.853
 8621SOL     OW26761   4.955   1.286   3.683
 8621SOL    HW126762   4.869   1.235   3.686
 8621SOL    HW226763   4.937   1.382   3.705
 8622SOL     OW26764   5.343   5.083   6.320
 8622SOL    HW126765   5.388   5.056   6.405
 8622SOL    HW226766   5.293   5.006   6.282
 8623SOL     OW26767   5.693   1.724   3.736
 8623SOL    HW126768   5.735   1.758   3.651
 8623SOL    HW226769   5.620   1.786   3.764
 8624SOL     OW26770   6.620   2.637   3.569
 8624SOL    HW126771   6.673   2.617   3.486
 8624SOL    HW226772   6.621   2.736   3.586
 8625SOL     OW26773   3.695   1.642   6.687
 8625SOL    HW126774   3.644   1.637   6.601
 8625SOL    HW226775   3.659   1.574   6.751
 8626SOL     OW26776   2.965   4.009   1.617
 8626SOL    HW126777   3.058   3.974   1.624
 8626SOL    HW226778   2.962   4.103   1.651
 8627SOL     OW26779   3.345   0.595   6.579
 8627SOL    HW126780   3.316   0.513   6.529
 8627SOL    HW226781   3.393   0.567   6.662
 8628SOL     OW26782   6.301   0.794   1.896
 8628SOL    HW126783   6.231   0.799   1.966
 8628SOL    HW226784   6.390   0.813   1.936
 8629SOL     OW26785   1.235   6.002   3.157
 8629SOL    HW126786   1.323   5.973   3.118
 8629SOL    HW226787   1.249   6.082   3.215
 8630SOL     OW26788   5.087   4.790   4.271
 8630SOL    HW126789   5.168   4.766   4.325
 8630SOL    HW226790   5.005   4.759   4.319
 8631SOL     OW26791   4.177   6.747   3.473
 8631SOL    HW126792   4.224   6.830   3.504
 8631SOL    HW226793   4.081   6.769   3.455
 8632SOL     OW26794   3.056   0.979   2.926
 8632SOL    HW126795   3.041   0.895   2.873
 8632SOL    HW226796   3.149   0.978   2.963
 8633SOL     OW26797   6.090   6.614   2.982
 8633SOL    HW126798   6.137   6.582   2.900
 8633SOL    HW226799   6.014   6.553   3.003
 8634SOL     OW26800   5.906   6.602   1.633
 8634SOL    HW126801   5.857   6.678   1.675
 8634SOL    HW226802   5.903   6.612   1.533
 8635SOL     OW26803   6.108   3.801   5.955
 8635SOL    HW126804   6.076   3.814   6.049
 8635SOL    HW226805   6.106   3.703   5.933
 8636SOL     OW26806   5.839   4.829   1.268
 8636SOL    HW126807   5.889   4.796   1.187
 8636SOL    HW226808   5.881   4.913   1.301
 8637SOL     OW26809   1.017   0.432   2.106
 8637SOL    HW126810   0.997   0.364   2.036
 8637SOL    HW226811   0.952   0.508   2.099
 8638SOL     OW26812   6.364   4.465   1.296
 8638SOL    HW126813   6.282   4.422   1.257
 8638SOL    HW226814   6.336   4.530   1.367
 8639SOL     OW26815   5.948   2.407   3.583
 8639SOL    HW126816   5.992   2.394   3.494
 8639SOL    HW226817   5.917   2.318   3.618
 8640SOL     OW26818   4.860   5.759   1.315
 8640SOL    HW126819   4.905   5.674   1.342
 8640SOL    HW226820   4.790   5.739   1.246
 8641SOL     OW26821   4.793   4.987   3.932
 8641SOL    HW126822   4.764   5.045   4.007
 8641SOL    HW226823   4.882   5.018   3.898
 8642SOL     OW26824   4.310   0.896   0.945
 8642SOL    HW126825   4.318   0.892   0.845
 8642SOL    HW226826   4.400   0.908   0.986
 8643SOL     OW26827   5.111   0.086   0.355
 8643SOL    HW126828   5.046   0.056   0.286
 8643SOL    HW226829   5.197   0.036   0.344
 8644SOL     OW26830   6.112   2.986   5.631
 8644SOL    HW126831   6.095   3.010   5.536
 8644SOL    HW226832   6.064   3.050   5.691
 8645SOL     OW26833   6.603   3.662   2.063
 8645SOL    HW126834   6.602   3.606   2.146
 8645SOL    HW226835   6.670   3.736   2.074
 8646SOL     OW26836   4.387   6.453   0.462
 8646SOL    HW126837   4.444   6.420   0.537
 8646SOL    HW226838   4.392   6.389   0.385
 8647SOL     OW26839   5.056   4.849   2.008
 8647SOL    HW126840   5.052   4.936   1.958
 8647SOL    HW226841   5.130   4.793   1.971
 8648SOL     OW26842   6.307   0.647   4.277
 8648SOL    HW126843   6.341   0.711   4.346
 8648SOL    HW226844   6.378   0.630   4.210
 8649SOL     OW26845   6.364   3.196   5.776
 8649SOL    HW126846   6.428   3.119   5.785
 8649SOL    HW226847   6.272   3.165   5.800
 8650SOL     OW26848   0.728   5.626   1.961
 8650SOL    HW126849   0.661   5.575   2.016
 8650SOL    HW226850   0.805   5.566   1.939
 8651SOL     OW26851   4.435   3.342   1.097
 8651SOL    HW126852   4.405   3.410   1.163
 8651SOL    HW226853   4.409   3.250   1.129
 8652SOL     OW26854   0.793   2.237   4.788
 8652SOL    HW126855   0.720   2.271   4.729
 8652SOL    HW226856   0.862   2.191   4.732
 8653SOL     OW26857   5.192   3.873   6.456
 8653SOL    HW126858   5.251   3.946   6.493
 8653SOL    HW226859   5.146   3.826   6.532
 8654SOL     OW26860   1.834   4.522   1.541
 8654SOL    HW126861   1.765   4.481   1.602
 8654SOL    HW226862   1.890   4.586   1.593
 8655SOL     OW26863   5.660   6.112   2.853
 8655SOL    HW126864   5.641   6.017   2.828
 8655SOL    HW226865   5.715   6.114   2.937
 8656SOL     OW26866   6.487   2.113   1.978
 8656SOL    HW126867   6.488   2.151   2.071
 8656SOL    HW226868   6.476   2.187   1.912
 8657SOL     OW26869   2.872   5.126   0.712
 8657SOL    HW126870   2.844   5.173   0.796
 8657SOL    HW226871   2.803   5.141   0.641
 8658SOL     OW26872   1.325   5.821   5.461
 8658SOL    HW126873   1.265   5.790   5.535
 8658SOL    HW226874   1.310   5.918   5.444
 8659SOL     OW26875   3.330   0.004   4.520
 8659SOL    HW126876   3.372   0.052   4.597
 8659SOL    HW226877   3.364   0.043   4.434
 8660SOL     OW26878   4.829   4.289   0.268
 8660SOL    HW126879   4.847   4.195   0.297
 8660SOL    HW226880   4.839   4.351   0.346
 8661SOL     OW26881   6.580   2.756   1.866
 8661SOL    HW126882   6.661   2.814   1.868
 8661SOL    HW226883   6.538   2.755   1.957
 8662SOL     OW26884   0.472   1.263   7.021
 8662SOL    HW126885   0.463   1.236   6.925
 8662SOL    HW226886   0.563   1.301   0.013
 8663SOL     OW26887   3.066   5.573   0.758
 8663SOL    HW126888   3.145   5.579   0.697
 8663SOL    HW226889   3.093   5.533   0.845
 8664SOL     OW26890   4.528   4.363   1.140
 8664SOL    HW126891   4.558   4.457   1.149
 8664SOL    HW226892   4.488   4.332   1.226
 8665SOL     OW26893   5.422   5.201   4.348
 8665SOL    HW126894   5.492   5.236   4.411
 8665SOL    HW226895   5.353   5.271   4.331
 8666SOL     OW26896   6.755   4.905   4.646
 8666SOL    HW126897   6.689   4.832   4.629
 8666SOL    HW226898   6.780   4.905   4.743
 8667SOL     OW26899   5.402   2.891   3.242
 8667SOL    HW126900   5.350   2.816   3.201
 8667SOL    HW226901   5.412   2.965   3.176
 8668SOL     OW26902   3.360   0.718   5.084
 8668SOL    HW126903   3.406   0.778   5.018
 8668SOL    HW226904   3.265   0.704   5.055
 8669SOL     OW26905   3.680   6.303   6.578
 8669SOL    HW126906   3.588   6.283   6.613
 8669SOL    HW226907   3.747   6.251   6.630
 8670SOL     OW26908   4.304   4.598   2.807
 8670SOL    HW126909   4.281   4.609   2.904
 8670SOL    HW226910   4.274   4.679   2.756
 8671SOL     OW26911   6.078   5.454   1.567
 8671SOL    HW126912   6.166   5.419   1.534
 8671SOL    HW226913   6.080   5.459   1.667
 8672SOL     OW26914   4.022   4.933   4.788
 8672SOL    HW126915   4.061   4.894   4.871
 8672SOL    HW226916   4.036   5.033   4.788
 8673SOL     OW26917   4.891   2.174   6.852
 8673SOL    HW126918   4.982   2.191   6.815
 8673SOL    HW226919   4.826   2.162   6.777
 8674SOL     OW26920   0.720   6.679   2.493
 8674SOL    HW126921   0.714   6.672   2.394
 8674SOL    HW226922   0.762   6.766   2.518
 8675SOL     OW26923   2.459   1.855   2.172
 8675SOL    HW126924   2.450   1.830   2.268
 8675SOL    HW226925   2.556   1.858   2.148
 8676SOL     OW26926   5.110   1.389   4.108
 8676SOL    HW126927   5.158   1.447   4.042
 8676SOL    HW226928   5.103   1.296   4.072
 8677SOL     OW26929   2.002   3.705   5.700
 8677SOL    HW126930   2.089   3.720   5.652
 8677SOL    HW226931   2.005   3.752   5.788
 8678SOL     OW26932   0.775   0.841   5.949
 8678SOL    HW126933   0.733   0.898   5.878
 8678SOL    HW226934   0.765   0.884   6.038
 8679SOL     OW26935   6.401   2.188   4.474
 8679SOL    HW126936   6.314   2.226   4.443
 8679SOL    HW226937   6.439   2.247   4.545
 8680SOL     OW26938   0.681   3.108   6.439
 8680SOL    HW126939   0.646   3.157   6.360
 8680SOL    HW226940   0.764   3.058   6.413
 8681SOL     OW26941   4.258   4.112   1.307
 8681SOL    HW126942   4.326   4.182   1.326
 8681SOL    HW226943   4.182   4.120   1.371
 8682SOL     OW26944   1.462   5.697   2.874
 8682SOL    HW126945   1.379   5.680   2.822
 8682SOL    HW226946   1.542   5.686   2.814
 8683SOL     OW26947   4.695   3.935   0.063
 8683SOL    HW126948   4.679   3.869   7.013
 8683SOL    HW226949   4.745   3.891   0.137
 8684SOL     OW26950   6.426   2.462   3.943
 8684SOL    HW126951   6.429   2.461   3.843
 8684SOL    HW226952   6.357   2.396   3.974
 8685SOL     OW26953   0.248   2.136   5.469
 8685SOL    HW126954   0.172   2.128   5.404
 8685SOL    HW226955   0.335   2.122   5.421
 8686SOL     OW26956   6.428   1.340   4.105
 8686SOL    HW126957   6.340   1.384   4.125
 8686SOL    HW226958   6.496   1.371   4.171
 8687SOL     OW26959   3.693   1.113   2.840
 8687SOL    HW126960   3.652   1.157   2.760
 8687SOL    HW226961   3.779   1.069   2.814
 8688SOL     OW26962   0.502   6.762   1.851
 8688SOL    HW126963   0.471   6.696   1.919
 8688SOL    HW226964   0.573   6.820   1.891
 8689SOL     OW26965   4.820   4.525   1.914
 8689SOL    HW126966   4.753   4.531   1.988
 8689SOL    HW226967   4.910   4.506   1.952
 8690SOL     OW26968   1.874   0.892   1.696
 8690SOL    HW126969   1.890   0.843   1.782
 8690SOL    HW226970   1.800   0.958   1.708
 8691SOL     OW26971   6.012   1.281   0.101
 8691SOL    HW126972   5.976   1.207   0.159
 8691SOL    HW226973   5.970   1.276   0.011
 8692SOL     OW26974   1.616   1.353   3.840
 8692SOL    HW126975   1.614   1.262   3.800
 8692SOL    HW226976   1.692   1.359   3.905
 8693SOL     OW26977   5.233   2.583   6.423
 8693SOL    HW126978   5.172   2.661   6.408
 8693SOL    HW226979   5.238   2.529   6.339
 8694SOL     OW26980   3.880   0.316   6.603
 8694SOL    HW126981   3.790   0.320   6.646
 8694SOL    HW226982   3.875   0.354   6.511
 8695SOL     OW26983   4.298   3.823   5.353
 8695SOL    HW126984   4.245   3.763   5.412
 8695SOL    HW226985   4.295   3.917   5.389
 8696SOL     OW26986   2.199   5.641   0.451
 8696SOL    HW126987   2.157   5.569   0.396
 8696SOL    HW226988   2.240   5.601   0.533
 8697SOL     OW26989   5.219   5.458   6.651
 8697SOL    HW126990   5.282   5.438   6.576
 8697SOL    HW226991   5.129   5.422   6.628
 8698SOL     OW26992   5.716   5.770   5.303
 8698SOL    HW126993   5.668   5.779   5.391
 8698SOL    HW226994   5.792   5.835   5.300
 8699SOL     OW26995   1.980   1.283   4.211
 8699SOL    HW126996   2.072   1.296   4.249
 8699SOL    HW226997   1.958   1.185   4.210
 8700SOL     OW26998   2.371   1.312   6.024
 8700SOL    HW126999   2.406   1.347   5.936
 8700SOL    HW227000   2.439   1.329   6.095
 8701SOL     OW27001   0.990   0.557   3.354
 8701SOL    HW127002   1.016   0.646   3.315
 8701SOL    HW227003   1.070   0.513   3.394
 8702SOL     OW27004   5.079   0.223   6.491
 8702SOL    HW127005   5.070   0.272   6.404
 8702SOL    HW227006   5.013   0.259   6.557
 8703SOL     OW27007   1.355   4.640   1.070
 8703SOL    HW127008   1.380   4.594   1.155
 8703SOL    HW227009   1.273   4.695   1.085
 8704SOL     OW27010   1.096   4.390   2.118
 8704SOL    HW127011   1.153   4.343   2.050
 8704SOL    HW227012   1.080   4.328   2.196
 8705SOL     OW27013   4.592   6.178   4.497
 8705SOL    HW127014   4.630   6.086   4.495
 8705SOL    HW227015   4.614   6.226   4.412
 8706SOL     OW27016   4.497   0.281   6.557
 8706SOL    HW127017   4.441   0.245   6.632
 8706SOL    HW227018   4.438   0.328   6.491
 8707SOL     OW27019   4.257   1.846   5.660
 8707SOL    HW127020   4.258   1.780   5.585
 8707SOL    HW227021   4.326   1.820   5.728
 8708SOL     OW27022   4.125   1.723   1.352
 8708SOL    HW127023   4.060   1.795   1.326
 8708SOL    HW227024   4.160   1.741   1.443
 8709SOL     OW27025   5.044   3.468   0.203
 8709SOL    HW127026   5.119   3.431   0.258
 8709SOL    HW227027   5.058   3.566   0.191
 8710SOL     OW27028   6.456   4.051   4.025
 8710SOL    HW127029   6.387   4.123   4.024
 8710SOL    HW227030   6.445   3.992   3.946
 8711SOL     OW27031   2.055   1.617   4.453
 8711SOL    HW127032   2.000   1.701   4.462
 8711SOL    HW227033   2.086   1.608   4.359
 8712SOL     OW27034   3.428   0.465   6.814
 8712SOL    HW127035   3.408   0.491   6.908
 8712SOL    HW227036   3.497   0.393   6.813
 8713SOL     OW27037   6.101   4.760   3.042
 8713SOL    HW127038   6.048   4.844   3.040
 8713SOL    HW227039   6.061   4.697   3.109
 8714SOL     OW27040   1.957   1.207   3.661
 8714SOL    HW127041   1.942   1.138   3.731
 8714SOL    HW227042   1.897   1.286   3.677
 8715SOL     OW27043   5.233   0.758   2.484
 8715SOL    HW127044   5.159   0.791   2.543
 8715SOL    HW227045   5.202   0.754   2.389
 8716SOL     OW27046   0.781   0.609   2.859
 8716SOL    HW127047   0.786   0.574   2.953
 8716SOL    HW227048   0.864   0.661   2.839
 8717SOL     OW27049   4.565   4.006   0.864
 8717SOL    HW127050   4.628   3.993   0.788
 8717SOL    HW227051   4.543   4.103   0.873
 8718SOL     OW27052   6.670   2.695   5.861
 8718SOL    HW127053   6.751   2.644   5.831
 8718SOL    HW227054   6.645   2.666   5.953
 8719SOL     OW27055   6.530   1.028   5.956
 8719SOL    HW127056   6.613   1.084   5.960
 8719SOL    HW227057   6.452   1.087   5.935
 8720SOL     OW27058   5.198   3.297   4.993
 8720SOL    HW127059   5.107   3.279   5.030
 8720SOL    HW227060   5.207   3.254   4.903
 8721SOL     OW27061   6.770   0.750   5.208
 8721SOL    HW127062   6.855   0.711   5.243
 8721SOL    HW227063   6.705   0.676   5.188
 8722SOL     OW27064   3.393   2.516   0.511
 8722SOL    HW127065   3.394   2.455   0.590
 8722SOL    HW227066   3.298   2.537   0.488
 8723SOL     OW27067   0.373   6.268   0.424
 8723SOL    HW127068   0.446   6.212   0.462
 8723SOL    HW227069   0.388   6.280   0.326
 8724SOL     OW27070   4.468   5.867   6.541
 8724SOL    HW127071   4.405   5.876   6.463
 8724SOL    HW227072   4.510   5.956   6.560
 8725SOL     OW27073   2.869   6.779   0.815
 8725SOL    HW127074   2.850   6.684   0.839
 8725SOL    HW227075   2.810   6.808   0.740
 8726SOL     OW27076   0.068   0.083   0.734
 8726SOL    HW127077   6.993   0.072   0.747
 8726SOL    HW227078   0.113   0.093   0.823
 8727SOL     OW27079   5.529   6.191   1.776
 8727SOL    HW127080   5.516   6.267   1.714
 8727SOL    HW227081   5.621   6.153   1.763
 8728SOL     OW27082   2.476   5.375   5.614
 8728SOL    HW127083   2.503   5.367   5.710
 8728SOL    HW227084   2.382   5.410   5.608
 8729SOL     OW27085   4.800   5.790   4.364
 8729SOL    HW127086   4.813   5.700   4.323
 8729SOL    HW227087   4.845   5.859   4.307
 8730SOL     OW27088   6.471   6.293   1.203
 8730SOL    HW127089   6.423   6.213   1.239
 8730SOL    HW227090   6.537   6.263   1.134
 8731SOL     OW27091   0.807   1.941   2.969
 8731SOL    HW127092   0.735   1.937   2.900
 8731SOL    HW227093   0.878   1.874   2.945
 8732SOL     OW27094   6.568   6.806   2.325
 8732SOL    HW127095   6.486   6.749   2.334
 8732SOL    HW227096   6.609   6.820   2.415
 8733SOL     OW27097   6.950   0.885   0.854
 8733SOL    HW127098   6.864   0.871   0.805
 8733SOL    HW227099   6.993   0.797   0.873
 8734SOL     OW27100   6.302   7.006   1.031
 8734SOL    HW127101   6.202   7.008   1.044
 8734SOL    HW227102   6.338   6.918   1.062
 8735SOL     OW27103   0.524   2.985   6.009
 8735SOL    HW127104   0.535   2.996   5.910
 8735SOL    HW227105   0.589   2.915   6.041
 8736SOL     OW27106   0.417   4.986   5.674
 8736SOL    HW127107   0.511   4.999   5.642
 8736SOL    HW227108   0.417   4.975   5.773
 8737SOL     OW27109   4.217   5.687   6.856
 8737SOL    HW127110   4.153   5.721   6.786
 8737SOL    HW227111   4.209   5.588   6.863
 8738SOL     OW27112   1.129   4.134   5.421
 8738SOL    HW127113   1.057   4.143   5.489
 8738SOL    HW227114   1.089   4.136   5.329
 8739SOL     OW27115   1.215   3.436   5.448
 8739SOL    HW127116   1.287   3.387   5.497
 8739SOL    HW227117   1.234   3.433   5.350
 8740SOL     OW27118   1.505   6.034   0.252
 8740SOL    HW127119   1.569   6.047   0.328
 8740SOL    HW227120   1.482   6.123   0.212
 8741SOL     OW27121   1.552   3.697   2.004
 8741SOL    HW127122   1.460   3.701   1.964
 8741SOL    HW227123   1.598   3.785   1.992
 8742SOL     OW27124   4.632   5.074   1.685
 8742SOL    HW127125   4.585   5.132   1.751
 8742SOL    HW227126   4.594   4.982   1.687
 8743SOL     OW27127   3.131   5.034   2.637
 8743SOL    HW127128   3.187   5.016   2.556
 8743SOL    HW227129   3.040   5.064   2.609
 8744SOL     OW27130   3.140   3.774   5.334
 8744SOL    HW127131   3.145   3.698   5.398
 8744SOL    HW227132   3.064   3.834   5.359
 8745SOL     OW27133   5.485   1.641   5.954
 8745SOL    HW127134   5.545   1.679   6.024
 8745SOL    HW227135   5.461   1.547   5.978
 8746SOL     OW27136   5.310   3.486   4.284
 8746SOL    HW127137   5.373   3.559   4.310
 8746SOL    HW227138   5.271   3.505   4.194
 8747SOL     OW27139   0.975   1.458   4.167
 8747SOL    HW127140   0.959   1.428   4.073
 8747SOL    HW227141   0.972   1.380   4.228
 8748SOL     OW27142   3.521   0.579   6.271
 8748SOL    HW127143   3.515   0.501   6.334
 8748SOL    HW227144   3.488   0.661   6.318
 8749SOL     OW27145   4.008   1.667   3.396
 8749SOL    HW127146   4.086   1.686   3.456
 8749SOL    HW227147   3.965   1.581   3.425
 8750SOL     OW27148   1.835   6.906   4.632
 8750SOL    HW127149   1.873   6.861   4.712
 8750SOL    HW227150   1.906   6.960   4.587
 8751SOL     OW27151   2.106   6.158   2.878
 8751SOL    HW127152   2.122   6.250   2.915
 8751SOL    HW227153   2.194   6.112   2.862
 8752SOL     OW27154   2.314   0.890   6.392
 8752SOL    HW127155   2.389   0.832   6.362
 8752SOL    HW227156   2.240   0.887   6.325
 8753SOL     OW27157   5.015   2.147   5.044
 8753SOL    HW127158   5.079   2.121   4.971
 8753SOL    HW227159   4.986   2.065   5.093
 8754SOL     OW27160   1.434   1.038   6.031
 8754SOL    HW127161   1.422   1.118   6.090
 8754SOL    HW227162   1.428   1.066   5.935
 8755SOL     OW27163   2.186   2.070   0.561
 8755SOL    HW127164   2.107   2.060   0.622
 8755SOL    HW227165   2.153   2.084   0.467
 8756SOL     OW27166   2.915   5.088   4.955
 8756SOL    HW127167   2.944   4.999   4.990
 8756SOL    HW227168   2.992   5.152   4.961
 8757SOL     OW27169   3.081   5.323   3.372
 8757SOL    HW127170   3.034   5.258   3.313
 8757SOL    HW227171   3.039   5.323   3.462
 8758SOL     OW27172   5.281   6.433   2.756
 8758SOL    HW127173   5.276   6.520   2.807
 8758SOL    HW227174   5.376   6.411   2.738
 8759SOL     OW27175   5.353   0.297   5.821
 8759SOL    HW127176   5.329   0.373   5.761
 8759SOL    HW227177   5.314   0.313   5.912
 8760SOL     OW27178   1.973   2.702   3.617
 8760SOL    HW127179   1.893   2.757   3.593
 8760SOL    HW227180   1.945   2.630   3.681
 8761SOL     OW27181   5.141   5.957   1.442
 8761SOL    HW127182   5.157   5.863   1.471
 8761SOL    HW227183   5.123   6.014   1.522
 8762SOL     OW27184   1.499   4.940   1.042
 8762SOL    HW127185   1.409   4.915   1.078
 8762SOL    HW227186   1.502   4.919   0.944
 8763SOL     OW27187   6.885   5.858   6.906
 8763SOL    HW127188   6.943   5.926   6.862
 8763SOL    HW227189   6.846   5.896   6.990
 8764SOL     OW27190   2.941   2.114   6.488
 8764SOL    HW127191   2.964   2.202   6.448
 8764SOL    HW227192   2.945   2.121   6.588
 8765SOL     OW27193   5.710   0.617   4.861
 8765SOL    HW127194   5.777   0.645   4.793
 8765SOL    HW227195   5.670   0.529   4.834
 8766SOL     OW27196   2.456   4.496   2.727
 8766SOL    HW127197   2.401   4.550   2.663
 8766SOL    HW227198   2.534   4.551   2.758
 8767SOL     OW27199   4.011   0.441   4.890
 8767SOL    HW127200   3.946   0.367   4.871
 8767SOL    HW227201   4.043   0.434   4.985
 8768SOL     OW27202   0.722   4.225   0.980
 8768SOL    HW127203   0.761   4.252   0.892
 8768SOL    HW227204   0.629   4.191   0.966
 8769SOL     OW27205   1.880   0.946   6.334
 8769SOL    HW127206   1.890   1.010   6.258
 8769SOL    HW227207   1.869   0.997   6.419
 8770SOL     OW27208   5.788   1.742   2.951
 8770SOL    HW127209   5.794   1.782   2.860
 8770SOL    HW227210   5.835   1.800   3.017
 8771SOL     OW27211   3.106   3.469   5.277
 8771SOL    HW127212   3.087   3.401   5.347
 8771SOL    HW227213   3.106   3.425   5.187
 8772SOL     OW27214   6.885   6.703   6.918
 8772SOL    HW127215   6.808   6.764   6.932
 8772SOL    HW227216   6.970   6.757   6.913
 8773SOL     OW27217   2.818   1.738   3.397
 8773SOL    HW127218   2.807   1.673   3.472
 8773SOL    HW227219   2.915   1.760   3.386
 8774SOL     OW27220   1.153   1.164   0.511
 8774SOL    HW127221   1.077   1.133   0.567
 8774SOL    HW227222   1.168   1.262   0.525
 8775SOL     OW27223   6.078   6.310   4.119
 8775SOL    HW127224   6.049   6.265   4.034
 8775SOL    HW227225   6.098   6.240   4.188
 8776SOL     OW27226   3.019   3.663   5.777
 8776SOL    HW127227   3.063   3.634   5.692
 8776SOL    HW227228   3.035   3.761   5.791
 8777SOL     OW27229   5.902   5.565   3.163
 8777SOL    HW127230   5.880   5.510   3.082
 8777SOL    HW227231   5.993   5.540   3.196
 8778SOL     OW27232   0.924   2.845   2.913
 8778SOL    HW127233   0.858   2.836   2.988
 8778SOL    HW227234   1.008   2.796   2.937
 8779SOL     OW27235   1.997   4.739   1.017
 8779SOL    HW127236   2.076   4.700   1.064
 8779SOL    HW227237   1.913   4.698   1.054
 8780SOL     OW27238   2.047   5.759   5.386
 8780SOL    HW127239   2.010   5.851   5.374
 8780SOL    HW227240   2.081   5.725   5.298
 8781SOL     OW27241   0.858   2.518   2.501
 8781SOL    HW127242   0.931   2.453   2.482
 8781SOL    HW227243   0.862   2.593   2.435
 8782SOL     OW27244   5.636   1.151   4.401
 8782SOL    HW127245   5.544   1.166   4.438
 8782SOL    HW227246   5.666   1.058   4.423
 8783SOL     OW27247   5.793   2.510   5.956
 8783SOL    HW127248   5.885   2.497   5.994
 8783SOL    HW227249   5.727   2.457   6.010
 8784SOL     OW27250   5.008   3.653   6.184
 8784SOL    HW127251   5.026   3.565   6.229
 8784SOL    HW227252   4.946   3.707   6.241
 8785SOL     OW27253   5.187   4.035   6.184
 8785SOL    HW127254   5.102   4.088   6.185
 8785SOL    HW227255   5.195   3.984   6.269
 8786SOL     OW27256   1.776   5.929   6.757
 8786SOL    HW127257   1.871   5.930   6.788
 8786SOL    HW227258   1.773   5.947   6.659
 8787SOL     OW27259   1.039   2.741   6.315
 8787SOL    HW127260   1.037   2.707   6.221
 8787SOL    HW227261   1.002   2.671   6.376
 8788SOL     OW27262   1.548   1.765   5.177
 8788SOL    HW127263   1.608   1.826   5.228
 8788SOL    HW227264   1.516   1.692   5.237
 8789SOL     OW27265   6.531   1.562   0.149
 8789SOL    HW127266   6.529   1.568   0.249
 8789SOL    HW227267   6.461   1.621   0.110
 8790SOL     OW27268   4.057   1.252   6.244
 8790SOL    HW127269   4.077   1.217   6.152
 8790SOL    HW227270   4.053   1.352   6.241
 8791SOL     OW27271   6.036   6.218   5.244
 8791SOL    HW127272   6.133   6.195   5.245
 8791SOL    HW227273   5.985   6.149   5.294
 8792SOL     OW27274   5.424   6.871   2.626
 8792SOL    HW127275   5.404   6.896   2.721
 8792SOL    HW227276   5.438   6.772   2.620
 8793SOL     OW27277   1.154   4.595   3.321
 8793SOL    HW127278   1.127   4.685   3.356
 8793SOL    HW227279   1.251   4.596   3.297
 8794SOL     OW27280   2.697   6.799   2.402
 8794SOL    HW127281   2.770   6.849   2.449
 8794SOL    HW227282   2.646   6.861   2.343
 8795SOL     OW27283   3.234   6.708   4.605
 8795SOL    HW127284   3.253   6.729   4.509
 8795SOL    HW227285   3.174   6.629   4.611
 8796SOL     OW27286   4.762   2.404   4.348
 8796SOL    HW127287   4.853   2.379   4.381
 8796SOL    HW227288   4.723   2.327   4.298
 8797SOL     OW27289   0.119   5.654   6.575
 8797SOL    HW127290   0.046   5.707   6.532
 8797SOL    HW227291   0.104   5.652   6.674
 8798SOL     OW27292   3.469   3.470   5.467
 8798SOL    HW127293   3.471   3.426   5.377
 8798SOL    HW227294   3.556   3.453   5.514
 8799SOL     OW27295   3.362   0.562   1.772
 8799SOL    HW127296   3.439   0.520   1.820
 8799SOL    HW227297   3.385   0.656   1.748
 8800SOL     OW27298   3.887   3.933   0.570
 8800SOL    HW127299   3.919   3.841   0.546
 8800SOL    HW227300   3.962   3.984   0.612
 8801SOL     OW27301   3.080   6.313   5.577
 8801SOL    HW127302   3.174   6.316   5.610
 8801SOL    HW227303   3.044   6.406   5.571
 8802SOL     OW27304   1.800   6.677   1.471
 8802SOL    HW127305   1.714   6.728   1.480
 8802SOL    HW227306   1.782   6.590   1.424
 8803SOL     OW27307   3.779   5.804   2.109
 8803SOL    HW127308   3.753   5.791   2.014
 8803SOL    HW227309   3.876   5.826   2.115
 8804SOL     OW27310   3.174   0.811   1.363
 8804SOL    HW127311   3.273   0.800   1.357
 8804SOL    HW227312   3.132   0.723   1.381
 8805SOL     OW27313   0.086   0.087   3.913
 8805SOL    HW127314   0.022   0.149   3.868
 8805SOL    HW227315   0.046   0.054   3.999
 8806SOL     OW27316   1.906   5.068   6.940
 8806SOL    HW127317   1.925   4.988   6.883
 8806SOL    HW227318   1.944   5.053   0.008
 8807SOL     OW27319   1.726   4.571   6.841
 8807SOL    HW127320   1.696   4.478   6.820
 8807SOL    HW227321   1.666   4.636   6.795
 8808SOL     OW27322   6.035   2.591   0.939
 8808SOL    HW127323   5.996   2.657   0.875
 8808SOL    HW227324   6.133   2.608   0.950
 8809SOL     OW27325   6.084   4.287   6.831
 8809SOL    HW127326   6.105   4.253   6.923
 8809SOL    HW227327   6.063   4.384   6.836
 8810SOL     OW27328   4.918   1.557   4.207
 8810SOL    HW127329   4.938   1.654   4.218
 8810SOL    HW227330   5.003   1.508   4.185
 8811SOL     OW27331   0.600   0.506   3.674
 8811SOL    HW127332   0.659   0.504   3.593
 8811SOL    HW227333   0.597   0.598   3.711
 8812SOL     OW27334   2.620   0.951   0.570
 8812SOL    HW127335   2.634   1.029   0.508
 8812SOL    HW227336   2.525   0.923   0.567
 8813SOL     OW27337   0.800   5.496   0.913
 8813SOL    HW127338   0.884   5.443   0.928
 8813SOL    HW227339   0.773   5.487   0.817
 8814SOL     OW27340   5.490   6.881   6.449
 8814SOL    HW127341   5.510   6.832   6.534
 8814SOL    HW227342   5.395   6.865   6.422
 8815SOL     OW27343   6.151   4.578   3.536
 8815SOL    HW127344   6.055   4.561   3.512
 8815SOL    HW227345   6.198   4.491   3.549
 8816SOL     OW27346   0.810   6.025   2.427
 8816SOL    HW127347   0.824   6.124   2.431
 8816SOL    HW227348   0.897   5.978   2.441
 8817SOL     OW27349   2.063   3.958   5.109
 8817SOL    HW127350   2.155   3.969   5.071
 8817SOL    HW227351   2.059   3.996   5.201
 8818SOL     OW27352   6.750   5.106   5.167
 8818SOL    HW127353   6.785   5.197   5.143
 8818SOL    HW227354   6.670   5.117   5.227
 8819SOL     OW27355   0.434   1.128   4.759
 8819SOL    HW127356   0.337   1.127   4.784
 8819SOL    HW227357   0.482   1.055   4.807
 8820SOL     OW27358   1.384   2.259   3.252
 8820SOL    HW127359   1.315   2.250   3.180
 8820SOL    HW227360   1.373   2.183   3.317
 8821SOL     OW27361   1.286   6.873   6.906
 8821SOL    HW127362   1.252   6.906   6.817
 8821SOL    HW227363   1.385   6.857   6.900
 8822SOL     OW27364   1.387   2.328   3.674
 8822SOL    HW127365   1.369   2.420   3.710
 8822SOL    HW227366   1.303   2.275   3.675
 8823SOL     OW27367   2.552   5.447   0.705
 8823SOL    HW127368   2.580   5.374   0.643
 8823SOL    HW227369   2.612   5.446   0.786
 8824SOL     OW27370   5.078   4.584   1.638
 8824SOL    HW127371   5.080   4.497   1.687
 8824SOL    HW227372   4.984   4.609   1.617
 8825SOL     OW27373   2.680   2.008   6.681
 8825SOL    HW127374   2.676   1.961   6.593
 8825SOL    HW227375   2.706   2.103   6.666
 8826SOL     OW27376   5.408   0.283   1.198
 8826SOL    HW127377   5.365   0.199   1.231
 8826SOL    HW227378   5.337   0.348   1.170
 8827SOL     OW27379   6.634   1.370   3.566
 8827SOL    HW127380   6.593   1.319   3.641
 8827SOL    HW227381   6.577   1.363   3.484
 8828SOL     OW27382   1.306   5.543   3.075
 8828SOL    HW127383   1.387   5.580   3.029
 8828SOL    HW227384   1.273   5.610   3.142
 8829SOL     OW27385   0.446   0.522   1.387
 8829SOL    HW127386   0.515   0.573   1.439
 8829SOL    HW227387   0.441   0.428   1.422
 8830SOL     OW27388   1.541   1.457   1.158
 8830SOL    HW127389   1.609   1.399   1.114
 8830SOL    HW227390   1.449   1.430   1.131
 8831SOL     OW27391   0.162   0.415   1.345
 8831SOL    HW127392   0.180   0.503   1.301
 8831SOL    HW227393   0.064   0.409   1.368
 8832SOL     OW27394   6.527   0.700   2.048
 8832SOL    HW127395   6.598   0.654   2.100
 8832SOL    HW227396   6.558   0.790   2.019
 8833SOL     OW27397   0.222   5.341   1.604
 8833SOL    HW127398   0.225   5.441   1.597
 8833SOL    HW227399   0.315   5.305   1.601
 8834SOL     OW27400   6.317   4.526   4.520
 8834SOL    HW127401   6.236   4.580   4.544
 8834SOL    HW227402   6.353   4.481   4.602
 8835SOL     OW27403   0.648   1.716   0.763
 8835SOL    HW127404   0.607   1.735   0.673
 8835SOL    HW227405   0.640   1.619   0.783
 8836SOL     OW27406   4.801   2.130   1.572
 8836SOL    HW127407   4.785   2.174   1.483
 8836SOL    HW227408   4.828   2.035   1.557
 8837SOL     OW27409   0.658   3.064   2.311
 8837SOL    HW127410   0.690   3.086   2.219
 8837SOL    HW227411   0.581   3.001   2.306
 8838SOL     OW27412   1.387   6.924   3.461
 8838SOL    HW127413   1.368   6.892   3.368
 8838SOL    HW227414   1.484   6.948   3.468
 8839SOL     OW27415   6.115   5.350   4.814
 8839SOL    HW127416   6.111   5.440   4.769
 8839SOL    HW227417   6.075   5.281   4.754
 8840SOL     OW27418   4.368   0.667   1.877
 8840SOL    HW127419   4.292   0.731   1.868
 8840SOL    HW227420   4.333   0.579   1.909
 8841SOL     OW27421   4.182   0.041   3.372
 8841SOL    HW127422   4.220   7.018   3.452
 8841SOL    HW227423   4.215   7.020   3.289
 8842SOL     OW27424   1.741   1.244   1.974
 8842SOL    HW127425   1.740   1.343   1.987
 8842SOL    HW227426   1.761   1.223   1.879
 8843SOL     OW27427   0.017   2.775   4.058
 8843SOL    HW127428   0.022   2.683   4.020
 8843SOL    HW227429   6.954   2.787   4.106
 8844SOL     OW27430   5.721   2.006   6.984
 8844SOL    HW127431   5.737   1.934   0.028
 8844SOL    HW227432   5.808   2.046   6.957
 8845SOL     OW27433   5.163   2.464   0.056
 8845SOL    HW127434   5.144   2.537   0.121
 8845SOL    HW227435   5.204   2.502   6.998
 8846SOL     OW27436   3.199   4.926   4.133
 8846SOL    HW127437   3.111   4.883   4.118
 8846SOL    HW227438   3.239   4.893   4.219
 8847SOL     OW27439   1.279   1.661   3.666
 8847SOL    HW127440   1.311   1.616   3.749
 8847SOL    HW227441   1.218   1.737   3.690
 8848SOL     OW27442   0.566   1.118   3.856
 8848SOL    HW127443   0.491   1.073   3.904
 8848SOL    HW227444   0.536   1.142   3.763
 8849SOL     OW27445   3.197   6.985   1.799
 8849SOL    HW127446   3.154   0.052   1.800
 8849SOL    HW227447   3.127   6.916   1.783
 8850SOL     OW27448   3.464   1.527   0.077
 8850SOL    HW127449   3.508   1.615   0.098
 8850SOL    HW227450   3.372   1.545   0.042
 8851SOL     OW27451   2.257   3.752   1.342
 8851SOL    HW127452   2.226   3.720   1.253
 8851SOL    HW227453   2.352   3.725   1.357
 8852SOL     OW27454   0.841   2.410   5.083
 8852SOL    HW127455   0.774   2.339   5.062
 8852SOL    HW227456   0.933   2.372   5.076
 8853SOL     OW27457   4.674   0.551   1.917
 8853SOL    HW127458   4.633   0.468   1.956
 8853SOL    HW227459   4.636   0.631   1.963
 8854SOL     OW27460   0.005   2.390   4.720
 8854SOL    HW127461   0.079   2.398   4.653
 8854SOL    HW227462   6.961   2.324   4.687
 8855SOL     OW27463   4.931   4.751   1.313
 8855SOL    HW127464   4.923   4.651   1.317
 8855SOL    HW227465   4.912   4.782   1.220
 8856SOL     OW27466   6.359   1.022   5.581
 8856SOL    HW127467   6.317   1.104   5.541
 8856SOL    HW227468   6.336   0.942   5.526
 8857SOL     OW27469   0.261   2.535   6.477
 8857SOL    HW127470   0.335   2.481   6.437
 8857SOL    HW227471   0.174   2.507   6.436
 8858SOL     OW27472   0.188   5.224   5.031
 8858SOL    HW127473   0.214   5.235   4.935
 8858SOL    HW227474   0.177   5.127   5.051
 8859SOL     OW27475   0.425   6.075   3.051
 8859SOL    HW127476   0.417   6.051   3.148
 8859SOL    HW227477   0.506   6.030   3.012
 8860SOL     OW27478   6.678   2.256   2.976
 8860SOL    HW127479   6.692   2.342   3.026
 8860SOL    HW227480   6.580   2.237   2.971
 8861SOL     OW27481   3.033   2.772   1.187
 8861SOL    HW127482   3.053   2.850   1.127
 8861SOL    HW227483   3.119   2.729   1.215
 8862SOL     OW27484   4.392   4.636   4.737
 8862SOL    HW127485   4.323   4.616   4.806
 8862SOL    HW227486   4.480   4.599   4.767
 8863SOL     OW27487   1.664   3.349   1.717
 8863SOL    HW127488   1.567   3.373   1.704
 8863SOL    HW227489   1.698   3.393   1.800
 8864SOL     OW27490   6.978   1.714   4.379
 8864SOL    HW127491   6.976   1.619   4.410
 8864SOL    HW227492   6.898   1.732   4.322
 8865SOL     OW27493   2.917   1.170   0.501
 8865SOL    HW127494   2.916   1.071   0.514
 8865SOL    HW227495   2.822   1.203   0.495
 8866SOL     OW27496   6.332   0.500   2.045
 8866SOL    HW127497   6.380   0.588   2.043
 8866SOL    HW227498   6.244   0.508   2.000
 8867SOL     OW27499   5.583   2.320   3.427
 8867SOL    HW127500   5.626   2.393   3.374
 8867SOL    HW227501   5.484   2.323   3.413
 8868SOL     OW27502   0.403   3.036   3.562
 8868SOL    HW127503   0.399   3.089   3.477
 8868SOL    HW227504   0.447   2.948   3.544
 8869SOL     OW27505   4.140   0.346   3.274
 8869SOL    HW127506   4.224   0.396   3.251
 8869SOL    HW227507   4.164   0.260   3.318
 8870SOL     OW27508   1.314   0.777   1.556
 8870SOL    HW127509   1.236   0.840   1.563
 8870SOL    HW227510   1.305   0.706   1.625
 8871SOL     OW27511   7.023   6.799   0.651
 8871SOL    HW127512   6.976   6.763   0.732
 8871SOL    HW227513   6.996   6.894   0.636
 8872SOL     OW27514   6.761   5.111   3.597
 8872SOL    HW127515   6.698   5.186   3.622
 8872SOL    HW227516   6.709   5.038   3.553
 8873SOL     OW27517   1.786   1.392   3.253
 8873SOL    HW127518   1.832   1.330   3.190
 8873SOL    HW227519   1.715   1.341   3.303
 8874SOL     OW27520   2.704   6.173   0.268
 8874SOL    HW127521   2.731   6.269   0.253
 8874SOL    HW227522   2.740   6.117   0.194
 8875SOL     OW27523   6.777   2.478   4.276
 8875SOL    HW127524   6.828   2.397   4.306
 8875SOL    HW227525   6.753   2.468   4.180
 8876SOL     OW27526   4.830   0.119   0.755
 8876SOL    HW127527   4.781   0.193   0.801
 8876SOL    HW227528   4.820   0.034   0.806
 8877SOL     OW27529   1.215   4.456   1.813
 8877SOL    HW127530   1.279   4.496   1.748
 8877SOL    HW227531   1.266   4.423   1.893
 8878SOL     OW27532   4.998   3.689   2.519
 8878SOL    HW127533   4.933   3.765   2.515
 8878SOL    HW227534   4.956   3.607   2.480
 8879SOL     OW27535   6.698   4.448   4.055
 8879SOL    HW127536   6.699   4.357   4.014
 8879SOL    HW227537   6.785   4.494   4.036
 8880SOL     OW27538   3.863   1.674   2.456
 8880SOL    HW127539   3.839   1.725   2.539
 8880SOL    HW227540   3.956   1.698   2.428
 8881SOL     OW27541   3.792   5.838   2.980
 8881SOL    HW127542   3.721   5.768   2.978
 8881SOL    HW227543   3.750   5.929   2.978
 8882SOL     OW27544   4.086   1.466   0.321
 8882SOL    HW127545   4.045   1.394   0.376
 8882SOL    HW227546   4.186   1.458   0.324
 8883SOL     OW27547   0.804   6.499   2.705
 8883SOL    HW127548   0.901   6.488   2.685
 8883SOL    HW227549   0.766   6.572   2.648
 8884SOL     OW27550   4.497   1.748   6.070
 8884SOL    HW127551   4.550   1.761   6.154
 8884SOL    HW227552   4.528   1.813   6.001
 8885SOL     OW27553   5.481   5.218   1.028
 8885SOL    HW127554   5.515   5.306   1.061
 8885SOL    HW227555   5.538   5.184   0.954
 8886SOL     OW27556   4.299   6.593   0.746
 8886SOL    HW127557   4.398   6.580   0.749
 8886SOL    HW227558   4.265   6.571   0.655
 8887SOL     OW27559   4.016   0.634   2.062
 8887SOL    HW127560   4.073   0.705   2.020
 8887SOL    HW227561   3.951   0.676   2.124
 8888SOL     OW27562   3.898   1.922   2.072
 8888SOL    HW127563   3.857   1.952   1.986
 8888SOL    HW227564   3.905   2.001   2.134
 8889SOL     OW27565   1.652   4.318   6.786
 8889SOL    HW127566   1.668   4.252   6.713
 8889SOL    HW227567   1.587   4.281   6.852
 8890SOL     OW27568   1.856   5.694   0.042
 8890SOL    HW127569   1.905   5.652   6.989
 8890SOL    HW227570   1.899   5.781   0.066
 8891SOL     OW27571   5.795   3.578   5.329
 8891SOL    HW127572   5.721   3.622   5.278
 8891SOL    HW227573   5.766   3.486   5.357
 8892SOL     OW27574   2.668   5.040   5.679
 8892SOL    HW127575   2.633   5.073   5.592
 8892SOL    HW227576   2.764   5.016   5.669
 8893SOL     OW27577   0.791   4.570   5.353
 8893SOL    HW127578   0.891   4.579   5.352
 8893SOL    HW227579   0.763   4.493   5.296
 8894SOL     OW27580   6.201   2.050   1.477
 8894SOL    HW127581   6.146   2.106   1.416
 8894SOL    HW227582   6.283   2.100   1.504
 8895SOL     OW27583   6.991   3.343   2.274
 8895SOL    HW127584   6.945   3.425   2.308
 8895SOL    HW227585   6.956   3.321   2.183
 8896SOL     OW27586   0.554   0.422   4.049
 8896SOL    HW127587   0.467   0.421   3.999
 8896SOL    HW227588   0.592   0.329   4.052
 8897SOL     OW27589   1.590   5.155   4.619
 8897SOL    HW127590   1.506   5.174   4.668
 8897SOL    HW227591   1.594   5.058   4.595
 8898SOL     OW27592   6.015   5.020   2.954
 8898SOL    HW127593   6.089   5.087   2.948
 8898SOL    HW227594   5.996   4.983   2.863
 8899SOL     OW27595   1.973   4.688   1.958
 8899SOL    HW127596   2.021   4.602   1.977
 8899SOL    HW227597   1.970   4.744   2.040
 8900SOL     OW27598   4.627   1.609   4.864
 8900SOL    HW127599   4.661   1.643   4.776
 8900SOL    HW227600   4.647   1.676   4.935
 8901SOL     OW27601   0.998   4.633   6.214
 8901SOL    HW127602   0.976   4.702   6.144
 8901SOL    HW227603   1.089   4.597   6.196
 8902SOL     OW27604   1.264   4.049   6.679
 8902SOL    HW127605   1.188   4.011   6.626
 8902SOL    HW227606   1.312   4.118   6.625
 8903SOL     OW27607   0.665   0.927   4.126
 8903SOL    HW127608   0.639   0.838   4.164
 8903SOL    HW227609   0.587   0.967   4.079
 8904SOL     OW27610   6.634   0.978   2.500
 8904SOL    HW127611   6.704   0.908   2.489
 8904SOL    HW227612   6.544   0.939   2.478
 8905SOL     OW27613   1.340   5.428   1.210
 8905SOL    HW127614   1.358   5.330   1.206
 8905SOL    HW227615   1.364   5.464   1.300
 8906SOL     OW27616   6.648   1.180   6.265
 8906SOL    HW127617   6.679   1.158   6.173
 8906SOL    HW227618   6.724   1.214   6.319
 8907SOL     OW27619   2.611   3.121   5.471
 8907SOL    HW127620   2.587   3.144   5.377
 8907SOL    HW227621   2.664   3.036   5.471
 8908SOL     OW27622   1.818   5.623   5.503
 8908SOL    HW127623   1.901   5.667   5.470
 8908SOL    HW227624   1.771   5.683   5.567
 8909SOL     OW27625   2.800   6.234   1.792
 8909SOL    HW127626   2.714   6.243   1.742
 8909SOL    HW227627   2.876   6.256   1.731
 8910SOL     OW27628   1.275   0.923   4.076
 8910SOL    HW127629   1.352   0.958   4.129
 8910SOL    HW227630   1.263   0.978   3.993
 8911SOL     OW27631   4.748   2.870   4.185
 8911SOL    HW127632   4.757   2.813   4.267
 8911SOL    HW227633   4.751   2.813   4.104
 8912SOL     OW27634   3.685   3.250   3.284
 8912SOL    HW127635   3.743   3.291   3.354
 8912SOL    HW227636   3.727   3.166   3.250
 8913SOL     OW27637   4.866   5.591   0.358
 8913SOL    HW127638   4.857   5.646   0.441
 8913SOL    HW227639   4.797   5.519   0.357
 8914SOL     OW27640   5.196   4.625   4.683
 8914SOL    HW127641   5.236   4.656   4.597
 8914SOL    HW227642   5.268   4.619   4.752
 8915SOL     OW27643   2.455   1.334   3.048
 8915SOL    HW127644   2.432   1.431   3.052
 8915SOL    HW227645   2.449   1.302   2.953
 8916SOL     OW27646   6.353   0.054   2.719
 8916SOL    HW127647   6.421   7.023   2.768
 8916SOL    HW227648   6.352   0.027   2.623
 8917SOL     OW27649   5.769   2.578   0.261
 8917SOL    HW127650   5.762   2.482   0.235
 8917SOL    HW227651   5.716   2.593   0.345
 8918SOL     OW27652   1.545   3.143   2.810
 8918SOL    HW127653   1.576   3.059   2.853
 8918SOL    HW227654   1.456   3.128   2.766
 8919SOL     OW27655   6.803   2.043   3.199
 8919SOL    HW127656   6.883   2.003   3.243
 8919SOL    HW227657   6.797   2.010   3.105
 8920SOL     OW27658   1.299   1.694   0.163
 8920SOL    HW127659   1.389   1.738   0.162
 8920SOL    HW227660   1.228   1.764   0.173
 8921SOL     OW27661   1.154   2.262   1.371
 8921SOL    HW127662   1.162   2.210   1.456
 8921SOL    HW227663   1.066   2.242   1.328
 8922SOL     OW27664   3.139   5.502   3.169
 8922SOL    HW127665   3.083   5.568   3.219
 8922SOL    HW227666   3.158   5.423   3.228
 8923SOL     OW27667   2.480   2.230   3.588
 8923SOL    HW127668   2.433   2.197   3.507
 8923SOL    HW227669   2.467   2.166   3.663
 8924SOL     OW27670   6.437   5.334   5.096
 8924SOL    HW127671   6.399   5.291   5.014
 8924SOL    HW227672   6.506   5.401   5.071
 8925SOL     OW27673   0.497   6.503   3.590
 8925SOL    HW127674   0.493   6.601   3.567
 8925SOL    HW227675   0.423   6.455   3.542
 8926SOL     OW27676   5.995   2.555   6.826
 8926SOL    HW127677   6.025   2.621   6.758
 8926SOL    HW227678   6.017   2.589   6.917
 8927SOL     OW27679   1.192   1.659   6.377
 8927SOL    HW127680   1.203   1.637   6.280
 8927SOL    HW227681   1.165   1.577   6.427
 8928SOL     OW27682   0.318   6.499   4.713
 8928SOL    HW127683   0.350   6.425   4.772
 8928SOL    HW227684   0.378   6.579   4.724
 8929SOL     OW27685   0.148   1.527   3.381
 8929SOL    HW127686   0.138   1.559   3.287
 8929SOL    HW227687   0.181   1.433   3.381
 8930SOL     OW27688   2.289   5.234   2.253
 8930SOL    HW127689   2.357   5.263   2.321
 8930SOL    HW227690   2.334   5.178   2.183
 8931SOL     OW27691   4.821   2.973   6.965
 8931SOL    HW127692   4.769   2.939   0.020
 8931SOL    HW227693   4.915   2.994   6.994
 8932SOL     OW27694   0.749   3.615   2.552
 8932SOL    HW127695   0.672   3.678   2.564
 8932SOL    HW227696   0.770   3.606   2.455
 8933SOL     OW27697   4.984   2.606   5.808
 8933SOL    HW127698   4.965   2.647   5.898
 8933SOL    HW227699   4.966   2.674   5.737
 8934SOL     OW27700   2.675   6.033   2.658
 8934SOL    HW127701   2.614   6.107   2.629
 8934SOL    HW227702   2.639   5.946   2.626
 8935SOL     OW27703   6.928   5.818   6.531
 8935SOL    HW127704   6.929   5.912   6.499
 8935SOL    HW227705   6.923   5.816   6.631
 8936SOL     OW27706   4.296   3.672   0.696
 8936SOL    HW127707   4.296   3.760   0.649
 8936SOL    HW227708   4.356   3.677   0.776
 8937SOL     OW27709   0.043   1.584   6.257
 8937SOL    HW127710   6.976   1.556   6.289
 8937SOL    HW227711   0.034   1.643   6.177
 8938SOL     OW27712   5.062   5.082   1.865
 8938SOL    HW127713   4.995   5.103   1.793
 8938SOL    HW227714   5.145   5.047   1.823
 8939SOL     OW27715   5.685   1.934   4.112
 8939SOL    HW127716   5.680   1.834   4.121
 8939SOL    HW227717   5.684   1.975   4.203
 8940SOL     OW27718   5.464   6.632   2.008
 8940SOL    HW127719   5.478   6.729   2.029
 8940SOL    HW227720   5.544   6.597   1.960
 8941SOL     OW27721   4.043   2.037   0.146
 8941SOL    HW127722   4.119   1.995   0.195
 8941SOL    HW227723   4.050   2.015   0.049
 8942SOL     OW27724   1.363   1.871   5.901
 8942SOL    HW127725   1.449   1.845   5.858
 8942SOL    HW227726   1.296   1.797   5.888
 8943SOL     OW27727   4.687   3.227   0.682
 8943SOL    HW127728   4.667   3.163   0.608
 8943SOL    HW227729   4.613   3.292   0.692
 8944SOL     OW27730   4.885   5.440   0.811
 8944SOL    HW127731   4.970   5.431   0.863
 8944SOL    HW227732   4.886   5.377   0.734
 8945SOL     OW27733   1.973   1.113   3.400
 8945SOL    HW127734   1.961   1.166   3.484
 8945SOL    HW227735   2.002   1.020   3.423
 8946SOL     OW27736   3.395   0.102   5.205
 8946SOL    HW127737   3.365   0.187   5.249
 8946SOL    HW227738   3.494   0.104   5.191
 8947SOL     OW27739   3.255   3.935   5.933
 8947SOL    HW127740   3.234   3.906   5.840
 8947SOL    HW227741   3.341   3.987   5.932
 8948SOL     OW27742   5.224   4.840   3.766
 8948SOL    HW127743   5.188   4.748   3.752
 8948SOL    HW227744   5.320   4.843   3.736
 8949SOL     OW27745   1.650   5.617   6.296
 8949SOL    HW127746   1.675   5.651   6.205
 8949SOL    HW227747   1.690   5.526   6.309
 8950SOL     OW27748   5.048   2.760   5.080
 8950SOL    HW127749   5.027   2.678   5.133
 8950SOL    HW227750   4.964   2.813   5.065
 8951SOL     OW27751   2.868   1.480   5.313
 8951SOL    HW127752   2.844   1.459   5.219
 8951SOL    HW227753   2.792   1.526   5.358
 8952SOL     OW27754   5.553   6.592   3.857
 8952SOL    HW127755   5.506   6.680   3.843
 8952SOL    HW227756   5.630   6.585   3.793
 8953SOL     OW27757   1.231   4.998   6.213
 8953SOL    HW127758   1.290   5.077   6.221
 8953SOL    HW227759   1.228   4.967   6.118
 8954SOL     OW27760   2.466   6.603   6.333
 8954SOL    HW127761   2.403   6.564   6.265
 8954SOL    HW227762   2.420   6.609   6.421
 8955SOL     OW27763   6.879   3.081   4.354
 8955SOL    HW127764   6.894   3.180   4.352
 8955SOL    HW227765   6.788   3.061   4.317
 8956SOL     OW27766   1.641   0.388   4.044
 8956SOL    HW127767   1.566   0.326   4.025
 8956SOL    HW227768   1.622   0.478   4.005
 8957SOL     OW27769   3.463   6.380   1.781
 8957SOL    HW127770   3.404   6.321   1.837
 8957SOL    HW227771   3.529   6.324   1.731
 8958SOL     OW27772   3.102   0.656   4.939
 8958SOL    HW127773   3.078   0.702   4.854
 8958SOL    HW227774   3.026   0.598   4.969
 8959SOL     OW27775   3.899   4.995   6.777
 8959SOL    HW127776   3.901   5.094   6.769
 8959SOL    HW227777   3.830   4.958   6.714
 8960SOL     OW27778   4.498   5.486   1.000
 8960SOL    HW127779   4.534   5.455   0.912
 8960SOL    HW227780   4.431   5.559   0.984
 8961SOL     OW27781   0.557   2.781   4.693
 8961SOL    HW127782   0.544   2.877   4.718
 8961SOL    HW227783   0.653   2.756   4.706
 8962SOL     OW27784   4.552   0.503   3.892
 8962SOL    HW127785   4.566   0.557   3.975
 8962SOL    HW227786   4.493   0.554   3.829
 8963SOL     OW27787   1.639   0.661   4.287
 8963SOL    HW127788   1.734   0.692   4.280
 8963SOL    HW227789   1.626   0.609   4.371
 8964SOL     OW27790   1.023   2.376   3.271
 8964SOL    HW127791   1.088   2.399   3.343
 8964SOL    HW227792   1.071   2.327   3.197
 8965SOL     OW27793   1.406   5.163   1.290
 8965SOL    HW127794   1.485   5.133   1.236
 8965SOL    HW227795   1.434   5.175   1.385
 8966SOL     OW27796   3.391   2.113   4.935
 8966SOL    HW127797   3.314   2.172   4.961
 8966SOL    HW227798   3.424   2.065   5.016
 8967SOL     OW27799   5.541   6.564   0.688
 8967SOL    HW127800   5.456   6.513   0.697
 8967SOL    HW227801   5.616   6.511   0.728
 8968SOL     OW27802   6.557   3.801   3.842
 8968SOL    HW127803   6.648   3.838   3.824
 8968SOL    HW227804   6.564   3.726   3.908
 8969SOL     OW27805   6.346   6.952   4.344
 8969SOL    HW127806   6.395   6.940   4.258
 8969SOL    HW227807   6.248   6.939   4.329
 8970SOL     OW27808   3.114   3.073   1.480
 8970SOL    HW127809   3.161   3.080   1.392
 8970SOL    HW227810   3.161   3.005   1.536
 8971SOL     OW27811   3.218   6.790   2.758
 8971SOL    HW127812   3.128   6.829   2.739
 8971SOL    HW227813   3.259   6.756   2.674
 8972SOL     OW27814   5.328   0.414   5.452
 8972SOL    HW127815   5.427   0.425   5.444
 8972SOL    HW227816   5.286   0.503   5.468
 8973SOL     OW27817   2.114   4.678   6.861
 8973SOL    HW127818   2.083   4.626   6.941
 8973SOL    HW227819   2.198   4.728   6.884
 8974SOL     OW27820   0.924   2.432   4.448
 8974SOL    HW127821   0.908   2.433   4.547
 8974SOL    HW227822   1.020   2.411   4.429
 8975SOL     OW27823   3.516   1.195   6.120
 8975SOL    HW127824   3.577   1.184   6.198
 8975SOL    HW227825   3.569   1.190   6.035
 8976SOL     OW27826   1.867   5.817   4.109
 8976SOL    HW127827   1.857   5.909   4.146
 8976SOL    HW227828   1.964   5.795   4.102
 8977SOL     OW27829   5.509   1.534   6.841
 8977SOL    HW127830   5.599   1.562   6.875
 8977SOL    HW227831   5.521   1.476   6.760
 8978SOL     OW27832   5.482   4.850   1.988
 8978SOL    HW127833   5.541   4.917   2.033
 8978SOL    HW227834   5.537   4.770   1.961
 8979SOL     OW27835   0.942   4.617   5.079
 8979SOL    HW127836   0.960   4.684   5.151
 8979SOL    HW227837   0.939   4.664   4.990
 8980SOL     OW27838   3.180   3.032   3.624
 8980SOL    HW127839   3.232   3.099   3.678
 8980SOL    HW227840   3.097   3.074   3.588
 8981SOL     OW27841   3.013   2.023   5.524
 8981SOL    HW127842   3.058   2.005   5.612
 8981SOL    HW227843   3.015   2.121   5.506
 8982SOL     OW27844   2.952   5.341   0.424
 8982SOL    HW127845   2.863   5.385   0.410
 8982SOL    HW227846   3.004   5.343   0.339
 8983SOL     OW27847   5.127   4.030   0.744
 8983SOL    HW127848   5.163   4.019   0.837
 8983SOL    HW227849   5.029   4.053   0.749
 8984SOL     OW27850   1.484   6.509   3.477
 8984SOL    HW127851   1.558   6.539   3.417
 8984SOL    HW227852   1.446   6.588   3.525
 8985SOL     OW27853   2.744   3.228   6.374
 8985SOL    HW127854   2.843   3.243   6.382
 8985SOL    HW227855   2.723   3.195   6.282
 8986SOL     OW27856   2.731   6.028   1.970
 8986SOL    HW127857   2.668   6.082   2.026
 8986SOL    HW227858   2.789   6.090   1.916
 8987SOL     OW27859   5.112   6.658   2.613
 8987SOL    HW127860   5.030   6.611   2.646
 8987SOL    HW227861   5.182   6.659   2.685
 8988SOL     OW27862   0.749   4.354   5.142
 8988SOL    HW127863   0.673   4.335   5.079
 8988SOL    HW227864   0.834   4.361   5.091
 8989SOL     OW27865   2.419   2.490   6.866
 8989SOL    HW127866   2.484   2.566   6.861
 8989SOL    HW227867   2.455   2.411   6.818
 8990SOL     OW27868   0.083   5.100   4.779
 8990SOL    HW127869   0.060   5.177   4.719
 8990SOL    HW227870   0.169   5.058   4.749
 8991SOL     OW27871   1.078   2.700   4.855
 8991SOL    HW127872   1.081   2.659   4.946
 8991SOL    HW227873   1.154   2.666   4.800
 8992SOL     OW27874   6.434   1.085   1.563
 8992SOL    HW127875   6.489   1.144   1.504
 8992SOL    HW227876   6.491   1.011   1.599
 8993SOL     OW27877   4.320   2.089   0.752
 8993SOL    HW127878   4.271   2.011   0.791
 8993SOL    HW227879   4.416   2.084   0.779
 8994SOL     OW27880   2.300   5.445   2.662
 8994SOL    HW127881   2.346   5.521   2.615
 8994SOL    HW227882   2.335   5.437   2.755
 8995SOL     OW27883   0.359   0.206   1.326
 8995SOL    HW127884   0.433   0.222   1.261
 8995SOL    HW227885   0.298   0.286   1.326
 8996SOL     OW27886   4.631   5.460   5.388
 8996SOL    HW127887   4.599   5.367   5.367
 8996SOL    HW227888   4.656   5.505   5.302
 8997SOL     OW27889   5.502   0.057   4.782
 8997SOL    HW127890   5.560   0.107   4.717
 8997SOL    HW227891   5.452   0.122   4.839
 8998SOL     OW27892   6.825   3.945   5.055
 8998SOL    HW127893   6.860   4.036   5.032
 8998SOL    HW227894   6.806   3.940   5.153
 8999SOL     OW27895   4.360   5.762   6.233
 8999SOL    HW127896   4.297   5.683   6.234
 8999SOL    HW227897   4.317   5.839   6.281
 9000SOL     OW27898   1.328   3.958   1.290
 9000SOL    HW127899   1.258   3.925   1.227
 9000SOL    HW227900   1.286   4.015   1.360
 9001SOL     OW27901   1.267   5.573   0.797
 9001SOL    HW127902   1.196   5.503   0.801
 9001SOL    HW227903   1.247   5.635   0.721
 9002SOL     OW27904   6.546   6.264   6.412
 9002SOL    HW127905   6.564   6.166   6.413
 9002SOL    HW227906   6.449   6.280   6.432
 9003SOL     OW27907   4.825   6.585   0.958
 9003SOL    HW127908   4.908   6.622   1.001
 9003SOL    HW227909   4.801   6.641   0.879
 9004SOL     OW27910   6.479   4.861   2.156
 9004SOL    HW127911   6.419   4.888   2.231
 9004SOL    HW227912   6.509   4.942   2.106
 9005SOL     OW27913   4.881   1.030   4.837
 9005SOL    HW127914   4.834   1.083   4.907
 9005SOL    HW227915   4.866   1.072   4.747
 9006SOL     OW27916   3.598   6.148   0.338
 9006SOL    HW127917   3.610   6.104   0.427
 9006SOL    HW227918   3.557   6.238   0.350
 9007SOL     OW27919   0.170   0.607   2.833
 9007SOL    HW127920   0.122   0.571   2.912
 9007SOL    HW227921   0.112   0.674   2.786
 9008SOL     OW27922   6.925   5.146   2.231
 9008SOL    HW127923   6.938   5.049   2.251
 9008SOL    HW227924   7.008   5.196   2.255
 9009SOL     OW27925   3.388   6.957   2.176
 9009SOL    HW127926   3.364   6.865   2.208
 9009SOL    HW227927   3.464   6.951   2.113
 9010SOL     OW27928   2.267   5.048   5.164
 9010SOL    HW127929   2.222   5.056   5.075
 9010SOL    HW227930   2.304   4.956   5.175
 9011SOL     OW27931   2.643   1.971   1.781
 9011SOL    HW127932   2.656   2.031   1.701
 9011SOL    HW227933   2.716   1.988   1.847
 9012SOL     OW27934   2.220   6.114   0.348
 9012SOL    HW127935   2.240   6.017   0.358
 9012SOL    HW227936   2.230   6.159   0.437
 9013SOL     OW27937   1.884   0.429   4.571
 9013SOL    HW127938   1.865   0.359   4.503
 9013SOL    HW227939   1.958   0.399   4.631
 9014SOL     OW27940   5.566   3.009   3.420
 9014SOL    HW127941   5.500   2.946   3.377
 9014SOL    HW227942   5.589   2.976   3.511
 9015SOL     OW27943   3.771   6.418   6.149
 9015SOL    HW127944   3.730   6.456   6.232
 9015SOL    HW227945   3.801   6.492   6.089
 9016SOL     OW27946   4.754   4.100   5.869
 9016SOL    HW127947   4.832   4.042   5.893
 9016SOL    HW227948   4.711   4.134   5.953
 9017SOL     OW27949   2.442   7.003   5.607
 9017SOL    HW127950   2.346   7.018   5.629
 9017SOL    HW227951   2.472   6.917   5.649
 9018SOL     OW27952   3.605   4.997   0.506
 9018SOL    HW127953   3.704   4.982   0.496
 9018SOL    HW227954   3.571   5.047   0.427
 9019SOL     OW27955   0.396   3.765   4.571
 9019SOL    HW127956   0.424   3.775   4.476
 9019SOL    HW227957   0.367   3.853   4.608
 9020SOL     OW27958   5.721   5.130   3.535
 9020SOL    HW127959   5.652   5.059   3.523
 9020SOL    HW227960   5.677   5.217   3.558
 9021SOL     OW27961   0.304   1.381   4.537
 9021SOL    HW127962   0.264   1.290   4.547
 9021SOL    HW227963   0.386   1.376   4.480
 9022SOL     OW27964   4.710   3.336   6.630
 9022SOL    HW127965   4.666   3.276   6.697
 9022SOL    HW227966   4.810   3.327   6.637
 9023SOL     OW27967   0.341   4.897   0.984
 9023SOL    HW127968   0.312   4.983   1.026
 9023SOL    HW227969   0.275   4.869   0.915
 9024SOL     OW27970   2.196   4.756   6.420
 9024SOL    HW127971   2.228   4.778   6.512
 9024SOL    HW227972   2.097   4.770   6.416
 9025SOL     OW27973   0.414   5.908   1.869
 9025SOL    HW127974   0.397   5.977   1.798
 9025SOL    HW227975   0.364   5.933   1.952
 9026SOL     OW27976   5.944   1.288   6.849
 9026SOL    HW127977   6.007   1.345   6.796
 9026SOL    HW227978   5.932   1.200   6.803
 9027SOL     OW27979   0.161   4.123   3.096
 9027SOL    HW127980   0.220   4.042   3.094
 9027SOL    HW227981   0.175   4.177   3.013
 9028SOL     OW27982   3.070   4.869   6.997
 9028SOL    HW127983   3.116   4.952   0.004
 9028SOL    HW227984   2.997   4.845   0.038
 9029SOL     OW27985   4.239   6.128   4.693
 9029SOL    HW127986   4.282   6.038   4.681
 9029SOL    HW227987   4.299   6.199   4.657
 9030SOL     OW27988   2.986   2.153   2.273
 9030SOL    HW127989   3.047   2.086   2.232
 9030SOL    HW227990   2.963   2.224   2.206
 9031SOL     OW27991   5.141   6.716   5.022
 9031SOL    HW127992   5.086   6.799   5.022
 9031SOL    HW227993   5.238   6.740   5.014
 9032SOL     OW27994   4.740   3.230   1.191
 9032SOL    HW127995   4.711   3.160   1.257
 9032SOL    HW227996   4.731   3.194   1.098
 9033SOL     OW27997   1.264   6.002   2.623
 9033SOL    HW127998   1.293   6.007   2.527
 9033SOL    HW227999   1.335   5.956   2.677
 9034SOL     OW28000   3.913   6.585   5.008
 9034SOL    HW128001   4.000   6.613   5.049
 9034SOL    HW228002   3.885   6.653   4.940
 9035SOL     OW28003   2.339   5.592   5.898
 9035SOL    HW128004   2.240   5.594   5.909
 9035SOL    HW228005   2.382   5.638   5.976
 9036SOL     OW28006   0.321   5.344   5.239
 9036SOL    HW128007   0.267   5.295   5.171
 9036SOL    HW228008   0.414   5.305   5.242
 9037SOL     OW28009   6.937   0.911   2.432
 9037SOL    HW128010   6.959   0.944   2.340
 9037SOL    HW228011   6.872   0.835   2.425
 9038SOL     OW28012   3.375   3.703   5.729
 9038SOL    HW128013   3.455   3.760   5.749
 9038SOL    HW228014   3.375   3.622   5.788
 9039SOL     OW28015   4.538   6.425   6.145
 9039SOL    HW128016   4.491   6.449   6.060
 9039SOL    HW228017   4.519   6.494   6.214
 9040SOL     OW28018   2.362   2.241   1.499
 9040SOL    HW128019   2.377   2.142   1.502
 9040SOL    HW228020   2.449   2.287   1.480
 9041SOL     OW28021   6.374   2.270   3.253
 9041SOL    HW128022   6.282   2.259   3.215
 9041SOL    HW228023   6.427   2.332   3.195
 9042SOL     OW28024   6.087   5.517   6.631
 9042SOL    HW128025   5.989   5.508   6.649
 9042SOL    HW228026   6.136   5.528   6.718
 9043SOL     OW28027   2.803   3.015   1.773
 9043SOL    HW128028   2.834   3.094   1.825
 9043SOL    HW228029   2.705   3.023   1.754
 9044SOL     OW28030   2.028   0.829   6.888
 9044SOL    HW128031   1.945   0.842   6.941
 9044SOL    HW228032   2.044   0.731   6.874
 9045SOL     OW28033   3.460   0.534   4.208
 9045SOL    HW128034   3.393   0.605   4.189
 9045SOL    HW228035   3.443   0.456   4.147
 9046SOL     OW28036   4.070   3.734   1.931
 9046SOL    HW128037   4.056   3.699   2.024
 9046SOL    HW228038   4.052   3.661   1.865
 9047SOL     OW28039   0.424   4.199   5.619
 9047SOL    HW128040   0.523   4.208   5.623
 9047SOL    HW228041   0.388   4.188   5.711
 9048SOL     OW28042   0.717   2.217   5.481
 9048SOL    HW128043   0.675   2.202   5.391
 9048SOL    HW228044   0.748   2.130   5.518
 9049SOL     OW28045   0.745   6.649   5.183
 9049SOL    HW128046   0.776   6.734   5.140
 9049SOL    HW228047   0.648   6.657   5.207
 9050SOL     OW28048   1.471   4.455   0.153
 9050SOL    HW128049   1.431   4.534   0.200
 9050SOL    HW228050   1.456   4.372   0.207
 9051SOL     OW28051   2.044   0.764   1.265
 9051SOL    HW128052   2.042   0.851   1.316
 9051SOL    HW228053   2.009   0.691   1.324
 9052SOL     OW28054   2.075   2.635   6.556
 9052SOL    HW128055   2.093   2.547   6.601
 9052SOL    HW228056   2.161   2.673   6.522
 9053SOL     OW28057   0.702   1.344   0.584
 9053SOL    HW128058   0.703   1.249   0.552
 9053SOL    HW228059   0.618   1.388   0.553
 9054SOL     OW28060   1.123   5.348   3.160
 9054SOL    HW128061   1.202   5.407   3.140
 9054SOL    HW228062   1.042   5.405   3.173
 9055SOL     OW28063   0.698   2.652   6.469
 9055SOL    HW128064   0.628   2.625   6.403
 9055SOL    HW228065   0.659   2.720   6.531
 9056SOL     OW28066   4.788   1.234   4.329
 9056SOL    HW128067   4.706   1.292   4.329
 9056SOL    HW228068   4.858   1.276   4.271
 9057SOL     OW28069   4.926   1.549   3.719
 9057SOL    HW128070   4.846   1.581   3.770
 9057SOL    HW228071   4.954   1.619   3.654
 9058SOL     OW28072   1.960   6.813   5.993
 9058SOL    HW128073   1.964   6.803   5.893
 9058SOL    HW228074   1.882   6.871   6.017
 9059SOL     OW28075   1.781   2.083   3.293
 9059SOL    HW128076   1.876   2.082   3.262
 9059SOL    HW228077   1.732   2.007   3.249
 9060SOL     OW28078   5.406   2.625   5.247
 9060SOL    HW128079   5.501   2.621   5.215
 9060SOL    HW228080   5.358   2.699   5.200
 9061SOL     OW28081   2.156   4.585   4.102
 9061SOL    HW128082   2.211   4.508   4.070
 9061SOL    HW228083   2.075   4.594   4.045
 9062SOL     OW28084   1.948   6.458   1.980
 9062SOL    HW128085   1.993   6.529   2.034
 9062SOL    HW228086   1.978   6.368   2.011
 9063SOL     OW28087   3.011   1.579   1.669
 9063SOL    HW128088   2.926   1.631   1.682
 9063SOL    HW228089   2.990   1.482   1.675
 9064SOL     OW28090   4.058   3.670   0.107
 9064SOL    HW128091   4.009   3.704   0.027
 9064SOL    HW228092   4.116   3.742   0.144
 9065SOL     OW28093   2.733   1.261   0.897
 9065SOL    HW128094   2.758   1.171   0.860
 9065SOL    HW228095   2.808   1.325   0.884
 9066SOL     OW28096   5.030   6.789   0.130
 9066SOL    HW128097   5.007   6.693   0.144
 9066SOL    HW228098   4.957   6.847   0.167
 9067SOL     OW28099   0.728   0.189   1.813
 9067SOL    HW128100   0.724   0.287   1.797
 9067SOL    HW228101   0.635   0.152   1.821
 9068SOL     OW28102   0.959   6.056   6.276
 9068SOL    HW128103   0.968   6.058   6.176
 9068SOL    HW228104   0.942   6.149   6.309
 9069SOL     OW28105   1.425   2.539   5.441
 9069SOL    HW128106   1.340   2.493   5.469
 9069SOL    HW228107   1.404   2.632   5.411
 9070SOL     OW28108   1.031   4.175   4.501
 9070SOL    HW128109   1.047   4.080   4.475
 9070SOL    HW228110   0.963   4.216   4.440
 9071SOL     OW28111   5.086   5.497   7.006
 9071SOL    HW128112   5.102   5.536   6.915
 9071SOL    HW228113   5.123   5.404   7.009
 9072SOL     OW28114   5.260   4.409   0.586
 9072SOL    HW128115   5.179   4.450   0.627
 9072SOL    HW228116   5.269   4.442   0.492
 9073SOL     OW28117   2.018   0.110   1.422
 9073SOL    HW128118   1.940   0.165   1.394
 9073SOL    HW228119   2.073   0.161   1.488
 9074SOL     OW28120   0.785   0.885   1.550
 9074SOL    HW128121   0.820   0.958   1.608
 9074SOL    HW228122   0.716   0.922   1.488
 9075SOL     OW28123   6.643   0.296   1.115
 9075SOL    HW128124   6.636   0.252   1.025
 9075SOL    HW228125   6.737   0.326   1.129
 9076SOL     OW28126   1.071   2.816   5.321
 9076SOL    HW128127   0.999   2.883   5.305
 9076SOL    HW228128   1.036   2.742   5.379
 9077SOL     OW28129   5.841   5.816   1.919
 9077SOL    HW128130   5.902   5.895   1.911
 9077SOL    HW228131   5.782   5.826   1.999
 9078SOL     OW28132   4.826   3.117   5.254
 9078SOL    HW128133   4.877   3.184   5.200
 9078SOL    HW228134   4.819   3.031   5.203
 9079SOL     OW28135   1.875   0.362   5.455
 9079SOL    HW128136   1.925   0.447   5.441
 9079SOL    HW228137   1.888   0.330   5.549
 9080SOL     OW28138   4.351   0.711   0.104
 9080SOL    HW128139   4.406   0.795   0.110
 9080SOL    HW228140   4.401   0.643   0.051
 9081SOL     OW28141   5.455   6.856   3.833
 9081SOL    HW128142   5.385   6.805   3.883
 9081SOL    HW228143   5.444   6.954   3.850
 9082SOL     OW28144   2.200   0.463   1.929
 9082SOL    HW128145   2.144   0.388   1.964
 9082SOL    HW228146   2.292   0.430   1.910
 9083SOL     OW28147   4.393   5.474   3.484
 9083SOL    HW128148   4.427   5.540   3.416
 9083SOL    HW228149   4.304   5.440   3.455
 9084SOL     OW28150   3.731   3.818   2.288
 9084SOL    HW128151   3.738   3.819   2.188
 9084SOL    HW228152   3.717   3.911   2.321
 9085SOL     OW28153   1.638   1.660   0.620
 9085SOL    HW128154   1.605   1.677   0.527
 9085SOL    HW228155   1.643   1.747   0.670
 9086SOL     OW28156   7.004   3.605   1.161
 9086SOL    HW128157   6.988   3.511   1.133
 9086SOL    HW228158   6.917   3.655   1.161
 9087SOL     OW28159   5.177   4.000   1.912
 9087SOL    HW128160   5.200   3.945   1.992
 9087SOL    HW228161   5.110   4.070   1.937
 9088SOL     OW28162   6.412   4.779   2.559
 9088SOL    HW128163   6.338   4.777   2.626
 9088SOL    HW228164   6.489   4.831   2.595
 9089SOL     OW28165   4.242   1.146   5.726
 9089SOL    HW128166   4.198   1.171   5.640
 9089SOL    HW228167   4.335   1.184   5.728
 9090SOL     OW28168   0.012   2.097   3.985
 9090SOL    HW128169   6.944   2.136   3.980
 9090SOL    HW228170   0.040   2.066   3.894
 9091SOL     OW28171   4.458   2.928   6.064
 9091SOL    HW128172   4.458   3.017   6.108
 9091SOL    HW228173   4.438   2.857   6.132
 9092SOL     OW28174   6.829   4.075   5.838
 9092SOL    HW128175   6.738   4.090   5.800
 9092SOL    HW228176   6.832   3.985   5.881
 9093SOL     OW28177   2.440   6.311   4.951
 9093SOL    HW128178   2.471   6.219   4.975
 9093SOL    HW228179   2.352   6.329   4.995
 9094SOL     OW28180   1.880   4.026   0.617
 9094SOL    HW128181   1.878   3.927   0.609
 9094SOL    HW228182   1.842   4.053   0.706
 9095SOL     OW28183   0.191   0.371   5.973
 9095SOL    HW128184   0.156   0.286   5.934
 9095SOL    HW228185   0.291   0.364   5.983
 9096SOL     OW28186   6.500   5.404   3.561
 9096SOL    HW128187   6.574   5.367   3.617
 9096SOL    HW228188   6.488   5.502   3.581
 9097SOL     OW28189   0.725   4.104   0.674
 9097SOL    HW128190   0.755   4.076   0.583
 9097SOL    HW228191   0.698   4.200   0.672
 9098SOL     OW28192   2.228   5.476   4.823
 9098SOL    HW128193   2.226   5.576   4.832
 9098SOL    HW228194   2.239   5.452   4.726
 9099SOL     OW28195   2.137   1.242   6.169
 9099SOL    HW128196   2.193   1.208   6.244
 9099SOL    HW228197   2.195   1.286   6.100
 9100SOL     OW28198   1.522   4.759   4.614
 9100SOL    HW128199   1.443   4.818   4.635
 9100SOL    HW228200   1.588   4.810   4.559
 9101SOL     OW28201   6.572   1.808   1.564
 9101SOL    HW128202   6.525   1.845   1.644
 9101SOL    HW228203   6.510   1.806   1.486
 9102SOL     OW28204   3.937   0.948   2.852
 9102SOL    HW128205   3.895   0.863   2.883
 9102SOL    HW228206   4.018   0.968   2.907
 9103SOL     OW28207   5.790   0.756   1.457
 9103SOL    HW128208   5.830   0.847   1.465
 9103SOL    HW228209   5.784   0.731   1.360
 9104SOL     OW28210   5.225   2.474   5.801
 9104SOL    HW128211   5.197   2.389   5.847
 9104SOL    HW228212   5.144   2.523   5.770
 9105SOL     OW28213   3.015   0.827   0.158
 9105SOL    HW128214   3.078   0.872   0.222
 9105SOL    HW228215   3.050   0.837   0.065
 9106SOL     OW28216   2.395   2.827   6.051
 9106SOL    HW128217   2.300   2.797   6.040
 9106SOL    HW228218   2.439   2.771   6.121
 9107SOL     OW28219   4.007   0.305   1.113
 9107SOL    HW128220   4.103   0.296   1.138
 9107SOL    HW228221   3.957   0.347   1.189
 9108SOL     OW28222   6.262   6.723   5.723
 9108SOL    HW128223   6.251   6.763   5.632
 9108SOL    HW228224   6.195   6.650   5.735
 9109SOL     OW28225   5.599   3.614   3.043
 9109SOL    HW128226   5.620   3.517   3.038
 9109SOL    HW228227   5.664   3.660   3.103
 9110SOL     OW28228   1.103   6.152   1.847
 9110SOL    HW128229   1.053   6.162   1.933
 9110SOL    HW228230   1.178   6.087   1.859
 9111SOL     OW28231   5.028   3.044   6.152
 9111SOL    HW128232   5.096   3.111   6.179
 9111SOL    HW228233   5.015   3.048   6.053
 9112SOL     OW28234   0.868   4.795   1.754
 9112SOL    HW128235   0.839   4.821   1.847
 9112SOL    HW228236   0.933   4.862   1.719
 9113SOL     OW28237   5.487   0.463   4.997
 9113SOL    HW128238   5.527   0.554   4.999
 9113SOL    HW228239   5.398   0.466   4.950
 9114SOL     OW28240   6.758   1.184   5.987
 9114SOL    HW128241   6.828   1.248   6.018
 9114SOL    HW228242   6.796   1.092   5.982
 9115SOL     OW28243   5.168   3.897   4.178
 9115SOL    HW128244   5.236   3.860   4.241
 9115SOL    HW228245   5.183   3.861   4.086
 9116SOL     OW28246   0.269   5.343   3.641
 9116SOL    HW128247   0.311   5.307   3.557
 9116SOL    HW228248   0.255   5.268   3.705
 9117SOL     OW28249   2.111   6.769   6.991
 9117SOL    HW128250   2.153   6.708   0.034
 9117SOL    HW228251   2.089   6.718   6.909
 9118SOL     OW28252   0.102   4.999   0.872
 9118SOL    HW128253   0.165   5.041   0.938
 9118SOL    HW228254   0.009   5.000   0.908
 9119SOL     OW28255   3.842   1.962   0.780
 9119SOL    HW128256   3.826   1.997   0.687
 9119SOL    HW228257   3.868   2.037   0.840
 9120SOL     OW28258   6.576   4.477   4.997
 9120SOL    HW128259   6.644   4.507   4.931
 9120SOL    HW228260   6.588   4.528   5.083
 9121SOL     OW28261   4.597   0.947   4.781
 9121SOL    HW128262   4.669   0.881   4.803
 9121SOL    HW228263   4.539   0.962   4.861
 9122SOL     OW28264   0.185   1.755   2.373
 9122SOL    HW128265   0.176   1.658   2.395
 9122SOL    HW228266   0.176   1.768   2.274
 9123SOL     OW28267   0.636   6.059   4.750
 9123SOL    HW128268   0.582   6.071   4.833
 9123SOL    HW228269   0.681   5.970   4.752
 9124SOL     OW28270   3.228   5.484   0.967
 9124SOL    HW128271   3.145   5.490   1.022
 9124SOL    HW228272   3.286   5.410   1.003
 9125SOL     OW28273   4.858   6.451   1.839
 9125SOL    HW128274   4.858   6.499   1.926
 9125SOL    HW228275   4.888   6.513   1.766
 9126SOL     OW28276   3.638   4.683   0.262
 9126SOL    HW128277   3.644   4.749   0.186
 9126SOL    HW228278   3.690   4.718   0.340
 9127SOL     OW28279   6.086   4.050   6.121
 9127SOL    HW128280   6.074   3.973   6.184
 9127SOL    HW228281   6.180   4.050   6.086
 9128SOL     OW28282   5.181   3.280   6.862
 9128SOL    HW128283   5.212   3.193   6.825
 9128SOL    HW228284   5.258   3.343   6.869
 9129SOL     OW28285   0.919   2.552   1.531
 9129SOL    HW128286   0.862   2.634   1.524
 9129SOL    HW228287   1.015   2.579   1.536
 9130SOL     OW28288   2.902   4.232   6.175
 9130SOL    HW128289   2.991   4.226   6.129
 9130SOL    HW228290   2.908   4.191   6.266
 9131SOL     OW28291   6.016   3.207   0.845
 9131SOL    HW128292   6.078   3.133   0.818
 9131SOL    HW228293   5.925   3.190   0.806
 9132SOL     OW28294   0.905   4.390   3.777
 9132SOL    HW128295   0.898   4.306   3.723
 9132SOL    HW228296   0.979   4.447   3.742
 9133SOL     OW28297   5.227   6.555   0.389
 9133SOL    HW128298   5.209   6.528   0.295
 9133SOL    HW228299   5.295   6.628   0.391
 9134SOL     OW28300   4.883   4.043   6.845
 9134SOL    HW128301   4.952   3.990   6.896
 9134SOL    HW228302   4.826   4.093   6.910
 9135SOL     OW28303   6.209   5.294   2.675
 9135SOL    HW128304   6.214   5.194   2.672
 9135SOL    HW228305   6.263   5.328   2.752
 9136SOL     OW28306   0.720   4.883   6.583
 9136SOL    HW128307   0.649   4.949   6.560
 9136SOL    HW228308   0.706   4.799   6.531
 9137SOL     OW28309   5.726   5.662   5.756
 9137SOL    HW128310   5.679   5.574   5.759
 9137SOL    HW228311   5.780   5.673   5.839
 9138SOL     OW28312   1.453   3.768   5.963
 9138SOL    HW128313   1.431   3.701   6.034
 9138SOL    HW228314   1.552   3.770   5.949
 9139SOL     OW28315   0.552   0.058   0.951
 9139SOL    HW128316   0.582   6.991   0.976
 9139SOL    HW228317   0.569   0.073   0.853
 9140SOL     OW28318   0.317   4.234   2.861
 9140SOL    HW128319   0.295   4.207   2.767
 9140SOL    HW228320   0.411   4.205   2.882
 9141SOL     OW28321   0.061   5.586   4.322
 9141SOL    HW128322   0.064   5.522   4.245
 9141SOL    HW228323   0.150   5.590   4.365
 9142SOL     OW28324   1.569   4.934   3.286
 9142SOL    HW128325   1.499   4.989   3.331
 9142SOL    HW228326   1.532   4.894   3.202
 9143SOL     OW28327   5.399   3.229   2.472
 9143SOL    HW128328   5.379   3.323   2.446
 9143SOL    HW228329   5.325   3.169   2.441
 9144SOL     OW28330   2.555   4.558   5.596
 9144SOL    HW128331   2.639   4.557   5.541
 9144SOL    HW228332   2.503   4.641   5.576
 9145SOL     OW28333   2.528   5.597   6.832
 9145SOL    HW128334   2.546   5.695   6.824
 9145SOL    HW228335   2.478   5.566   6.750
 9146SOL     OW28336   5.463   1.661   4.407
 9146SOL    HW128337   5.436   1.756   4.390
 9146SOL    HW228338   5.383   1.602   4.399
 9147SOL     OW28339   3.755   6.843   6.122
 9147SOL    HW128340   3.668   6.888   6.103
 9147SOL    HW228341   3.815   6.905   6.172
 9148SOL     OW28342   3.260   5.619   2.123
 9148SOL    HW128343   3.173   5.617   2.075
 9148SOL    HW228344   3.246   5.652   2.217
 9149SOL     OW28345   1.257   3.852   1.940
 9149SOL    HW128346   1.304   3.875   1.855
 9149SOL    HW228347   1.308   3.889   2.018
 9150SOL     OW28348   4.033   3.327   6.798
 9150SOL    HW128349   3.945   3.338   6.754
 9150SOL    HW228350   4.019   3.297   6.893
 9151SOL     OW28351   2.174   3.981   3.638
 9151SOL    HW128352   2.144   3.931   3.719
 9151SOL    HW228353   2.242   4.049   3.664
 9152SOL     OW28354   1.825   5.434   1.760
 9152SOL    HW128355   1.862   5.468   1.846
 9152SOL    HW228356   1.726   5.420   1.769
 9153SOL     OW28357   0.808   3.492   1.076
 9153SOL    HW128358   0.825   3.571   1.135
 9153SOL    HW228359   0.821   3.519   0.980
 9154SOL     OW28360   4.310   5.631   2.860
 9154SOL    HW128361   4.392   5.689   2.863
 9154SOL    HW228362   4.229   5.689   2.858
 9155SOL     OW28363   0.728   6.634   2.224
 9155SOL    HW128364   0.709   6.725   2.188
 9155SOL    HW228365   0.825   6.613   2.211
 9156SOL     OW28366   6.569   4.712   5.486
 9156SOL    HW128367   6.488   4.738   5.434
 9156SOL    HW228368   6.634   4.788   5.486
 9157SOL     OW28369   2.202   4.776   5.049
 9157SOL    HW128370   2.174   4.804   4.958
 9157SOL    HW228371   2.300   4.755   5.048
 9158SOL     OW28372   0.042   2.517   3.957
 9158SOL    HW128373   0.125   2.540   3.906
 9158SOL    HW228374   6.992   2.498   3.893
 9159SOL     OW28375   2.020   0.855   3.440
 9159SOL    HW128376   1.984   0.827   3.351
 9159SOL    HW228377   2.038   0.774   3.496
 9160SOL     OW28378   0.539   3.592   6.567
 9160SOL    HW128379   0.535   3.497   6.600
 9160SOL    HW228380   0.535   3.654   6.645
 9161SOL     OW28381   5.938   3.046   2.822
 9161SOL    HW128382   5.984   3.023   2.908
 9161SOL    HW228383   5.933   3.146   2.813
 9162SOL     OW28384   5.568   2.289   1.731
 9162SOL    HW128385   5.487   2.296   1.789
 9162SOL    HW228386   5.618   2.206   1.753
 9163SOL     OW28387   1.240   3.442   2.902
 9163SOL    HW128388   1.329   3.482   2.928
 9163SOL    HW228389   1.236   3.430   2.803
 9164SOL     OW28390   4.087   0.685   0.793
 9164SOL    HW128391   4.057   0.768   0.747
 9164SOL    HW228392   4.013   0.651   0.852
 9165SOL     OW28393   6.781   0.372   0.397
 9165SOL    HW128394   6.877   0.401   0.400
 9165SOL    HW228395   6.765   0.320   0.313
 9166SOL     OW28396   4.394   5.697   2.119
 9166SOL    HW128397   4.491   5.693   2.096
 9166SOL    HW228398   4.340   5.671   2.039
 9167SOL     OW28399   0.468   2.545   5.261
 9167SOL    HW128400   0.495   2.517   5.352
 9167SOL    HW228401   0.482   2.644   5.251
 9168SOL     OW28402   6.108   6.074   4.854
 9168SOL    HW128403   6.159   6.092   4.770
 9168SOL    HW228404   6.150   5.997   4.903
 9169SOL     OW28405   5.422   5.867   0.170
 9169SOL    HW128406   5.375   5.830   0.251
 9169SOL    HW228407   5.453   5.792   0.112
 9170SOL     OW28408   1.296   6.484   5.007
 9170SOL    HW128409   1.264   6.507   5.099
 9170SOL    HW228410   1.395   6.497   5.002
 9171SOL     OW28411   4.497   5.796   6.815
 9171SOL    HW128412   4.592   5.824   6.800
 9171SOL    HW228413   4.449   5.792   6.728
 9172SOL     OW28414   5.543   0.543   5.745
 9172SOL    HW128415   5.490   0.566   5.663
 9172SOL    HW228416   5.499   0.584   5.825
 9173SOL     OW28417   5.545   3.929   6.895
 9173SOL    HW128418   5.565   3.831   6.890
 9173SOL    HW228419   5.627   3.981   6.871
 9174SOL     OW28420   5.697   5.184   0.031
 9174SOL    HW128421   5.721   5.238   0.112
 9174SOL    HW228422   5.752   5.213   6.977
 9175SOL     OW28423   2.345   1.029   1.571
 9175SOL    HW128424   2.397   1.008   1.488
 9175SOL    HW228425   2.399   1.004   1.652
 9176SOL     OW28426   1.159   6.608   1.978
 9176SOL    HW128427   1.118   6.645   1.894
 9176SOL    HW228428   1.222   6.535   1.954
 9177SOL     OW28429   0.472   5.760   3.475
 9177SOL    HW128430   0.405   5.709   3.420
 9177SOL    HW228431   0.448   5.753   3.572
 9178SOL     OW28432   0.857   3.199   1.225
 9178SOL    HW128433   0.783   3.182   1.290
 9178SOL    HW228434   0.848   3.137   1.147
 9179SOL     OW28435   3.807   5.701   2.656
 9179SOL    HW128436   3.826   5.797   2.673
 9179SOL    HW228437   3.723   5.693   2.602
 9180SOL     OW28438   0.734   1.174   4.463
 9180SOL    HW128439   0.638   1.174   4.435
 9180SOL    HW228440   0.743   1.139   4.556
 9181SOL     OW28441   3.065   1.782   2.851
 9181SOL    HW128442   2.981   1.807   2.900
 9181SOL    HW228443   3.118   1.718   2.906
 9182SOL     OW28444   6.557   1.183   2.670
 9182SOL    HW128445   6.571   1.268   2.619
 9182SOL    HW228446   6.568   1.105   2.609
 9183SOL     OW28447   3.074   1.460   5.494
 9183SOL    HW128448   3.148   1.406   5.452
 9183SOL    HW228449   3.000   1.471   5.427
 9184SOL     OW28450   2.768   6.457   0.231
 9184SOL    HW128451   2.855   6.416   0.204
 9184SOL    HW228452   2.746   6.532   0.170
 9185SOL     OW28453   0.677   1.020   5.118
 9185SOL    HW128454   0.617   1.038   5.196
 9185SOL    HW228455   0.711   1.107   5.082
 9186SOL     OW28456   4.884   6.685   6.038
 9186SOL    HW128457   4.875   6.586   6.048
 9186SOL    HW228458   4.971   6.706   5.992
 9187SOL     OW28459   4.651   3.490   0.994
 9187SOL    HW128460   4.712   3.459   0.921
 9187SOL    HW228461   4.596   3.413   1.026
 9188SOL     OW28462   1.336   0.717   2.471
 9188SOL    HW128463   1.261   0.674   2.521
 9188SOL    HW228464   1.420   0.707   2.523
 9189SOL     OW28465   3.144   0.479   6.852
 9189SOL    HW128466   3.137   0.395   6.799
 9189SOL    HW228467   3.235   0.518   6.842
 9190SOL     OW28468   3.916   1.039   5.621
 9190SOL    HW128469   4.009   1.076   5.615
 9190SOL    HW228470   3.851   1.104   5.583
 9191SOL     OW28471   5.240   0.225   1.860
 9191SOL    HW128472   5.277   0.138   1.827
 9191SOL    HW228473   5.253   0.295   1.790
 9192SOL     OW28474   3.878   4.846   3.565
 9192SOL    HW128475   3.965   4.839   3.614
 9192SOL    HW228476   3.879   4.785   3.486
 9193SOL     OW28477   3.888   3.961   2.011
 9193SOL    HW128478   3.956   3.962   2.084
 9193SOL    HW228479   3.862   3.866   1.992
 9194SOL     OW28480   2.627   5.523   3.595
 9194SOL    HW128481   2.684   5.603   3.612
 9194SOL    HW228482   2.657   5.448   3.655
 9195SOL     OW28483   0.222   3.281   3.620
 9195SOL    HW128484   0.295   3.319   3.677
 9195SOL    HW228485   0.258   3.257   3.530
 9196SOL     OW28486   5.590   5.297   3.220
 9196SOL    HW128487   5.678   5.259   3.247
 9196SOL    HW228488   5.599   5.395   3.204
 9197SOL     OW28489   4.329   2.365   6.194
 9197SOL    HW128490   4.230   2.376   6.201
 9197SOL    HW228491   4.364   2.330   6.281
 9198SOL     OW28492   6.805   2.621   4.521
 9198SOL    HW128493   6.780   2.589   4.429
 9198SOL    HW228494   6.894   2.584   4.546
 9199SOL     OW28495   0.854   3.547   6.816
 9199SOL    HW128496   0.854   3.464   6.760
 9199SOL    HW228497   0.793   3.535   6.894
 9200SOL     OW28498   4.692   6.104   2.060
 9200SOL    HW128499   4.656   6.144   1.975
 9200SOL    HW228500   4.780   6.146   2.081
 9201SOL     OW28501   0.209   2.830   2.436
 9201SOL    HW128502   0.255   2.907   2.392
 9201SOL    HW228503   0.264   2.798   2.513
 9202SOL     OW28504   2.074   5.929   3.382
 9202SOL    HW128505   2.148   5.995   3.372
 9202SOL    HW228506   2.033   5.937   3.473
 9203SOL     OW28507   5.174   2.043   0.132
 9203SOL    HW128508   5.088   2.070   0.177
 9203SOL    HW228509   5.223   1.979   0.191
 9204SOL     OW28510   4.984   4.106   1.402
 9204SOL    HW128511   5.065   4.051   1.421
 9204SOL    HW228512   5.002   4.166   1.325
 9205SOL     OW28513   4.404   2.814   0.940
 9205SOL    HW128514   4.315   2.853   0.916
 9205SOL    HW228515   4.467   2.822   0.863
 9206SOL     OW28516   6.629   0.506   5.181
 9206SOL    HW128517   6.589   0.452   5.255
 9206SOL    HW228518   6.576   0.492   5.097
 9207SOL     OW28519   6.185   6.217   0.990
 9207SOL    HW128520   6.196   6.315   1.002
 9207SOL    HW228521   6.272   6.177   0.959
 9208SOL     OW28522   6.385   3.787   1.716
 9208SOL    HW128523   6.366   3.692   1.740
 9208SOL    HW228524   6.300   3.833   1.690
 9209SOL     OW28525   5.100   0.690   4.444
 9209SOL    HW128526   5.169   0.642   4.499
 9209SOL    HW228527   5.131   0.784   4.427
 9210SOL     OW28528   1.609   6.650   0.408
 9210SOL    HW128529   1.707   6.670   0.405
 9210SOL    HW228530   1.559   6.717   0.353
 9211SOL     OW28531   5.350   1.027   6.472
 9211SOL    HW128532   5.265   1.045   6.522
 9211SOL    HW228533   5.354   0.930   6.447
 9212SOL     OW28534   5.807   3.747   6.312
 9212SOL    HW128535   5.708   3.762   6.311
 9212SOL    HW228536   5.827   3.662   6.361
 9213SOL     OW28537   0.447   6.081   3.355
 9213SOL    HW128538   0.532   6.125   3.327
 9213SOL    HW228539   0.466   6.019   3.432
 9214SOL     OW28540   1.400   1.257   5.545
 9214SOL    HW128541   1.496   1.246   5.572
 9214SOL    HW228542   1.385   1.210   5.458
 9215SOL     OW28543   6.597   4.529   3.816
 9215SOL    HW128544   6.617   4.495   3.724
 9215SOL    HW228545   6.599   4.453   3.881
 9216SOL     OW28546   1.561   0.134   3.297
 9216SOL    HW128547   1.619   0.058   3.327
 9216SOL    HW228548   1.581   0.214   3.354
 9217SOL     OW28549   3.773   2.421   0.176
 9217SOL    HW128550   3.692   2.461   0.219
 9217SOL    HW228551   3.823   2.493   0.127
 9218SOL     OW28552   5.097   5.684   5.960
 9218SOL    HW128553   5.169   5.715   6.022
 9218SOL    HW228554   5.058   5.762   5.911
 9219SOL     OW28555   3.247   2.858   5.777
 9219SOL    HW128556   3.247   2.859   5.677
 9219SOL    HW228557   3.308   2.786   5.810
 9220SOL     OW28558   0.448   6.768   3.507
 9220SOL    HW128559   0.511   6.718   3.448
 9220SOL    HW228560   0.498   6.838   3.558
 9221SOL     OW28561   2.545   1.136   2.286
 9221SOL    HW128562   2.495   1.133   2.373
 9221SOL    HW228563   2.620   1.202   2.294
 9222SOL     OW28564   2.864   6.174   3.467
 9222SOL    HW128565   2.852   6.197   3.563
 9222SOL    HW228566   2.917   6.245   3.421
 9223SOL     OW28567   5.889   2.703   5.001
 9223SOL    HW128568   5.984   2.674   4.996
 9223SOL    HW228569   5.867   2.730   5.095
 9224SOL     OW28570   2.004   5.561   2.533
 9224SOL    HW128571   2.095   5.532   2.561
 9224SOL    HW228572   1.953   5.594   2.613
 9225SOL     OW28573   0.153   6.027   5.742
 9225SOL    HW128574   0.169   5.937   5.702
 9225SOL    HW228575   0.101   6.016   5.827
 9226SOL     OW28576   0.494   6.712   4.828
 9226SOL    HW128577   0.422   6.747   4.888
 9226SOL    HW228578   0.563   6.782   4.813
 9227SOL     OW28579   4.064   2.794   0.756
 9227SOL    HW128580   3.984   2.796   0.817
 9227SOL    HW228581   4.124   2.870   0.778
 9228SOL     OW28582   3.313   3.633   4.099
 9228SOL    HW128583   3.228   3.685   4.092
 9228SOL    HW228584   3.364   3.661   4.180
 9229SOL     OW28585   0.306   5.990   1.339
 9229SOL    HW128586   0.307   6.012   1.241
 9229SOL    HW228587   0.253   5.907   1.355
 9230SOL     OW28588   3.494   6.562   5.611
 9230SOL    HW128589   3.430   6.487   5.594
 9230SOL    HW228590   3.444   6.643   5.642
 9231SOL     OW28591   5.157   6.008   2.015
 9231SOL    HW128592   5.091   6.071   1.974
 9231SOL    HW228593   5.111   5.923   2.040
 9232SOL     OW28594   1.255   5.009   1.704
 9232SOL    HW128595   1.163   4.982   1.676
 9232SOL    HW228596   1.297   5.065   1.633
 9233SOL     OW28597   0.978   0.660   6.093
 9233SOL    HW128598   0.911   0.727   6.060
 9233SOL    HW228599   1.070   0.691   6.069
 9234SOL     OW28600   2.950   4.073   0.311
 9234SOL    HW128601   2.901   4.145   0.361
 9234SOL    HW228602   2.944   4.091   0.213
 9235SOL     OW28603   1.115   2.518   2.687
 9235SOL    HW128604   1.113   2.568   2.600
 9235SOL    HW228605   1.130   2.421   2.669
 9236SOL     OW28606   1.971   3.778   6.459
 9236SOL    HW128607   2.012   3.714   6.395
 9236SOL    HW228608   1.987   3.872   6.427
 9237SOL     OW28609   6.772   6.032   3.669
 9237SOL    HW128610   6.680   6.061   3.695
 9237SOL    HW228611   6.832   6.036   3.749
 9238SOL     OW28612   2.060   2.850   5.506
 9238SOL    HW128613   2.088   2.776   5.444
 9238SOL    HW228614   2.027   2.927   5.452
 9239SOL     OW28615   1.994   5.903   6.369
 9239SOL    HW128616   1.907   5.920   6.416
 9239SOL    HW228617   2.022   5.984   6.318
 9240SOL     OW28618   3.665   1.427   5.023
 9240SOL    HW128619   3.596   1.464   4.962
 9240SOL    HW228620   3.748   1.483   5.018
 9241SOL     OW28621   5.165   6.165   7.021
 9241SOL    HW128622   5.196   6.260   7.010
 9241SOL    HW228623   5.242   6.103   7.008
 9242SOL     OW28624   2.185   2.695   6.934
 9242SOL    HW128625   2.241   2.678   6.853
 9242SOL    HW228626   2.096   2.730   6.907
 9243SOL     OW28627   2.138   0.002   0.053
 9243SOL    HW128628   2.127   6.930   0.026
 9243SOL    HW228629   2.080   0.060   7.020
 9244SOL     OW28630   3.243   6.249   6.265
 9244SOL    HW128631   3.277   6.219   6.176
 9244SOL    HW228632   3.290   6.334   6.291
 9245SOL     OW28633   0.814   4.133   3.659
 9245SOL    HW128634   0.765   4.088   3.584
 9245SOL    HW228635   0.769   4.109   3.746
 9246SOL     OW28636   4.954   1.806   6.706
 9246SOL    HW128637   5.000   1.833   6.791
 9246SOL    HW228638   4.973   1.872   6.635
 9247SOL     OW28639   3.073   6.524   2.437
 9247SOL    HW128640   2.975   6.544   2.435
 9247SOL    HW228641   3.088   6.430   2.407
 9248SOL     OW28642   2.941   0.164   6.401
 9248SOL    HW128643   2.874   0.140   6.472
 9248SOL    HW228644   3.032   0.132   6.429
 9249SOL     OW28645   2.972   1.423   0.615
 9249SOL    HW128646   2.971   1.483   0.535
 9249SOL    HW228647   2.973   1.328   0.586
 9250SOL     OW28648   0.959   3.852   1.804
 9250SOL    HW128649   1.035   3.898   1.849
 9250SOL    HW228650   0.978   3.754   1.797
 9251SOL     OW28651   4.181   1.658   0.966
 9251SOL    HW128652   4.130   1.623   1.044
 9251SOL    HW228653   4.185   1.589   0.894
 9252SOL     OW28654   5.832   1.408   4.758
 9252SOL    HW128655   5.853   1.386   4.663
 9252SOL    HW228656   5.838   1.507   4.772
 9253SOL     OW28657   2.709   5.283   3.742
 9253SOL    HW128658   2.785   5.220   3.726
 9253SOL    HW228659   2.706   5.308   3.839
 9254SOL     OW28660   6.327   5.570   2.248
 9254SOL    HW128661   6.254   5.638   2.244
 9254SOL    HW228662   6.396   5.592   2.179
 9255SOL     OW28663   0.401   3.103   1.988
 9255SOL    HW128664   0.397   3.169   1.913
 9255SOL    HW228665   0.485   3.118   2.041
 9256SOL     OW28666   1.495   6.214   0.570
 9256SOL    HW128667   1.487   6.308   0.536
 9256SOL    HW228668   1.415   6.161   0.542
 9257SOL     OW28669   6.702   6.567   5.289
 9257SOL    HW128670   6.604   6.582   5.306
 9257SOL    HW228671   6.751   6.564   5.376
 9258SOL     OW28672   5.145   3.424   2.950
 9258SOL    HW128673   5.169   3.521   2.944
 9258SOL    HW228674   5.046   3.414   2.952
 9259SOL     OW28675   1.118   3.038   6.030
 9259SOL    HW128676   1.127   3.094   5.948
 9259SOL    HW228677   1.209   3.012   6.062
 9260SOL     OW28678   5.213   4.857   4.942
 9260SOL    HW128679   5.178   4.897   5.026
 9260SOL    HW228680   5.279   4.785   4.964
 9261SOL     OW28681   1.658   2.829   0.849
 9261SOL    HW128682   1.633   2.792   0.759
 9261SOL    HW228683   1.755   2.852   0.849
 9262SOL     OW28684   6.371   6.315   5.658
 9262SOL    HW128685   6.417   6.319   5.570
 9262SOL    HW228686   6.398   6.232   5.707
 9263SOL     OW28687   2.095   4.416   2.433
 9263SOL    HW128688   2.141   4.364   2.361
 9263SOL    HW228689   2.013   4.367   2.463
 9264SOL     OW28690   6.145   3.906   5.460
 9264SOL    HW128691   6.073   3.909   5.390
 9264SOL    HW228692   6.129   3.979   5.527
 9265SOL     OW28693   4.140   0.309   2.089
 9265SOL    HW128694   4.188   0.274   2.008
 9265SOL    HW228695   4.093   0.394   2.067
 9266SOL     OW28696   6.915   4.502   1.346
 9266SOL    HW128697   6.944   4.571   1.412
 9266SOL    HW228698   6.824   4.468   1.372
 9267SOL     OW28699   6.812   0.990   3.137
 9267SOL    HW128700   6.738   1.010   3.201
 9267SOL    HW228701   6.798   1.040   3.052
 9268SOL     OW28702   0.127   0.413   0.713
 9268SOL    HW128703   0.097   0.339   0.653
 9268SOL    HW228704   0.215   0.388   0.755
 9269SOL     OW28705   3.624   6.611   1.470
 9269SOL    HW128706   3.621   6.711   1.483
 9269SOL    HW228707   3.534   6.573   1.490
 9270SOL     OW28708   1.675   1.183   5.636
 9270SOL    HW128709   1.744   1.122   5.597
 9270SOL    HW228710   1.720   1.251   5.694
 9271SOL     OW28711   1.150   5.250   5.527
 9271SOL    HW128712   1.128   5.277   5.433
 9271SOL    HW228713   1.109   5.315   5.591
 9272SOL     OW28714   6.463   6.806   6.124
 9272SOL    HW128715   6.394   6.809   6.052
 9272SOL    HW228716   6.419   6.786   6.212
 9273SOL     OW28717   6.376   4.087   3.334
 9273SOL    HW128718   6.400   4.058   3.427
 9273SOL    HW228719   6.278   4.103   3.327
 9274SOL     OW28720   6.890   2.890   1.672
 9274SOL    HW128721   6.899   2.820   1.601
 9274SOL    HW228722   6.907   2.980   1.632
 9275SOL     OW28723   4.556   1.604   0.488
 9275SOL    HW128724   4.652   1.589   0.512
 9275SOL    HW228725   4.510   1.649   0.565
 9276SOL     OW28726   1.232   3.847   0.860
 9276SOL    HW128727   1.309   3.899   0.823
 9276SOL    HW228728   1.216   3.766   0.802
 9277SOL     OW28729   3.203   6.142   2.974
 9277SOL    HW128730   3.138   6.214   2.952
 9277SOL    HW228731   3.170   6.088   3.052
 9278SOL     OW28732   1.286   6.633   4.724
 9278SOL    HW128733   1.270   6.628   4.823
 9278SOL    HW228734   1.374   6.678   4.707
 9279SOL     OW28735   4.051   5.712   2.181
 9279SOL    HW128736   4.142   5.673   2.196
 9279SOL    HW228737   3.985   5.639   2.164
 9280SOL     OW28738   1.421   4.349   1.995
 9280SOL    HW128739   1.517   4.355   1.969
 9280SOL    HW228740   1.412   4.370   2.093
 9281SOL     OW28741   0.982   5.696   0.708
 9281SOL    HW128742   1.002   5.719   0.803
 9281SOL    HW228743   0.900   5.639   0.704
 9282SOL     OW28744   1.831   0.836   3.710
 9282SOL    HW128745   1.833   0.913   3.773
 9282SOL    HW228746   1.906   0.844   3.644
 9283SOL     OW28747   5.503   5.040   6.539
 9283SOL    HW128748   5.535   5.117   6.594
 9283SOL    HW228749   5.561   4.960   6.558
 9284SOL     OW28750   3.881   6.334   1.523
 9284SOL    HW128751   3.845   6.241   1.538
 9284SOL    HW228752   3.847   6.370   1.436
 9285SOL     OW28753   6.836   5.723   3.105
 9285SOL    HW128754   6.821   5.628   3.133
 9285SOL    HW228755   6.833   5.783   3.186
 9286SOL     OW28756   5.505   5.792   1.593
 9286SOL    HW128757   5.445   5.855   1.642
 9286SOL    HW228758   5.584   5.769   1.649
 9287SOL     OW28759   4.412   4.207   0.586
 9287SOL    HW128760   4.403   4.306   0.597
 9287SOL    HW228761   4.329   4.162   0.619
 9288SOL     OW28762   3.376   0.922   3.525
 9288SOL    HW128763   3.312   0.947   3.452
 9288SOL    HW228764   3.410   1.006   3.568
 9289SOL     OW28765   4.312   5.879   2.312
 9289SOL    HW128766   4.312   5.801   2.249
 9289SOL    HW228767   4.286   5.962   2.264
 9290SOL     OW28768   5.660   0.250   3.790
 9290SOL    HW128769   5.582   0.313   3.780
 9290SOL    HW228770   5.743   0.296   3.758
 9291SOL     OW28771   0.211   5.171   5.610
 9291SOL    HW128772   0.286   5.112   5.642
 9291SOL    HW228773   0.227   5.265   5.641
 9292SOL     OW28774   2.029   2.137   6.836
 9292SOL    HW128775   1.963   2.190   6.782
 9292SOL    HW228776   1.983   2.102   6.918
 9293SOL     OW28777   3.854   1.541   6.340
 9293SOL    HW128778   3.764   1.508   6.312
 9293SOL    HW228779   3.918   1.533   6.263
 9294SOL     OW28780   5.199   6.594   6.098
 9294SOL    HW128781   5.278   6.539   6.126
 9294SOL    HW228782   5.118   6.565   6.149
 9295SOL     OW28783   6.045   0.571   3.109
 9295SOL    HW128784   6.099   0.503   3.060
 9295SOL    HW228785   6.064   0.662   3.072
 9296SOL     OW28786   2.304   3.013   5.700
 9296SOL    HW128787   2.227   3.036   5.640
 9296SOL    HW228788   2.372   2.961   5.648
 9297SOL     OW28789   0.004   5.260   1.975
 9297SOL    HW128790   7.001   5.261   2.072
 9297SOL    HW228791   6.960   5.310   1.921
 9298SOL     OW28792   6.325   4.483   0.025
 9298SOL    HW128793   6.389   4.420   0.068
 9298SOL    HW228794   6.248   4.431   7.012
 9299SOL     OW28795   3.715   2.144   4.189
 9299SOL    HW128796   3.623   2.175   4.166
 9299SOL    HW228797   3.720   2.123   4.287
 9300SOL     OW28798   2.563   5.999   6.161
 9300SOL    HW128799   2.498   6.072   6.182
 9300SOL    HW228800   2.653   6.039   6.141
 9301SOL     OW28801   0.074   3.429   3.985
 9301SOL    HW128802   0.033   3.493   4.050
 9301SOL    HW228803   0.166   3.404   4.016
 9302SOL     OW28804   3.034   6.136   3.893
 9302SOL    HW128805   3.126   6.130   3.931
 9302SOL    HW228806   2.972   6.172   3.962
 9303SOL     OW28807   2.888   4.128   0.044
 9303SOL    HW128808   2.809   4.172   0.087
 9303SOL    HW228809   2.889   4.151   6.970
 9304SOL     OW28810   5.881   5.868   6.979
 9304SOL    HW128811   5.869   5.938   0.025
 9304SOL    HW228812   5.961   5.891   6.922
 9305SOL     OW28813   2.222   1.667   0.581
 9305SOL    HW128814   2.125   1.672   0.606
 9305SOL    HW228815   2.267   1.754   0.603
 9306SOL     OW28816   6.560   6.403   3.487
 9306SOL    HW128817   6.462   6.381   3.482
 9306SOL    HW228818   6.576   6.495   3.453
 9307SOL     OW28819   1.704   3.970   0.927
 9307SOL    HW128820   1.712   3.932   1.020
 9307SOL    HW228821   1.757   4.055   0.922
 9308SOL     OW28822   2.447   3.218   1.026
 9308SOL    HW128823   2.454   3.274   1.108
 9308SOL    HW228824   2.410   3.272   0.951
 9309SOL     OW28825   3.506   5.291   5.997
 9309SOL    HW128826   3.586   5.278   5.939
 9309SOL    HW228827   3.506   5.222   6.070
 9310SOL     OW28828   6.243   6.759   5.970
 9310SOL    HW128829   6.176   6.830   5.990
 9310SOL    HW228830   6.253   6.751   5.870
 9311SOL     OW28831   5.326   4.365   0.262
 9311SOL    HW128832   5.399   4.367   0.193
 9311SOL    HW228833   5.269   4.284   0.247
 9312SOL     OW28834   6.371   3.281   4.107
 9312SOL    HW128835   6.346   3.280   4.010
 9312SOL    HW228836   6.300   3.330   4.158
 9313SOL     OW28837   0.463   0.093   1.758
 9313SOL    HW128838   0.490   0.173   1.704
 9313SOL    HW228839   0.366   0.073   1.742
 9314SOL     OW28840   5.862   4.812   1.893
 9314SOL    HW128841   5.868   4.875   1.971
 9314SOL    HW228842   5.821   4.859   1.815
 9315SOL     OW28843   5.220   5.586   4.882
 9315SOL    HW128844   5.180   5.678   4.887
 9315SOL    HW228845   5.319   5.594   4.872
 9316SOL     OW28846   5.638   5.988   6.896
 9316SOL    HW128847   5.654   6.084   6.872
 9316SOL    HW228848   5.725   5.940   6.903
 9317SOL     OW28849   2.756   6.786   2.896
 9317SOL    HW128850   2.795   6.877   2.885
 9317SOL    HW228851   2.659   6.794   2.923
 9318SOL     OW28852   3.477   0.553   3.646
 9318SOL    HW128853   3.467   0.545   3.547
 9318SOL    HW228854   3.474   0.462   3.687
 9319SOL     OW28855   4.107   2.304   0.736
 9319SOL    HW128856   4.135   2.397   0.760
 9319SOL    HW228857   4.172   2.239   0.774
 9320SOL     OW28858   6.566   0.296   6.805
 9320SOL    HW128859   6.646   0.242   6.830
 9320SOL    HW228860   6.498   0.292   6.879
 9321SOL     OW28861   1.624   2.520   4.166
 9321SOL    HW128862   1.631   2.610   4.124
 9321SOL    HW228863   1.532   2.483   4.152
 9322SOL     OW28864   5.376   3.670   0.776
 9322SOL    HW128865   5.312   3.733   0.733
 9322SOL    HW228866   5.435   3.720   0.840
 9323SOL     OW28867   0.501   2.814   5.203
 9323SOL    HW128868   0.407   2.837   5.177
 9323SOL    HW228869   0.564   2.881   5.163
 9324SOL     OW28870   1.283   4.143   1.476
 9324SOL    HW128871   1.262   4.107   1.568
 9324SOL    HW228872   1.376   4.178   1.475
 9325SOL     OW28873   0.120   3.932   2.840
 9325SOL    HW128874   0.105   3.995   2.765
 9325SOL    HW228875   0.126   3.983   2.926
 9326SOL     OW28876   3.807   4.861   1.456
 9326SOL    HW128877   3.769   4.879   1.366
 9326SOL    HW228878   3.906   4.846   1.448
 9327SOL     OW28879   1.937   1.799   2.903
 9327SOL    HW128880   2.004   1.864   2.939
 9327SOL    HW228881   1.977   1.707   2.903
 9328SOL     OW28882   0.719   0.208   3.700
 9328SOL    HW128883   0.644   0.273   3.715
 9328SOL    HW228884   0.788   0.221   3.771
 9329SOL     OW28885   1.613   4.995   6.053
 9329SOL    HW128886   1.606   4.895   6.055
 9329SOL    HW228887   1.551   5.031   5.983
 9330SOL     OW28888   0.533   6.215   0.670
 9330SOL    HW128889   0.599   6.290   0.664
 9330SOL    HW228890   0.481   6.223   0.755
 9331SOL     OW28891   2.527   5.310   4.966
 9331SOL    HW128892   2.453   5.263   5.013
 9331SOL    HW228893   2.596   5.243   4.937
 9332SOL     OW28894   6.437   6.160   0.604
 9332SOL    HW128895   6.497   6.136   0.527
 9332SOL    HW228896   6.354   6.104   0.600
 9333SOL     OW28897   0.805   5.733   1.069
 9333SOL    HW128898   0.798   5.669   0.993
 9333SOL    HW228899   0.718   5.734   1.119
 9334SOL     OW28900   6.839   6.622   0.390
 9334SOL    HW128901   6.794   6.604   0.478
 9334SOL    HW228902   6.938   6.626   0.404
 9335SOL     OW28903   0.104   3.625   1.390
 9335SOL    HW128904   0.062   3.619   1.300
 9335SOL    HW228905   0.159   3.709   1.396
 9336SOL     OW28906   4.551   5.660   5.532
 9336SOL    HW128907   4.509   5.620   5.613
 9336SOL    HW228908   4.584   5.586   5.472
 9337SOL     OW28909   2.915   1.760   4.819
 9337SOL    HW128910   2.877   1.725   4.734
 9337SOL    HW228911   2.879   1.852   4.836
 9338SOL     OW28912   4.323   0.240   1.872
 9338SOL    HW128913   4.246   0.176   1.871
 9338SOL    HW228914   4.384   0.218   1.948
 9339SOL     OW28915   0.199   3.629   4.734
 9339SOL    HW128916   0.287   3.582   4.732
 9339SOL    HW228917   0.205   3.714   4.682
 9340SOL     OW28918   2.916   4.770   2.205
 9340SOL    HW128919   2.898   4.716   2.123
 9340SOL    HW228920   2.974   4.718   2.268
 9341SOL     OW28921   5.124   5.730   1.601
 9341SOL    HW128922   5.083   5.716   1.691
 9341SOL    HW228923   5.211   5.681   1.596
 9342SOL     OW28924   3.042   0.784   4.677
 9342SOL    HW128925   3.100   0.861   4.650
 9342SOL    HW228926   2.975   0.765   4.605
 9343SOL     OW28927   5.613   3.745   0.937
 9343SOL    HW128928   5.640   3.655   0.901
 9343SOL    HW228929   5.628   3.814   0.866
 9344SOL     OW28930   5.165   6.446   5.161
 9344SOL    HW128931   5.205   6.395   5.086
 9344SOL    HW228932   5.166   6.544   5.140
 9345SOL     OW28933   6.927   4.886   6.440
 9345SOL    HW128934   7.009   4.847   6.482
 9345SOL    HW228935   6.936   4.986   6.437
 9346SOL     OW28936   4.889   0.942   2.458
 9346SOL    HW128937   4.962   0.891   2.504
 9346SOL    HW228938   4.844   0.883   2.391
 9347SOL     OW28939   4.828   6.597   2.518
 9347SOL    HW128940   4.849   6.646   2.602
 9347SOL    HW228941   4.794   6.506   2.539
 9348SOL     OW28942   2.652   5.280   2.224
 9348SOL    HW128943   2.736   5.334   2.229
 9348SOL    HW228944   2.637   5.249   2.130
 9349SOL     OW28945   0.663   4.467   1.420
 9349SOL    HW128946   0.669   4.384   1.476
 9349SOL    HW228947   0.679   4.547   1.477
 9350SOL     OW28948   6.462   0.772   0.008
 9350SOL    HW128949   6.494   0.758   6.938
 9350SOL    HW228950   6.363   0.787   0.007
 9351SOL     OW28951   4.504   4.065   6.441
 9351SOL    HW128952   4.469   4.043   6.350
 9351SOL    HW228953   4.454   4.012   6.510
 9352SOL     OW28954   2.757   1.618   0.205
 9352SOL    HW128955   2.686   1.576   0.148
 9352SOL    HW228956   2.751   1.718   0.197
 9353SOL     OW28957   1.045   3.098   2.063
 9353SOL    HW128958   0.997   3.128   1.981
 9353SOL    HW228959   1.033   2.999   2.075
 9354SOL     OW28960   5.770   2.089   2.452
 9354SOL    HW128961   5.754   2.130   2.363
 9354SOL    HW228962   5.867   2.099   2.476
 9355SOL     OW28963   0.453   1.982   2.117
 9355SOL    HW128964   0.512   2.037   2.058
 9355SOL    HW228965   0.407   1.912   2.062
 9356SOL     OW28966   4.578   2.428   1.875
 9356SOL    HW128967   4.655   2.387   1.826
 9356SOL    HW228968   4.612   2.496   1.941
 9357SOL     OW28969   2.173   4.236   0.004
 9357SOL    HW128970   2.152   4.159   6.967
 9357SOL    HW228971   2.230   4.203   0.080
 9358SOL     OW28972   5.390   4.623   3.480
 9358SOL    HW128973   5.297   4.617   3.445
 9358SOL    HW228974   5.453   4.647   3.406
 9359SOL     OW28975   4.206   5.254   5.261
 9359SOL    HW128976   4.176   5.271   5.167
 9359SOL    HW228977   4.305   5.240   5.263
 9360SOL     OW28978   0.705   0.400   5.474
 9360SOL    HW128979   0.685   0.483   5.422
 9360SOL    HW228980   0.771   0.344   5.424
 9361SOL     OW28981   1.129   1.633   2.450
 9361SOL    HW128982   1.189   1.623   2.529
 9361SOL    HW228983   1.143   1.723   2.409
 9362SOL     OW28984   1.280   1.485   2.937
 9362SOL    HW128985   1.234   1.568   2.969
 9362SOL    HW228986   1.366   1.473   2.987
 9363SOL     OW28987   1.119   6.356   2.359
 9363SOL    HW128988   1.208   6.372   2.317
 9363SOL    HW228989   1.130   6.296   2.439
 9364SOL     OW28990   5.706   4.076   0.565
 9364SOL    HW128991   5.623   4.062   0.511
 9364SOL    HW228992   5.756   4.155   0.529
 9365SOL     OW28993   2.804   1.185   4.365
 9365SOL    HW128994   2.802   1.088   4.390
 9365SOL    HW228995   2.714   1.211   4.329
 9366SOL     OW28996   2.644   1.583   0.970
 9366SOL    HW128997   2.601   1.654   0.914
 9366SOL    HW228998   2.734   1.561   0.933
 9367SOL     OW28999   5.270   6.595   4.736
 9367SOL    HW129000   5.182   6.639   4.758
 9367SOL    HW229001   5.334   6.665   4.704
 9368SOL     OW29002   5.441   3.069   1.201
 9368SOL    HW129003   5.433   3.087   1.299
 9368SOL    HW229004   5.351   3.045   1.164
 9369SOL     OW29005   0.526   2.469   5.526
 9369SOL    HW129006   0.557   2.510   5.611
 9369SOL    HW229007   0.562   2.376   5.519
 9370SOL     OW29008   5.564   5.452   2.059
 9370SOL    HW129009   5.493   5.406   2.006
 9370SOL    HW229010   5.529   5.540   2.092
 9371SOL     OW29011   2.144   0.043   0.696
 9371SOL    HW129012   2.107   0.118   0.749
 9371SOL    HW229013   2.241   0.059   0.678
 9372SOL     OW29014   5.343   5.390   0.722
 9372SOL    HW129015   5.346   5.407   0.821
 9372SOL    HW229016   5.260   5.430   0.684
 9373SOL     OW29017   4.841   2.966   4.723
 9373SOL    HW129018   4.914   2.989   4.659
 9373SOL    HW229019   4.806   2.874   4.702
 9374SOL     OW29020   5.247   3.913   7.006
 9374SOL    HW129021   5.329   3.961   0.011
 9374SOL    HW229022   5.252   3.894   6.908
 9375SOL     OW29023   6.398   6.723   4.001
 9375SOL    HW129024   6.476   6.712   4.062
 9375SOL    HW229025   6.361   6.816   4.010
 9376SOL     OW29026   2.802   3.481   1.747
 9376SOL    HW129027   2.787   3.445   1.839
 9376SOL    HW229028   2.725   3.539   1.720
 9377SOL     OW29029   6.885   4.490   3.757
 9377SOL    HW129030   6.928   4.465   3.670
 9377SOL    HW229031   6.819   4.564   3.741
 9378SOL     OW29032   4.162   6.055   1.556
 9378SOL    HW129033   4.197   6.111   1.481
 9378SOL    HW229034   4.067   6.030   1.537
 9379SOL     OW29035   4.439   4.717   5.226
 9379SOL    HW129036   4.390   4.696   5.141
 9379SOL    HW229037   4.416   4.648   5.295
 9380SOL     OW29038   0.087   5.585   5.354
 9380SOL    HW129039   0.179   5.567   5.389
 9380SOL    HW229040   0.038   5.498   5.342
 9381SOL     OW29041   0.683   0.644   6.799
 9381SOL    HW129042   0.746   0.715   6.768
 9381SOL    HW229043   0.672   0.650   6.898
 9382SOL     OW29044   6.067   2.139   2.194
 9382SOL    HW129045   6.112   2.074   2.255
 9382SOL    HW229046   5.972   2.111   2.179
 9383SOL     OW29047   6.759   5.495   6.891
 9383SOL    HW129048   6.796   5.483   6.983
 9383SOL    HW229049   6.824   5.547   6.836
 9384SOL     OW29050   3.324   0.213   2.631
 9384SOL    HW129051   3.255   0.280   2.604
 9384SOL    HW229052   3.402   0.259   2.673
 9385SOL     OW29053   3.890   6.375   3.596
 9385SOL    HW129054   3.980   6.419   3.602
 9385SOL    HW229055   3.841   6.409   3.516
 9386SOL     OW29056   3.405   6.707   4.976
 9386SOL    HW129057   3.436   6.615   5.004
 9386SOL    HW229058   3.483   6.757   4.938
 9387SOL     OW29059   4.580   5.915   0.809
 9387SOL    HW129060   4.605   5.834   0.756
 9387SOL    HW229061   4.482   5.933   0.798
 9388SOL     OW29062   6.697   0.052   1.446
 9388SOL    HW129063   6.726   6.985   1.417
 9388SOL    HW229064   6.774   0.115   1.443
 9389SOL     OW29065   3.384   1.159   0.943
 9389SOL    HW129066   3.320   1.086   0.918
 9389SOL    HW229067   3.333   1.242   0.965
 9390SOL     OW29068   3.714   6.160   0.974
 9390SOL    HW129069   3.786   6.172   0.905
 9390SOL    HW229070   3.630   6.130   0.929
 9391SOL     OW29071   5.814   0.292   4.079
 9391SOL    HW129072   5.849   0.204   4.048
 9391SOL    HW229073   5.716   0.298   4.059
 9392SOL     OW29074   0.818   6.894   5.094
 9392SOL    HW129075   0.860   6.957   5.159
 9392SOL    HW229076   0.867   6.898   5.007
 9393SOL     OW29077   4.860   1.746   5.421
 9393SOL    HW129078   4.865   1.672   5.488
 9393SOL    HW229079   4.859   1.834   5.468
 9394SOL     OW29080   6.165   1.594   2.262
 9394SOL    HW129081   6.158   1.495   2.255
 9394SOL    HW229082   6.089   1.637   2.214
 9395SOL     OW29083   1.552   2.857   0.042
 9395SOL    HW129084   1.590   2.939   0.084
 9395SOL    HW229085   1.622   2.785   0.040
 9396SOL     OW29086   0.527   1.270   5.376
 9396SOL    HW129087   0.514   1.176   5.343
 9396SOL    HW229088   0.573   1.324   5.306
 9397SOL     OW29089   1.675   2.120   0.981
 9397SOL    HW129090   1.758   2.103   1.034
 9397SOL    HW229091   1.595   2.094   1.036
 9398SOL     OW29092   2.414   1.990   1.135
 9398SOL    HW129093   2.437   2.086   1.118
 9398SOL    HW229094   2.365   1.954   1.056
 9399SOL     OW29095   6.986   0.644   5.316
 9399SOL    HW129096   0.013   0.719   5.359
 9399SOL    HW229097   6.968   0.573   5.383
 9400SOL     OW29098   4.052   1.345   3.882
 9400SOL    HW129099   4.113   1.273   3.915
 9400SOL    HW229100   4.022   1.401   3.959
 9401SOL     OW29101   4.254   6.682   3.826
 9401SOL    HW129102   4.330   6.676   3.762
 9401SOL    HW229103   4.285   6.722   3.911
 9402SOL     OW29104   2.401   4.559   6.426
 9402SOL    HW129105   2.436   4.561   6.332
 9402SOL    HW229106   2.320   4.617   6.433
 9403SOL     OW29107   6.304   0.447   3.769
 9403SOL    HW129108   6.378   0.510   3.747
 9403SOL    HW229109   6.323   0.404   3.858
 9404SOL     OW29110   1.911   4.727   4.859
 9404SOL    HW129111   1.963   4.655   4.903
 9404SOL    HW229112   1.878   4.792   4.927
 9405SOL     OW29113   0.268   0.755   1.025
 9405SOL    HW129114   0.313   0.819   0.963
 9405SOL    HW229115   0.286   0.782   1.120
 9406SOL     OW29116   6.340   1.817   4.953
 9406SOL    HW129117   6.316   1.788   5.045
 9406SOL    HW229118   6.428   1.778   4.927
 9407SOL     OW29119   3.448   5.441   3.467
 9407SOL    HW129120   3.373   5.508   3.468
 9407SOL    HW229121   3.527   5.481   3.421
 9408SOL     OW29122   3.510   1.792   0.041
 9408SOL    HW129123   3.445   1.804   6.989
 9408SOL    HW229124   3.595   1.753   0.006
 9409SOL     OW29125   6.387   4.061   3.611
 9409SOL    HW129126   6.307   4.040   3.668
 9409SOL    HW229127   6.462   4.094   3.668
 9410SOL     OW29128   4.367   6.891   1.933
 9410SOL    HW129129   4.316   6.976   1.947
 9410SOL    HW229130   4.439   6.906   1.865
 9411SOL     OW29131   5.278   4.510   2.304
 9411SOL    HW129132   5.346   4.532   2.374
 9411SOL    HW229133   5.310   4.432   2.251
 9412SOL     OW29134   6.793   1.870   3.441
 9412SOL    HW129135   6.848   1.935   3.494
 9412SOL    HW229136   6.838   1.854   3.353
 9413SOL     OW29137   4.233   5.640   3.623
 9413SOL    HW129138   4.284   5.582   3.560
 9413SOL    HW229139   4.159   5.587   3.664
 9414SOL     OW29140   2.457   0.353   1.889
 9414SOL    HW129141   2.463   0.255   1.872
 9414SOL    HW229142   2.480   0.372   1.984
 9415SOL     OW29143   1.059   6.991   2.034
 9415SOL    HW129144   1.111   6.940   2.102
 9415SOL    HW229145   1.052   6.938   1.950
 9416SOL     OW29146   1.313   1.959   1.427
 9416SOL    HW129147   1.388   1.958   1.360
 9416SOL    HW229148   1.229   1.928   1.382
 9417SOL     OW29149   1.067   0.499   4.457
 9417SOL    HW129150   1.097   0.462   4.545
 9417SOL    HW229151   0.967   0.500   4.454
 9418SOL     OW29152   4.073   4.435   0.665
 9418SOL    HW129153   4.127   4.517   0.685
 9418SOL    HW229154   4.107   4.358   0.720
 9419SOL     OW29155   2.358   5.911   4.004
 9419SOL    HW129156   2.294   5.945   4.073
 9419SOL    HW229157   2.441   5.879   4.049
 9420SOL     OW29158   1.206   0.340   3.146
 9420SOL    HW129159   1.111   0.312   3.163
 9420SOL    HW229160   1.208   0.437   3.123
 9421SOL     OW29161   1.739   4.567   5.116
 9421SOL    HW129162   1.781   4.477   5.107
 9421SOL    HW229163   1.645   4.564   5.081
 9422SOL     OW29164   3.856   1.213   3.030
 9422SOL    HW129165   3.935   1.152   3.020
 9422SOL    HW229166   3.778   1.174   2.982
 9423SOL     OW29167   4.441   0.391   5.293
 9423SOL    HW129168   4.364   0.431   5.243
 9423SOL    HW229169   4.408   0.322   5.356
 9424SOL     OW29170   2.850   5.591   3.124
 9424SOL    HW129171   2.920   5.600   3.194
 9424SOL    HW229172   2.767   5.639   3.153
 9425SOL     OW29173   0.112   5.894   2.240
 9425SOL    HW129174   0.156   5.805   2.254
 9425SOL    HW229175   0.065   5.921   2.324
 9426SOL     OW29176   3.472   6.071   0.797
 9426SOL    HW129177   3.398   6.136   0.811
 9426SOL    HW229178   3.434   5.980   0.777
 9427SOL     OW29179   2.666   5.312   4.016
 9427SOL    HW129180   2.742   5.375   4.030
 9427SOL    HW229181   2.684   5.227   4.066
 9428SOL     OW29182   4.661   6.214   2.323
 9428SOL    HW129183   4.577   6.220   2.376
 9428SOL    HW229184   4.639   6.205   2.226
 9429SOL     OW29185   0.280   3.717   2.888
 9429SOL    HW129186   0.210   3.784   2.861
 9429SOL    HW229187   0.315   3.672   2.806
 9430SOL     OW29188   6.309   6.805   1.869
 9430SOL    HW129189   6.371   6.865   1.820
 9430SOL    HW229190   6.358   6.761   1.944
 9431SOL     OW29191   6.698   4.460   0.624
 9431SOL    HW129192   6.743   4.482   0.538
 9431SOL    HW229193   6.707   4.537   0.687
 9432SOL     OW29194   6.288   6.773   3.653
 9432SOL    HW129195   6.229   6.777   3.572
 9432SOL    HW229196   6.245   6.823   3.728
 9433SOL     OW29197   2.555   5.359   4.410
 9433SOL    HW129198   2.500   5.279   4.388
 9433SOL    HW229199   2.502   5.442   4.394
 9434SOL     OW29200   6.080   4.689   3.975
 9434SOL    HW129201   6.022   4.614   4.008
 9434SOL    HW229202   6.029   4.743   3.908
 9435SOL     OW29203   2.766   2.362   6.009
 9435SOL    HW129204   2.709   2.316   5.941
 9435SOL    HW229205   2.717   2.440   6.048
 9436SOL     OW29206   3.625   2.216   5.334
 9436SOL    HW129207   3.599   2.270   5.414
 9436SOL    HW229208   3.552   2.219   5.266
 9437SOL     OW29209   0.516   5.940   4.421
 9437SOL    HW129210   0.562   6.018   4.463
 9437SOL    HW229211   0.518   5.950   4.322
 9438SOL     OW29212   0.376   6.348   1.460
 9438SOL    HW129213   0.361   6.255   1.494
 9438SOL    HW229214   0.416   6.404   1.533
 9439SOL     OW29215   1.606   2.893   1.733
 9439SOL    HW129216   1.687   2.952   1.731
 9439SOL    HW229217   1.618   2.818   1.668
 9440SOL     OW29218   3.235   6.207   3.518
 9440SOL    HW129219   3.216   6.235   3.424
 9440SOL    HW229220   3.193   6.272   3.581
 9441SOL     OW29221   1.005   5.406   5.753
 9441SOL    HW129222   0.955   5.471   5.695
 9441SOL    HW229223   0.947   5.380   5.831
 9442SOL     OW29224   0.804   2.485   1.290
 9442SOL    HW129225   0.733   2.555   1.277
 9442SOL    HW229226   0.855   2.505   1.374
 9443SOL     OW29227   1.297   2.193   0.720
 9443SOL    HW129228   1.252   2.105   0.721
 9443SOL    HW229229   1.236   2.263   0.757
 9444SOL     OW29230   1.305   4.150   5.020
 9444SOL    HW129231   1.213   4.156   5.060
 9444SOL    HW229232   1.372   4.180   5.088
 9445SOL     OW29233   5.619   1.925   1.962
 9445SOL    HW129234   5.568   1.933   1.877
 9445SOL    HW229235   5.574   1.858   2.022
 9446SOL     OW29236   5.563   4.897   0.576
 9446SOL    HW129237   5.482   4.848   0.609
 9446SOL    HW229238   5.608   4.842   0.506
 9447SOL     OW29239   5.758   1.081   1.771
 9447SOL    HW129240   5.709   1.168   1.766
 9447SOL    HW229241   5.693   1.006   1.777
 9448SOL     OW29242   6.158   6.686   0.417
 9448SOL    HW129243   6.173   6.600   0.367
 9448SOL    HW229244   6.186   6.675   0.512
 9449SOL     OW29245   5.684   5.374   4.735
 9449SOL    HW129246   5.772   5.366   4.688
 9449SOL    HW229247   5.660   5.470   4.744
 9450SOL     OW29248   1.925   6.063   3.921
 9450SOL    HW129249   1.911   6.162   3.912
 9450SOL    HW229250   1.841   6.019   3.952
 9451SOL     OW29251   4.174   3.526   5.101
 9451SOL    HW129252   4.169   3.515   5.002
 9451SOL    HW229253   4.266   3.502   5.133
 9452SOL     OW29254   3.938   4.692   0.562
 9452SOL    HW129255   4.016   4.677   0.623
 9452SOL    HW229256   3.906   4.603   0.527
 9453SOL     OW29257   3.669   6.195   1.340
 9453SOL    HW129258   3.685   6.293   1.325
 9453SOL    HW229259   3.665   6.148   1.252
 9454SOL     OW29260   2.270   1.725   5.656
 9454SOL    HW129261   2.210   1.768   5.589
 9454SOL    HW229262   2.281   1.629   5.633
 9455SOL     OW29263   1.747   2.338   1.704
 9455SOL    HW129264   1.774   2.243   1.715
 9455SOL    HW229265   1.826   2.391   1.670
 9456SOL     OW29266   1.133   3.085   0.269
 9456SOL    HW129267   1.114   3.160   0.333
 9456SOL    HW229268   1.230   3.063   0.272
 9457SOL     OW29269   5.972   4.015   0.380
 9457SOL    HW129270   5.907   3.964   0.437
 9457SOL    HW229271   6.065   3.980   0.396
 9458SOL     OW29272   0.931   5.700   3.951
 9458SOL    HW129273   0.908   5.744   4.037
 9458SOL    HW229274   0.918   5.765   3.876
 9459SOL     OW29275   3.856   6.326   0.491
 9459SOL    HW129276   3.773   6.324   0.548
 9459SOL    HW229277   3.931   6.282   0.540
 9460SOL     OW29278   1.494   3.688   5.433
 9460SOL    HW129279   1.527   3.626   5.362
 9460SOL    HW229280   1.522   3.656   5.523
 9461SOL     OW29281   1.354   0.393   2.688
 9461SOL    HW129282   1.319   0.482   2.719
 9461SOL    HW229283   1.419   0.358   2.755
 9462SOL     OW29284   0.375   3.446   3.745
 9462SOL    HW129285   0.344   3.392   3.823
 9462SOL    HW229286   0.459   3.494   3.768
 9463SOL     OW29287   5.026   1.876   6.146
 9463SOL    HW129288   4.938   1.914   6.116
 9463SOL    HW229289   5.026   1.777   6.132
 9464SOL     OW29290   4.155   6.742   6.715
 9464SOL    HW129291   4.082   6.694   6.764
 9464SOL    HW229292   4.226   6.769   6.780
 9465SOL     OW29293   4.370   6.323   4.189
 9465SOL    HW129294   4.461   6.281   4.187
 9465SOL    HW229295   4.303   6.254   4.217
 9466SOL     OW29296   3.501   1.909   6.777
 9466SOL    HW129297   3.445   1.952   6.706
 9466SOL    HW229298   3.576   1.971   6.802
 9467SOL     OW29299   1.332   2.939   2.151
 9467SOL    HW129300   1.345   3.036   2.128
 9467SOL    HW229301   1.415   2.888   2.129
 9468SOL     OW29302   0.555   2.524   6.199
 9468SOL    HW129303   0.540   2.432   6.163
 9468SOL    HW229304   0.473   2.579   6.185
 9469SOL     OW29305   0.517   4.356   2.565
 9469SOL    HW129306   0.493   4.442   2.521
 9469SOL    HW229307   0.505   4.280   2.501
 9470SOL     OW29308   6.363   3.841   2.108
 9470SOL    HW129309   6.412   3.928   2.111
 9470SOL    HW229310   6.429   3.767   2.095
 9471SOL     OW29311   6.915   2.521   5.772
 9471SOL    HW129312   6.943   2.427   5.754
 9471SOL    HW229313   6.967   2.583   5.713
 9472SOL     OW29314   6.707   2.242   5.058
 9472SOL    HW129315   6.783   2.182   5.084
 9472SOL    HW229316   6.740   2.315   4.999
 9473SOL     OW29317   2.939   4.786   6.138
 9473SOL    HW129318   2.884   4.704   6.157
 9473SOL    HW229319   2.989   4.773   6.052
 9474SOL     OW29320   3.969   5.725   4.200
 9474SOL    HW129321   3.916   5.810   4.202
 9474SOL    HW229322   4.029   5.725   4.120
 9475SOL     OW29323   2.480   3.435   1.485
 9475SOL    HW129324   2.529   3.491   1.552
 9475SOL    HW229325   2.395   3.401   1.525
 9476SOL     OW29326   2.525   3.476   5.651
 9476SOL    HW129327   2.430   3.446   5.653
 9476SOL    HW229328   2.557   3.481   5.556
 9477SOL     OW29329   1.128   2.671   0.487
 9477SOL    HW129330   1.087   2.754   0.450
 9477SOL    HW229331   1.174   2.621   0.414
 9478SOL     OW29332   5.685   3.677   6.766
 9478SOL    HW129333   5.644   3.602   6.819
 9478SOL    HW229334   5.775   3.649   6.732
 9479SOL     OW29335   5.497   4.904   5.079
 9479SOL    HW129336   5.450   4.816   5.078
 9479SOL    HW229337   5.538   4.921   4.989
 9480SOL     OW29338   0.037   3.374   6.103
 9480SOL    HW129339   6.997   3.451   6.108
 9480SOL    HW229340   0.083   3.363   6.192
 9481SOL     OW29341   0.754   2.289   3.330
 9481SOL    HW129342   0.850   2.283   3.302
 9481SOL    HW229343   0.695   2.282   3.249
 9482SOL     OW29344   4.652   1.642   2.022
 9482SOL    HW129345   4.625   1.732   1.989
 9482SOL    HW229346   4.638   1.636   2.120
 9483SOL     OW29347   2.046   0.908   0.572
 9483SOL    HW129348   2.019   0.817   0.605
 9483SOL    HW229349   1.984   0.937   0.499
 9484SOL     OW29350   6.068   0.149   3.315
 9484SOL    HW129351   6.064   0.093   3.397
 9484SOL    HW229352   6.023   0.237   3.332
 9485SOL     OW29353   0.165   6.929   3.019
 9485SOL    HW129354   0.116   6.842   3.023
 9485SOL    HW229355   0.195   6.955   3.111
 9486SOL     OW29356   3.004   0.307   2.091
 9486SOL    HW129357   3.078   0.240   2.100
 9486SOL    HW229358   2.979   0.317   1.995
 9487SOL     OW29359   3.630   2.851   3.154
 9487SOL    HW129360   3.711   2.906   3.135
 9487SOL    HW229361   3.655   2.755   3.158
 9488SOL     OW29362   1.916   0.591   1.449
 9488SOL    HW129363   1.977   0.557   1.521
 9488SOL    HW229364   1.852   0.657   1.488
 9489SOL     OW29365   2.880   4.884   0.951
 9489SOL    HW129366   2.886   4.975   0.991
 9489SOL    HW229367   2.937   4.880   0.868
 9490SOL     OW29368   4.977   1.563   0.572
 9490SOL    HW129369   4.881   1.536   0.578
 9490SOL    HW229370   4.992   1.618   0.489
 9491SOL     OW29371   5.850   6.148   6.190
 9491SOL    HW129372   5.947   6.140   6.171
 9491SOL    HW229373   5.800   6.079   6.137
 9492SOL     OW29374   2.468   5.837   0.905
 9492SOL    HW129375   2.495   5.762   0.965
 9492SOL    HW229376   2.374   5.864   0.925
 9493SOL     OW29377   5.138   5.934   2.455
 9493SOL    HW129378   5.072   5.957   2.527
 9493SOL    HW229379   5.223   5.985   2.470
 9494SOL     OW29380   3.424   3.266   6.676
 9494SOL    HW129381   3.468   3.223   6.598
 9494SOL    HW229382   3.479   3.345   6.706
 9495SOL     OW29383   5.512   2.617   4.417
 9495SOL    HW129384   5.544   2.709   4.394
 9495SOL    HW229385   5.503   2.607   4.516
 9496SOL     OW29386   6.616   4.335   6.682
 9496SOL    HW129387   6.516   4.342   6.676
 9496SOL    HW229388   6.652   4.412   6.734
 9497SOL     OW29389   1.027   6.043   6.015
 9497SOL    HW129390   1.021   6.129   5.964
 9497SOL    HW229391   0.980   5.971   5.964
 9498SOL     OW29392   4.445   6.400   6.621
 9498SOL    HW129393   4.399   6.424   6.536
 9498SOL    HW229394   4.424   6.469   6.691
 9499SOL     OW29395   4.829   4.141   5.556
 9499SOL    HW129396   4.744   4.194   5.555
 9499SOL    HW229397   4.858   4.123   5.462
 9500SOL     OW29398   4.189   5.854   0.571
 9500SOL    HW129399   4.135   5.879   0.491
 9500SOL    HW229400   4.245   5.774   0.550
 9501SOL     OW29401   3.252   1.859   5.006
 9501SOL    HW129402   3.179   1.927   5.011
 9501SOL    HW229403   3.279   1.845   4.911
 9502SOL     OW29404   3.544   3.286   6.140
 9502SOL    HW129405   3.531   3.380   6.109
 9502SOL    HW229406   3.497   3.223   6.078
 9503SOL     OW29407   1.027   6.702   1.173
 9503SOL    HW129408   1.104   6.765   1.157
 9503SOL    HW229409   0.962   6.745   1.235
 9504SOL     OW29410   0.025   3.018   0.662
 9504SOL    HW129411   0.095   2.951   0.637
 9504SOL    HW229412   0.065   3.110   0.661
 9505SOL     OW29413   4.908   3.106   3.204
 9505SOL    HW129414   4.934   3.192   3.247
 9505SOL    HW229415   4.898   3.119   3.105
 9506SOL     OW29416   6.422   2.262   1.501
 9506SOL    HW129417   6.380   2.264   1.592
 9506SOL    HW229418   6.368   2.317   1.438
 9507SOL     OW29419   1.434   3.294   5.567
 9507SOL    HW129420   1.439   3.224   5.638
 9507SOL    HW229421   1.505   3.277   5.498
 9508SOL     OW29422   4.172   0.921   5.285
 9508SOL    HW129423   4.145   0.975   5.206
 9508SOL    HW229424   4.256   0.871   5.264
 9509SOL     OW29425   3.581   0.043   6.009
 9509SOL    HW129426   3.561   0.138   6.033
 9509SOL    HW229427   3.531   0.017   5.927
 9510SOL     OW29428   6.786   4.482   2.907
 9510SOL    HW129429   6.767   4.422   2.829
 9510SOL    HW229430   6.749   4.441   2.990
 9511SOL     OW29431   2.006   1.955   1.376
 9511SOL    HW129432   1.955   2.040   1.367
 9511SOL    HW229433   1.942   1.878   1.379
 9512SOL     OW29434   1.804   3.774   5.452
 9512SOL    HW129435   1.779   3.864   5.489
 9512SOL    HW229436   1.840   3.716   5.525
 9513SOL     OW29437   2.950   4.823   4.151
 9513SOL    HW129438   2.935   4.724   4.147
 9513SOL    HW229439   2.956   4.859   4.058
 9514SOL     OW29440   2.807   2.911   5.510
 9514SOL    HW129441   2.852   2.836   5.460
 9514SOL    HW229442   2.851   2.922   5.599
 9515SOL     OW29443   2.047   5.558   5.867
 9515SOL    HW129444   2.045   5.652   5.832
 9515SOL    HW229445   2.054   5.494   5.790
 9516SOL     OW29446   6.266   4.212   4.746
 9516SOL    HW129447   6.350   4.266   4.753
 9516SOL    HW229448   6.213   4.222   4.831
 9517SOL     OW29449   0.578   5.405   2.694
 9517SOL    HW129450   0.525   5.403   2.609
 9517SOL    HW229451   0.520   5.374   2.769
 9518SOL     OW29452   0.890   3.004   5.342
 9518SOL    HW129453   0.887   3.101   5.366
 9518SOL    HW229454   0.804   2.960   5.368
 9519SOL     OW29455   3.372   3.660   3.264
 9519SOL    HW129456   3.363   3.679   3.362
 9519SOL    HW229457   3.421   3.574   3.251
 9520SOL     OW29458   4.886   1.335   6.248
 9520SOL    HW129459   4.842   1.350   6.160
 9520SOL    HW229460   4.985   1.333   6.236
 9521SOL     OW29461   3.908   1.341   1.404
 9521SOL    HW129462   3.995   1.292   1.402
 9521SOL    HW229463   3.925   1.439   1.413
 9522SOL     OW29464   3.963   6.938   1.362
 9522SOL    HW129465   3.966   6.896   1.271
 9522SOL    HW229466   3.911   6.880   1.424
 9523SOL     OW29467   2.587   4.590   4.611
 9523SOL    HW129468   2.502   4.575   4.662
 9523SOL    HW229469   2.658   4.625   4.672
 9524SOL     OW29470   1.875   3.670   0.320
 9524SOL    HW129471   1.954   3.724   0.289
 9524SOL    HW229472   1.874   3.582   0.274
 9525SOL     OW29473   2.582   2.721   6.607
 9525SOL    HW129474   2.611   2.750   6.698
 9525SOL    HW229475   2.542   2.800   6.559
 9526SOL     OW29476   5.467   4.648   6.215
 9526SOL    HW129477   5.476   4.613   6.308
 9526SOL    HW229478   5.442   4.573   6.153
 9527SOL     OW29479   3.900   5.999   4.571
 9527SOL    HW129480   3.835   5.933   4.534
 9527SOL    HW229481   3.850   6.069   4.622
 9528SOL     OW29482   5.031   2.190   0.899
 9528SOL    HW129483   5.064   2.125   0.967
 9528SOL    HW229484   4.934   2.175   0.883
 9529SOL     OW29485   6.051   0.116   2.146
 9529SOL    HW129486   6.075   0.074   2.059
 9529SOL    HW229487   5.994   0.196   2.130
 9530SOL     OW29488   0.854   5.820   3.662
 9530SOL    HW129489   0.923   5.854   3.598
 9530SOL    HW229490   0.777   5.883   3.663
 9531SOL     OW29491   3.805   6.204   1.801
 9531SOL    HW129492   3.717   6.194   1.755
 9531SOL    HW229493   3.876   6.221   1.733
 9532SOL     OW29494   0.030   5.296   4.609
 9532SOL    HW129495   0.024   5.239   4.527
 9532SOL    HW229496   6.979   5.362   4.608
 9533SOL     OW29497   1.138   4.012   3.841
 9533SOL    HW129498   1.074   4.067   3.895
 9533SOL    HW229499   1.174   3.938   3.897
 9534SOL     OW29500   5.015   5.939   4.211
 9534SOL    HW129501   5.021   5.863   4.146
 9534SOL    HW229502   5.013   6.026   4.160
 9535SOL     OW29503   0.342   1.782   3.976
 9535SOL    HW129504   0.355   1.761   3.879
 9535SOL    HW229505   0.371   1.703   4.030
 9536SOL     OW29506   3.571   3.758   5.370
 9536SOL    HW129507   3.496   3.821   5.391
 9536SOL    HW229508   3.542   3.664   5.390
 9537SOL     OW29509   0.309   0.484   3.922
 9537SOL    HW129510   0.215   0.482   3.955
 9537SOL    HW229511   0.325   0.568   3.870
 9538SOL     OW29512   5.367   0.857   5.037
 9538SOL    HW129513   5.424   0.939   5.037
 9538SOL    HW229514   5.385   0.803   5.119
 9539SOL     OW29515   4.030   3.882   2.240
 9539SOL    HW129516   4.108   3.909   2.296
 9539SOL    HW229517   3.992   3.796   2.275
 9540SOL     OW29518   4.288   4.710   3.060
 9540SOL    HW129519   4.243   4.799   3.056
 9540SOL    HW229520   4.292   4.679   3.155
 9541SOL     OW29521   1.461   5.492   5.783
 9541SOL    HW129522   1.434   5.583   5.750
 9541SOL    HW229523   1.507   5.442   5.710
 9542SOL     OW29524   6.028   3.844   3.006
 9542SOL    HW129525   6.076   3.918   2.959
 9542SOL    HW229526   6.093   3.770   3.025
 9543SOL     OW29527   2.328   0.572   5.546
 9543SOL    HW129528   2.336   0.640   5.619
 9543SOL    HW229529   2.396   0.501   5.559
 9544SOL     OW29530   6.146   2.907   4.688
 9544SOL    HW129531   6.123   2.945   4.778
 9544SOL    HW229532   6.167   2.809   4.698
 9545SOL     OW29533   6.414   4.359   1.803
 9545SOL    HW129534   6.428   4.311   1.716
 9545SOL    HW229535   6.316   4.363   1.824
 9546SOL     OW29536   3.421   2.709   0.740
 9546SOL    HW129537   3.424   2.643   0.815
 9546SOL    HW229538   3.448   2.665   0.655
 9547SOL     OW29539   4.385   0.550   3.436
 9547SOL    HW129540   4.444   0.476   3.404
 9547SOL    HW229541   4.379   0.620   3.365
 9548SOL     OW29542   0.819   4.748   5.743
 9548SOL    HW129543   0.891   4.759   5.675
 9548SOL    HW229544   0.734   4.720   5.697
 9549SOL     OW29545   4.621   1.067   1.581
 9549SOL    HW129546   4.551   1.106   1.522
 9549SOL    HW229547   4.711   1.102   1.553
 9550SOL     OW29548   6.777   2.226   1.773
 9550SOL    HW129549   6.743   2.161   1.841
 9550SOL    HW229550   6.757   2.320   1.803
 9551SOL     OW29551   6.286   2.997   6.483
 9551SOL    HW129552   6.320   3.068   6.422
 9551SOL    HW229553   6.199   3.027   6.523
 9552SOL     OW29554   3.216   1.593   0.001
 9552SOL    HW129555   3.204   1.509   6.973
 9552SOL    HW229556   3.215   1.671   6.963
 9553SOL     OW29557   5.508   1.164   6.903
 9553SOL    HW129558   5.554   1.089   6.952
 9553SOL    HW229559   5.570   1.201   6.834
 9554SOL     OW29560   2.718   0.947   4.469
 9554SOL    HW129561   2.648   0.996   4.522
 9554SOL    HW229562   2.757   0.875   4.526
 9555SOL     OW29563   0.458   6.244   2.591
 9555SOL    HW129564   0.479   6.320   2.528
 9555SOL    HW229565   0.411   6.280   2.672
 9556SOL     OW29566   2.203   4.391   6.560
 9556SOL    HW129567   2.111   4.405   6.597
 9556SOL    HW229568   2.213   4.443   6.475
 9557SOL     OW29569   5.739   1.141   0.707
 9557SOL    HW129570   5.681   1.223   0.707
 9557SOL    HW229571   5.819   1.157   0.764
 9558SOL     OW29572   5.445   6.012   5.615
 9558SOL    HW129573   5.513   6.078   5.583
 9558SOL    HW229574   5.354   6.052   5.607
 9559SOL     OW29575   2.452   4.364   0.096
 9559SOL    HW129576   2.428   4.439   0.159
 9559SOL    HW229577   2.417   4.278   0.133
 9560SOL     OW29578   2.426   0.680   1.729
 9560SOL    HW129579   2.486   0.629   1.790
 9560SOL    HW229580   2.451   0.777   1.731
 9561SOL     OW29581   0.142   1.075   0.312
 9561SOL    HW129582   0.211   1.123   0.366
 9561SOL    HW229583   0.176   1.062   0.219
 9562SOL     OW29584   1.909   5.679   2.908
 9562SOL    HW129585   1.951   5.649   2.994
 9562SOL    HW229586   1.926   5.776   2.894
 9563SOL     OW29587   0.584   5.444   6.682
 9563SOL    HW129588   0.626   5.443   6.773
 9563SOL    HW229589   0.626   5.517   6.627
 9564SOL     OW29590   1.024   1.677   0.429
 9564SOL    HW129591   1.120   1.706   0.429
 9564SOL    HW229592   0.977   1.719   0.352
 9565SOL     OW29593   2.098   2.154   4.429
 9565SOL    HW129594   2.004   2.140   4.398
 9565SOL    HW229595   2.138   2.065   4.452
 9566SOL     OW29596   2.925   0.519   7.019
 9566SOL    HW129597   3.018   0.495   6.991
 9566SOL    HW229598   2.875   0.436   0.020
 9567SOL     OW29599   6.972   4.635   0.875
 9567SOL    HW129600   0.031   4.687   0.898
 9567SOL    HW229601   6.997   4.554   0.822
 9568SOL     OW29602   4.586   2.235   5.611
 9568SOL    HW129603   4.659   2.292   5.650
 9568SOL    HW229604   4.592   2.143   5.648
 9569SOL     OW29605   5.833   0.454   1.719
 9569SOL    HW129606   5.895   0.471   1.795
 9569SOL    HW229607   5.819   0.355   1.709
 9570SOL     OW29608   0.836   3.630   2.279
 9570SOL    HW129609   0.810   3.550   2.225
 9570SOL    HW229610   0.934   3.647   2.269
 9571SOL     OW29611   1.575   1.101   6.347
 9571SOL    HW129612   1.578   1.006   6.378
 9571SOL    HW229613   1.587   1.162   6.425
 9572SOL     OW29614   2.740   4.714   4.376
 9572SOL    HW129615   2.700   4.661   4.451
 9572SOL    HW229616   2.722   4.668   4.289
 9573SOL     OW29617   5.837   0.064   4.599
 9573SOL    HW129618   5.808   6.995   4.580
 9573SOL    HW229619   5.933   0.064   4.628
 9574SOL     OW29620   4.430   2.465   0.811
 9574SOL    HW129621   4.424   2.393   0.741
 9574SOL    HW229622   4.519   2.460   0.856
 9575SOL     OW29623   5.344   0.462   1.690
 9575SOL    HW129624   5.317   0.536   1.751
 9575SOL    HW229625   5.377   0.499   1.604
 9576SOL     OW29626   1.106   1.319   5.369
 9576SOL    HW129627   1.043   1.249   5.336
 9576SOL    HW229628   1.060   1.407   5.373
 9577SOL     OW29629   0.403   5.361   2.923
 9577SOL    HW129630   0.437   5.273   2.956
 9577SOL    HW229631   0.424   5.432   2.991
 9578SOL     OW29632   2.136   3.608   3.037
 9578SOL    HW129633   2.077   3.682   3.004
 9578SOL    HW229634   2.198   3.580   2.964
 9579SOL     OW29635   5.521   4.936   2.655
 9579SOL    HW129636   5.585   4.957   2.729
 9579SOL    HW229637   5.458   4.864   2.685
 9580SOL     OW29638   4.927   3.705   3.757
 9580SOL    HW129639   4.880   3.746   3.836
 9580SOL    HW229640   4.941   3.607   3.773
 9581SOL     OW29641   4.986   1.980   6.489
 9581SOL    HW129642   5.061   1.969   6.424
 9581SOL    HW229643   4.965   2.077   6.500
 9582SOL     OW29644   4.128   6.592   4.804
 9582SOL    HW129645   4.179   6.593   4.890
 9582SOL    HW229646   4.103   6.498   4.780
 9583SOL     OW29647   2.713   5.421   1.376
 9583SOL    HW129648   2.635   5.480   1.353
 9583SOL    HW229649   2.731   5.428   1.474
 9584SOL     OW29650   2.394   5.106   4.361
 9584SOL    HW129651   2.294   5.108   4.374
 9584SOL    HW229652   2.426   5.011   4.364
 9585SOL     OW29653   4.452   6.731   1.118
 9585SOL    HW129654   4.395   6.789   1.175
 9585SOL    HW229655   4.423   6.737   1.023
 9586SOL     OW29656   3.137   5.139   3.161
 9586SOL    HW129657   3.150   5.043   3.184
 9586SOL    HW229658   3.225   5.187   3.167
 9587SOL     OW29659   3.666   6.546   6.924
 9587SOL    HW129660   3.588   6.488   6.903
 9587SOL    HW229661   3.642   6.611   6.996
 9588SOL     OW29662   6.581   5.819   0.770
 9588SOL    HW129663   6.513   5.796   0.699
 9588SOL    HW229664   6.656   5.753   0.766
 9589SOL     OW29665   1.232   1.616   5.828
 9589SOL    HW129666   1.280   1.570   5.754
 9589SOL    HW229667   1.138   1.636   5.800
 9590SOL     OW29668   5.816   0.738   1.173
 9590SOL    HW129669   5.845   0.675   1.101
 9590SOL    HW229670   5.788   0.825   1.132
 9591SOL     OW29671   5.125   0.582   6.894
 9591SOL    HW129672   5.120   0.627   6.805
 9591SOL    HW229673   5.117   0.651   6.966
 9592SOL     OW29674   1.683   5.761   5.667
 9592SOL    HW129675   1.584   5.760   5.655
 9592SOL    HW229676   1.705   5.731   5.760
 9593SOL     OW29677   2.293   2.318   3.898
 9593SOL    HW129678   2.288   2.384   3.823
 9593SOL    HW229679   2.388   2.312   3.931
 9594SOL     OW29680   0.206   6.393   3.222
 9594SOL    HW129681   0.236   6.370   3.315
 9594SOL    HW229682   0.121   6.344   3.202
 9595SOL     OW29683   0.527   3.427   3.302
 9595SOL    HW129684   0.480   3.486   3.236
 9595SOL    HW229685   0.590   3.483   3.356
 9596SOL     OW29686   1.748   6.720   1.041
 9596SOL    HW129687   1.674   6.653   1.034
 9596SOL    HW229688   1.763   6.762   0.952
 9597SOL     OW29689   1.108   3.700   2.216
 9597SOL    HW129690   1.153   3.767   2.276
 9597SOL    HW229691   1.161   3.616   2.214
 9598SOL     OW29692   2.430   4.456   3.820
 9598SOL    HW129693   2.431   4.431   3.917
 9598SOL    HW229694   2.506   4.518   3.800
 9599SOL     OW29695   4.637   0.233   5.084
 9599SOL    HW129696   4.658   0.331   5.084
 9599SOL    HW229697   4.538   0.220   5.094
 9600SOL     OW29698   4.182   1.097   0.557
 9600SOL    HW129699   4.239   1.037   0.500
 9600SOL    HW229700   4.107   1.134   0.503
 9601SOL     OW29701   0.423   3.929   0.445
 9601SOL    HW129702   0.476   4.013   0.462
 9601SOL    HW229703   0.481   3.850   0.462
 9602SOL     OW29704   4.036   4.329   5.959
 9602SOL    HW129705   4.074   4.244   5.995
 9602SOL    HW229706   3.936   4.322   5.957
 9603SOL     OW29707   5.346   6.729   5.913
 9603SOL    HW129708   5.284   6.692   5.983
 9603SOL    HW229709   5.370   6.823   5.937
 9604SOL     OW29710   4.721   6.692   1.367
 9604SOL    HW129711   4.677   6.744   1.440
 9604SOL    HW229712   4.652   6.639   1.318
 9605SOL     OW29713   4.898   4.847   1.562
 9605SOL    HW129714   4.917   4.823   1.467
 9605SOL    HW229715   4.902   4.947   1.573
 9606SOL     OW29716   1.633   1.788   6.561
 9606SOL    HW129717   1.677   1.877   6.571
 9606SOL    HW229718   1.533   1.800   6.558
 9607SOL     OW29719   1.416   2.360   6.728
 9607SOL    HW129720   1.505   2.373   6.683
 9607SOL    HW229721   1.344   2.400   6.671
 9608SOL     OW29722   6.597   2.114   4.254
 9608SOL    HW129723   6.544   2.144   4.333
 9608SOL    HW229724   6.663   2.045   4.282
 9609SOL     OW29725   4.705   3.121   0.956
 9609SOL    HW129726   4.716   3.147   0.860
 9609SOL    HW229727   4.624   3.063   0.965
 9610SOL     OW29728   1.109   4.820   2.997
 9610SOL    HW129729   1.057   4.850   3.077
 9610SOL    HW229730   1.174   4.891   2.971
 9611SOL     OW29731   2.562   0.538   0.670
 9611SOL    HW129732   2.605   0.591   0.596
 9611SOL    HW229733   2.616   0.547   0.753
 9612SOL     OW29734   0.223   1.584   3.742
 9612SOL    HW129735   0.196   1.588   3.839
 9612SOL    HW229736   0.140   1.581   3.686
 9613SOL     OW29737   6.076   4.828   4.685
 9613SOL    HW129738   6.021   4.783   4.755
 9613SOL    HW229739   6.029   4.824   4.597
 9614SOL     OW29740   3.960   1.785   3.143
 9614SOL    HW129741   4.059   1.785   3.155
 9614SOL    HW229742   3.917   1.733   3.217
 9615SOL     OW29743   1.859   4.067   1.296
 9615SOL    HW129744   1.919   3.988   1.288
 9615SOL    HW229745   1.767   4.037   1.319
 9616SOL     OW29746   4.413   3.934   6.192
 9616SOL    HW129747   4.342   3.904   6.128
 9616SOL    HW229748   4.503   3.915   6.152
 9617SOL     OW29749   1.042   3.050   2.770
 9617SOL    HW129750   0.993   3.111   2.709
 9617SOL    HW229751   0.976   2.993   2.820
 9618SOL     OW29752   2.398   2.305   0.740
 9618SOL    HW129753   2.348   2.249   0.806
 9618SOL    HW229754   2.442   2.381   0.788
 9619SOL     OW29755   2.386   0.229   6.715
 9619SOL    HW129756   2.440   0.296   6.767
 9619SOL    HW229757   2.443   0.149   6.695
 9620SOL     OW29758   5.505   1.115   5.026
 9620SOL    HW129759   5.582   1.108   5.089
 9620SOL    HW229760   5.424   1.147   5.076
 9621SOL     OW29761   1.815   3.612   3.058
 9621SOL    HW129762   1.772   3.544   3.117
 9621SOL    HW229763   1.909   3.584   3.038
 9622SOL     OW29764   4.365   6.938   0.170
 9622SOL    HW129765   4.339   0.010   0.184
 9622SOL    HW229766   4.358   6.888   0.257
 9623SOL     OW29767   0.967   3.282   6.688
 9623SOL    HW129768   0.975   3.185   6.709
 9623SOL    HW229769   1.002   3.300   6.596
 9624SOL     OW29770   6.523   3.165   3.606
 9624SOL    HW129771   6.618   3.168   3.636
 9624SOL    HW229772   6.470   3.107   3.668
 9625SOL     OW29773   5.795   6.138   1.682
 9625SOL    HW129774   5.792   6.193   1.599
 9625SOL    HW229775   5.834   6.048   1.661
 9626SOL     OW29776   3.793   0.456   0.397
 9626SOL    HW129777   3.817   0.552   0.411
 9626SOL    HW229778   3.840   0.400   0.464
 9627SOL     OW29779   0.724   0.547   0.363
 9627SOL    HW129780   0.630   0.579   0.355
 9627SOL    HW229781   0.726   0.448   0.352
 9628SOL     OW29782   3.586   6.742   2.051
 9628SOL    HW129783   3.505   6.774   2.003
 9628SOL    HW229784   3.630   6.669   1.998
 9629SOL     OW29785   2.188   0.316   0.896
 9629SOL    HW129786   2.090   0.330   0.895
 9629SOL    HW229787   2.233   0.397   0.932
 9630SOL     OW29788   0.069   2.464   6.200
 9630SOL    HW129789   0.050   2.366   6.189
 9630SOL    HW229790   0.028   2.515   6.124
 9631SOL     OW29791   6.817   5.633   0.774
 9631SOL    HW129792   6.786   5.572   0.701
 9631SOL    HW229793   6.839   5.579   0.855
 9632SOL     OW29794   1.703   5.637   2.711
 9632SOL    HW129795   1.782   5.630   2.773
 9632SOL    HW229796   1.713   5.717   2.653
 9633SOL     OW29797   0.403   4.875   6.870
 9633SOL    HW129798   0.348   4.798   6.837
 9633SOL    HW229799   0.484   4.840   6.916
 9634SOL     OW29800   0.041   6.022   6.034
 9634SOL    HW129801   6.975   6.066   6.028
 9634SOL    HW229802   0.030   5.923   6.045
 9635SOL     OW29803   6.839   6.001   5.733
 9635SOL    HW129804   6.820   5.958   5.645
 9635SOL    HW229805   6.842   6.100   5.722
 9636SOL     OW29806   3.896   1.357   0.651
 9636SOL    HW129807   3.828   1.285   0.660
 9636SOL    HW229808   3.984   1.325   0.687
 9637SOL     OW29809   2.447   1.082   0.034
 9637SOL    HW129810   2.383   1.025   7.007
 9637SOL    HW229811   2.541   1.051   0.017
 9638SOL     OW29812   6.458   2.462   6.795
 9638SOL    HW129813   6.442   2.487   6.699
 9638SOL    HW229814   6.371   2.444   6.840
 9639SOL     OW29815   3.575   0.590   2.574
 9639SOL    HW129816   3.645   0.556   2.510
 9639SOL    HW229817   3.496   0.623   2.522
 9640SOL     OW29818   1.638   1.894   3.147
 9640SOL    HW129819   1.666   1.798   3.151
 9640SOL    HW229820   1.602   1.915   3.056
 9641SOL     OW29821   5.002   5.642   6.361
 9641SOL    HW129822   4.963   5.638   6.453
 9641SOL    HW229823   4.959   5.572   6.303
 9642SOL     OW29824   3.287   6.603   3.166
 9642SOL    HW129825   3.316   6.603   3.070
 9642SOL    HW229826   3.194   6.638   3.173
 9643SOL     OW29827   3.986   4.860   2.381
 9643SOL    HW129828   4.032   4.819   2.459
 9643SOL    HW229829   4.009   4.809   2.298
 9644SOL     OW29830   2.755   1.031   0.776
 9644SOL    HW129831   2.695   1.000   0.702
 9644SOL    HW229832   2.847   0.993   0.763
 9645SOL     OW29833   3.017   5.196   5.597
 9645SOL    HW129834   2.995   5.099   5.608
 9645SOL    HW229835   3.071   5.228   5.675
 9646SOL     OW29836   3.546   5.151   3.814
 9646SOL    HW129837   3.623   5.108   3.767
 9646SOL    HW229838   3.491   5.081   3.859
 9647SOL     OW29839   6.673   3.163   6.035
 9647SOL    HW129840   6.610   3.116   5.973
 9647SOL    HW229841   6.714   3.241   5.987
 9648SOL     OW29842   4.152   4.060   0.668
 9648SOL    HW129843   4.188   3.990   0.730
 9648SOL    HW229844   4.111   4.134   0.722
 9649SOL     OW29845   2.126   4.776   1.421
 9649SOL    HW129846   2.089   4.683   1.412
 9649SOL    HW229847   2.054   4.842   1.401
 9650SOL     OW29848   1.624   0.585   1.302
 9650SOL    HW129849   1.683   0.632   1.368
 9650SOL    HW229850   1.627   0.634   1.215
 9651SOL     OW29851   0.863   2.174   6.940
 9651SOL    HW129852   0.892   2.092   6.991
 9651SOL    HW229853   0.921   2.185   6.860
 9652SOL     OW29854   1.729   4.773   1.108
 9652SOL    HW129855   1.647   4.817   1.073
 9652SOL    HW229856   1.712   4.736   1.199
 9653SOL     OW29857   6.241   6.113   4.623
 9653SOL    HW129858   6.280   6.194   4.579
 9653SOL    HW229859   6.194   6.057   4.554
 9654SOL     OW29860   2.193   2.982   2.183
 9654SOL    HW129861   2.181   2.993   2.085
 9654SOL    HW229862   2.282   2.940   2.201
 9655SOL     OW29863   6.440   2.061   0.325
 9655SOL    HW129864   6.491   2.027   0.246
 9655SOL    HW229865   6.504   2.088   0.397
 9656SOL     OW29866   2.401   1.998   2.516
 9656SOL    HW129867   2.434   2.084   2.477
 9656SOL    HW229868   2.336   2.017   2.589
 9657SOL     OW29869   0.462   0.307   4.803
 9657SOL    HW129870   0.511   0.391   4.780
 9657SOL    HW229871   0.493   0.274   4.892
 9658SOL     OW29872   5.572   1.120   2.673
 9658SOL    HW129873   5.532   1.048   2.617
 9658SOL    HW229874   5.643   1.167   2.621
 9659SOL     OW29875   1.635   4.891   6.328
 9659SOL    HW129876   1.549   4.936   6.351
 9659SOL    HW229877   1.641   4.804   6.376
 9660SOL     OW29878   1.038   4.719   0.442
 9660SOL    HW129879   1.107   4.708   0.514
 9660SOL    HW229880   0.988   4.634   0.430
 9661SOL     OW29881   4.014   1.003   0.750
 9661SOL    HW129882   4.080   1.030   0.679
 9661SOL    HW229883   3.943   0.946   0.709
 9662SOL     OW29884   5.229   2.419   4.093
 9662SOL    HW129885   5.269   2.500   4.136
 9662SOL    HW229886   5.195   2.443   4.002
 9663SOL     OW29887   3.191   5.745   2.394
 9663SOL    HW129888   3.100   5.753   2.352
 9663SOL    HW229889   3.185   5.686   2.475
 9664SOL     OW29890   2.938   5.946   1.478
 9664SOL    HW129891   2.962   5.861   1.524
 9664SOL    HW229892   3.019   5.983   1.432
 9665SOL     OW29893   5.809   4.206   3.482
 9665SOL    HW129894   5.745   4.185   3.408
 9665SOL    HW229895   5.810   4.305   3.498
 9666SOL     OW29896   5.920   4.943   4.945
 9666SOL    HW129897   5.998   4.981   4.895
 9666SOL    HW229898   5.837   4.994   4.921
 9667SOL     OW29899   2.973   3.446   3.064
 9667SOL    HW129900   2.935   3.355   3.080
 9667SOL    HW229901   2.933   3.511   3.129
 9668SOL     OW29902   0.536   1.756   4.978
 9668SOL    HW129903   0.476   1.710   5.044
 9668SOL    HW229904   0.500   1.847   4.958
 9669SOL     OW29905   1.749   0.015   6.950
 9669SOL    HW129906   1.822   0.082   6.937
 9669SOL    HW229907   1.766   6.986   0.009
 9670SOL     OW29908   6.343   4.043   6.598
 9670SOL    HW129909   6.295   4.131   6.592
 9670SOL    HW229910   6.367   4.011   6.507
 9671SOL     OW29911   6.823   1.553   0.059
 9671SOL    HW129912   6.916   1.582   0.036
 9671SOL    HW229913   6.803   1.579   0.154
 9672SOL     OW29914   0.570   6.780   5.772
 9672SOL    HW129915   0.491   6.734   5.732
 9672SOL    HW229916   0.541   6.866   5.815
 9673SOL     OW29917   2.007   2.429   5.763
 9673SOL    HW129918   2.017   2.344   5.712
 9673SOL    HW229919   2.018   2.410   5.861
 9674SOL     OW29920   2.632   6.395   2.207
 9674SOL    HW129921   2.650   6.299   2.225
 9674SOL    HW229922   2.686   6.425   2.128
 9675SOL     OW29923   6.550   2.215   2.223
 9675SOL    HW129924   6.473   2.278   2.233
 9675SOL    HW229925   6.604   2.213   2.307
 9676SOL     OW29926   0.014   3.018   4.596
 9676SOL    HW129927   6.976   3.009   4.518
 9676SOL    HW229928   6.997   3.080   4.663
 9677SOL     OW29929   1.839   3.480   5.636
 9677SOL    HW129930   1.786   3.442   5.711
 9677SOL    HW229931   1.898   3.554   5.670
 9678SOL     OW29932   3.816   3.563   3.138
 9678SOL    HW129933   3.840   3.490   3.074
 9678SOL    HW229934   3.900   3.604   3.175
 9679SOL     OW29935   0.427   3.591   1.617
 9679SOL    HW129936   0.488   3.629   1.547
 9679SOL    HW229937   0.423   3.492   1.608
 9680SOL     OW29938   4.473   5.253   2.539
 9680SOL    HW129939   4.429   5.340   2.519
 9680SOL    HW229940   4.481   5.200   2.455
 9681SOL     OW29941   1.111   0.692   3.913
 9681SOL    HW129942   1.073   0.747   3.839
 9681SOL    HW229943   1.184   0.744   3.959
 9682SOL     OW29944   0.641   4.072   2.233
 9682SOL    HW129945   0.598   4.088   2.322
 9682SOL    HW229946   0.584   4.011   2.178
 9683SOL     OW29947   4.372   6.825   4.988
 9683SOL    HW129948   4.348   6.866   5.075
 9683SOL    HW229949   4.369   6.725   4.996
 9684SOL     OW29950   1.189   4.122   3.160
 9684SOL    HW129951   1.183   4.034   3.208
 9684SOL    HW229952   1.123   4.186   3.199
 9685SOL     OW29953   1.606   1.531   6.529
 9685SOL    HW129954   1.559   1.536   6.441
 9685SOL    HW229955   1.609   1.622   6.571
 9686SOL     OW29956   5.869   2.375   2.272
 9686SOL    HW129957   5.901   2.306   2.207
 9686SOL    HW229958   5.912   2.463   2.251
 9687SOL     OW29959   3.149   1.489   4.852
 9687SOL    HW129960   3.095   1.550   4.909
 9687SOL    HW229961   3.145   1.519   4.757
 9688SOL     OW29962   5.384   1.935   4.331
 9688SOL    HW129963   5.346   1.942   4.238
 9688SOL    HW229964   5.477   1.972   4.331
 9689SOL     OW29965   3.198   5.201   5.828
 9689SOL    HW129966   3.115   5.159   5.865
 9689SOL    HW229967   3.215   5.287   5.876
 9690SOL     OW29968   6.484   3.577   0.164
 9690SOL    HW129969   6.469   3.668   0.124
 9690SOL    HW229970   6.429   3.567   0.247
 9691SOL     OW29971   1.400   4.533   0.710
 9691SOL    HW129972   1.381   4.456   0.771
 9691SOL    HW229973   1.457   4.501   0.634
 9692SOL     OW29974   3.573   5.685   0.578
 9692SOL    HW129975   3.486   5.731   0.594
 9692SOL    HW229976   3.569   5.593   0.616
 9693SOL     OW29977   5.864   5.598   1.193
 9693SOL    HW129978   5.929   5.622   1.265
 9693SOL    HW229979   5.777   5.645   1.209
 9694SOL     OW29980   1.066   1.054   0.142
 9694SOL    HW129981   1.008   0.989   0.094
 9694SOL    HW229982   1.155   1.012   0.161
 9695SOL     OW29983   6.361   4.777   6.999
 9695SOL    HW129984   6.342   4.683   0.001
 9695SOL    HW229985   6.275   4.824   6.977
 9696SOL     OW29986   3.976   4.177   6.759
 9696SOL    HW129987   3.909   4.112   6.795
 9696SOL    HW229988   3.949   4.270   6.785
 9697SOL     OW29989   0.041   6.010   6.745
 9697SOL    HW129990   0.039   6.109   6.763
 9697SOL    HW229991   0.090   5.993   6.660
 9698SOL     OW29992   4.905   1.537   5.598
 9698SOL    HW129993   4.968   1.515   5.673
 9698SOL    HW229994   4.891   1.455   5.542
 9699SOL     OW29995   1.414   2.431   6.187
 9699SOL    HW129996   1.394   2.397   6.095
 9699SOL    HW229997   1.463   2.360   6.238
 9700SOL     OW29998   3.860   2.962   3.462
 9700SOL    HW129999   3.900   2.999   3.378
 9700SOL    HW230000   3.907   3.002   3.541
 9701SOL     OW30001   3.970   4.883   4.031
 9701SOL    HW130002   4.016   4.972   4.023
 9701SOL    HW230003   3.871   4.897   4.034
 9702SOL     OW30004   5.535   0.714   0.184
 9702SOL    HW130005   5.553   0.645   0.255
 9702SOL    HW230006   5.601   0.703   0.110
 9703SOL     OW30007   2.599   5.900   4.526
 9703SOL    HW130008   2.653   5.838   4.584
 9703SOL    HW230009   2.556   5.970   4.584
 9704SOL     OW30010   2.898   1.388   4.186
 9704SOL    HW130011   2.871   1.314   4.248
 9704SOL    HW230012   2.823   1.406   4.122
 9705SOL     OW30013   3.358   4.177   0.491
 9705SOL    HW130014   3.320   4.257   0.538
 9705SOL    HW230015   3.427   4.207   0.425
 9706SOL     OW30016   0.141   2.142   3.630
 9706SOL    HW130017   0.112   2.055   3.590
 9706SOL    HW230018   0.212   2.125   3.699
 9707SOL     OW30019   3.102   5.290   1.198
 9707SOL    HW130020   3.116   5.264   1.294
 9707SOL    HW230021   3.175   5.250   1.142
 9708SOL     OW30022   1.851   1.707   1.390
 9708SOL    HW130023   1.807   1.755   1.466
 9708SOL    HW230024   1.814   1.614   1.382
 9709SOL     OW30025   1.598   6.193   3.918
 9709SOL    HW130026   1.536   6.216   3.993
 9709SOL    HW230027   1.561   6.229   3.832
 9710SOL     OW30028   1.485   0.176   3.738
 9710SOL    HW130029   1.497   0.226   3.652
 9710SOL    HW230030   1.426   0.228   3.800
 9711SOL     OW30031   2.104   2.914   6.296
 9711SOL    HW130032   2.157   2.829   6.292
 9711SOL    HW230033   2.164   2.992   6.275
 9712SOL     OW30034   5.061   3.857   4.725
 9712SOL    HW130035   5.003   3.846   4.806
 9712SOL    HW230036   5.053   3.777   4.666
 9713SOL     OW30037   0.230   5.603   3.400
 9713SOL    HW130038   0.211   5.550   3.318
 9713SOL    HW230039   0.194   5.556   3.480
 9714SOL     OW30040   2.724   1.884   2.100
 9714SOL    HW130041   2.737   1.982   2.085
 9714SOL    HW230042   2.804   1.846   2.147
 9715SOL     OW30043   5.706   5.679   6.299
 9715SOL    HW130044   5.657   5.682   6.212
 9715SOL    HW230045   5.640   5.675   6.374
 9716SOL     OW30046   3.542   0.899   5.553
 9716SOL    HW130047   3.531   0.831   5.480
 9716SOL    HW230048   3.470   0.885   5.621
 9717SOL     OW30049   6.149   5.463   3.249
 9717SOL    HW130050   6.237   5.508   3.264
 9717SOL    HW230051   6.156   5.367   3.274
 9718SOL     OW30052   5.735   2.353   1.969
 9718SOL    HW130053   5.636   2.364   1.976
 9718SOL    HW230054   5.759   2.325   1.876
 9719SOL     OW30055   0.393   1.395   0.231
 9719SOL    HW130056   0.376   1.313   0.286
 9719SOL    HW230057   0.391   1.370   0.134
 9720SOL     OW30058   0.761   0.847   0.828
 9720SOL    HW130059   0.769   0.789   0.747
 9720SOL    HW230060   0.847   0.846   0.879
 9721SOL     OW30061   0.521   2.218   3.648
 9721SOL    HW130062   0.446   2.226   3.715
 9721SOL    HW230063   0.607   2.203   3.696
 9722SOL     OW30064   0.091   0.275   4.753
 9722SOL    HW130065   0.095   0.235   4.845
 9722SOL    HW230066   0.132   0.213   4.688
 9723SOL     OW30067   6.895   0.989   4.313
 9723SOL    HW130068   6.802   0.965   4.283
 9723SOL    HW230069   6.953   0.908   4.309
 9724SOL     OW30070   3.860   2.735   1.747
 9724SOL    HW130071   3.856   2.701   1.653
 9724SOL    HW230072   3.789   2.691   1.802
 9725SOL     OW30073   4.186   2.819   5.989
 9725SOL    HW130074   4.272   2.771   5.972
 9725SOL    HW230075   4.205   2.913   6.015
 9726SOL     OW30076   4.832   6.366   4.912
 9726SOL    HW130077   4.858   6.312   4.831
 9726SOL    HW230078   4.754   6.322   4.957
 9727SOL     OW30079   0.288   0.808   6.513
 9727SOL    HW130080   0.189   0.793   6.504
 9727SOL    HW230081   0.305   0.906   6.527
 9728SOL     OW30082   3.129   5.872   6.152
 9728SOL    HW130083   3.096   5.936   6.222
 9728SOL    HW230084   3.170   5.924   6.077
 9729SOL     OW30085   3.548   5.347   2.367
 9729SOL    HW130086   3.505   5.371   2.280
 9729SOL    HW230087   3.489   5.377   2.442
 9730SOL     OW30088   5.201   3.992   2.839
 9730SOL    HW130089   5.213   4.022   2.934
 9730SOL    HW230090   5.107   4.011   2.811
 9731SOL     OW30091   5.032   4.390   0.727
 9731SOL    HW130092   5.052   4.454   0.801
 9731SOL    HW230093   4.990   4.307   0.765
 9732SOL     OW30094   4.924   6.533   4.709
 9732SOL    HW130095   4.899   6.501   4.800
 9732SOL    HW230096   4.997   6.475   4.672
 9733SOL     OW30097   5.043   4.483   4.170
 9733SOL    HW130098   5.022   4.391   4.138
 9733SOL    HW230099   4.970   4.545   4.141
 9734SOL     OW30100   6.540   2.367   5.927
 9734SOL    HW130101   6.587   2.347   5.841
 9734SOL    HW230102   6.448   2.328   5.925
 9735SOL     OW30103   3.180   4.963   0.971
 9735SOL    HW130104   3.177   4.951   1.071
 9735SOL    HW230105   3.256   4.910   0.934
 9736SOL     OW30106   3.820   2.052   1.827
 9736SOL    HW130107   3.831   2.081   1.732
 9736SOL    HW230108   3.752   2.110   1.872
 9737SOL     OW30109   4.227   1.699   4.928
 9737SOL    HW130110   4.281   1.772   4.968
 9737SOL    HW230111   4.200   1.724   4.835
 9738SOL     OW30112   2.525   0.403   2.173
 9738SOL    HW130113   2.434   0.416   2.214
 9738SOL    HW230114   2.580   0.485   2.185
 9739SOL     OW30115   5.295   4.752   2.662
 9739SOL    HW130116   5.197   4.766   2.650
 9739SOL    HW230117   5.310   4.683   2.734
 9740SOL     OW30118   6.673   3.027   3.135
 9740SOL    HW130119   6.628   3.026   3.224
 9740SOL    HW230120   6.626   2.963   3.074
 9741SOL     OW30121   3.874   2.068   2.574
 9741SOL    HW130122   3.846   1.973   2.560
 9741SOL    HW230123   3.878   2.115   2.485
 9742SOL     OW30124   3.669   1.445   3.109
 9742SOL    HW130125   3.693   1.493   3.025
 9742SOL    HW230126   3.736   1.373   3.127
 9743SOL     OW30127   1.125   1.095   5.584
 9743SOL    HW130128   1.142   1.031   5.509
 9743SOL    HW230129   1.078   1.176   5.549
 9744SOL     OW30130   2.587   0.423   1.507
 9744SOL    HW130131   2.504   0.459   1.551
 9744SOL    HW230132   2.571   0.413   1.409
 9745SOL     OW30133   0.789   1.048   4.710
 9745SOL    HW130134   0.710   1.030   4.770
 9745SOL    HW230135   0.828   0.962   4.679
 9746SOL     OW30136   5.872   6.929   4.938
 9746SOL    HW130137   5.950   6.866   4.930
 9746SOL    HW230138   5.905   7.023   4.930
 9747SOL     OW30139   6.529   0.139   6.165
 9747SOL    HW130140   6.551   0.070   6.235
 9747SOL    HW230141   6.585   0.123   6.084
 9748SOL     OW30142   1.912   4.699   4.592
 9748SOL    HW130143   1.984   4.633   4.571
 9748SOL    HW230144   1.890   4.694   4.690
 9749SOL     OW30145   0.558   5.003   5.069
 9749SOL    HW130146   0.549   5.056   5.153
 9749SOL    HW230147   0.481   4.939   5.061
 9750SOL     OW30148   2.551   5.490   2.356
 9750SOL    HW130149   2.559   5.419   2.286
 9750SOL    HW230150   2.586   5.455   2.443
 9751SOL     OW30151   1.526   1.679   0.335
 9751SOL    HW130152   1.428   1.663   0.326
 9751SOL    HW230153   1.549   1.767   0.292
 9752SOL     OW30154   3.162   6.648   5.963
 9752SOL    HW130155   3.088   6.710   5.987
 9752SOL    HW230156   3.250   6.695   5.971
 9753SOL     OW30157   0.052   0.207   6.870
 9753SOL    HW130158   0.106   0.187   6.951
 9753SOL    HW230159   0.107   0.194   6.788
 9754SOL     OW30160   0.479   3.387   6.192
 9754SOL    HW130161   0.418   3.320   6.234
 9754SOL    HW230162   0.465   3.476   6.236
 9755SOL     OW30163   4.056   5.564   4.829
 9755SOL    HW130164   4.145   5.608   4.821
 9755SOL    HW230165   4.062   5.487   4.893
 9756SOL     OW30166   4.475   3.171   6.195
 9756SOL    HW130167   4.509   3.260   6.166
 9756SOL    HW230168   4.428   3.180   6.283
 9757SOL     OW30169   5.974   0.927   4.453
 9757SOL    HW130170   5.874   0.934   4.448
 9757SOL    HW230171   6.007   0.872   4.376
 9758SOL     OW30172   3.531   0.522   0.332
 9758SOL    HW130173   3.502   0.572   0.413
 9758SOL    HW230174   3.629   0.505   0.337
 9759SOL     OW30175   2.838   5.800   1.828
 9759SOL    HW130176   2.756   5.781   1.775
 9759SOL    HW230177   2.818   5.869   1.897
 9760SOL     OW30178   5.015   3.763   6.636
 9760SOL    HW130179   4.968   3.748   6.723
 9760SOL    HW230180   4.977   3.702   6.567
 9761SOL     OW30181   5.116   5.472   3.210
 9761SOL    HW130182   5.130   5.556   3.159
 9761SOL    HW230183   5.030   5.477   3.261
 9762SOL     OW30184   3.450   1.105   2.353
 9762SOL    HW130185   3.370   1.051   2.379
 9762SOL    HW230186   3.511   1.114   2.432
 9763SOL     OW30187   1.938   2.133   1.679
 9763SOL    HW130188   2.036   2.150   1.685
 9763SOL    HW230189   1.915   2.052   1.733
 9764SOL     OW30190   0.742   2.649   4.285
 9764SOL    HW130191   0.778   2.560   4.255
 9764SOL    HW230192   0.722   2.645   4.383
 9765SOL     OW30193   0.442   1.330   5.611
 9765SOL    HW130194   0.345   1.309   5.606
 9765SOL    HW230195   0.485   1.313   5.523
 9766SOL     OW30196   3.003   0.868   1.803
 9766SOL    HW130197   2.936   0.902   1.869
 9766SOL    HW230198   3.051   0.789   1.841
 9767SOL     OW30199   4.123   0.131   5.223
 9767SOL    HW130200   4.149   0.222   5.190
 9767SOL    HW230201   4.025   0.119   5.214
 9768SOL     OW30202   4.405   2.101   3.234
 9768SOL    HW130203   4.339   2.150   3.291
 9768SOL    HW230204   4.358   2.064   3.153
 9769SOL     OW30205   0.117   2.315   0.274
 9769SOL    HW130206   0.210   2.351   0.264
 9769SOL    HW230207   0.052   2.382   0.238
 9770SOL     OW30208   0.376   2.985   4.803
 9770SOL    HW130209   0.308   3.028   4.863
 9770SOL    HW230210   0.424   3.055   4.750
 9771SOL     OW30211   1.821   6.342   3.942
 9771SOL    HW130212   1.734   6.296   3.924
 9771SOL    HW230213   1.803   6.436   3.971
 9772SOL     OW30214   5.765   6.244   1.383
 9772SOL    HW130215   5.831   6.303   1.429
 9772SOL    HW230216   5.802   6.217   1.294
 9773SOL     OW30217   5.393   5.143   4.086
 9773SOL    HW130218   5.294   5.134   4.087
 9773SOL    HW230219   5.431   5.111   4.173
 9774SOL     OW30220   6.484   5.951   4.098
 9774SOL    HW130221   6.404   5.987   4.052
 9774SOL    HW230222   6.548   6.025   4.118
 9775SOL     OW30223   2.804   1.659   4.607
 9775SOL    HW130224   2.709   1.627   4.618
 9775SOL    HW230225   2.833   1.647   4.512
 9776SOL     OW30226   0.608   4.723   4.479
 9776SOL    HW130227   0.661   4.662   4.421
 9776SOL    HW230228   0.564   4.670   4.551
 9777SOL     OW30229   4.737   5.945   5.936
 9777SOL    HW130230   4.797   6.005   5.884
 9777SOL    HW230231   4.643   5.976   5.928
 9778SOL     OW30232   3.237   0.997   4.779
 9778SOL    HW130233   3.194   0.914   4.815
 9778SOL    HW230234   3.202   1.076   4.828
 9779SOL     OW30235   3.335   2.229   6.738
 9779SOL    HW130236   3.433   2.216   6.756
 9779SOL    HW230237   3.317   2.213   6.641
 9780SOL     OW30238   1.637   3.246   1.451
 9780SOL    HW130239   1.562   3.185   1.478
 9780SOL    HW230240   1.663   3.303   1.529
 9781SOL     OW30241   0.397   0.056   4.189
 9781SOL    HW130242   0.479   0.077   4.136
 9781SOL    HW230243   0.396   6.982   4.212
 9782SOL     OW30244   6.049   0.438   1.125
 9782SOL    HW130245   6.114   0.512   1.139
 9782SOL    HW230246   6.080   0.380   1.050
 9783SOL     OW30247   5.988   7.002   3.580
 9783SOL    HW130248   6.023   0.028   3.660
 9783SOL    HW230249   5.896   0.010   3.558
 9784SOL     OW30250   4.851   0.781   4.787
 9784SOL    HW130251   4.843   0.773   4.687
 9784SOL    HW230252   4.860   0.877   4.812
 9785SOL     OW30253   1.217   1.864   0.565
 9785SOL    HW130254   1.135   1.917   0.586
 9785SOL    HW230255   1.284   1.923   0.520
 9786SOL     OW30256   1.777   0.451   3.354
 9786SOL    HW130257   1.797   0.523   3.288
 9786SOL    HW230258   1.815   0.364   3.321
 9787SOL     OW30259   6.029   4.051   1.011
 9787SOL    HW130260   5.962   4.086   1.076
 9787SOL    HW230261   6.122   4.069   1.045
 9788SOL     OW30262   0.100   0.018   6.512
 9788SOL    HW130263   0.039   7.020   6.588
 9788SOL    HW230264   0.045   0.042   6.432
 9789SOL     OW30265   1.777   4.458   4.403
 9789SOL    HW130266   1.851   4.421   4.460
 9789SOL    HW230267   1.791   4.556   4.391
 9790SOL     OW30268   0.652   0.819   3.789
 9790SOL    HW130269   0.631   0.917   3.796
 9790SOL    HW230270   0.568   0.766   3.795
 9791SOL     OW30271   1.182   2.576   0.761
 9791SOL    HW130272   1.273   2.534   0.761
 9791SOL    HW230273   1.180   2.652   0.696
 9792SOL     OW30274   4.697   5.364   2.654
 9792SOL    HW130275   4.764   5.377   2.580
 9792SOL    HW230276   4.618   5.314   2.619
 9793SOL     OW30277   5.394   6.056   2.150
 9793SOL    HW130278   5.323   6.020   2.090
 9793SOL    HW230279   5.377   6.154   2.166
 9794SOL     OW30280   3.601   4.210   6.772
 9794SOL    HW130281   3.676   4.276   6.765
 9794SOL    HW230282   3.514   4.255   6.752
 9795SOL     OW30283   2.058   4.791   2.901
 9795SOL    HW130284   2.125   4.733   2.947
 9795SOL    HW230285   2.106   4.865   2.854
 9796SOL     OW30286   4.236   5.080   6.244
 9796SOL    HW130287   4.239   5.172   6.207
 9796SOL    HW230288   4.267   5.081   6.339
 9797SOL     OW30289   6.173   3.267   4.940
 9797SOL    HW130290   6.089   3.314   4.966
 9797SOL    HW230291   6.247   3.293   5.002
 9798SOL     OW30292   3.265   1.260   1.854
 9798SOL    HW130293   3.240   1.216   1.769
 9798SOL    HW230294   3.302   1.351   1.835
 9799SOL     OW30295   4.094   3.661   3.528
 9799SOL    HW130296   4.129   3.750   3.498
 9799SOL    HW230297   4.002   3.673   3.566
 9800SOL     OW30298   4.126   6.471   0.420
 9800SOL    HW130299   4.070   6.391   0.397
 9800SOL    HW230300   4.218   6.441   0.445
 9801SOL     OW30301   6.107   4.889   1.618
 9801SOL    HW130302   6.064   4.889   1.709
 9801SOL    HW230303   6.054   4.832   1.556
 9802SOL     OW30304   0.592   6.037   2.198
 9802SOL    HW130305   0.643   6.047   2.283
 9802SOL    HW230306   0.644   5.981   2.134
 9803SOL     OW30307   5.480   0.350   6.405
 9803SOL    HW130308   5.546   0.392   6.468
 9803SOL    HW230309   5.432   0.276   6.452
 9804SOL     OW30310   4.860   5.577   4.184
 9804SOL    HW130311   4.923   5.634   4.132
 9804SOL    HW230312   4.772   5.574   4.137
 9805SOL     OW30313   3.834   4.389   0.544
 9805SOL    HW130314   3.799   4.296   0.547
 9805SOL    HW230315   3.926   4.392   0.585
 9806SOL     OW30316   0.025   1.180   2.963
 9806SOL    HW130317   7.010   1.203   3.052
 9806SOL    HW230318   7.016   1.246   2.895
 9807SOL     OW30319   2.292   3.925   0.990
 9807SOL    HW130320   2.364   3.888   1.049
 9807SOL    HW230321   2.241   3.851   0.948
 9808SOL     OW30322   2.624   2.071   2.939
 9808SOL    HW130323   2.671   2.159   2.934
 9808SOL    HW230324   2.638   2.021   2.853
 9809SOL     OW30325   0.762   0.106   4.273
 9809SOL    HW130326   0.841   0.164   4.288
 9809SOL    HW230327   0.696   0.118   4.348
 9810SOL     OW30328   4.785   1.746   2.929
 9810SOL    HW130329   4.692   1.725   2.958
 9810SOL    HW230330   4.825   1.813   2.992
 9811SOL     OW30331   0.789   0.438   3.115
 9811SOL    HW130332   0.758   0.417   3.022
 9811SOL    HW230333   0.840   0.359   3.150
 9812SOL     OW30334   5.997   2.688   6.544
 9812SOL    HW130335   6.005   2.601   6.495
 9812SOL    HW230336   5.901   2.717   6.544
 9813SOL     OW30337   6.151   3.973   0.114
 9813SOL    HW130338   6.228   3.936   0.062
 9813SOL    HW230339   6.168   3.959   0.212
 9814SOL     OW30340   6.672   1.570   5.701
 9814SOL    HW130341   6.643   1.490   5.648
 9814SOL    HW230342   6.592   1.612   5.744
 9815SOL     OW30343   0.138   5.384   2.285
 9815SOL    HW130344   0.158   5.327   2.364
 9815SOL    HW230345   0.041   5.411   2.287
 9816SOL     OW30346   0.026   1.879   5.039
 9816SOL    HW130347   6.987   1.839   4.973
 9816SOL    HW230348   7.023   1.974   5.058
 9817SOL     OW30349   2.471   1.964   0.138
 9817SOL    HW130350   2.477   1.904   0.217
 9817SOL    HW230351   2.386   2.015   0.141
 9818SOL     OW30352   0.482   0.061   2.545
 9818SOL    HW130353   0.503   0.133   2.611
 9818SOL    HW230354   0.541   0.071   2.465
 9819SOL     OW30355   5.959   1.298   5.022
 9819SOL    HW130356   5.984   1.211   4.979
 9819SOL    HW230357   5.912   1.356   4.955
 9820SOL     OW30358   3.261   0.913   6.407
 9820SOL    HW130359   3.342   0.908   6.347
 9820SOL    HW230360   3.178   0.906   6.352
 9821SOL     OW30361   4.999   4.246   6.622
 9821SOL    HW130362   4.909   4.254   6.665
 9821SOL    HW230363   5.006   4.157   6.577
 9822SOL     OW30364   3.274   6.801   3.879
 9822SOL    HW130365   3.312   6.731   3.940
 9822SOL    HW230366   3.222   6.757   3.806
 9823SOL     OW30367   4.038   5.783   2.869
 9823SOL    HW130368   3.944   5.787   2.903
 9823SOL    HW230369   4.042   5.827   2.779
 9824SOL     OW30370   1.411   6.140   5.589
 9824SOL    HW130371   1.349   6.125   5.512
 9824SOL    HW230372   1.501   6.102   5.568
 9825SOL     OW30373   0.594   6.200   4.507
 9825SOL    HW130374   0.575   6.298   4.504
 9825SOL    HW230375   0.612   6.173   4.601
 9826SOL     OW30376   1.663   5.999   5.454
 9826SOL    HW130377   1.732   5.958   5.513
 9826SOL    HW230378   1.637   5.934   5.382
 9827SOL     OW30379   1.373   4.583   1.636
 9827SOL    HW130380   1.378   4.658   1.702
 9827SOL    HW230381   1.366   4.620   1.544
 9828SOL     OW30382   5.016   2.342   4.383
 9828SOL    HW130383   5.074   2.270   4.343
 9828SOL    HW230384   5.054   2.369   4.471
 9829SOL     OW30385   5.545   3.775   5.659
 9829SOL    HW130386   5.495   3.856   5.626
 9829SOL    HW230387   5.555   3.781   5.759
 9830SOL     OW30388   5.845   1.012   3.623
 9830SOL    HW130389   5.870   1.099   3.581
 9830SOL    HW230390   5.747   1.010   3.640
 9831SOL     OW30391   0.742   4.963   1.129
 9831SOL    HW130392   0.682   4.904   1.075
 9831SOL    HW230393   0.719   4.954   1.226
 9832SOL     OW30394   5.315   5.963   5.330
 9832SOL    HW130395   5.375   6.014   5.392
 9832SOL    HW230396   5.220   5.978   5.357
 9833SOL     OW30397   3.725   2.923   4.184
 9833SOL    HW130398   3.660   2.989   4.148
 9833SOL    HW230399   3.753   2.950   4.277
 9834SOL     OW30400   3.302   5.948   5.931
 9834SOL    HW130401   3.398   5.948   5.960
 9834SOL    HW230402   3.271   6.042   5.918
 9835SOL     OW30403   3.581   2.939   3.724
 9835SOL    HW130404   3.591   2.901   3.631
 9835SOL    HW230405   3.668   2.934   3.772
 9836SOL     OW30406   6.797   2.791   6.727
 9836SOL    HW130407   6.846   2.800   6.640
 9836SOL    HW230408   6.861   2.807   6.803
 9837SOL     OW30409   6.238   0.693   4.737
 9837SOL    HW130410   6.287   0.675   4.822
 9837SOL    HW230411   6.202   0.607   4.700
 9838SOL     OW30412   0.429   5.949   0.610
 9838SOL    HW130413   0.332   5.932   0.625
 9838SOL    HW230414   0.447   6.048   0.615
 9839SOL     OW30415   3.692   6.551   3.867
 9839SOL    HW130416   3.714   6.645   3.892
 9839SOL    HW230417   3.776   6.503   3.839
 9840SOL     OW30418   6.508   2.204   6.176
 9840SOL    HW130419   6.583   2.248   6.128
 9840SOL    HW230420   6.539   2.173   6.266
 9841SOL     OW30421   6.713   5.661   2.274
 9841SOL    HW130422   6.718   5.744   2.219
 9841SOL    HW230423   6.625   5.616   2.259
 9842SOL     OW30424   4.538   0.300   0.120
 9842SOL    HW130425   4.574   0.227   0.062
 9842SOL    HW230426   4.502   0.373   0.062
 9843SOL     OW30427   0.479   0.365   0.620
 9843SOL    HW130428   0.450   0.384   0.526
 9843SOL    HW230429   0.498   0.452   0.667
 9844SOL     OW30430   5.677   1.160   4.796
 9844SOL    HW130431   5.606   1.173   4.865
 9844SOL    HW230432   5.744   1.234   4.802
 9845SOL     OW30433   1.038   3.251   2.314
 9845SOL    HW130434   1.043   3.178   2.246
 9845SOL    HW230435   1.131   3.272   2.346
 9846SOL     OW30436   5.929   2.113   2.855
 9846SOL    HW130437   5.901   2.053   2.779
 9846SOL    HW230438   6.023   2.091   2.881
 9847SOL     OW30439   3.842   3.555   6.733
 9847SOL    HW130440   3.903   3.626   6.768
 9847SOL    HW230441   3.869   3.531   6.640
 9848SOL     OW30442   2.791   3.737   6.206
 9848SOL    HW130443   2.782   3.706   6.111
 9848SOL    HW230444   2.866   3.688   6.250
 9849SOL     OW30445   1.406   1.657   2.297
 9849SOL    HW130446   1.393   1.579   2.236
 9849SOL    HW230447   1.477   1.634   2.364
 9850SOL     OW30448   2.110   0.803   3.779
 9850SOL    HW130449   2.077   0.727   3.724
 9850SOL    HW230450   2.161   0.769   3.857
 9851SOL     OW30451   3.413   6.069   3.674
 9851SOL    HW130452   3.386   6.139   3.608
 9851SOL    HW230453   3.331   6.026   3.712
 9852SOL     OW30454   2.535   0.450   6.766
 9852SOL    HW130455   2.479   0.492   6.695
 9852SOL    HW230456   2.608   0.512   6.793
 9853SOL     OW30457   0.043   4.294   3.795
 9853SOL    HW130458   0.041   4.194   3.798
 9853SOL    HW230459   6.974   4.328   3.776
 9854SOL     OW30460   6.277   3.838   6.850
 9854SOL    HW130461   6.218   3.854   6.771
 9854SOL    HW230462   6.293   3.740   6.859
 9855SOL     OW30463   0.659   6.617   0.660
 9855SOL    HW130464   0.683   6.521   0.647
 9855SOL    HW230465   0.560   6.627   0.658
 9856SOL     OW30466   4.534   4.740   2.946
 9856SOL    HW130467   4.568   4.654   2.907
 9856SOL    HW230468   4.440   4.728   2.978
 9857SOL     OW30469   4.620   6.756   5.654
 9857SOL    HW130470   4.676   6.747   5.571
 9857SOL    HW230471   4.564   6.838   5.648
 9858SOL     OW30472   6.729   5.779   2.864
 9858SOL    HW130473   6.765   5.768   2.957
 9858SOL    HW230474   6.635   5.811   2.868
 9859SOL     OW30475   0.380   6.975   2.825
 9859SOL    HW130476   0.336   7.015   2.745
 9859SOL    HW230477   0.310   6.937   2.886
 9860SOL     OW30478   0.949   3.641   3.621
 9860SOL    HW130479   1.009   3.562   3.620
 9860SOL    HW230480   0.933   3.670   3.716
 9861SOL     OW30481   4.043   2.131   4.434
 9861SOL    HW130482   4.088   2.220   4.426
 9861SOL    HW230483   3.951   2.137   4.395
 9862SOL     OW30484   1.229   3.027   6.602
 9862SOL    HW130485   1.141   2.980   6.602
 9862SOL    HW230486   1.275   3.011   6.515
 9863SOL     OW30487   4.052   5.994   1.879
 9863SOL    HW130488   4.065   5.911   1.826
 9863SOL    HW230489   4.124   6.060   1.857
 9864SOL     OW30490   3.092   5.872   5.159
 9864SOL    HW130491   2.993   5.888   5.166
 9864SOL    HW230492   3.130   5.860   5.251
 9865SOL     OW30493   2.369   4.938   6.280
 9865SOL    HW130494   2.341   4.903   6.369
 9865SOL    HW230495   2.466   4.961   6.283
 9866SOL     OW30496   0.574   5.697   5.317
 9866SOL    HW130497   0.596   5.626   5.250
 9866SOL    HW230498   0.600   5.787   5.281
 9867SOL     OW30499   4.943   1.553   2.784
 9867SOL    HW130500   4.875   1.609   2.832
 9867SOL    HW230501   4.991   1.609   2.716
 9868SOL     OW30502   2.424   5.069   3.035
 9868SOL    HW130503   2.387   5.083   3.127
 9868SOL    HW230504   2.350   5.054   2.970
 9869SOL     OW30505   5.592   1.593   2.669
 9869SOL    HW130506   5.559   1.499   2.662
 9869SOL    HW230507   5.539   1.651   2.607
 9870SOL     OW30508   2.247   2.914   2.708
 9870SOL    HW130509   2.230   2.952   2.799
 9870SOL    HW230510   2.165   2.868   2.675
 9871SOL     OW30511   5.854   5.232   3.258
 9871SOL    HW130512   5.952   5.253   3.263
 9871SOL    HW230513   5.832   5.164   3.329
 9872SOL     OW30514   0.680   6.532   4.655
 9872SOL    HW130515   0.613   6.504   4.587
 9872SOL    HW230516   0.638   6.599   4.717
 9873SOL     OW30517   0.587   0.680   5.092
 9873SOL    HW130518   0.561   0.610   5.159
 9873SOL    HW230519   0.683   0.705   5.106
 9874SOL     OW30520   6.825   1.851   3.802
 9874SOL    HW130521   6.845   1.906   3.721
 9874SOL    HW230522   6.729   1.865   3.828
 9875SOL     OW30523   5.853   5.787   0.694
 9875SOL    HW130524   5.806   5.809   0.608
 9875SOL    HW230525   5.800   5.719   0.744
 9876SOL     OW30526   0.394   0.152   2.991
 9876SOL    HW130527   0.362   0.227   2.933
 9876SOL    HW230528   0.409   0.071   2.934
 9877SOL     OW30529   1.625   5.517   5.319
 9877SOL    HW130530   1.588   5.451   5.384
 9877SOL    HW230531   1.711   5.553   5.354
 9878SOL     OW30532   4.662   4.246   0.633
 9878SOL    HW130533   4.563   4.249   0.638
 9878SOL    HW230534   4.695   4.322   0.577
 9879SOL     OW30535   5.876   5.776   4.359
 9879SOL    HW130536   5.885   5.787   4.458
 9879SOL    HW230537   5.908   5.685   4.333
 9880SOL     OW30538   2.480   1.328   0.753
 9880SOL    HW130539   2.563   1.300   0.800
 9880SOL    HW230540   2.440   1.250   0.705
 9881SOL     OW30541   6.307   0.367   2.885
 9881SOL    HW130542   6.224   0.332   2.842
 9881SOL    HW230543   6.330   0.311   2.965
 9882SOL     OW30544   3.117   3.800   4.423
 9882SOL    HW130545   3.112   3.852   4.508
 9882SOL    HW230546   3.035   3.742   4.414
 9883SOL     OW30547   1.107   5.326   2.777
 9883SOL    HW130548   1.162   5.258   2.728
 9883SOL    HW230549   1.129   5.322   2.875
 9884SOL     OW30550   3.361   2.696   5.370
 9884SOL    HW130551   3.361   2.746   5.284
 9884SOL    HW230552   3.294   2.622   5.366
 9885SOL     OW30553   5.008   2.421   5.225
 9885SOL    HW130554   4.994   2.353   5.153
 9885SOL    HW230555   4.920   2.453   5.259
 9886SOL     OW30556   2.615   6.201   1.403
 9886SOL    HW130557   2.588   6.258   1.325
 9886SOL    HW230558   2.709   6.223   1.429
 9887SOL     OW30559   3.961   1.515   0.067
 9887SOL    HW130560   3.935   1.436   0.012
 9887SOL    HW230561   4.016   1.485   0.144
 9888SOL     OW30562   6.241   6.484   4.236
 9888SOL    HW130563   6.326   6.506   4.188
 9888SOL    HW230564   6.190   6.415   4.184
 9889SOL     OW30565   6.513   5.979   2.091
 9889SOL    HW130566   6.545   6.068   2.058
 9889SOL    HW230567   6.591   5.918   2.104
 9890SOL     OW30568   2.135   3.152   3.181
 9890SOL    HW130569   2.137   3.247   3.212
 9890SOL    HW230570   2.094   3.095   3.251
 9891SOL     OW30571   3.612   0.277   2.057
 9891SOL    HW130572   3.608   0.217   2.137
 9891SOL    HW230573   3.705   0.310   2.045
 9892SOL     OW30574   2.458   5.722   3.296
 9892SOL    HW130575   2.372   5.678   3.321
 9892SOL    HW230576   2.507   5.749   3.379
 9893SOL     OW30577   5.776   4.866   4.668
 9893SOL    HW130578   5.815   4.947   4.625
 9893SOL    HW230579   5.691   4.891   4.714
 9894SOL     OW30580   4.516   3.612   5.895
 9894SOL    HW130581   4.491   3.572   5.807
 9894SOL    HW230582   4.615   3.602   5.909
 9895SOL     OW30583   5.202   2.770   5.981
 9895SOL    HW130584   5.230   2.755   6.076
 9895SOL    HW230585   5.259   2.714   5.920
 9896SOL     OW30586   3.756   4.016   6.844
 9896SOL    HW130587   3.718   3.932   6.883
 9896SOL    HW230588   3.681   4.079   6.823
 9897SOL     OW30589   0.995   1.045   2.718
 9897SOL    HW130590   0.953   0.959   2.689
 9897SOL    HW230591   1.088   1.027   2.751
 9898SOL     OW30592   0.383   5.112   6.698
 9898SOL    HW130593   0.385   5.030   6.754
 9898SOL    HW230594   0.343   5.091   6.609
 9899SOL     OW30595   3.536   4.814   0.703
 9899SOL    HW130596   3.534   4.857   0.612
 9899SOL    HW230597   3.584   4.874   0.767
 9900SOL     OW30598   2.667   5.466   2.882
 9900SOL    HW130599   2.613   5.496   2.960
 9900SOL    HW230600   2.759   5.505   2.888
 9901SOL     OW30601   3.014   1.578   6.423
 9901SOL    HW130602   2.950   1.500   6.422
 9901SOL    HW230603   3.089   1.560   6.360
 9902SOL     OW30604   4.105   4.546   6.856
 9902SOL    HW130605   4.172   4.518   6.925
 9902SOL    HW230606   4.152   4.570   6.772
 9903SOL     OW30607   3.129   0.942   0.629
 9903SOL    HW130608   3.077   0.872   0.677
 9903SOL    HW230609   3.140   1.022   0.688
 9904SOL     OW30610   6.418   5.951   1.765
 9904SOL    HW130611   6.348   5.937   1.835
 9904SOL    HW230612   6.410   6.043   1.728
 9905SOL     OW30613   2.374   6.918   6.891
 9905SOL    HW130614   2.286   6.889   6.930
 9905SOL    HW230615   2.415   6.987   6.950
 9906SOL     OW30616   3.164   3.488   6.550
 9906SOL    HW130617   3.112   3.416   6.597
 9906SOL    HW230618   3.229   3.530   6.614
 9907SOL     OW30619   1.324   0.087   3.179
 9907SOL    HW130620   1.413   0.121   3.208
 9907SOL    HW230621   1.261   0.164   3.167
 9908SOL     OW30622   6.796   2.726   6.256
 9908SOL    HW130623   6.845   2.695   6.174
 9908SOL    HW230624   6.754   2.815   6.237
 9909SOL     OW30625   2.462   6.074   3.269
 9909SOL    HW130626   2.476   6.033   3.178
 9909SOL    HW230627   2.478   6.005   3.339
 9910SOL     OW30628   0.729   5.550   0.613
 9910SOL    HW130629   0.747   5.534   0.516
 9910SOL    HW230630   0.658   5.619   0.623
 9911SOL     OW30631   3.067   4.806   1.880
 9911SOL    HW130632   3.017   4.728   1.917
 9911SOL    HW230633   3.151   4.774   1.835
 9912SOL     OW30634   5.944   6.534   0.491
 9912SOL    HW130635   5.967   6.518   0.587
 9912SOL    HW230636   6.023   6.572   0.444
 9913SOL     OW30637   6.630   1.712   2.264
 9913SOL    HW130638   6.649   1.656   2.183
 9913SOL    HW230639   6.567   1.786   2.240
 9914SOL     OW30640   2.305   5.541   3.415
 9914SOL    HW130641   2.323   5.443   3.419
 9914SOL    HW230642   2.329   5.583   3.502
 9915SOL     OW30643   6.138   5.222   4.000
 9915SOL    HW130644   6.231   5.217   4.036
 9915SOL    HW230645   6.095   5.307   4.029
 9916SOL     OW30646   1.682   3.339   1.037
 9916SOL    HW130647   1.637   3.288   0.963
 9916SOL    HW230648   1.616   3.399   1.081
 9917SOL     OW30649   2.043   4.128   4.523
 9917SOL    HW130650   2.101   4.054   4.556
 9917SOL    HW230651   2.001   4.102   4.437
 9918SOL     OW30652   2.361   1.935   3.995
 9918SOL    HW130653   2.323   1.990   4.070
 9918SOL    HW230654   2.287   1.901   3.938
 9919SOL     OW30655   0.667   5.979   1.364
 9919SOL    HW130656   0.716   6.065   1.376
 9919SOL    HW230657   0.585   5.994   1.310
 9920SOL     OW30658   3.484   0.654   2.985
 9920SOL    HW130659   3.470   0.736   3.041
 9920SOL    HW230660   3.399   0.634   2.935
 9921SOL     OW30661   4.494   0.282   2.525
 9921SOL    HW130662   4.414   0.256   2.470
 9921SOL    HW230663   4.553   0.341   2.471
 9922SOL     OW30664   6.413   2.882   2.043
 9922SOL    HW130665   6.331   2.856   1.992
 9922SOL    HW230666   6.408   2.843   2.135
 9923SOL     OW30667   5.647   0.085   6.416
 9923SOL    HW130668   5.573   0.020   6.428
 9923SOL    HW230669   5.699   0.062   6.333
 9924SOL     OW30670   5.909   6.800   3.868
 9924SOL    HW130671   5.841   6.839   3.806
 9924SOL    HW230672   5.870   6.720   3.914
 9925SOL     OW30673   4.059   2.214   5.064
 9925SOL    HW130674   4.127   2.286   5.058
 9925SOL    HW230675   3.981   2.246   5.118
 9926SOL     OW30676   1.234   1.344   5.889
 9926SOL    HW130677   1.242   1.394   5.803
 9926SOL    HW230678   1.140   1.311   5.899
 9927SOL     OW30679   2.204   4.068   4.288
 9927SOL    HW130680   2.144   4.144   4.311
 9927SOL    HW230681   2.225   4.016   4.372
 9928SOL     OW30682   6.857   3.248   3.125
 9928SOL    HW130683   6.874   3.221   3.220
 9928SOL    HW230684   6.778   3.198   3.090
 9929SOL     OW30685   1.167   4.978   5.109
 9929SOL    HW130686   1.225   5.056   5.133
 9929SOL    HW230687   1.223   4.897   5.098
 9930SOL     OW30688   6.804   6.454   6.837
 9930SOL    HW130689   6.772   6.390   6.908
 9930SOL    HW230690   6.851   6.530   6.881
 9931SOL     OW30691   1.246   4.000   0.242
 9931SOL    HW130692   1.230   3.949   0.157
 9931SOL    HW230693   1.158   4.017   0.287
 9932SOL     OW30694   1.603   1.757   1.150
 9932SOL    HW130695   1.615   1.843   1.198
 9932SOL    HW230696   1.592   1.682   1.216
 9933SOL     OW30697   1.677   1.632   3.491
 9933SOL    HW130698   1.692   1.697   3.416
 9933SOL    HW230699   1.589   1.586   3.478
 9934SOL     OW30700   4.611   0.307   5.601
 9934SOL    HW130701   4.578   0.400   5.617
 9934SOL    HW230702   4.613   0.257   5.687
 9935SOL     OW30703   3.412   2.795   6.995
 9935SOL    HW130704   3.320   2.807   6.958
 9935SOL    HW230705   3.442   2.700   6.981
 9936SOL     OW30706   4.752   6.045   0.491
 9936SOL    HW130707   4.699   6.016   0.570
 9936SOL    HW230708   4.691   6.059   0.413
 9937SOL     OW30709   1.217   0.181   5.178
 9937SOL    HW130710   1.137   0.235   5.204
 9937SOL    HW230711   1.239   0.199   5.082
 9938SOL     OW30712   1.064   1.610   3.474
 9938SOL    HW130713   1.129   1.630   3.546
 9938SOL    HW230714   1.094   1.652   3.388
 9939SOL     OW30715   3.129   3.803   0.696
 9939SOL    HW130716   3.223   3.827   0.671
 9939SOL    HW230717   3.107   3.712   0.661
 9940SOL     OW30718   6.384   1.178   2.876
 9940SOL    HW130719   6.456   1.174   2.806
 9940SOL    HW230720   6.416   1.131   2.958
 9941SOL     OW30721   5.554   3.274   0.470
 9941SOL    HW130722   5.643   3.228   0.479
 9941SOL    HW230723   5.562   3.368   0.502
 9942SOL     OW30724   5.262   4.628   2.893
 9942SOL    HW130725   5.173   4.655   2.930
 9942SOL    HW230726   5.258   4.533   2.861
 9943SOL     OW30727   1.459   4.561   4.986
 9943SOL    HW130728   1.413   4.619   4.919
 9943SOL    HW230729   1.497   4.481   4.940
 9944SOL     OW30730   2.007   5.325   6.926
 9944SOL    HW130731   2.101   5.302   6.903
 9944SOL    HW230732   1.949   5.244   6.911
 9945SOL     OW30733   5.932   3.303   5.584
 9945SOL    HW130734   5.888   3.333   5.669
 9945SOL    HW230735   5.876   3.329   5.506
 9946SOL     OW30736   5.976   1.710   1.000
 9946SOL    HW130737   6.035   1.631   1.017
 9946SOL    HW230738   6.015   1.766   0.928
 9947SOL     OW30739   6.986   0.581   3.021
 9947SOL    HW130740   6.998   0.617   3.114
 9947SOL    HW230741   6.901   0.618   2.983
 9948SOL     OW30742   4.793   1.255   5.460
 9948SOL    HW130743   4.725   1.270   5.532
 9948SOL    HW230744   4.832   1.163   5.471
 9949SOL     OW30745   6.520   2.967   2.573
 9949SOL    HW130746   6.601   3.017   2.604
 9949SOL    HW230747   6.530   2.870   2.596
 9950SOL     OW30748   5.349   4.467   6.442
 9950SOL    HW130749   5.252   4.454   6.464
 9950SOL    HW230750   5.383   4.549   6.489
 9951SOL     OW30751   6.611   2.265   2.501
 9951SOL    HW130752   6.663   2.271   2.586
 9951SOL    HW230753   6.612   2.354   2.455
 9952SOL     OW30754   1.640   4.650   1.370
 9952SOL    HW130755   1.557   4.595   1.370
 9952SOL    HW230756   1.710   4.604   1.426
 9953SOL     OW30757   6.545   4.203   5.019
 9953SOL    HW130758   6.641   4.178   5.006
 9953SOL    HW230759   6.534   4.302   5.005
 9954SOL     OW30760   4.303   2.435   1.851
 9954SOL    HW130761   4.402   2.424   1.847
 9954SOL    HW230762   4.277   2.521   1.808
 9955SOL     OW30763   6.136   4.763   2.156
 9955SOL    HW130764   6.200   4.727   2.224
 9955SOL    HW230765   6.108   4.689   2.094
 9956SOL     OW30766   1.371   4.562   3.532
 9956SOL    HW130767   1.372   4.462   3.539
 9956SOL    HW230768   1.410   4.589   3.443
 9957SOL     OW30769   5.948   6.667   0.980
 9957SOL    HW130770   5.944   6.756   0.935
 9957SOL    HW230771   5.857   6.625   0.980
 9958SOL     OW30772   6.505   6.323   5.439
 9958SOL    HW130773   6.473   6.418   5.437
 9958SOL    HW230774   6.529   6.294   5.346
 9959SOL     OW30775   5.994   5.456   0.074
 9959SOL    HW130776   6.022   5.366   0.107
 9959SOL    HW230777   6.013   5.463   7.000
 9960SOL     OW30778   6.546   0.278   6.546
 9960SOL    HW130779   6.639   0.259   6.513
 9960SOL    HW230780   6.547   0.285   6.646
 9961SOL     OW30781   2.908   0.028   7.008
 9961SOL    HW130782   2.975   0.033   0.057
 9961SOL    HW230783   2.927   6.973   6.949
 9962SOL     OW30784   4.104   1.106   1.739
 9962SOL    HW130785   4.014   1.146   1.723
 9962SOL    HW230786   4.175   1.169   1.709
 9963SOL     OW30787   0.248   0.251   6.691
 9963SOL    HW130788   0.286   0.330   6.642
 9963SOL    HW230789   0.269   0.168   6.641
 9964SOL     OW30790   4.705   5.383   5.020
 9964SOL    HW130791   4.723   5.305   5.079
 9964SOL    HW230792   4.738   5.467   5.064
 9965SOL     OW30793   2.236   5.209   4.872
 9965SOL    HW130794   2.258   5.306   4.859
 9965SOL    HW230795   2.275   5.156   4.796
 9966SOL     OW30796   2.037   4.259   1.753
 9966SOL    HW130797   2.077   4.346   1.784
 9966SOL    HW230798   2.052   4.248   1.655
 9967SOL     OW30799   6.891   0.501   2.347
 9967SOL    HW130800   6.977   0.519   2.394
 9967SOL    HW230801   6.870   0.403   2.352
 9968SOL     OW30802   4.275   6.201   0.074
 9968SOL    HW130803   4.229   6.289   0.057
 9968SOL    HW230804   4.301   6.160   7.011
 9969SOL     OW30805   0.962   6.980   3.020
 9969SOL    HW130806   1.048   6.935   3.044
 9969SOL    HW230807   0.907   6.919   2.962
 9970SOL     OW30808   0.785   3.318   1.462
 9970SOL    HW130809   0.832   3.320   1.374
 9970SOL    HW230810   0.782   3.411   1.500
 9971SOL     OW30811   0.408   5.632   5.993
 9971SOL    HW130812   0.408   5.668   6.087
 9971SOL    HW230813   0.405   5.532   5.996
 9972SOL     OW30814   2.951   4.556   5.882
 9972SOL    HW130815   2.967   4.496   5.804
 9972SOL    HW230816   2.963   4.652   5.854
 9973SOL     OW30817   3.197   2.146   2.674
 9973SOL    HW130818   3.241   2.151   2.584
 9973SOL    HW230819   3.264   2.168   2.745
 9974SOL     OW30820   0.422   3.562   3.097
 9974SOL    HW130821   0.357   3.638   3.094
 9974SOL    HW230822   0.388   3.488   3.040
 9975SOL     OW30823   1.533   4.763   6.759
 9975SOL    HW130824   1.516   4.711   6.676
 9975SOL    HW230825   1.459   4.747   6.824
 9976SOL     OW30826   4.503   5.487   4.692
 9976SOL    HW130827   4.451   5.568   4.667
 9976SOL    HW230828   4.490   5.468   4.789
 9977SOL     OW30829   3.865   0.208   5.700
 9977SOL    HW130830   3.803   0.156   5.641
 9977SOL    HW230831   3.959   0.193   5.670
 9978SOL     OW30832   6.418   3.412   6.991
 9978SOL    HW130833   6.461   3.458   0.045
 9978SOL    HW230834   6.434   3.314   6.998
 9979SOL     OW30835   3.438   3.952   3.694
 9979SOL    HW130836   3.504   4.009   3.742
 9979SOL    HW230837   3.345   3.980   3.720
 9980SOL     OW30838   0.133   6.823   6.854
 9980SOL    HW130839   0.226   6.857   6.867
 9980SOL    HW230840   0.135   6.742   6.796
 9981SOL     OW30841   5.370   1.258   1.446
 9981SOL    HW130842   5.384   1.161   1.465
 9981SOL    HW230843   5.302   1.295   1.509
 9982SOL     OW30844   2.607   1.254   5.519
 9982SOL    HW130845   2.528   1.207   5.558
 9982SOL    HW230846   2.640   1.204   5.439
 9983SOL     OW30847   0.642   2.638   1.760
 9983SOL    HW130848   0.727   2.590   1.781
 9983SOL    HW230849   0.584   2.640   1.840
 9984SOL     OW30850   1.206   4.889   0.903
 9984SOL    HW130851   1.127   4.829   0.904
 9984SOL    HW230852   1.213   4.937   0.991
 9985SOL     OW30853   5.687   4.815   6.237
 9985SOL    HW130854   5.606   4.771   6.200
 9985SOL    HW230855   5.768   4.760   6.216
 9986SOL     OW30856   5.792   4.387   6.979
 9986SOL    HW130857   5.823   4.312   6.920
 9986SOL    HW230858   5.870   4.424   0.006
 9987SOL     OW30859   5.019   1.733   0.821
 9987SOL    HW130860   5.058   1.809   0.770
 9987SOL    HW230861   5.029   1.648   0.768
 9988SOL     OW30862   5.339   6.769   4.073
 9988SOL    HW130863   5.285   6.685   4.063
 9988SOL    HW230864   5.428   6.747   4.111
 9989SOL     OW30865   6.477   5.085   1.969
 9989SOL    HW130866   6.557   5.104   1.912
 9989SOL    HW230867   6.439   5.171   2.004
 9990SOL     OW30868   0.311   6.312   2.826
 9990SOL    HW130869   0.250   6.235   2.838
 9990SOL    HW230870   0.374   6.318   2.904
 9991SOL     OW30871   2.033   3.288   1.863
 9991SOL    HW130872   1.954   3.345   1.882
 9991SOL    HW230873   2.117   3.334   1.894
 9992SOL     OW30874   2.156   4.215   0.477
 9992SOL    HW130875   2.112   4.150   0.415
 9992SOL    HW230876   2.162   4.175   0.568
 9993SOL     OW30877   3.646   0.097   4.366
 9993SOL    HW130878   3.558   0.110   4.321
 9993SOL    HW230879   3.720   0.104   4.299
 9994SOL     OW30880   5.733   4.936   5.487
 9994SOL    HW130881   5.750   4.885   5.402
 9994SOL    HW230882   5.635   4.945   5.502
 9995SOL     OW30883   4.284   1.904   5.992
 9995SOL    HW130884   4.212   1.839   5.964
 9995SOL    HW230885   4.345   1.859   6.057
 9996SOL     OW30886   2.611   4.551   1.143
 9996SOL    HW130887   2.561   4.471   1.176
 9996SOL    HW230888   2.710   4.534   1.149
 9997SOL     OW30889   5.662   0.395   3.093
 9997SOL    HW130890   5.573   0.372   3.053
 9997SOL    HW230891   5.681   0.492   3.079
 9998SOL     OW30892   5.466   3.908   2.402
 9998SOL    HW130893   5.426   3.991   2.364
 9998SOL    HW230894   5.434   3.895   2.496
 9999SOL     OW30895   0.821   0.489   4.690
 9999SOL    HW130896   0.833   0.390   4.683
 9999SOL    HW230897   0.725   0.509   4.705
10000SOL     OW30898   4.616   3.385   1.723
10000SOL    HW130899   4.577   3.297   1.696
10000SOL    HW230900   4.543   3.448   1.749
10001SOL     OW30901   4.099   6.635   1.532
10001SOL    HW130902   4.014   6.688   1.540
10001SOL    HW230903   4.078   6.538   1.537
10002SOL     OW30904   2.279   6.441   2.778
10002SOL    HW130905   2.244   6.517   2.833
10002SOL    HW230906   2.206   6.408   2.718
10003SOL     OW30907   0.544   1.289   2.808
10003SOL    HW130908   0.612   1.264   2.877
10003SOL    HW230909   0.457   1.247   2.830
10004SOL     OW30910   0.265   2.513   3.528
10004SOL    HW130911   0.362   2.489   3.525
10004SOL    HW230912   0.211   2.442   3.483
10005SOL     OW30913   2.494   6.305   2.680
10005SOL    HW130914   2.580   6.314   2.729
10005SOL    HW230915   2.425   6.365   2.722
10006SOL     OW30916   5.530   1.863   6.512
10006SOL    HW130917   5.573   1.858   6.602
10006SOL    HW230918   5.435   1.834   6.519
10007SOL     OW30919   1.840   5.011   3.267
10007SOL    HW130920   1.871   5.028   3.360
10007SOL    HW230921   1.743   4.986   3.267
10008SOL     OW30922   3.889   0.521   6.014
10008SOL    HW130923   3.867   0.441   6.070
10008SOL    HW230924   3.863   0.503   5.919
10009SOL     OW30925   1.325   5.374   1.903
10009SOL    HW130926   1.266   5.416   1.972
10009SOL    HW230927   1.278   5.376   1.814
10010SOL     OW30928   2.205   5.133   0.738
10010SOL    HW130929   2.116   5.096   0.710
10010SOL    HW230930   2.226   5.102   0.830
10011SOL     OW30931   2.990   3.351   0.094
10011SOL    HW130932   2.998   3.438   0.045
10011SOL    HW230933   3.016   3.277   0.032
10012SOL     OW30934   5.486   1.995   3.043
10012SOL    HW130935   5.485   2.008   2.944
10012SOL    HW230936   5.546   1.918   3.065
10013SOL     OW30937   0.133   6.309   5.957
10013SOL    HW130938   0.161   6.334   5.864
10013SOL    HW230939   0.082   6.223   5.954
10014SOL     OW30940   1.150   1.261   2.998
10014SOL    HW130941   1.190   1.352   2.982
10014SOL    HW230942   1.177   1.200   2.923
10015SOL     OW30943   4.019   0.763   0.020
10015SOL    HW130944   4.071   0.745   0.103
10015SOL    HW230945   3.958   0.841   0.035
10016SOL     OW30946   2.640   1.135   4.859
10016SOL    HW130947   2.715   1.195   4.887
10016SOL    HW230948   2.554   1.171   4.895
10017SOL     OW30949   3.215   1.659   3.051
10017SOL    HW130950   3.169   1.579   3.089
10017SOL    HW230951   3.298   1.631   3.004
10018SOL     OW30952   6.867   4.635   5.376
10018SOL    HW130953   6.961   4.624   5.408
10018SOL    HW230954   6.829   4.719   5.414
10019SOL     OW30955   0.060   1.942   2.902
10019SOL    HW130956   0.107   1.961   2.988
10019SOL    HW230957   0.125   1.903   2.837
10020SOL     OW30958   6.513   1.408   2.975
10020SOL    HW130959   6.468   1.349   3.043
10020SOL    HW230960   6.511   1.363   2.886
10021SOL     OW30961   2.176   3.920   1.789
10021SOL    HW130962   2.095   3.943   1.843
10021SOL    HW230963   2.200   3.996   1.730
10022SOL     OW30964   0.876   6.575   5.769
10022SOL    HW130965   0.818   6.641   5.816
10022SOL    HW230966   0.875   6.488   5.818
10023SOL     OW30967   1.123   1.472   4.765
10023SOL    HW130968   1.172   1.391   4.732
10023SOL    HW230969   1.033   1.445   4.800
10024SOL     OW30970   1.931   3.810   3.227
10024SOL    HW130971   1.875   3.745   3.176
10024SOL    HW230972   1.918   3.796   3.325
10025SOL     OW30973   0.475   2.576   1.172
10025SOL    HW130974   0.415   2.509   1.215
10025SOL    HW230975   0.464   2.665   1.217
10026SOL     OW30976   6.515   1.233   4.661
10026SOL    HW130977   6.447   1.266   4.595
10026SOL    HW230978   6.592   1.297   4.664
10027SOL     OW30979   3.399   1.518   5.911
10027SOL    HW130980   3.445   1.434   5.882
10027SOL    HW230981   3.324   1.538   5.849
10028SOL     OW30982   3.829   6.302   2.060
10028SOL    HW130983   3.783   6.391   2.061
10028SOL    HW230984   3.833   6.268   1.966
10029SOL     OW30985   6.953   5.013   4.101
10029SOL    HW130986   0.018   5.034   4.060
10029SOL    HW230987   6.952   4.918   4.131
10030SOL     OW30988   2.822   6.735   4.252
10030SOL    HW130989   2.827   6.667   4.179
10030SOL    HW230990   2.910   6.780   4.262
10031SOL     OW30991   1.709   6.742   3.766
10031SOL    HW130992   1.637   6.712   3.703
10031SOL    HW230993   1.685   6.831   3.805
10032SOL     OW30994   2.747   5.703   4.714
10032SOL    HW130995   2.700   5.615   4.720
10032SOL    HW230996   2.811   5.711   4.791
10033SOL     OW30997   1.883   1.333   4.495
10033SOL    HW130998   1.883   1.236   4.471
10033SOL    HW230999   1.926   1.386   4.422
10034SOL     OW31000   2.427   1.222   1.929
10034SOL    HW131001   2.496   1.226   1.857
10034SOL    HW231002   2.406   1.315   1.960
10035SOL     OW31003   0.445   2.905   2.262
10035SOL    HW131004   0.407   2.934   2.174
10035SOL    HW231005   0.448   2.805   2.266
10036SOL     OW31006   0.620   1.606   0.192
10036SOL    HW131007   0.584   1.514   0.206
10036SOL    HW231008   0.545   1.672   0.200
10037SOL     OW31009   6.039   0.760   6.096
10037SOL    HW131010   6.113   0.705   6.056
10037SOL    HW231011   5.978   0.700   6.149
10038SOL     OW31012   4.405   0.190   6.799
10038SOL    HW131013   4.361   0.106   6.767
10038SOL    HW231014   4.464   0.169   6.877
10039SOL     OW31015   0.116   4.832   1.327
10039SOL    HW131016   0.214   4.818   1.310
10039SOL    HW231017   0.100   4.927   1.353
10040SOL     OW31018   2.994   0.547   0.593
10040SOL    HW131019   3.027   0.470   0.539
10040SOL    HW231020   2.970   0.623   0.533
10041SOL     OW31021   5.921   4.336   5.490
10041SOL    HW131022   5.968   4.424   5.484
10041SOL    HW231023   5.826   4.350   5.518
10042SOL     OW31024   6.132   0.653   5.229
10042SOL    HW131025   6.034   0.644   5.209
10042SOL    HW231026   6.161   0.579   5.289
10043SOL     OW31027   0.517   0.445   2.956
10043SOL    HW131028   0.493   0.506   2.881
10043SOL    HW231029   0.450   0.455   3.030
10044SOL     OW31030   3.063   2.168   6.796
10044SOL    HW131031   2.998   2.243   6.781
10044SOL    HW231032   3.152   2.192   6.757
10045SOL     OW31033   3.969   6.909   4.419
10045SOL    HW131034   3.992   7.001   4.386
10045SOL    HW231035   3.932   6.916   4.512
10046SOL     OW31036   6.581   2.259   0.971
10046SOL    HW131037   6.502   2.319   0.963
10046SOL    HW231038   6.615   2.262   1.066
10047SOL     OW31039   0.783   2.829   3.167
10047SOL    HW131040   0.794   2.729   3.163
10047SOL    HW231041   0.768   2.857   3.261
10048SOL     OW31042   3.086   2.179   1.818
10048SOL    HW131043   3.034   2.263   1.835
10048SOL    HW231044   3.137   2.154   1.900
10049SOL     OW31045   1.100   5.321   4.732
10049SOL    HW131046   1.006   5.296   4.756
10049SOL    HW231047   1.149   5.350   4.814
10050SOL     OW31048   5.710   1.268   5.450
10050SOL    HW131049   5.735   1.354   5.406
10050SOL    HW231050   5.672   1.286   5.541
10051SOL     OW31051   6.042   1.909   0.563
10051SOL    HW131052   6.140   1.886   0.568
10051SOL    HW231053   5.989   1.826   0.548
10052SOL     OW31054   1.784   5.450   1.002
10052SOL    HW131055   1.695   5.408   0.987
10052SOL    HW231056   1.855   5.381   0.991
10053SOL     OW31057   3.063   6.676   3.532
10053SOL    HW131058   3.115   6.742   3.478
10053SOL    HW231059   2.981   6.649   3.482
10054SOL     OW31060   5.012   4.340   3.807
10054SOL    HW131061   4.920   4.371   3.782
10054SOL    HW231062   5.011   4.301   3.899
10055SOL     OW31063   5.209   2.614   6.857
10055SOL    HW131064   5.275   2.665   6.911
10055SOL    HW231065   5.135   2.675   6.828
10056SOL     OW31066   4.848   3.822   3.005
10056SOL    HW131067   4.825   3.756   3.076
10056SOL    HW231068   4.898   3.777   2.932
10057SOL     OW31069   2.286   2.340   2.825
10057SOL    HW131070   2.252   2.434   2.820
10057SOL    HW231071   2.357   2.327   2.756
10058SOL     OW31072   0.944   4.933   3.958
10058SOL    HW131073   0.855   4.972   3.982
10058SOL    HW231074   1.006   5.006   3.931
10059SOL     OW31075   4.611   6.247   1.855
10059SOL    HW131076   4.662   6.331   1.835
10059SOL    HW231077   4.583   6.204   1.769
10060SOL     OW31078   2.302   2.255   2.330
10060SOL    HW131079   2.376   2.256   2.396
10060SOL    HW231080   2.296   2.165   2.287
10061SOL     OW31081   0.028   1.775   5.285
10061SOL    HW131082   0.125   1.751   5.283
10061SOL    HW231083   0.005   1.829   5.204
10062SOL     OW31084   5.435   5.767   3.229
10062SOL    HW131085   5.368   5.738   3.161
10062SOL    HW231086   5.517   5.711   3.221
10063SOL     OW31087   0.759   2.631   2.090
10063SOL    HW131088   0.825   2.680   2.147
10063SOL    HW231089   0.790   2.536   2.078
10064SOL     OW31090   5.101   4.947   5.833
10064SOL    HW131091   5.063   4.896   5.755
10064SOL    HW231092   5.036   4.944   5.909
10065SOL     OW31093   0.265   0.301   2.809
10065SOL    HW131094   0.179   0.298   2.860
10065SOL    HW231095   0.249   0.341   2.719
10066SOL     OW31096   6.878   0.630   4.188
10066SOL    HW131097   6.845   0.592   4.274
10066SOL    HW231098   6.959   0.685   4.204
10067SOL     OW31099   4.601   6.540   3.419
10067SOL    HW131100   4.619   6.638   3.414
10067SOL    HW231101   4.505   6.525   3.442
10068SOL     OW31102   5.279   3.393   5.393
10068SOL    HW131103   5.269   3.409   5.295
10068SOL    HW231104   5.321   3.303   5.408
10069SOL     OW31105   4.731   1.603   4.404
10069SOL    HW131106   4.776   1.574   4.320
10069SOL    HW231107   4.637   1.568   4.405
10070SOL     OW31108   1.285   6.945   4.502
10070SOL    HW131109   1.378   6.907   4.503
10070SOL    HW231110   1.219   6.871   4.512
10071SOL     OW31111   4.816   4.623   5.243
10071SOL    HW131112   4.844   4.642   5.337
10071SOL    HW231113   4.717   4.611   5.238
10072SOL     OW31114   0.739   6.243   4.274
10072SOL    HW131115   0.678   6.208   4.203
10072SOL    HW231116   0.702   6.220   4.364
10073SOL     OW31117   6.763   6.497   6.184
10073SOL    HW131118   6.838   6.520   6.122
10073SOL    HW231119   6.676   6.498   6.133
10074SOL     OW31120   2.363   6.772   4.741
10074SOL    HW131121   2.366   6.747   4.645
10074SOL    HW231122   2.295   6.715   4.788
10075SOL     OW31123   0.930   2.449   4.720
10075SOL    HW131124   0.863   2.395   4.771
10075SOL    HW231125   0.998   2.486   4.784
10076SOL     OW31126   5.748   0.095   3.529
10076SOL    HW131127   5.740   0.161   3.603
10076SOL    HW231128   5.666   0.036   3.528
10077SOL     OW31129   2.489   1.428   5.809
10077SOL    HW131130   2.548   1.411   5.730
10077SOL    HW231131   2.444   1.517   5.799
10078SOL     OW31132   5.206   6.339   5.413
10078SOL    HW131133   5.297   6.299   5.399
10078SOL    HW231134   5.173   6.378   5.327
10079SOL     OW31135   0.307   2.963   6.172
10079SOL    HW131136   0.290   2.873   6.211
10079SOL    HW231137   0.384   2.957   6.108
10080SOL     OW31138   1.334   2.804   5.364
10080SOL    HW131139   1.236   2.825   5.368
10080SOL    HW231140   1.370   2.831   5.274
10081SOL     OW31141   0.650   1.067   0.496
10081SOL    HW131142   0.746   1.073   0.470
10081SOL    HW231143   0.606   0.992   0.447
10082SOL     OW31144   6.939   0.786   0.330
10082SOL    HW131145   7.011   0.812   0.395
10082SOL    HW231146   6.980   0.767   0.241
10083SOL     OW31147   5.451   1.443   4.781
10083SOL    HW131148   5.407   1.480   4.864
10083SOL    HW231149   5.424   1.347   4.769
10084SOL     OW31150   2.808   1.035   6.604
10084SOL    HW131151   2.745   0.968   6.565
10084SOL    HW231152   2.756   1.117   6.630
10085SOL     OW31153   0.951   5.707   2.988
10085SOL    HW131154   0.947   5.801   2.952
10085SOL    HW231155   0.871   5.657   2.957
10086SOL     OW31156   6.775   2.519   2.587
10086SOL    HW131157   6.852   2.514   2.522
10086SOL    HW231158   6.783   2.443   2.653
10087SOL     OW31159   2.115   0.489   3.168
10087SOL    HW131160   2.054   0.553   3.215
10087SOL    HW231161   2.139   0.526   3.078
10088SOL     OW31162   5.792   0.503   4.538
10088SOL    HW131163   5.714   0.470   4.485
10088SOL    HW231164   5.772   0.595   4.572
10089SOL     OW31165   2.353   2.742   2.314
10089SOL    HW131166   2.379   2.719   2.407
10089SOL    HW231167   2.384   2.670   2.251
10090SOL     OW31168   0.611   5.467   2.159
10090SOL    HW131169   0.656   5.387   2.198
10090SOL    HW231170   0.596   5.535   2.231
10091SOL     OW31171   0.836   1.434   4.757
10091SOL    HW131172   0.737   1.423   4.759
10091SOL    HW231173   0.871   1.411   4.666
10092SOL     OW31174   2.067   2.701   5.752
10092SOL    HW131175   2.037   2.607   5.739
10092SOL    HW231176   2.086   2.743   5.663
10093SOL     OW31177   6.579   6.915   5.672
10093SOL    HW131178   6.629   6.981   5.615
10093SOL    HW231179   6.501   6.961   5.714
10094SOL     OW31180   1.745   0.465   1.891
10094SOL    HW131181   1.654   0.499   1.868
10094SOL    HW231182   1.790   0.529   1.953
10095SOL     OW31183   0.529   2.163   5.259
10095SOL    HW131184   0.500   2.080   5.211
10095SOL    HW231185   0.478   2.242   5.223
10096SOL     OW31186   6.194   5.700   2.937
10096SOL    HW131187   6.177   5.769   2.866
10096SOL    HW231188   6.137   5.620   2.920
10097SOL     OW31189   1.423   2.639   5.804
10097SOL    HW131190   1.392   2.711   5.741
10097SOL    HW231191   1.347   2.609   5.861
10098SOL     OW31192   3.650   5.572   6.427
10098SOL    HW131193   3.582   5.518   6.476
10098SOL    HW231194   3.670   5.655   6.478
10099SOL     OW31195   0.611   3.783   3.965
10099SOL    HW131196   0.591   3.851   4.037
10099SOL    HW231197   0.653   3.703   4.006
10100SOL     OW31198   4.704   0.327   6.002
10100SOL    HW131199   4.619   0.379   6.001
10100SOL    HW231200   4.684   0.229   5.994
10101SOL     OW31201   6.917   4.537   2.525
10101SOL    HW131202   6.853   4.494   2.588
10101SOL    HW231203   6.866   4.595   2.461
10102SOL     OW31204   4.028   1.051   4.305
10102SOL    HW131205   4.082   1.075   4.386
10102SOL    HW231206   3.936   1.025   4.333
10103SOL     OW31207   0.226   2.858   0.613
10103SOL    HW131208   0.207   2.761   0.608
10103SOL    HW231209   0.322   2.875   0.588
10104SOL     OW31210   2.084   5.336   5.647
10104SOL    HW131211   2.075   5.346   5.548
10104SOL    HW231212   2.172   5.293   5.669
10105SOL     OW31213   3.756   0.576   6.960
10105SOL    HW131214   3.855   0.562   6.953
10105SOL    HW231215   3.719   0.516   0.007
10106SOL     OW31216   4.693   5.716   1.119
10106SOL    HW131217   4.684   5.622   1.085
10106SOL    HW231218   4.612   5.740   1.171
10107SOL     OW31219   5.747   1.233   6.323
10107SOL    HW131220   5.784   1.279   6.403
10107SOL    HW231221   5.821   1.189   6.272
10108SOL     OW31222   5.024   6.233   6.054
10108SOL    HW131223   5.102   6.199   6.002
10108SOL    HW231224   4.961   6.280   5.993
10109SOL     OW31225   4.935   5.809   3.357
10109SOL    HW131226   5.035   5.807   3.359
10109SOL    HW231227   4.900   5.718   3.336
10110SOL     OW31228   3.301   2.432   5.675
10110SOL    HW131229   3.366   2.507   5.659
10110SOL    HW231230   3.315   2.362   5.605
10111SOL     OW31231   6.588   2.584   1.457
10111SOL    HW131232   6.652   2.528   1.510
10111SOL    HW231233   6.506   2.600   1.512
10112SOL     OW31234   4.748   3.874   5.728
10112SOL    HW131235   4.670   3.856   5.668
10112SOL    HW231236   4.751   3.972   5.750
10113SOL     OW31237   3.207   0.102   1.381
10113SOL    HW131238   3.218   0.175   1.448
10113SOL    HW231239   3.247   0.017   1.417
10114SOL     OW31240   4.837   1.603   1.586
10114SOL    HW131241   4.800   1.537   1.521
10114SOL    HW231242   4.932   1.580   1.606
10115SOL     OW31243   1.173   1.644   4.528
10115SOL    HW131244   1.144   1.572   4.592
10115SOL    HW231245   1.269   1.631   4.504
10116SOL     OW31246   0.450   0.587   0.796
10116SOL    HW131247   0.416   0.502   0.836
10116SOL    HW231248   0.458   0.657   0.867
10117SOL     OW31249   4.235   0.000   6.274
10117SOL    HW131250   4.202   0.026   6.365
10117SOL    HW231251   4.173   0.036   6.205
10118SOL     OW31252   5.331   5.304   2.744
10118SOL    HW131253   5.269   5.238   2.703
10118SOL    HW231254   5.388   5.257   2.812
10119SOL     OW31255   1.888   7.015   6.216
10119SOL    HW131256   1.806   6.961   6.197
10119SOL    HW231257   1.891   0.012   6.314
10120SOL     OW31258   5.830   3.338   3.364
10120SOL    HW131259   5.844   3.437   3.360
10120SOL    HW231260   5.826   3.309   3.460
10121SOL     OW31261   5.769   4.718   4.135
10121SOL    HW131262   5.788   4.641   4.074
10121SOL    HW231263   5.671   4.732   4.141
10122SOL     OW31264   5.366   2.461   0.958
10122SOL    HW131265   5.412   2.411   0.885
10122SOL    HW231266   5.434   2.492   1.025
10123SOL     OW31267   0.081   6.670   0.423
10123SOL    HW131268   0.044   6.731   0.493
10123SOL    HW231269   0.137   6.599   0.467
10124SOL     OW31270   3.521   4.184   0.775
10124SOL    HW131271   3.597   4.208   0.836
10124SOL    HW231272   3.482   4.267   0.735
10125SOL     OW31273   2.468   0.640   6.991
10125SOL    HW131274   2.562   0.650   6.957
10125SOL    HW231275   2.413   0.717   6.959
10126SOL     OW31276   5.826   5.283   5.904
10126SOL    HW131277   5.840   5.276   5.805
10126SOL    HW231278   5.866   5.203   5.948
10127SOL     OW31279   4.031   4.824   5.202
10127SOL    HW131280   4.058   4.749   5.263
10127SOL    HW231281   3.932   4.827   5.195
10128SOL     OW31282   1.259   0.953   0.947
10128SOL    HW131283   1.268   1.047   0.980
10128SOL    HW231284   1.339   0.900   0.975
10129SOL     OW31285   5.572   2.647   2.958
10129SOL    HW131286   5.642   2.718   2.947
10129SOL    HW231287   5.487   2.688   2.988
10130SOL     OW31288   6.067   5.485   1.052
10130SOL    HW131289   5.979   5.519   1.085
10130SOL    HW231290   6.123   5.562   1.022
10131SOL     OW31291   0.478   6.970   0.478
10131SOL    HW131292   0.393   6.997   0.434
10131SOL    HW231293   0.502   6.877   0.450
10132SOL     OW31294   2.524   6.668   2.590
10132SOL    HW131295   2.500   6.642   2.684
10132SOL    HW231296   2.623   6.681   2.583
10133SOL     OW31297   6.147   4.455   2.617
10133SOL    HW131298   6.121   4.493   2.706
10133SOL    HW231299   6.065   4.432   2.565
10134SOL     OW31300   0.461   1.617   1.454
10134SOL    HW131301   0.484   1.713   1.468
10134SOL    HW231302   0.377   1.595   1.504
10135SOL     OW31303   3.390   6.380   2.400
10135SOL    HW131304   3.456   6.305   2.405
10135SOL    HW231305   3.410   6.436   2.319
10136SOL     OW31306   6.149   6.586   2.696
10136SOL    HW131307   6.113   6.679   2.693
10136SOL    HW231308   6.249   6.590   2.706
10137SOL     OW31309   5.575   4.659   4.516
10137SOL    HW131310   5.588   4.591   4.444
10137SOL    HW231311   5.632   4.739   4.497
10138SOL     OW31312   5.740   3.019   5.866
10138SOL    HW131313   5.708   2.928   5.893
10138SOL    HW231314   5.677   3.088   5.902
10139SOL     OW31315   4.096   3.412   3.396
10139SOL    HW131316   4.121   3.489   3.454
10139SOL    HW231317   4.005   3.379   3.422
10140SOL     OW31318   1.055   4.803   4.299
10140SOL    HW131319   0.985   4.872   4.317
10140SOL    HW231320   1.045   4.768   4.206
10141SOL     OW31321   2.268   0.540   3.366
10141SOL    HW131322   2.345   0.604   3.360
10141SOL    HW231323   2.240   0.513   3.274
10142SOL     OW31324   5.581   5.875   4.408
10142SOL    HW131325   5.668   5.841   4.374
10142SOL    HW231326   5.566   5.968   4.374
10143SOL     OW31327   4.642   6.325   1.318
10143SOL    HW131328   4.554   6.322   1.366
10143SOL    HW231329   4.645   6.407   1.260
10144SOL     OW31330   3.019   4.850   2.805
10144SOL    HW131331   2.942   4.802   2.763
10144SOL    HW231332   3.069   4.900   2.735
10145SOL     OW31333   2.840   0.273   6.162
10145SOL    HW131334   2.839   0.209   6.085
10145SOL    HW231335   2.858   0.224   6.247
10146SOL     OW31336   4.334   4.619   3.833
10146SOL    HW131337   4.395   4.549   3.870
10146SOL    HW231338   4.285   4.663   3.909
10147SOL     OW31339   4.982   5.694   4.644
10147SOL    HW131340   5.015   5.751   4.719
10147SOL    HW231341   4.921   5.623   4.680
10148SOL     OW31342   6.242   5.686   0.970
10148SOL    HW131343   6.282   5.720   1.055
10148SOL    HW231344   6.248   5.757   0.900
10149SOL     OW31345   3.831   2.714   1.470
10149SOL    HW131346   3.877   2.773   1.404
10149SOL    HW231347   3.734   2.737   1.473
10150SOL     OW31348   5.598   4.325   0.916
10150SOL    HW131349   5.672   4.345   0.980
10150SOL    HW231350   5.591   4.226   0.904
10151SOL     OW31351   0.419   5.084   6.209
10151SOL    HW131352   0.501   5.141   6.196
10151SOL    HW231353   0.342   5.125   6.161
10152SOL     OW31354   0.455   5.727   4.053
10152SOL    HW131355   0.519   5.690   4.121
10152SOL    HW231356   0.423   5.654   3.995
10153SOL     OW31357   5.502   5.366   3.997
10153SOL    HW131358   5.443   5.442   4.026
10153SOL    HW231359   5.466   5.280   4.033
10154SOL     OW31360   6.456   5.979   5.552
10154SOL    HW131361   6.391   6.041   5.509
10154SOL    HW231362   6.406   5.906   5.600
10155SOL     OW31363   3.892   1.391   5.960
10155SOL    HW131364   3.895   1.390   5.860
10155SOL    HW231365   3.832   1.464   5.992
10156SOL     OW31366   5.530   0.112   2.225
10156SOL    HW131367   5.576   0.167   2.156
10156SOL    HW231368   5.559   0.143   2.316
10157SOL     OW31369   5.220   0.513   3.986
10157SOL    HW131370   5.169   0.533   4.070
10157SOL    HW231371   5.317   0.506   4.007
10158SOL     OW31372   4.815   3.361   6.017
10158SOL    HW131373   4.806   3.418   5.935
10158SOL    HW231374   4.898   3.305   6.010
10159SOL     OW31375   1.366   0.872   6.498
10159SOL    HW131376   1.331   0.965   6.511
10159SOL    HW231377   1.459   0.867   6.533
10160SOL     OW31378   0.488   6.576   3.867
10160SOL    HW131379   0.466   6.673   3.869
10160SOL    HW231380   0.496   6.545   3.772
10161SOL     OW31381   2.917   5.662   4.940
10161SOL    HW131382   3.016   5.672   4.931
10161SOL    HW231383   2.897   5.589   5.005
10162SOL     OW31384   2.730   2.140   6.308
10162SOL    HW131385   2.821   2.164   6.340
10162SOL    HW231386   2.720   2.041   6.305
10163SOL     OW31387   0.585   3.527   5.514
10163SOL    HW131388   0.580   3.626   5.528
10163SOL    HW231389   0.677   3.495   5.540
10164SOL     OW31390   1.857   2.419   6.132
10164SOL    HW131391   1.946   2.385   6.100
10164SOL    HW231392   1.830   2.369   6.214
10165SOL     OW31393   6.909   2.310   3.260
10165SOL    HW131394   6.878   2.216   3.269
10165SOL    HW231395   6.963   2.336   3.340
10166SOL     OW31396   0.673   0.894   2.201
10166SOL    HW131397   0.654   0.818   2.264
10166SOL    HW231398   0.597   0.959   2.202
10167SOL     OW31399   4.975   0.466   0.724
10167SOL    HW131400   4.940   0.381   0.686
10167SOL    HW231401   5.074   0.459   0.738
10168SOL     OW31402   6.955   4.456   5.175
10168SOL    HW131403   6.897   4.523   5.220
10168SOL    HW231404   6.978   4.383   5.239
10169SOL     OW31405   6.843   4.238   5.020
10169SOL    HW131406   6.809   4.283   4.937
10169SOL    HW231407   6.871   4.307   5.086
10170SOL     OW31408   1.291   4.706   4.794
10170SOL    HW131409   1.252   4.623   4.833
10170SOL    HW231410   1.234   4.739   4.720
10171SOL     OW31411   6.217   2.614   6.187
10171SOL    HW131412   6.232   2.655   6.277
10171SOL    HW231413   6.138   2.657   6.144
10172SOL     OW31414   5.051   0.676   4.950
10172SOL    HW131415   5.024   0.646   5.041
10172SOL    HW231416   4.976   0.725   4.907
10173SOL     OW31417   2.033   2.792   2.569
10173SOL    HW131418   1.937   2.763   2.574
10173SOL    HW231419   2.062   2.795   2.474
10174SOL     OW31420   6.529   4.212   1.307
10174SOL    HW131421   6.535   4.174   1.215
10174SOL    HW231422   6.525   4.312   1.301
10175SOL     OW31423   5.596   2.656   5.503
10175SOL    HW131424   5.575   2.604   5.586
10175SOL    HW231425   5.575   2.601   5.423
10176SOL     OW31426   2.774   3.084   0.811
10176SOL    HW131427   2.710   3.152   0.775
10176SOL    HW231428   2.722   3.008   0.852
10177SOL     OW31429   1.015   7.004   5.286
10177SOL    HW131430   1.032   6.910   5.315
10177SOL    HW231431   1.097   0.035   5.300
10178SOL     OW31432   5.469   2.908   4.775
10178SOL    HW131433   5.523   2.841   4.825
10178SOL    HW231434   5.511   2.998   4.783
10179SOL     OW31435   0.007   3.486   0.254
10179SOL    HW131436   0.009   3.530   0.164
10179SOL    HW231437   6.959   3.417   0.256
10180SOL     OW31438   1.696   6.668   6.150
10180SOL    HW131439   1.626   6.622   6.206
10180SOL    HW231440   1.658   6.753   6.113
10181SOL     OW31441   6.234   3.727   2.325
10181SOL    HW131442   6.277   3.643   2.357
10181SOL    HW231443   6.283   3.763   2.246
10182SOL     OW31444   3.977   1.586   0.772
10182SOL    HW131445   3.903   1.654   0.764
10182SOL    HW231446   3.952   1.505   0.720
10183SOL     OW31447   1.516   1.351   5.903
10183SOL    HW131448   1.582   1.377   5.833
10183SOL    HW231449   1.424   1.347   5.863
10184SOL     OW31450   4.871   7.019   6.834
10184SOL    HW131451   4.947   7.020   6.900
10184SOL    HW231452   4.867   0.084   6.788
10185SOL     OW31453   4.256   1.019   0.257
10185SOL    HW131454   4.210   1.082   0.195
10185SOL    HW231455   4.209   0.930   0.256
10186SOL     OW31456   4.713   2.357   2.887
10186SOL    HW131457   4.692   2.438   2.942
10186SOL    HW231458   4.716   2.276   2.947
10187SOL     OW31459   0.420   2.608   2.340
10187SOL    HW131460   0.364   2.639   2.417
10187SOL    HW231461   0.506   2.570   2.374
10188SOL     OW31462   3.969   5.642   0.311
10188SOL    HW131463   4.061   5.655   0.274
10188SOL    HW231464   3.902   5.647   0.236
10189SOL     OW31465   0.968   6.567   4.847
10189SOL    HW131466   0.944   6.549   4.752
10189SOL    HW231467   0.939   6.490   4.904
10190SOL     OW31468   5.710   2.953   0.074
10190SOL    HW131469   5.688   2.979   0.168
10190SOL    HW231470   5.665   2.866   0.051
10191SOL     OW31471   6.665   4.578   6.836
10191SOL    HW131472   6.733   4.612   6.772
10191SOL    HW231473   6.573   4.593   6.799
10192SOL     OW31474   3.600   1.836   0.322
10192SOL    HW131475   3.550   1.820   0.237
10192SOL    HW231476   3.649   1.923   0.316
10193SOL     OW31477   5.076   4.151   0.428
10193SOL    HW131478   5.104   4.171   0.521
10193SOL    HW231479   4.992   4.097   0.429
10194SOL     OW31480   5.043   2.682   4.815
10194SOL    HW131481   4.951   2.665   4.782
10194SOL    HW231482   5.039   2.718   4.909
10195SOL     OW31483   5.938   4.689   2.687
10195SOL    HW131484   6.035   4.684   2.711
10195SOL    HW231485   5.927   4.680   2.588
10196SOL     OW31486   0.743   1.532   4.427
10196SOL    HW131487   0.790   1.457   4.473
10196SOL    HW231488   0.808   1.584   4.373
10197SOL     OW31489   5.298   0.757   0.076
10197SOL    HW131490   5.391   0.743   0.109
10197SOL    HW231491   5.253   0.828   0.130
10198SOL     OW31492   4.157   0.064   2.524
10198SOL    HW131493   4.253   0.037   2.513
10198SOL    HW231494   4.110   0.058   2.435
10199SOL     OW31495   0.658   2.223   5.930
10199SOL    HW131496   0.691   2.141   5.976
10199SOL    HW231497   0.582   2.262   5.983
10200SOL     OW31498   5.603   2.379   2.281
10200SOL    HW131499   5.700   2.358   2.275
10200SOL    HW231500   5.563   2.380   2.189
10201SOL     OW31501   1.749   3.510   0.818
10201SOL    HW131502   1.810   3.434   0.799
10201SOL    HW231503   1.712   3.502   0.911
10202SOL     OW31504   5.434   0.253   3.530
10202SOL    HW131505   5.338   0.234   3.512
10202SOL    HW231506   5.490   0.216   3.456
10203SOL     OW31507   0.316   3.063   5.351
10203SOL    HW131508   0.230   3.088   5.305
10203SOL    HW231509   0.385   3.133   5.334
10204SOL     OW31510   5.058   4.474   6.430
10204SOL    HW131511   5.036   4.411   6.504
10204SOL    HW231512   5.020   4.440   6.344
10205SOL     OW31513   7.023   1.455   6.671
10205SOL    HW131514   0.079   1.446   6.613
10205SOL    HW231515   6.983   1.546   6.660
10206SOL     OW31516   1.944   1.907   4.793
10206SOL    HW131517   1.971   1.925   4.698
10206SOL    HW231518   1.992   1.970   4.854
10207SOL     OW31519   2.412   2.326   6.092
10207SOL    HW131520   2.363   2.250   6.136
10207SOL    HW231521   2.488   2.354   6.150
10208SOL     OW31522   6.624   0.139   5.890
10208SOL    HW131523   6.539   0.088   5.880
10208SOL    HW231524   6.604   0.235   5.908
10209SOL     OW31525   6.899   6.529   5.096
10209SOL    HW131526   6.955   6.605   5.130
10209SOL    HW231527   6.812   6.527   5.145
10210SOL     OW31528   3.603   0.360   1.771
10210SOL    HW131529   3.563   0.336   1.859
10210SOL    HW231530   3.702   0.374   1.782
10211SOL     OW31531   5.284   5.606   6.361
10211SOL    HW131532   5.188   5.629   6.375
10211SOL    HW231533   5.299   5.509   6.384
10212SOL     OW31534   0.283   0.120   0.328
10212SOL    HW131535   0.216   0.152   0.395
10212SOL    HW231536   0.366   0.175   0.336
10213SOL     OW31537   6.677   3.047   1.422
10213SOL    HW131538   6.711   3.090   1.338
10213SOL    HW231539   6.688   3.110   1.499
10214SOL     OW31540   1.507   2.719   0.650
10214SOL    HW131541   1.481   2.638   0.703
10214SOL    HW231542   1.444   2.731   0.574
10215SOL     OW31543   3.458   3.882   2.147
10215SOL    HW131544   3.521   3.959   2.136
10215SOL    HW231545   3.446   3.861   2.244
10216SOL     OW31546   0.676   6.262   1.702
10216SOL    HW131547   0.735   6.186   1.727
10216SOL    HW231548   0.606   6.274   1.773
10217SOL     OW31549   3.901   1.570   5.054
10217SOL    HW131550   3.877   1.576   5.151
10217SOL    HW231551   3.921   1.662   5.020
10218SOL     OW31552   1.255   2.716   2.800
10218SOL    HW131553   1.294   2.777   2.731
10218SOL    HW231554   1.185   2.659   2.757
10219SOL     OW31555   6.539   6.198   2.719
10219SOL    HW131556   6.538   6.179   2.817
10219SOL    HW231557   6.619   6.254   2.697
10220SOL     OW31558   3.319   3.240   0.082
10220SOL    HW131559   3.307   3.329   0.038
10220SOL    HW231560   3.343   3.253   0.178
10221SOL     OW31561   1.199   5.594   2.768
10221SOL    HW131562   1.149   5.639   2.842
10221SOL    HW231563   1.158   5.505   2.749
10222SOL     OW31564   3.010   3.295   3.534
10222SOL    HW131565   2.964   3.358   3.598
10222SOL    HW231566   3.105   3.324   3.522
10223SOL     OW31567   2.843   6.909   0.419
10223SOL    HW131568   2.775   6.906   0.493
10223SOL    HW231569   2.912   6.838   0.435
10224SOL     OW31570   6.812   3.157   3.425
10224SOL    HW131571   6.717   3.136   3.404
10224SOL    HW231572   6.863   3.071   3.438
10225SOL     OW31573   2.067   3.837   5.920
10225SOL    HW131574   2.159   3.856   5.885
10225SOL    HW231575   2.070   3.754   5.976
10226SOL     OW31576   4.363   4.336   6.583
10226SOL    HW131577   4.413   4.294   6.659
10226SOL    HW231578   4.318   4.265   6.530
10227SOL     OW31579   5.569   4.098   1.151
10227SOL    HW131580   5.659   4.059   1.171
10227SOL    HW231581   5.506   4.025   1.125
10228SOL     OW31582   5.657   0.459   0.316
10228SOL    HW131583   5.600   0.404   0.255
10228SOL    HW231584   5.742   0.411   0.335
10229SOL     OW31585   0.256   1.952   4.606
10229SOL    HW131586   0.334   2.012   4.587
10229SOL    HW231587   0.222   1.914   4.520
10230SOL     OW31588   6.055   5.986   1.776
10230SOL    HW131589   5.994   5.962   1.701
10230SOL    HW231590   6.116   6.060   1.748
10231SOL     OW31591   0.211   4.166   2.319
10231SOL    HW131592   0.203   4.096   2.248
10231SOL    HW231593   0.122   4.185   2.359
10232SOL     OW31594   4.738   4.686   2.560
10232SOL    HW131595   4.756   4.678   2.462
10232SOL    HW231596   4.706   4.779   2.580
10233SOL     OW31597   3.275   3.443   6.291
10233SOL    HW131598   3.247   3.438   6.387
10233SOL    HW231599   3.347   3.512   6.280
10234SOL     OW31600   0.807   0.631   2.106
10234SOL    HW131601   0.762   0.684   2.034
10234SOL    HW231602   0.849   0.694   2.172
10235SOL     OW31603   0.721   0.498   3.412
10235SOL    HW131604   0.642   0.531   3.360
10235SOL    HW231605   0.804   0.512   3.358
10236SOL     OW31606   1.028   0.169   2.832
10236SOL    HW131607   1.101   0.103   2.846
10236SOL    HW231608   0.943   0.134   2.872
10237SOL     OW31609   6.726   3.828   5.599
10237SOL    HW131610   6.701   3.911   5.649
10237SOL    HW231611   6.644   3.788   5.558
10238SOL     OW31612   2.859   0.114   1.147
10238SOL    HW131613   2.778   0.150   1.100
10238SOL    HW231614   2.878   0.021   1.114
10239SOL     OW31615   1.302   2.383   5.151
10239SOL    HW131616   1.241   2.343   5.083
10239SOL    HW231617   1.283   2.480   5.160
10240SOL     OW31618   1.676   6.416   1.357
10240SOL    HW131619   1.700   6.411   1.454
10240SOL    HW231620   1.731   6.350   1.305
10241SOL     OW31621   4.229   3.866   1.750
10241SOL    HW131622   4.174   3.817   1.817
10241SOL    HW231623   4.189   3.957   1.734
10242SOL     OW31624   0.778   3.653   1.500
10242SOL    HW131625   0.696   3.706   1.475
10242SOL    HW231626   0.855   3.716   1.514
10243SOL     OW31627   3.708   5.392   1.997
10243SOL    HW131628   3.691   5.303   1.955
10243SOL    HW231629   3.626   5.422   2.046
10244SOL     OW31630   1.979   5.699   1.357
10244SOL    HW131631   2.019   5.654   1.278
10244SOL    HW231632   1.884   5.725   1.336
10245SOL     OW31633   6.466   4.202   1.569
10245SOL    HW131634   6.533   4.140   1.610
10245SOL    HW231635   6.482   4.208   1.470
10246SOL     OW31636   3.822   3.325   3.500
10246SOL    HW131637   3.775   3.390   3.561
10246SOL    HW231638   3.855   3.248   3.554
10247SOL     OW31639   0.541   3.571   4.723
10247SOL    HW131640   0.483   3.629   4.665
10247SOL    HW231641   0.616   3.626   4.761
10248SOL     OW31642   0.933   1.349   4.525
10248SOL    HW131643   1.025   1.312   4.514
10248SOL    HW231644   0.865   1.279   4.501
10249SOL     OW31645   2.565   4.420   5.969
10249SOL    HW131646   2.582   4.328   6.005
10249SOL    HW231647   2.557   4.416   5.870
10250SOL     OW31648   3.157   2.793   0.388
10250SOL    HW131649   3.246   2.793   0.342
10250SOL    HW231650   3.170   2.817   0.484
10251SOL     OW31651   1.097   0.572   5.243
10251SOL    HW131652   1.171   0.594   5.180
10251SOL    HW231653   1.042   0.497   5.207
10252SOL     OW31654   5.217   3.996   5.899
10252SOL    HW131655   5.236   3.963   5.991
10252SOL    HW231656   5.292   4.053   5.867
10253SOL     OW31657   3.710   5.901   0.300
10253SOL    HW131658   3.682   5.997   0.303
10253SOL    HW231659   3.720   5.867   0.394
10254SOL     OW31660   6.458   1.431   6.474
10254SOL    HW131661   6.555   1.412   6.487
10254SOL    HW231662   6.415   1.354   6.429
10255SOL     OW31663   3.992   4.575   1.717
10255SOL    HW131664   3.939   4.657   1.695
10255SOL    HW231665   3.931   4.497   1.727
10256SOL     OW31666   2.494   1.330   4.501
10256SOL    HW131667   2.559   1.388   4.551
10256SOL    HW231668   2.517   1.234   4.514
10257SOL     OW31669   3.350   5.899   3.420
10257SOL    HW131670   3.450   5.908   3.425
10257SOL    HW231671   3.308   5.970   3.476
10258SOL     OW31672   2.979   1.510   2.243
10258SOL    HW131673   2.993   1.595   2.192
10258SOL    HW231674   3.054   1.446   2.222
10259SOL     OW31675   1.692   3.943   3.732
10259SOL    HW131676   1.657   3.927   3.640
10259SOL    HW231677   1.619   3.977   3.790
10260SOL     OW31678   0.384   0.088   3.862
10260SOL    HW131679   0.405   0.163   3.799
10260SOL    HW231680   0.313   0.118   3.926
10261SOL     OW31681   6.997   4.145   1.845
10261SOL    HW131682   6.954   4.056   1.831
10261SOL    HW231683   0.050   4.156   1.782
10262SOL     OW31684   4.000   0.582   6.642
10262SOL    HW131685   4.094   0.549   6.630
10262SOL    HW231686   3.962   0.543   6.726
10263SOL     OW31687   5.428   6.962   2.909
10263SOL    HW131688   5.447   6.953   3.007
10263SOL    HW231689   5.441   0.034   2.882
10264SOL     OW31690   6.421   0.939   6.202
10264SOL    HW131691   6.443   0.970   6.110
10264SOL    HW231692   6.505   0.914   6.250
10265SOL     OW31693   1.799   0.797   2.592
10265SOL    HW131694   1.725   0.742   2.631
10265SOL    HW231695   1.843   0.849   2.665
10266SOL     OW31696   2.565   3.724   1.412
10266SOL    HW131697   2.625   3.651   1.377
10266SOL    HW231698   2.621   3.802   1.438
10267SOL     OW31699   6.392   0.952   0.701
10267SOL    HW131700   6.337   0.882   0.656
10267SOL    HW231701   6.380   0.945   0.800
10268SOL     OW31702   3.238   5.903   2.672
10268SOL    HW131703   3.228   5.890   2.573
10268SOL    HW231704   3.167   5.963   2.706
10269SOL     OW31705   2.350   1.699   7.005
10269SOL    HW131706   2.442   1.660   7.005
10269SOL    HW231707   2.354   1.794   0.012
10270SOL     OW31708   2.745   0.122   3.410
10270SOL    HW131709   2.789   0.107   3.322
10270SOL    HW231710   2.653   0.158   3.396
10271SOL     OW31711   2.125   1.255   7.017
10271SOL    HW131712   2.198   1.280   0.056
10271SOL    HW231713   2.095   1.335   6.965
10272SOL     OW31714   5.745   6.822   5.172
10272SOL    HW131715   5.789   6.842   5.085
10272SOL    HW231716   5.762   6.728   5.199
10273SOL     OW31717   2.302   5.501   2.933
10273SOL    HW131718   2.362   5.464   3.004
10273SOL    HW231719   2.210   5.513   2.970
10274SOL     OW31720   1.082   4.127   5.166
10274SOL    HW131721   1.025   4.045   5.161
10274SOL    HW231722   1.037   4.202   5.117
10275SOL     OW31723   0.351   0.675   1.644
10275SOL    HW131724   0.332   0.769   1.614
10275SOL    HW231725   0.450   0.659   1.644
10276SOL     OW31726   3.185   4.747   5.240
10276SOL    HW131727   3.191   4.654   5.277
10276SOL    HW231728   3.159   4.742   5.143
10277SOL     OW31729   0.422   5.558   3.718
10277SOL    HW131730   0.368   5.477   3.697
10277SOL    HW231731   0.517   5.542   3.693
10278SOL     OW31732   6.338   0.216   4.447
10278SOL    HW131733   6.339   0.117   4.434
10278SOL    HW231734   6.245   0.251   4.435
10279SOL     OW31735   1.074   4.704   4.032
10279SOL    HW131736   1.139   4.676   3.961
10279SOL    HW231737   1.026   4.787   4.003
10280SOL     OW31738   6.431   5.529   1.143
10280SOL    HW131739   6.388   5.477   1.217
10280SOL    HW231740   6.377   5.519   1.060
10281SOL     OW31741   5.877   0.206   5.104
10281SOL    HW131742   5.818   0.147   5.158
10281SOL    HW231743   5.824   0.250   5.031
10282SOL     OW31744   5.062   2.577   2.982
10282SOL    HW131745   4.997   2.501   2.991
10282SOL    HW231746   5.098   2.579   2.888
10283SOL     OW31747   0.171   2.555   0.808
10283SOL    HW131748   0.148   2.513   0.896
10283SOL    HW231749   0.099   2.621   0.783
10284SOL     OW31750   0.903   4.997   5.195
10284SOL    HW131751   0.848   4.920   5.160
10284SOL    HW231752   1.000   4.981   5.174
10285SOL     OW31753   6.726   6.469   6.435
10285SOL    HW131754   6.654   6.400   6.443
10285SOL    HW231755   6.747   6.484   6.338
10286SOL     OW31756   3.164   0.951   1.605
10286SOL    HW131757   3.093   0.916   1.665
10286SOL    HW231758   3.162   0.901   1.519
10287SOL     OW31759   0.171   6.137   2.445
10287SOL    HW131760   0.153   6.062   2.508
10287SOL    HW231761   0.267   6.164   2.453
10288SOL     OW31762   3.797   5.935   4.263
10288SOL    HW131763   3.808   6.003   4.336
10288SOL    HW231764   3.731   5.968   4.196
10289SOL     OW31765   4.089   6.456   6.694
10289SOL    HW131766   4.146   6.442   6.775
10289SOL    HW231767   4.147   6.481   6.616
10290SOL     OW31768   3.452   3.224   2.307
10290SOL    HW131769   3.378   3.283   2.273
10290SOL    HW231770   3.422   3.129   2.304
10291SOL     OW31771   3.575   2.023   2.391
10291SOL    HW131772   3.560   2.046   2.295
10291SOL    HW231773   3.617   1.932   2.397
10292SOL     OW31774   7.016   0.267   5.671
10292SOL    HW131775   0.043   0.182   5.666
10292SOL    HW231776   7.014   0.299   5.766
10293SOL     OW31777   1.655   3.139   5.475
10293SOL    HW131778   1.673   3.043   5.497
10293SOL    HW231779   1.741   3.189   5.472
10294SOL     OW31780   1.348   6.775   1.591
10294SOL    HW131781   1.304   6.852   1.545
10294SOL    HW231782   1.363   6.798   1.687
10295SOL     OW31783   2.095   1.491   0.787
10295SOL    HW131784   2.157   1.522   0.859
10295SOL    HW231785   2.120   1.398   0.759
10296SOL     OW31786   6.767   2.703   5.002
10296SOL    HW131787   6.820   2.783   4.974
10296SOL    HW231788   6.670   2.717   4.980
10297SOL     OW31789   4.586   0.870   1.067
10297SOL    HW131790   4.682   0.892   1.049
10297SOL    HW231791   4.566   0.886   1.164
10298SOL     OW31792   1.112   1.493   1.804
10298SOL    HW131793   1.024   1.500   1.851
10298SOL    HW231794   1.169   1.425   1.849
10299SOL     OW31795   5.390   0.081   2.492
10299SOL    HW131796   5.400   7.008   2.516
10299SOL    HW231797   5.309   0.092   2.433
10300SOL     OW31798   1.280   3.217   0.630
10300SOL    HW131799   1.353   3.219   0.562
10300SOL    HW231800   1.296   3.289   0.698
10301SOL     OW31801   4.447   1.469   0.018
10301SOL    HW131802   4.469   1.373   0.032
10301SOL    HW231803   4.347   1.480   0.018
10302SOL     OW31804   3.367   6.093   5.376
10302SOL    HW131805   3.315   6.082   5.461
10302SOL    HW231806   3.379   6.190   5.357
10303SOL     OW31807   0.692   4.157   5.359
10303SOL    HW131808   0.699   4.192   5.452
10303SOL    HW231809   0.715   4.231   5.294
10304SOL     OW31810   5.188   5.758   1.135
10304SOL    HW131811   5.142   5.835   1.179
10304SOL    HW231812   5.128   5.718   1.066
10305SOL     OW31813   2.743   3.641   5.329
10305SOL    HW131814   2.839   3.614   5.322
10305SOL    HW231815   2.687   3.560   5.344
10306SOL     OW31816   4.112   0.893   1.142
10306SOL    HW131817   4.135   0.819   1.205
10306SOL    HW231818   4.177   0.895   1.066
10307SOL     OW31819   1.781   6.657   5.004
10307SOL    HW131820   1.866   6.676   4.954
10307SOL    HW231821   1.771   6.722   5.079
10308SOL     OW31822   2.766   4.628   1.678
10308SOL    HW131823   2.686   4.569   1.671
10308SOL    HW231824   2.832   4.587   1.741
10309SOL     OW31825   0.173   0.532   5.002
10309SOL    HW131826   0.178   0.434   4.984
10309SOL    HW231827   0.098   0.551   5.065
10310SOL     OW31828   3.160   4.175   6.059
10310SOL    HW131829   3.230   4.217   6.117
10310SOL    HW231830   3.199   4.098   6.009
10311SOL     OW31831   5.448   6.633   0.050
10311SOL    HW131832   5.430   6.728   0.029
10311SOL    HW231833   5.537   6.607   0.012
10312SOL     OW31834   2.960   6.979   2.384
10312SOL    HW131835   2.925   0.036   2.337
10312SOL    HW231836   3.056   6.994   2.409
10313SOL     OW31837   5.036   6.462   3.301
10313SOL    HW131838   5.087   6.540   3.336
10313SOL    HW231839   5.096   6.407   3.242
10314SOL     OW31840   0.940   6.880   0.281
10314SOL    HW131841   1.024   6.831   0.255
10314SOL    HW231842   0.898   6.835   0.360
10315SOL     OW31843   4.855   4.737   3.814
10315SOL    HW131844   4.946   4.728   3.855
10315SOL    HW231845   4.803   4.807   3.863
10316SOL     OW31846   1.185   1.939   0.151
10316SOL    HW131847   1.229   1.986   0.075
10316SOL    HW231848   1.218   1.976   0.238
10317SOL     OW31849   4.191   6.134   4.265
10317SOL    HW131850   4.216   6.043   4.298
10317SOL    HW231851   4.137   6.181   4.334
10318SOL     OW31852   6.084   0.130   7.018
10318SOL    HW131853   6.027   0.048   7.020
10318SOL    HW231854   6.065   0.186   0.074
10319SOL     OW31855   0.823   4.240   4.282
10319SOL    HW131856   0.848   4.270   4.189
10319SOL    HW231857   0.745   4.294   4.314
10320SOL     OW31858   6.631   0.058   3.203
10320SOL    HW131859   6.537   0.049   3.235
10320SOL    HW231860   6.631   0.102   3.113
10321SOL     OW31861   6.132   2.436   2.946
10321SOL    HW131862   6.151   2.411   2.851
10321SOL    HW231863   6.035   2.457   2.956
10322SOL     OW31864   4.575   4.523   4.900
10322SOL    HW131865   4.609   4.438   4.942
10322SOL    HW231866   4.496   4.556   4.951
10323SOL     OW31867   1.230   4.492   6.165
10323SOL    HW131868   1.310   4.509   6.108
10323SOL    HW231869   1.192   4.402   6.142
10324SOL     OW31870   3.041   3.358   2.800
10324SOL    HW131871   3.024   3.401   2.889
10324SOL    HW231872   3.127   3.391   2.763
10325SOL     OW31873   5.809   6.233   5.103
10325SOL    HW131874   5.907   6.223   5.119
10325SOL    HW231875   5.763   6.146   5.121
10326SOL     OW31876   5.369   3.634   0.043
10326SOL    HW131877   5.315   3.556   0.010
10326SOL    HW231878   5.308   3.702   0.082
10327SOL     OW31879   1.605   5.475   6.866
10327SOL    HW131880   1.697   5.505   6.840
10327SOL    HW231881   1.610   5.388   6.915
10328SOL     OW31882   5.831   2.387   2.734
10328SOL    HW131883   5.779   2.430   2.808
10328SOL    HW231884   5.848   2.291   2.756
10329SOL     OW31885   3.474   2.086   1.875
10329SOL    HW131886   3.538   2.163   1.880
10329SOL    HW231887   3.513   2.014   1.818
10330SOL     OW31888   5.176   6.592   1.810
10330SOL    HW131889   5.256   6.537   1.834
10330SOL    HW231890   5.102   6.574   1.874
10331SOL     OW31891   5.265   5.525   5.833
10331SOL    HW131892   5.342   5.480   5.877
10331SOL    HW231893   5.227   5.594   5.895
10332SOL     OW31894   1.891   1.572   6.628
10332SOL    HW131895   1.824   1.554   6.556
10332SOL    HW231896   1.924   1.666   6.621
10333SOL     OW31897   1.672   3.444   4.438
10333SOL    HW131898   1.598   3.431   4.504
10333SOL    HW231899   1.658   3.530   4.389
10334SOL     OW31900   3.560   1.434   4.386
10334SOL    HW131901   3.496   1.361   4.361
10334SOL    HW231902   3.510   1.519   4.401
10335SOL     OW31903   2.119   3.378   3.912
10335SOL    HW131904   2.119   3.279   3.926
10335SOL    HW231905   2.205   3.416   3.947
10336SOL     OW31906   5.640   6.371   3.231
10336SOL    HW131907   5.572   6.355   3.159
10336SOL    HW231908   5.731   6.345   3.197
10337SOL     OW31909   6.113   6.222   0.146
10337SOL    HW131910   6.078   6.236   0.239
10337SOL    HW231911   6.207   6.189   0.150
10338SOL     OW31912   0.800   6.485   1.698
10338SOL    HW131913   0.754   6.400   1.674
10338SOL    HW231914   0.872   6.504   1.630
10339SOL     OW31915   5.434   2.643   5.858
10339SOL    HW131916   5.354   2.583   5.861
10339SOL    HW231917   5.515   2.588   5.835
10340SOL     OW31918   2.966   4.141   6.449
10340SOL    HW131919   2.935   4.225   6.492
10340SOL    HW231920   3.055   4.115   6.485
10341SOL     OW31921   2.714   4.826   3.492
10341SOL    HW131922   2.753   4.915   3.471
10341SOL    HW231923   2.700   4.775   3.407
10342SOL     OW31924   0.611   1.158   3.553
10342SOL    HW131925   0.581   1.106   3.473
10342SOL    HW231926   0.647   1.247   3.523
10343SOL     OW31927   4.221   5.534   1.809
10343SOL    HW131928   4.161   5.613   1.815
10343SOL    HW231929   4.308   5.561   1.767
10344SOL     OW31930   4.663   6.832   6.768
10344SOL    HW131931   4.734   6.895   6.799
10344SOL    HW231932   4.698   6.777   6.692
10345SOL     OW31933   1.149   4.463   4.785
10345SOL    HW131934   1.210   4.402   4.735
10345SOL    HW231935   1.100   4.521   4.720
10346SOL     OW31936   0.571   5.790   0.408
10346SOL    HW131937   0.529   5.871   0.449
10346SOL    HW231938   0.670   5.802   0.404
10347SOL     OW31939   6.655   1.900   5.047
10347SOL    HW131940   6.633   1.952   4.964
10347SOL    HW231941   6.753   1.906   5.065
10348SOL     OW31942   0.273   4.928   1.759
10348SOL    HW131943   0.232   4.976   1.681
10348SOL    HW231944   0.218   4.944   1.840
10349SOL     OW31945   6.805   6.657   6.608
10349SOL    HW131946   6.796   6.620   6.701
10349SOL    HW231947   6.767   6.592   6.543
10350SOL     OW31948   3.708   0.745   6.063
10350SOL    HW131949   3.757   0.682   6.002
10350SOL    HW231950   3.747   0.738   6.155
10351SOL     OW31951   4.268   6.192   5.671
10351SOL    HW131952   4.255   6.142   5.585
10351SOL    HW231953   4.306   6.282   5.652
10352SOL     OW31954   4.520   5.196   6.148
10352SOL    HW131955   4.491   5.111   6.192
10352SOL    HW231956   4.443   5.260   6.145
10353SOL     OW31957   0.765   3.617   5.110
10353SOL    HW131958   0.802   3.568   5.031
10353SOL    HW231959   0.667   3.631   5.097
10354SOL     OW31960   5.203   1.474   0.956
10354SOL    HW131961   5.235   1.474   0.861
10354SOL    HW231962   5.112   1.515   0.960
10355SOL     OW31963   0.978   4.238   2.827
10355SOL    HW131964   1.048   4.166   2.819
10355SOL    HW231965   0.932   4.249   2.740
10356SOL     OW31966   0.892   2.556   5.333
10356SOL    HW131967   0.860   2.540   5.240
10356SOL    HW231968   0.935   2.473   5.368
10357SOL     OW31969   2.635   3.227   6.110
10357SOL    HW131970   2.634   3.164   6.032
10357SOL    HW231971   2.568   3.300   6.094
10358SOL     OW31972   0.784   0.645   2.421
10358SOL    HW131973   0.704   0.617   2.475
10358SOL    HW231974   0.820   0.565   2.372
10359SOL     OW31975   1.197   1.541   0.856
10359SOL    HW131976   1.171   1.448   0.826
10359SOL    HW231977   1.146   1.608   0.802
10360SOL     OW31978   7.006   4.543   4.004
10360SOL    HW131979   6.994   4.519   3.907
10360SOL    HW231980   0.023   4.466   4.052
10361SOL     OW31981   2.735   5.499   0.325
10361SOL    HW131982   2.726   5.469   0.230
10361SOL    HW231983   2.679   5.581   0.339
10362SOL     OW31984   1.111   4.420   5.671
10362SOL    HW131985   1.196   4.420   5.725
10362SOL    HW231986   1.033   4.406   5.732
10363SOL     OW31987   5.236   0.445   4.859
10363SOL    HW131988   5.267   0.482   4.772
10363SOL    HW231989   5.190   0.516   4.912
10364SOL     OW31990   1.398   4.040   0.753
10364SOL    HW131991   1.399   4.039   0.653
10364SOL    HW231992   1.488   4.067   0.787
10365SOL     OW31993   5.424   5.160   0.000
10365SOL    HW131994   5.522   5.172   0.017
10365SOL    HW231995   5.409   5.073   6.977
10366SOL     OW31996   4.290   6.957   4.093
10366SOL    HW131997   4.313   6.951   4.190
10366SOL    HW231998   4.372   6.981   4.041
10367SOL     OW31999   6.227   1.488   3.058
10367SOL    HW132000   6.278   1.428   2.995
10367SOL    HW232001   6.151   1.436   3.098
10368SOL     OW32002   2.565   0.415   1.070
10368SOL    HW132003   2.595   0.321   1.055
10368SOL    HW232004   2.618   0.476   1.011
10369SOL     OW32005   4.626   2.602   6.619
10369SOL    HW132006   4.675   2.677   6.664
10369SOL    HW232007   4.528   2.623   6.619
10370SOL     OW32008   2.511   0.605   5.239
10370SOL    HW132009   2.436   0.542   5.218
10370SOL    HW232010   2.595   0.553   5.250
10371SOL     OW32011   4.818   6.785   5.456
10371SOL    HW132012   4.883   6.835   5.512
10371SOL    HW232013   4.808   6.830   5.367
10372SOL     OW32014   0.391   0.742   3.808
10372SOL    HW132015   0.359   0.798   3.885
10372SOL    HW232016   0.326   0.749   3.733
10373SOL     OW32017   1.357   6.257   5.283
10373SOL    HW132018   1.289   6.201   5.329
10373SOL    HW232019   1.319   6.348   5.265
10374SOL     OW32020   3.450   1.304   3.075
10374SOL    HW132021   3.529   1.365   3.069
10374SOL    HW232022   3.426   1.272   2.983
10375SOL     OW32023   7.014   2.285   0.722
10375SOL    HW132024   6.971   2.318   0.806
10375SOL    HW232025   0.059   2.216   0.744
10376SOL     OW32026   6.063   0.774   4.231
10376SOL    HW132027   6.157   0.758   4.259
10376SOL    HW232028   6.016   0.686   4.221
10377SOL     OW32029   6.650   6.652   3.352
10377SOL    HW132030   6.611   6.717   3.417
10377SOL    HW232031   6.658   6.696   3.262
10378SOL     OW32032   6.112   6.499   5.748
10378SOL    HW132033   6.076   6.456   5.831
10378SOL    HW232034   6.090   6.442   5.669
10379SOL     OW32035   4.362   1.085   3.912
10379SOL    HW132036   4.349   1.051   3.819
10379SOL    HW232037   4.272   1.100   3.955
10380SOL     OW32038   3.220   0.932   4.504
10380SOL    HW132039   3.227   0.954   4.602
10380SOL    HW232040   3.304   0.960   4.458
10381SOL     OW32041   3.404   5.291   4.811
10381SOL    HW132042   3.316   5.304   4.765
10381SOL    HW232043   3.407   5.201   4.853
10382SOL     OW32044   6.910   4.975   1.690
10382SOL    HW132045   6.942   4.881   1.683
10382SOL    HW232046   6.985   5.038   1.668
10383SOL     OW32047   5.582   3.602   1.389
10383SOL    HW132048   5.659   3.634   1.444
10383SOL    HW232049   5.590   3.504   1.373
10384SOL     OW32050   5.235   1.414   6.632
10384SOL    HW132051   5.209   1.473   6.556
10384SOL    HW232052   5.323   1.372   6.612
10385SOL     OW32053   0.369   3.011   6.753
10385SOL    HW132054   0.292   3.074   6.750
10385SOL    HW232055   0.417   3.020   6.840
10386SOL     OW32056   0.357   2.001   5.980
10386SOL    HW132057   0.407   2.028   5.898
10386SOL    HW232058   0.413   1.938   6.034
10387SOL     OW32059   1.691   3.896   2.749
10387SOL    HW132060   1.708   3.967   2.817
10387SOL    HW232061   1.697   3.806   2.793
10388SOL     OW32062   1.555   4.648   2.157
10388SOL    HW132063   1.608   4.623   2.075
10388SOL    HW232064   1.594   4.730   2.198
10389SOL     OW32065   1.515   5.228   3.294
10389SOL    HW132066   1.603   5.260   3.328
10389SOL    HW232067   1.504   5.257   3.199
10390SOL     OW32068   2.116   3.427   3.237
10390SOL    HW132069   2.172   3.457   3.314
10390SOL    HW232070   2.132   3.487   3.159
10391SOL     OW32071   3.540   5.594   4.374
10391SOL    HW132072   3.595   5.566   4.453
10391SOL    HW232073   3.598   5.638   4.306
10392SOL     OW32074   0.062   5.735   6.075
10392SOL    HW132075   0.137   5.745   6.141
10392SOL    HW232076   7.018   5.671   6.111
10393SOL     OW32077   1.495   1.796   4.102
10393SOL    HW132078   1.558   1.874   4.106
10393SOL    HW232079   1.402   1.830   4.083
10394SOL     OW32080   3.190   6.953   1.125
10394SOL    HW132081   3.199   6.988   1.218
10394SOL    HW232082   3.251   7.005   1.065
10395SOL     OW32083   1.238   0.524   3.523
10395SOL    HW132084   1.219   0.427   3.534
10395SOL    HW232085   1.288   0.558   3.602
10396SOL     OW32086   0.419   0.720   4.616
10396SOL    HW132087   0.435   0.818   4.604
10396SOL    HW232088   0.424   0.675   4.527
10397SOL     OW32089   4.664   2.659   2.405
10397SOL    HW132090   4.725   2.638   2.481
10397SOL    HW232091   4.578   2.608   2.415
10398SOL     OW32092   6.949   2.423   2.338
10398SOL    HW132093   6.983   2.336   2.373
10398SOL    HW232094   6.988   2.441   2.247
10399SOL     OW32095   6.825   2.934   5.869
10399SOL    HW132096   6.785   2.842   5.865
10399SOL    HW232097   6.799   2.978   5.955
10400SOL     OW32098   1.861   5.192   2.336
10400SOL    HW132099   1.807   5.168   2.256
10400SOL    HW232100   1.817   5.156   2.418
10401SOL     OW32101   1.038   5.915   1.233
10401SOL    HW132102   1.024   5.818   1.253
10401SOL    HW232103   1.075   5.960   1.314
10402SOL     OW32104   1.542   2.272   4.399
10402SOL    HW132105   1.498   2.314   4.320
10402SOL    HW232106   1.618   2.330   4.430
10403SOL     OW32107   5.621   1.272   3.536
10403SOL    HW132108   5.692   1.336   3.506
10403SOL    HW232109   5.598   1.291   3.632
10404SOL     OW32110   6.480   0.416   4.648
10404SOL    HW132111   6.549   0.393   4.580
10404SOL    HW232112   6.389   0.409   4.608
10405SOL     OW32113   3.214   0.090   6.440
10405SOL    HW132114   3.189   0.067   6.346
10405SOL    HW232115   3.287   0.029   6.470
10406SOL     OW32116   1.171   6.291   4.835
10406SOL    HW132117   1.213   6.285   4.745
10406SOL    HW232118   1.211   6.366   4.886
10407SOL     OW32119   3.331   0.635   0.017
10407SOL    HW132120   3.335   0.733   7.019
10407SOL    HW232121   3.255   0.618   0.079
10408SOL     OW32122   3.126   0.420   2.859
10408SOL    HW132123   3.169   0.333   2.881
10408SOL    HW232124   3.026   0.408   2.857
10409SOL     OW32125   0.547   5.167   2.169
10409SOL    HW132126   0.526   5.213   2.083
10409SOL    HW232127   0.644   5.180   2.191
10410SOL     OW32128   5.169   5.591   0.577
10410SOL    HW132129   5.212   5.619   0.491
10410SOL    HW232130   5.173   5.667   0.642
10411SOL     OW32131   2.450   4.964   1.789
10411SOL    HW132132   2.522   4.969   1.858
10411SOL    HW232133   2.427   4.868   1.773
10412SOL     OW32134   0.795   3.664   6.488
10412SOL    HW132135   0.701   3.639   6.514
10412SOL    HW232136   0.851   3.672   6.571
10413SOL     OW32137   6.397   0.820   4.494
10413SOL    HW132138   6.357   0.911   4.487
10413SOL    HW232139   6.358   0.771   4.572
10414SOL     OW32140   5.751   5.508   5.256
10414SOL    HW132141   5.829   5.466   5.303
10414SOL    HW232142   5.736   5.600   5.292
10415SOL     OW32143   0.031   4.436   3.032
10415SOL    HW132144   0.107   4.473   2.979
10415SOL    HW232145   6.968   4.456   2.985
10416SOL     OW32146   5.109   0.333   0.234
10416SOL    HW132147   5.022   0.343   0.186
10416SOL    HW232148   5.113   0.243   0.277
10417SOL     OW32149   4.920   4.619   4.489
10417SOL    HW132150   4.902   4.524   4.464
10417SOL    HW232151   4.846   4.677   4.456
10418SOL     OW32152   5.640   2.980   0.323
10418SOL    HW132153   5.701   3.026   0.387
10418SOL    HW232154   5.546   3.009   0.340
10419SOL     OW32155   1.212   6.934   4.930
10419SOL    HW132156   1.219   7.007   4.861
10419SOL    HW232157   1.303   6.900   4.951
10420SOL     OW32158   6.286   4.268   4.061
10420SOL    HW132159   6.327   4.318   4.137
10420SOL    HW232160   6.271   4.330   3.983
10421SOL     OW32161   6.912   3.359   4.337
10421SOL    HW132162   6.831   3.384   4.284
10421SOL    HW232163   6.988   3.420   4.315
10422SOL     OW32164   5.985   3.122   5.841
10422SOL    HW132165   6.031   3.080   5.919
10422SOL    HW232166   5.890   3.091   5.837
10423SOL     OW32167   2.579   5.792   1.664
10423SOL    HW132168   2.534   5.875   1.694
10423SOL    HW232169   2.626   5.808   1.578
10424SOL     OW32170   4.761   0.811   2.280
10424SOL    HW132171   4.704   0.730   2.290
10424SOL    HW232172   4.743   0.854   2.192
10425SOL     OW32173   0.455   4.358   1.046
10425SOL    HW132174   0.442   4.278   0.989
10425SOL    HW232175   0.421   4.439   0.999
10426SOL     OW32176   6.379   2.559   0.300
10426SOL    HW132177   6.323   2.639   0.275
10426SOL    HW232178   6.319   2.480   0.312
10427SOL     OW32179   6.383   0.323   4.102
10427SOL    HW132180   6.445   0.245   4.105
10427SOL    HW232181   6.425   0.402   4.145
10428SOL     OW32182   1.769   0.475   4.868
10428SOL    HW132183   1.708   0.449   4.793
10428SOL    HW232184   1.857   0.427   4.859
10429SOL     OW32185   1.990   4.680   1.686
10429SOL    HW132186   2.011   4.685   1.783
10429SOL    HW232187   2.072   4.704   1.633
10430SOL     OW32188   3.296   1.295   4.407
10430SOL    HW132189   3.350   1.251   4.478
10430SOL    HW232190   3.256   1.380   4.443
10431SOL     OW32191   4.418   2.250   3.566
10431SOL    HW132192   4.402   2.325   3.629
10431SOL    HW232193   4.511   2.254   3.530
10432SOL     OW32194   1.597   4.502   1.000
10432SOL    HW132195   1.646   4.588   1.015
10432SOL    HW232196   1.498   4.518   1.009
10433SOL     OW32197   3.027   6.571   4.412
10433SOL    HW132198   2.942   6.521   4.427
10433SOL    HW232199   3.008   6.656   4.364
10434SOL     OW32200   4.385   1.921   0.530
10434SOL    HW132201   4.342   1.832   0.517
10434SOL    HW232202   4.324   1.982   0.581
10435SOL     OW32203   2.648   1.352   1.698
10435SOL    HW132204   2.700   1.403   1.629
10435SOL    HW232205   2.557   1.392   1.708
10436SOL     OW32206   1.574   3.852   4.882
10436SOL    HW132207   1.544   3.807   4.966
10436SOL    HW232208   1.526   3.938   4.870
10437SOL     OW32209   6.845   0.115   5.124
10437SOL    HW132210   6.813   0.020   5.121
10437SOL    HW232211   6.888   0.139   5.038
10438SOL     OW32212   6.714   6.157   6.627
10438SOL    HW132213   6.772   6.228   6.666
10438SOL    HW232214   6.762   6.114   6.550
10439SOL     OW32215   5.569   5.159   5.327
10439SOL    HW132216   5.544   5.084   5.388
10439SOL    HW232217   5.669   5.162   5.318
10440SOL     OW32218   6.001   2.552   1.548
10440SOL    HW132219   6.047   2.547   1.460
10440SOL    HW232220   5.903   2.535   1.537
10441SOL     OW32221   5.240   1.426   5.756
10441SOL    HW132222   5.332   1.419   5.794
10441SOL    HW232223   5.231   1.366   5.676
10442SOL     OW32224   2.666   0.730   5.980
10442SOL    HW132225   2.645   0.755   5.886
10442SOL    HW232226   2.760   0.697   5.986
10443SOL     OW32227   0.866   1.187   6.949
10443SOL    HW132228   0.821   1.275   6.963
10443SOL    HW232229   0.964   1.201   6.941
10444SOL     OW32230   4.466   5.817   3.713
10444SOL    HW132231   4.543   5.785   3.658
10444SOL    HW232232   4.402   5.742   3.727
10445SOL     OW32233   1.362   3.302   3.808
10445SOL    HW132234   1.381   3.366   3.883
10445SOL    HW232235   1.285   3.244   3.834
10446SOL     OW32236   2.971   4.879   5.098
10446SOL    HW132237   2.941   4.884   5.193
10446SOL    HW232238   2.933   4.797   5.055
10447SOL     OW32239   1.467   1.927   2.951
10447SOL    HW132240   1.502   1.859   2.886
10447SOL    HW232241   1.465   2.017   2.907
10448SOL     OW32242   0.961   5.305   2.472
10448SOL    HW132243   0.928   5.293   2.566
10448SOL    HW232244   0.970   5.402   2.452
10449SOL     OW32245   3.796   5.242   4.255
10449SOL    HW132246   3.805   5.239   4.155
10449SOL    HW232247   3.771   5.152   4.289
10450SOL     OW32248   0.523   2.359   4.331
10450SOL    HW132249   0.443   2.400   4.287
10450SOL    HW232250   0.605   2.377   4.275
10451SOL     OW32251   2.157   2.108   4.928
10451SOL    HW132252   2.185   2.181   4.990
10451SOL    HW232253   2.202   2.023   4.954
10452SOL     OW32254   6.971   2.348   4.438
10452SOL    HW132255   0.008   2.277   4.402
10452SOL    HW232256   7.000   2.437   4.405
10453SOL     OW32257   2.898   6.008   4.307
10453SOL    HW132258   2.919   5.983   4.402
10453SOL    HW232259   2.805   5.979   4.285
10454SOL     OW32260   6.773   1.731   6.845
10454SOL    HW132261   6.824   1.817   6.849
10454SOL    HW232262   6.838   1.655   6.840
10455SOL     OW32263   0.888   6.055   3.256
10455SOL    HW132264   0.920   6.149   3.264
10455SOL    HW232265   0.788   6.053   3.264
10456SOL     OW32266   1.365   5.222   6.243
10456SOL    HW132267   1.399   5.291   6.307
10456SOL    HW232268   1.387   5.250   6.150
10457SOL     OW32269   4.412   1.522   1.092
10457SOL    HW132270   4.508   1.532   1.064
10457SOL    HW232271   4.360   1.602   1.062
10458SOL     OW32272   1.924   0.234   6.944
10458SOL    HW132273   1.905   0.308   7.008
10458SOL    HW232274   1.931   0.270   6.851
10459SOL     OW32275   5.535   6.044   1.029
10459SOL    HW132276   5.530   6.084   0.937
10459SOL    HW232277   5.573   6.112   1.093
10460SOL     OW32278   6.620   1.237   6.667
10460SOL    HW132279   6.623   1.166   6.596
10460SOL    HW232280   6.531   1.236   6.712
10461SOL     OW32281   6.506   4.279   5.656
10461SOL    HW132282   6.439   4.278   5.582
10461SOL    HW232283   6.581   4.340   5.632
10462SOL     OW32284   4.376   3.564   7.009
10462SOL    HW132285   4.410   3.648   0.027
10462SOL    HW232286   4.323   3.512   0.052
10463SOL     OW32287   4.577   2.881   5.221
10463SOL    HW132288   4.532   2.970   5.230
10463SOL    HW232289   4.605   2.849   5.311
10464SOL     OW32290   6.245   4.952   1.913
10464SOL    HW132291   6.321   5.012   1.938
10464SOL    HW232292   6.177   4.953   1.986
10465SOL     OW32293   5.344   4.155   0.643
10465SOL    HW132294   5.276   4.106   0.697
10465SOL    HW232295   5.307   4.242   0.613
10466SOL     OW32296   6.375   3.674   5.749
10466SOL    HW132297   6.422   3.659   5.662
10466SOL    HW232298   6.325   3.761   5.745
10467SOL     OW32299   0.599   3.442   6.945
10467SOL    HW132300   0.608   3.453   0.021
10467SOL    HW232301   0.548   3.520   6.908
10468SOL     OW32302   1.515   4.043   3.901
10468SOL    HW132303   1.457   4.124   3.903
10468SOL    HW232304   1.458   3.961   3.898
10469SOL     OW32305   1.442   0.624   4.077
10469SOL    HW132306   1.363   0.610   4.138
10469SOL    HW232307   1.519   0.658   4.131
10470SOL     OW32308   2.736   3.947   1.452
10470SOL    HW132309   2.748   4.009   1.374
10470SOL    HW232310   2.781   3.986   1.533
10471SOL     OW32311   2.003   4.399   5.659
10471SOL    HW132312   1.969   4.418   5.567
10471SOL    HW232313   2.013   4.485   5.710
10472SOL     OW32314   4.166   5.383   5.755
10472SOL    HW132315   4.147   5.474   5.791
10472SOL    HW232316   4.258   5.381   5.716
10473SOL     OW32317   6.057   5.728   0.524
10473SOL    HW132318   6.036   5.776   0.439
10473SOL    HW232319   5.986   5.748   0.592
10474SOL     OW32320   6.251   5.858   4.985
10474SOL    HW132321   6.182   5.790   5.008
10474SOL    HW232322   6.309   5.875   5.064
10475SOL     OW32323   0.026   5.862   1.651
10475SOL    HW132324   0.090   5.928   1.691
10475SOL    HW232325   6.956   5.888   1.674
10476SOL     OW32326   5.120   6.297   1.237
10476SOL    HW132327   5.168   6.223   1.191
10476SOL    HW232328   5.050   6.258   1.298
10477SOL     OW32329   6.871   5.842   3.344
10477SOL    HW132330   6.860   5.929   3.296
10477SOL    HW232331   6.964   5.807   3.329
10478SOL     OW32332   6.753   1.294   0.225
10478SOL    HW132333   6.724   1.205   0.261
10478SOL    HW232334   6.784   1.352   0.300
10479SOL     OW32335   0.237   4.483   2.844
10479SOL    HW132336   0.263   4.386   2.853
10479SOL    HW232337   0.222   4.504   2.748
10480SOL     OW32338   2.451   1.013   3.323
10480SOL    HW132339   2.522   1.083   3.332
10480SOL    HW232340   2.435   0.971   3.412
10481SOL     OW32341   5.934   0.368   2.081
10481SOL    HW132342   5.891   0.436   2.141
10481SOL    HW232343   6.010   0.410   2.032
10482SOL     OW32344   4.911   4.279   4.421
10482SOL    HW132345   4.940   4.247   4.330
10482SOL    HW232346   4.883   4.201   4.476
10483SOL     OW32347   6.355   1.190   6.709
10483SOL    HW132348   6.317   1.112   6.759
10483SOL    HW232349   6.379   1.162   6.616
10484SOL     OW32350   6.080   0.509   1.876
10484SOL    HW132351   6.035   0.597   1.887
10484SOL    HW232352   6.109   0.498   1.781
10485SOL     OW32353   5.776   3.441   5.768
10485SOL    HW132354   5.802   3.449   5.865
10485SOL    HW232355   5.769   3.532   5.727
10486SOL     OW32356   6.231   2.744   2.853
10486SOL    HW132357   6.186   2.708   2.771
10486SOL    HW232358   6.288   2.822   2.828
10487SOL     OW32359   4.029   6.985   2.993
10487SOL    HW132360   4.035   6.955   2.898
10487SOL    HW232361   4.052   0.058   2.999
10488SOL     OW32362   3.986   3.768   6.839
10488SOL    HW132363   4.080   3.802   6.829
10488SOL    HW232364   3.924   3.846   6.852
10489SOL     OW32365   1.868   5.246   5.303
10489SOL    HW132366   1.909   5.156   5.319
10489SOL    HW232367   1.894   5.279   5.213
10490SOL     OW32368   5.962   0.369   4.699
10490SOL    HW132369   5.899   0.410   4.633
10490SOL    HW232370   5.954   0.416   4.787
10491SOL     OW32371   6.727   5.877   5.228
10491SOL    HW132372   6.780   5.806   5.181
10491SOL    HW232373   6.666   5.922   5.162
10492SOL     OW32374   5.189   3.457   5.732
10492SOL    HW132375   5.201   3.373   5.679
10492SOL    HW232376   5.167   3.532   5.670
10493SOL     OW32377   3.730   1.413   0.194
10493SOL    HW132378   3.790   1.491   0.173
10493SOL    HW232379   3.637   1.433   0.160
10494SOL     OW32380   5.518   1.394   5.121
10494SOL    HW132381   5.421   1.394   5.145
10494SOL    HW232382   5.560   1.309   5.154
10495SOL     OW32383   0.792   0.350   0.074
10495SOL    HW132384   0.794   0.323   0.170
10495SOL    HW232385   0.859   0.295   0.023
10496SOL     OW32386   7.018   0.132   5.353
10496SOL    HW132387   6.959   0.135   5.273
10496SOL    HW232388   0.087   0.160   5.327
10497SOL     OW32389   2.256   1.240   6.656
10497SOL    HW132390   2.253   1.327   6.705
10497SOL    HW232391   2.179   1.183   6.685
10498SOL     OW32392   3.305   5.581   5.528
10498SOL    HW132393   3.292   5.591   5.626
10498SOL    HW232394   3.387   5.526   5.510
10499SOL     OW32395   3.538   6.132   2.478
10499SOL    HW132396   3.638   6.128   2.470
10499SOL    HW232397   3.497   6.073   2.409
10500SOL     OW32398   2.223   1.894   6.659
10500SOL    HW132399   2.137   1.843   6.661
10500SOL    HW232400   2.241   1.931   6.750
10501SOL     OW32401   1.689   3.401   3.175
10501SOL    HW132402   1.604   3.367   3.134
10501SOL    HW232403   1.748   3.323   3.199
10502SOL     OW32404   2.793   6.547   5.070
10502SOL    HW132405   2.886   6.515   5.051
10502SOL    HW232406   2.750   6.487   5.137
10503SOL     OW32407   2.524   3.342   6.748
10503SOL    HW132408   2.437   3.293   6.736
10503SOL    HW232409   2.598   3.289   6.707
10504SOL     OW32410   2.151   2.934   0.457
10504SOL    HW132411   2.216   3.005   0.428
10504SOL    HW232412   2.125   2.950   0.552
10505SOL     OW32413   0.110   6.031   0.206
10505SOL    HW132414   0.152   5.979   0.132
10505SOL    HW232415   0.094   5.971   0.284
10506SOL     OW32416   6.850   5.353   6.047
10506SOL    HW132417   6.839   5.261   6.086
10506SOL    HW232418   6.768   5.377   5.994
10507SOL     OW32419   3.142   1.146   3.635
10507SOL    HW132420   3.241   1.135   3.642
10507SOL    HW232421   3.120   1.244   3.641
10508SOL     OW32422   5.323   5.267   3.289
10508SOL    HW132423   5.285   5.358   3.270
10508SOL    HW232424   5.419   5.266   3.260
10509SOL     OW32425   1.984   1.081   5.157
10509SOL    HW132426   2.039   1.062   5.076
10509SOL    HW232427   1.896   1.035   5.149
10510SOL     OW32428   5.665   0.712   6.326
10510SOL    HW132429   5.632   0.760   6.245
10510SOL    HW232430   5.734   0.645   6.298
10511SOL     OW32431   6.681   2.537   1.720
10511SOL    HW132432   6.778   2.524   1.744
10511SOL    HW232433   6.651   2.627   1.750
10512SOL     OW32434   2.130   0.008   6.766
10512SOL    HW132435   2.189   6.968   6.815
10512SOL    HW232436   2.146   0.101   6.798
10513SOL     OW32437   6.676   2.552   0.892
10513SOL    HW132438   6.704   2.577   0.800
10513SOL    HW232439   6.679   2.633   0.951
10514SOL     OW32440   1.871   2.915   1.578
10514SOL    HW132441   1.897   2.826   1.614
10514SOL    HW232442   1.856   2.978   1.654
10515SOL     OW32443   0.012   3.601   4.928
10515SOL    HW132444   0.075   3.608   4.850
10515SOL    HW232445   7.005   3.692   4.954
10516SOL     OW32446   2.718   0.031   0.209
10516SOL    HW132447   2.710   0.006   0.305
10516SOL    HW232448   2.803   7.018   0.172
10517SOL     OW32449   0.535   2.468   3.554
10517SOL    HW132450   0.521   2.518   3.639
10517SOL    HW232451   0.544   2.370   3.573
10518SOL     OW32452   0.704   6.423   2.999
10518SOL    HW132453   0.690   6.460   2.907
10518SOL    HW232454   0.622   6.376   3.030
10519SOL     OW32455   4.002   3.263   5.185
10519SOL    HW132456   4.002   3.267   5.285
10519SOL    HW232457   4.096   3.264   5.150
10520SOL     OW32458   2.952   4.815   6.735
10520SOL    HW132459   3.041   4.822   6.690
10520SOL    HW232460   2.962   4.834   6.832
10521SOL     OW32461   6.417   5.304   2.176
10521SOL    HW132462   6.406   5.403   2.167
10521SOL    HW232463   6.513   5.283   2.198
10522SOL     OW32464   5.906   6.810   2.679
10522SOL    HW132465   5.839   6.749   2.636
10522SOL    HW232466   5.862   6.894   2.708
10523SOL     OW32467   5.802   6.972   6.593
10523SOL    HW132468   5.805   0.024   6.658
10523SOL    HW232469   5.746   6.998   6.514
10524SOL     OW32470   4.751   1.117   5.075
10524SOL    HW132471   4.654   1.100   5.061
10524SOL    HW232472   4.763   1.204   5.124
10525SOL     OW32473   1.777   0.320   5.166
10525SOL    HW132474   1.704   0.373   5.123
10525SOL    HW232475   1.792   0.353   5.260
10526SOL     OW32476   4.452   5.567   2.587
10526SOL    HW132477   4.534   5.621   2.572
10526SOL    HW232478   4.434   5.559   2.685
10527SOL     OW32479   1.850   2.958   4.010
10527SOL    HW132480   1.925   2.894   4.026
10527SOL    HW232481   1.790   2.960   4.090
10528SOL     OW32482   5.883   4.289   6.157
10528SOL    HW132483   5.787   4.259   6.161
10528SOL    HW232484   5.942   4.213   6.183
10529SOL     OW32485   6.968   5.734   5.168
10529SOL    HW132486   6.969   5.668   5.093
10529SOL    HW232487   7.006   5.692   5.250
10530SOL     OW32488   1.321   1.572   4.970
10530SOL    HW132489   1.274   1.557   4.883
10530SOL    HW232490   1.279   1.514   5.040
10531SOL     OW32491   2.756   2.331   4.320
10531SOL    HW132492   2.696   2.401   4.281
10531SOL    HW232493   2.762   2.343   4.419
10532SOL     OW32494   3.603   3.404   4.581
10532SOL    HW132495   3.649   3.474   4.527
10532SOL    HW232496   3.636   3.407   4.675
10533SOL     OW32497   3.514   0.931   6.264
10533SOL    HW132498   3.570   0.944   6.346
10533SOL    HW232499   3.574   0.924   6.184
10534SOL     OW32500   5.723   4.401   2.044
10534SOL    HW132501   5.698   4.485   1.995
10534SOL    HW232502   5.818   4.406   2.073
10535SOL     OW32503   0.580   1.285   1.532
10535SOL    HW132504   0.639   1.334   1.596
10535SOL    HW232505   0.610   1.303   1.438
10536SOL     OW32506   5.783   5.677   2.805
10536SOL    HW132507   5.761   5.619   2.727
10536SOL    HW232508   5.878   5.664   2.832
10537SOL     OW32509   6.316   5.336   1.350
10537SOL    HW132510   6.344   5.403   1.418
10537SOL    HW232511   6.375   5.256   1.355
10538SOL     OW32512   4.443   3.321   6.556
10538SOL    HW132513   4.538   3.351   6.571
10538SOL    HW232514   4.389   3.340   6.638
10539SOL     OW32515   1.151   3.140   5.070
10539SOL    HW132516   1.227   3.106   5.014
10539SOL    HW232517   1.171   3.121   5.166
10540SOL     OW32518   3.398   0.884   0.684
10540SOL    HW132519   3.304   0.916   0.701
10540SOL    HW232520   3.446   0.874   0.771
10541SOL     OW32521   3.086   2.197   1.525
10541SOL    HW132522   3.078   2.100   1.504
10541SOL    HW232523   3.101   2.209   1.623
10542SOL     OW32524   2.311   2.365   0.482
10542SOL    HW132525   2.340   2.361   0.578
10542SOL    HW232526   2.285   2.273   0.451
10543SOL     OW32527   2.676   0.447   4.128
10543SOL    HW132528   2.699   0.440   4.225
10543SOL    HW232529   2.748   0.404   4.073
10544SOL     OW32530   0.278   2.108   1.108
10544SOL    HW132531   0.213   2.059   1.166
10544SOL    HW232532   0.260   2.206   1.111
10545SOL     OW32533   4.103   1.077   3.042
10545SOL    HW132534   4.113   1.142   3.118
10545SOL    HW232535   4.192   1.063   2.998
10546SOL     OW32536   4.638   0.524   5.184
10546SOL    HW132537   4.568   0.473   5.233
10546SOL    HW232538   4.633   0.621   5.210
10547SOL     OW32539   4.995   6.241   1.944
10547SOL    HW132540   4.999   6.232   2.043
10547SOL    HW232541   4.918   6.299   1.918
10548SOL     OW32542   4.629   4.306   5.475
10548SOL    HW132543   4.539   4.340   5.504
10548SOL    HW232544   4.634   4.309   5.375
10549SOL     OW32545   0.717   1.318   2.160
10549SOL    HW132546   0.804   1.316   2.110
10549SOL    HW232547   0.731   1.284   2.253
10550SOL     OW32548   4.537   0.005   5.258
10550SOL    HW132549   4.569   0.027   5.350
10550SOL    HW232550   4.595   0.051   5.191
10551SOL     OW32551   1.830   2.992   6.017
10551SOL    HW132552   1.867   2.908   6.058
10551SOL    HW232553   1.825   2.981   5.918
10552SOL     OW32554   3.264   1.109   5.673
10552SOL    HW132555   3.255   1.019   5.631
10552SOL    HW232556   3.176   1.157   5.667
10553SOL     OW32557   2.542   4.710   6.611
10553SOL    HW132558   2.489   4.654   6.547
10553SOL    HW232559   2.627   4.664   6.633
10554SOL     OW32560   6.165   3.360   6.144
10554SOL    HW132561   6.263   3.380   6.154
10554SOL    HW232562   6.143   3.354   6.046
10555SOL     OW32563   3.421   2.380   0.819
10555SOL    HW132564   3.356   2.430   0.876
10555SOL    HW232565   3.495   2.344   0.876
10556SOL     OW32566   1.989   4.964   3.922
10556SOL    HW132567   2.079   4.940   3.887
10556SOL    HW232568   1.919   4.909   3.877
10557SOL     OW32569   5.325   1.491   2.869
10557SOL    HW132570   5.347   1.589   2.872
10557SOL    HW232571   5.348   1.455   2.778
10558SOL     OW32572   6.009   5.825   5.944
10558SOL    HW132573   6.071   5.807   6.020
10558SOL    HW232574   5.924   5.774   5.957
10559SOL     OW32575   4.162   2.974   1.447
10559SOL    HW132576   4.229   3.022   1.390
10559SOL    HW232577   4.209   2.930   1.523
10560SOL     OW32578   0.192   1.946   4.105
10560SOL    HW132579   0.242   1.883   4.046
10560SOL    HW232580   0.129   2.001   4.050
10561SOL     OW32581   1.886   3.909   6.738
10561SOL    HW132582   1.905   3.851   6.659
10561SOL    HW232583   1.948   3.988   6.737
10562SOL     OW32584   4.494   1.848   0.777
10562SOL    HW132585   4.445   1.877   0.695
10562SOL    HW232586   4.430   1.842   0.854
10563SOL     OW32587   1.567   2.268   2.209
10563SOL    HW132588   1.477   2.311   2.213
10563SOL    HW232589   1.623   2.314   2.140
10564SOL     OW32590   0.119   1.947   2.563
10564SOL    HW132591   0.189   1.920   2.497
10564SOL    HW232592   0.078   1.866   2.604
10565SOL     OW32593   5.266   2.407   5.101
10565SOL    HW132594   5.184   2.384   5.152
10565SOL    HW232595   5.321   2.473   5.153
10566SOL     OW32596   5.084   5.652   0.217
10566SOL    HW132597   5.013   5.611   0.275
10566SOL    HW232598   5.077   5.615   0.125
10567SOL     OW32599   2.542   5.580   4.943
10567SOL    HW132600   2.487   5.631   4.877
10567SOL    HW232601   2.528   5.482   4.929
10568SOL     OW32602   3.901   0.459   3.786
10568SOL    HW132603   3.892   0.430   3.690
10568SOL    HW232604   3.817   0.505   3.815
10569SOL     OW32605   6.418   1.797   4.028
10569SOL    HW132606   6.463   1.708   4.021
10569SOL    HW232607   6.480   1.868   3.993
10570SOL     OW32608   1.132   3.537   1.529
10570SOL    HW132609   1.164   3.571   1.441
10570SOL    HW232610   1.157   3.440   1.539
10571SOL     OW32611   6.627   6.769   4.410
10571SOL    HW132612   6.598   6.676   4.389
10571SOL    HW232613   6.634   6.822   4.325
10572SOL     OW32614   6.383   3.693   2.855
10572SOL    HW132615   6.353   3.755   2.783
10572SOL    HW232616   6.316   3.692   2.929
10573SOL     OW32617   6.458   5.047   5.584
10573SOL    HW132618   6.410   4.981   5.525
10573SOL    HW232619   6.476   5.005   5.673
10574SOL     OW32620   0.603   2.429   2.414
10574SOL    HW132621   0.695   2.442   2.451
10574SOL    HW232622   0.545   2.388   2.484
10575SOL     OW32623   6.866   0.072   6.019
10575SOL    HW132624   6.822   7.017   5.976
10575SOL    HW232625   6.819   0.156   5.990
10576SOL     OW32626   0.414   5.885   3.737
10576SOL    HW132627   0.326   5.916   3.704
10576SOL    HW232628   0.402   5.834   3.822
10577SOL     OW32629   0.228   2.836   5.653
10577SOL    HW132630   0.260   2.930   5.663
10577SOL    HW232631   0.228   2.811   5.556
10578SOL     OW32632   5.121   0.898   5.376
10578SOL    HW132633   5.211   0.939   5.360
10578SOL    HW232634   5.133   0.806   5.413
10579SOL     OW32635   5.646   6.353   1.080
10579SOL    HW132636   5.743   6.339   1.101
10579SOL    HW232637   5.590   6.292   1.137
10580SOL     OW32638   0.809   5.425   0.274
10580SOL    HW132639   0.834   5.330   0.290
10580SOL    HW232640   0.715   5.431   0.241
10581SOL     OW32641   4.286   2.208   2.874
10581SOL    HW132642   4.324   2.297   2.851
10581SOL    HW232643   4.251   2.211   2.968
10582SOL     OW32644   3.226   4.166   6.902
10582SOL    HW132645   3.284   4.243   6.875
10582SOL    HW232646   3.267   4.118   6.979
10583SOL     OW32647   4.859   0.786   1.297
10583SOL    HW132648   4.808   0.771   1.382
10583SOL    HW232649   4.848   0.882   1.269
10584SOL     OW32650   5.590   6.832   1.421
10584SOL    HW132651   5.640   6.761   1.371
10584SOL    HW232652   5.625   6.922   1.394
10585SOL     OW32653   2.906   4.365   6.608
10585SOL    HW132654   2.909   4.289   6.672
10585SOL    HW232655   2.999   4.401   6.594
10586SOL     OW32656   5.133   2.186   1.818
10586SOL    HW132657   5.140   2.204   1.916
10586SOL    HW232658   5.105   2.269   1.771
10587SOL     OW32659   0.006   3.742   0.403
10587SOL    HW132660   0.005   3.665   0.340
10587SOL    HW232661   7.018   3.709   0.497
10588SOL     OW32662   2.060   5.390   3.607
10588SOL    HW132663   2.115   5.442   3.672
10588SOL    HW232664   1.965   5.420   3.613
10589SOL     OW32665   6.215   1.060   4.493
10589SOL    HW132666   6.193   1.157   4.499
10589SOL    HW232667   6.133   1.005   4.507
10590SOL     OW32668   0.933   7.018   4.562
10590SOL    HW132669   0.857   6.954   4.573
10590SOL    HW232670   0.997   6.983   4.494
10591SOL     OW32671   1.527   2.514   1.273
10591SOL    HW132672   1.615   2.560   1.261
10591SOL    HW232673   1.541   2.415   1.275
10592SOL     OW32674   4.887   1.671   5.877
10592SOL    HW132675   4.857   1.766   5.876
10592SOL    HW232676   4.827   1.616   5.818
10593SOL     OW32677   1.705   3.747   2.305
10593SOL    HW132678   1.752   3.752   2.217
10593SOL    HW232679   1.607   3.763   2.292
10594SOL     OW32680   1.682   1.439   4.626
10594SOL    HW132681   1.756   1.409   4.566
10594SOL    HW232682   1.630   1.360   4.658
10595SOL     OW32683   1.733   5.707   4.793
10595SOL    HW132684   1.768   5.637   4.731
10595SOL    HW232685   1.644   5.679   4.828
10596SOL     OW32686   2.688   1.219   1.151
10596SOL    HW132687   2.616   1.152   1.138
10596SOL    HW232688   2.711   1.261   1.063
10597SOL     OW32689   1.606   0.842   3.994
10597SOL    HW132690   1.546   0.765   3.976
10597SOL    HW232691   1.684   0.812   4.050
10598SOL     OW32692   2.997   0.762   0.777
10598SOL    HW132693   2.932   0.751   0.853
10598SOL    HW232694   3.021   0.672   0.741
10599SOL     OW32695   4.680   0.038   6.058
10599SOL    HW132696   4.689   7.001   5.979
10599SOL    HW232697   4.696   7.009   6.142
10600SOL     OW32698   1.997   2.998   5.217
10600SOL    HW132699   2.034   2.995   5.124
10600SOL    HW232700   1.937   2.920   5.232
10601SOL     OW32701   4.350   6.184   5.167
10601SOL    HW132702   4.336   6.188   5.068
10601SOL    HW232703   4.270   6.224   5.213
10602SOL     OW32704   4.897   2.606   2.213
10602SOL    HW132705   4.924   2.685   2.159
10602SOL    HW232706   4.810   2.623   2.259
10603SOL     OW32707   0.672   5.516   5.132
10603SOL    HW132708   0.759   5.563   5.150
10603SOL    HW232709   0.691   5.420   5.112
10604SOL     OW32710   0.176   4.498   6.347
10604SOL    HW132711   0.157   4.560   6.271
10604SOL    HW232712   0.147   4.540   6.433
10605SOL     OW32713   1.136   5.075   0.117
10605SOL    HW132714   1.070   5.019   0.168
10605SOL    HW232715   1.171   5.023   0.039
10606SOL     OW32716   1.271   1.074   2.135
10606SOL    HW132717   1.371   1.083   2.131
10606SOL    HW232718   1.239   1.021   2.056
10607SOL     OW32719   5.515   4.021   0.135
10607SOL    HW132720   5.523   3.937   0.080
10607SOL    HW232721   5.584   4.086   0.105
10608SOL     OW32722   5.570   5.859   2.582
10608SOL    HW132723   5.564   5.768   2.542
10608SOL    HW232724   5.659   5.899   2.560
10609SOL     OW32725   3.906   6.510   3.292
10609SOL    HW132726   3.935   6.570   3.218
10609SOL    HW232727   3.985   6.459   3.326
10610SOL     OW32728   2.485   4.595   5.223
10610SOL    HW132729   2.488   4.626   5.128
10610SOL    HW232730   2.499   4.496   5.226
10611SOL     OW32731   4.933   2.170   5.939
10611SOL    HW132732   4.929   2.145   6.035
10611SOL    HW232733   5.025   2.200   5.916
10612SOL     OW32734   2.298   0.251   1.563
10612SOL    HW132735   2.295   0.201   1.476
10612SOL    HW232736   2.268   0.346   1.548
10613SOL     OW32737   1.295   6.628   6.970
10613SOL    HW132738   1.216   6.577   6.937
10613SOL    HW232739   1.290   6.722   6.938
10614SOL     OW32740   0.641   0.992   2.621
10614SOL    HW132741   0.548   0.956   2.623
10614SOL    HW232742   0.640   1.082   2.577
10615SOL     OW32743   0.386   6.435   5.967
10615SOL    HW132744   0.417   6.490   5.889
10615SOL    HW232745   0.317   6.370   5.936
10616SOL     OW32746   3.600   5.406   1.614
10616SOL    HW132747   3.608   5.310   1.641
10616SOL    HW232748   3.619   5.465   1.693
10617SOL     OW32749   6.377   2.220   6.593
10617SOL    HW132750   6.309   2.179   6.532
10617SOL    HW232751   6.379   2.319   6.578
10618SOL     OW32752   6.576   4.176   1.021
10618SOL    HW132753   6.573   4.107   0.948
10618SOL    HW232754   6.670   4.204   1.036
10619SOL     OW32755   0.178   3.631   3.635
10619SOL    HW132756   0.254   3.566   3.636
10619SOL    HW232757   0.126   3.620   3.551
10620SOL     OW32758   1.539   5.290   3.885
10620SOL    HW132759   1.472   5.331   3.822
10620SOL    HW232760   1.491   5.234   3.953
10621SOL     OW32761   3.832   0.852   0.624
10621SOL    HW132762   3.774   0.787   0.672
10621SOL    HW232763   3.845   0.822   0.529
10622SOL     OW32764   3.929   2.182   0.563
10622SOL    HW132765   3.993   2.224   0.628
10622SOL    HW232766   3.900   2.251   0.496
10623SOL     OW32767   0.420   1.373   4.089
10623SOL    HW132768   0.517   1.351   4.076
10623SOL    HW232769   0.412   1.463   4.132
10624SOL     OW32770   2.442   1.552   3.726
10624SOL    HW132771   2.500   1.627   3.693
10624SOL    HW232772   2.355   1.552   3.677
10625SOL     OW32773   0.727   2.846   1.131
10625SOL    HW132774   0.811   2.800   1.159
10625SOL    HW232775   0.664   2.851   1.209
10626SOL     OW32776   0.635   1.911   3.216
10626SOL    HW132777   0.643   1.971   3.136
10626SOL    HW232778   0.674   1.821   3.194
10627SOL     OW32779   3.720   5.503   4.569
10627SOL    HW132780   3.697   5.411   4.538
10627SOL    HW232781   3.812   5.527   4.538
10628SOL     OW32782   0.021   6.793   5.265
10628SOL    HW132783   0.112   6.767   5.296
10628SOL    HW232784   6.988   6.815   5.345
10629SOL     OW32785   3.260   4.604   6.678
10629SOL    HW132786   3.226   4.541   6.608
10629SOL    HW232787   3.187   4.624   6.743
10630SOL     OW32788   5.652   1.576   1.671
10630SOL    HW132789   5.709   1.534   1.741
10630SOL    HW232790   5.622   1.506   1.606
10631SOL     OW32791   1.627   0.034   4.185
10631SOL    HW132792   1.695   6.989   4.212
10631SOL    HW232793   1.606   0.093   4.263
10632SOL     OW32794   6.703   2.876   0.430
10632SOL    HW132795   6.755   2.805   0.381
10632SOL    HW232796   6.655   2.933   0.365
10633SOL     OW32797   1.598   5.016   6.888
10633SOL    HW132798   1.550   4.930   6.901
10633SOL    HW232799   1.694   4.998   6.869
10634SOL     OW32800   3.439   6.430   2.103
10634SOL    HW132801   3.363   6.493   2.120
10634SOL    HW232802   3.507   6.475   2.044
10635SOL     OW32803   0.975   0.620   1.154
10635SOL    HW132804   0.954   0.712   1.185
10635SOL    HW232805   1.069   0.616   1.121
10636SOL     OW32806   5.071   1.857   6.935
10636SOL    HW132807   5.119   1.936   6.973
10636SOL    HW232808   5.010   1.819   7.005
10637SOL     OW32809   3.325   3.624   6.723
10637SOL    HW132810   3.424   3.606   6.719
10637SOL    HW232811   3.311   3.722   6.734
10638SOL     OW32812   6.982   1.334   5.352
10638SOL    HW132813   6.944   1.426   5.352
10638SOL    HW232814   6.911   1.269   5.323
10639SOL     OW32815   3.415   2.123   4.466
10639SOL    HW132816   3.464   2.093   4.548
10639SOL    HW232817   3.452   2.076   4.386
10640SOL     OW32818   4.691   6.342   0.860
10640SOL    HW132819   4.692   6.262   0.920
10640SOL    HW232820   4.751   6.413   0.898
10641SOL     OW32821   3.397   6.742   6.908
10641SOL    HW132822   3.472   6.704   6.962
10641SOL    HW232823   3.326   6.672   6.895
10642SOL     OW32824   0.325   6.019   2.109
10642SOL    HW132825   0.258   5.978   2.170
10642SOL    HW232826   0.415   6.020   2.153
10643SOL     OW32827   3.261   3.499   5.922
10643SOL    HW132828   3.188   3.557   5.885
10643SOL    HW232829   3.241   3.403   5.899
10644SOL     OW32830   4.151   1.168   5.442
10644SOL    HW132831   4.173   1.078   5.405
10644SOL    HW232832   4.082   1.213   5.385
10645SOL     OW32833   1.625   0.779   3.189
10645SOL    HW132834   1.580   0.869   3.192
10645SOL    HW232835   1.559   0.708   3.215
10646SOL     OW32836   6.665   4.898   6.559
10646SOL    HW132837   6.611   4.935   6.635
10646SOL    HW232838   6.761   4.919   6.574
10647SOL     OW32839   6.693   5.855   1.440
10647SOL    HW132840   6.749   5.937   1.432
10647SOL    HW232841   6.684   5.811   1.351
10648SOL     OW32842   4.900   3.995   6.507
10648SOL    HW132843   4.835   3.943   6.452
10648SOL    HW232844   4.975   3.935   6.535
10649SOL     OW32845   6.698   4.927   5.988
10649SOL    HW132846   6.743   5.012   6.015
10649SOL    HW232847   6.726   4.853   6.049
10650SOL     OW32848   1.895   0.290   5.703
10650SOL    HW132849   1.946   0.233   5.766
10650SOL    HW232850   1.810   0.320   5.746
10651SOL     OW32851   1.596   0.533   5.609
10651SOL    HW132852   1.524   0.600   5.627
10651SOL    HW232853   1.685   0.577   5.614
10652SOL     OW32854   4.854   0.011   0.237
10652SOL    HW132855   4.810   6.981   0.165
10652SOL    HW232856   4.794   0.014   0.317
10653SOL     OW32857   5.889   3.910   3.861
10653SOL    HW132858   5.843   3.892   3.774
10653SOL    HW232859   5.955   3.837   3.879
10654SOL     OW32860   5.090   0.320   1.533
10654SOL    HW132861   5.032   0.282   1.461
10654SOL    HW232862   5.051   0.406   1.565
10655SOL     OW32863   2.977   5.916   0.798
10655SOL    HW132864   2.952   5.910   0.702
10655SOL    HW232865   2.936   5.998   0.838
10656SOL     OW32866   0.103   2.846   5.928
10656SOL    HW132867   0.118   2.923   5.990
10656SOL    HW232868   0.185   2.830   5.874
10657SOL     OW32869   5.979   0.277   0.216
10657SOL    HW132870   5.991   0.346   0.288
10657SOL    HW232871   5.945   0.193   0.256
10658SOL     OW32872   0.070   6.275   3.948
10658SOL    HW132873   0.131   6.339   3.995
10658SOL    HW232874   0.118   6.189   3.934
10659SOL     OW32875   5.592   1.403   1.469
10659SOL    HW132876   5.672   1.356   1.434
10659SOL    HW232877   5.512   1.342   1.464
10660SOL     OW32878   4.638   4.896   5.123
10660SOL    HW132879   4.583   4.813   5.114
10660SOL    HW232880   4.685   4.915   5.037
10661SOL     OW32881   6.944   0.611   1.981
10661SOL    HW132882   6.848   0.595   2.003
10661SOL    HW232883   7.001   0.552   2.038
10662SOL     OW32884   0.563   2.503   0.646
10662SOL    HW132885   0.578   2.534   0.740
10662SOL    HW232886   0.530   2.580   0.590
10663SOL     OW32887   0.862   2.365   2.067
10663SOL    HW132888   0.948   2.329   2.029
10663SOL    HW232889   0.795   2.292   2.072
10664SOL     OW32890   2.094   5.208   6.495
10664SOL    HW132891   2.018   5.269   6.473
10664SOL    HW232892   2.160   5.208   6.419
10665SOL     OW32893   5.511   2.129   6.542
10665SOL    HW132894   5.539   2.188   6.618
10665SOL    HW232895   5.549   2.038   6.555
10666SOL     OW32896   0.215   6.481   0.545
10666SOL    HW132897   0.278   6.546   0.587
10666SOL    HW232898   0.266   6.406   0.503
10667SOL     OW32899   3.359   2.320   5.447
10667SOL    HW132900   3.381   2.222   5.448
10667SOL    HW232901   3.337   2.349   5.354
10668SOL     OW32902   1.411   0.300   6.248
10668SOL    HW132903   1.364   0.363   6.311
10668SOL    HW232904   1.466   0.353   6.184
10669SOL     OW32905   2.335   5.530   6.618
10669SOL    HW132906   2.268   5.581   6.564
10669SOL    HW232907   2.298   5.512   6.709
10670SOL     OW32908   5.860   4.173   5.267
10670SOL    HW132909   5.878   4.198   5.363
10670SOL    HW232910   5.869   4.254   5.209
10671SOL     OW32911   2.467   2.660   3.343
10671SOL    HW132912   2.461   2.622   3.435
10671SOL    HW232913   2.452   2.759   3.346
10672SOL     OW32914   6.794   2.591   0.651
10672SOL    HW132915   6.724   2.631   0.592
10672SOL    HW232916   6.834   2.511   0.606
10673SOL     OW32917   3.343   4.137   3.347
10673SOL    HW132918   3.295   4.181   3.271
10673SOL    HW232919   3.362   4.041   3.323
10674SOL     OW32920   3.952   1.325   2.652
10674SOL    HW132921   3.947   1.225   2.656
10674SOL    HW232922   4.028   1.357   2.709
10675SOL     OW32923   1.153   1.965   5.241
10675SOL    HW132924   1.188   2.031   5.174
10675SOL    HW232925   1.221   1.951   5.312
10676SOL     OW32926   6.150   1.021   6.782
10676SOL    HW132927   6.125   0.995   6.689
10676SOL    HW232928   6.089   0.975   6.847
10677SOL     OW32929   4.959   0.901   6.668
10677SOL    HW132930   5.026   0.956   6.619
10677SOL    HW232931   4.997   0.811   6.687
10678SOL     OW32932   2.382   5.411   3.979
10678SOL    HW132933   2.309   5.351   4.012
10678SOL    HW232934   2.468   5.384   4.022
10679SOL     OW32935   6.037   5.465   3.845
10679SOL    HW132936   5.985   5.532   3.897
10679SOL    HW232937   5.998   5.457   3.753
10680SOL     OW32938   0.214   2.639   3.774
10680SOL    HW132939   0.242   2.592   3.691
10680SOL    HW232940   0.131   2.692   3.756
10681SOL     OW32941   0.523   3.314   6.689
10681SOL    HW132942   0.578   3.270   6.618
10681SOL    HW232943   0.545   3.275   6.778
10682SOL     OW32944   6.208   2.229   3.697
10682SOL    HW132945   6.281   2.191   3.639
10682SOL    HW232946   6.188   2.322   3.667
10683SOL     OW32947   0.629   0.291   4.473
10683SOL    HW132948   0.657   0.267   4.566
10683SOL    HW232949   0.530   0.308   4.471
10684SOL     OW32950   5.109   6.285   0.756
10684SOL    HW132951   5.039   6.350   0.728
10684SOL    HW232952   5.073   6.192   0.748
10685SOL     OW32953   6.663   2.215   3.353
10685SOL    HW132954   6.701   2.143   3.295
10685SOL    HW232955   6.573   2.242   3.318
10686SOL     OW32956   5.783   4.480   1.410
10686SOL    HW132957   5.726   4.556   1.441
10686SOL    HW232958   5.873   4.514   1.384
10687SOL     OW32959   0.376   5.306   1.083
10687SOL    HW132960   0.416   5.263   1.002
10687SOL    HW232961   0.445   5.363   1.128
10688SOL     OW32962   1.696   5.107   1.155
10688SOL    HW132963   1.653   5.024   1.120
10688SOL    HW232964   1.694   5.178   1.084
10689SOL     OW32965   6.976   0.513   1.730
10689SOL    HW132966   6.976   0.557   1.820
10689SOL    HW232967   0.046   0.507   1.696
10690SOL     OW32968   3.677   0.531   2.815
10690SOL    HW132969   3.646   0.548   2.722
10690SOL    HW232970   3.620   0.583   2.880
10691SOL     OW32971   5.376   1.783   1.589
10691SOL    HW132972   5.329   1.840   1.521
10691SOL    HW232973   5.311   1.720   1.630
10692SOL     OW32974   5.810   6.548   4.009
10692SOL    HW132975   5.731   6.487   4.000
10692SOL    HW232976   5.880   6.522   3.943
10693SOL     OW32977   4.230   2.353   4.388
10693SOL    HW132978   4.238   2.324   4.292
10693SOL    HW232979   4.217   2.452   4.392
10694SOL     OW32980   2.974   6.297   0.112
10694SOL    HW132981   2.973   6.205   0.151
10694SOL    HW232982   3.056   6.345   0.145
10695SOL     OW32983   6.226   2.634   5.840
10695SOL    HW132984   6.127   2.633   5.828
10695SOL    HW232985   6.248   2.657   5.934
10696SOL     OW32986   6.726   0.673   1.128
10696SOL    HW132987   6.663   0.670   1.207
10696SOL    HW232988   6.738   0.767   1.098
10697SOL     OW32989   2.954   6.006   2.737
10697SOL    HW132990   2.858   5.998   2.712
10697SOL    HW232991   2.963   6.012   2.836
10698SOL     OW32992   3.998   6.902   3.720
10698SOL    HW132993   4.069   6.834   3.736
10698SOL    HW232994   3.942   6.875   3.642
10699SOL     OW32995   6.931   4.219   3.186
10699SOL    HW132996   6.964   4.302   3.140
10699SOL    HW232997   7.004   4.151   3.189
10700SOL     OW32998   0.558   2.847   3.000
10700SOL    HW132999   0.593   2.810   2.914
10700SOL    HW233000   0.625   2.831   3.073
10701SOL     OW33001   2.589   6.787   1.438
10701SOL    HW133002   2.611   6.704   1.489
10701SOL    HW233003   2.670   6.845   1.432
10702SOL     OW33004   4.968   1.752   1.087
10702SOL    HW133005   4.979   1.765   0.988
10702SOL    HW233006   4.871   1.748   1.109
10703SOL     OW33007   3.433   4.058   3.994
10703SOL    HW133008   3.343   4.055   3.950
10703SOL    HW233009   3.502   4.085   3.928
10704SOL     OW33010   5.237   4.772   1.332
10704SOL    HW133011   5.139   4.782   1.346
10704SOL    HW233012   5.286   4.836   1.391
10705SOL     OW33013   1.156   3.048   7.004
10705SOL    HW133014   1.144   3.059   0.079
10705SOL    HW233015   1.183   3.135   6.964
10706SOL     OW33016   3.050   3.556   0.646
10706SOL    HW133017   3.005   3.526   0.730
10706SOL    HW233018   3.030   3.492   0.572
10707SOL     OW33019   6.266   0.734   6.774
10707SOL    HW133020   6.295   0.643   6.804
10707SOL    HW233021   6.339   0.775   6.719
10708SOL     OW33022   4.455   3.282   1.470
10708SOL    HW133023   4.430   3.369   1.427
10708SOL    HW233024   4.405   3.271   1.555
10709SOL     OW33025   0.971   1.271   5.956
10709SOL    HW133026   0.960   1.309   6.048
10709SOL    HW233027   0.905   1.198   5.942
10710SOL     OW33028   6.707   6.942   3.628
10710SOL    HW133029   6.634   6.895   3.580
10710SOL    HW233030   6.791   6.887   3.623
10711SOL     OW33031   2.085   4.097   5.346
10711SOL    HW133032   2.117   4.180   5.392
10711SOL    HW233033   2.004   4.063   5.394
10712SOL     OW33034   3.866   2.298   5.766
10712SOL    HW133035   3.869   2.205   5.731
10712SOL    HW233036   3.959   2.334   5.773
10713SOL     OW33037   2.834   0.358   0.274
10713SOL    HW133038   2.843   0.279   0.335
10713SOL    HW233039   2.825   0.441   0.329
10714SOL     OW33040   5.026   5.573   4.410
10714SOL    HW133041   5.028   5.640   4.485
10714SOL    HW233042   4.959   5.601   4.342
10715SOL     OW33043   5.650   0.192   2.468
10715SOL    HW133044   5.694   0.269   2.515
10715SOL    HW233045   5.573   0.160   2.523
10716SOL     OW33046   6.416   2.043   2.505
10716SOL    HW133047   6.438   1.951   2.471
10716SOL    HW233048   6.499   2.099   2.506
10717SOL     OW33049   0.366   6.535   1.000
10717SOL    HW133050   0.426   6.588   1.060
10717SOL    HW233051   0.271   6.555   1.023
10718SOL     OW33052   0.469   4.999   5.341
10718SOL    HW133053   0.539   4.946   5.389
10718SOL    HW233054   0.389   4.941   5.325
10719SOL     OW33055   3.617   6.161   3.425
10719SOL    HW133056   3.571   6.233   3.374
10719SOL    HW233057   3.642   6.195   3.516
10720SOL     OW33058   1.183   3.176   5.778
10720SOL    HW133059   1.123   3.249   5.811
10720SOL    HW233060   1.136   3.124   5.707
10721SOL     OW33061   5.349   1.126   4.455
10721SOL    HW133062   5.292   1.078   4.522
10721SOL    HW233063   5.292   1.190   4.403
10722SOL     OW33064   0.625   5.062   0.426
10722SOL    HW133065   0.605   4.998   0.352
10722SOL    HW233066   0.606   5.018   0.514
10723SOL     OW33067   0.079   4.411   5.910
10723SOL    HW133068   7.007   4.389   5.930
10723SOL    HW233069   0.132   4.327   5.905
10724SOL     OW33070   4.007   6.366   5.647
10724SOL    HW133071   3.968   6.395   5.560
10724SOL    HW233072   4.018   6.446   5.707
10725SOL     OW33073   6.420   0.415   5.398
10725SOL    HW133074   6.401   0.360   5.480
10725SOL    HW233075   6.490   0.482   5.419
10726SOL     OW33076   0.188   0.417   3.573
10726SOL    HW133077   0.214   0.507   3.539
10726SOL    HW233078   0.123   0.375   3.509
10727SOL     OW33079   5.336   5.756   6.137
10727SOL    HW133080   5.357   5.836   6.194
10727SOL    HW233081   5.309   5.680   6.196
10728SOL     OW33082   4.937   6.209   4.714
10728SOL    HW133083   4.989   6.282   4.669
10728SOL    HW233084   4.926   6.133   4.650
10729SOL     OW33085   6.621   3.032   4.256
10729SOL    HW133086   6.563   2.990   4.325
10729SOL    HW233087   6.564   3.089   4.196
10730SOL     OW33088   1.215   6.131   4.104
10730SOL    HW133089   1.175   6.079   4.028
10730SOL    HW233090   1.151   6.129   4.181
10731SOL     OW33091   4.965   4.173   5.211
10731SOL    HW133092   4.968   4.262   5.165
10731SOL    HW233093   4.878   4.128   5.190
10732SOL     OW33094   5.798   5.658   2.476
10732SOL    HW133095   5.806   5.750   2.515
10732SOL    HW233096   5.802   5.663   2.377
10733SOL     OW33097   0.725   1.568   6.008
10733SOL    HW133098   0.661   1.507   5.963
10733SOL    HW233099   0.711   1.662   5.975
10734SOL     OW33100   0.424   0.981   4.518
10734SOL    HW133101   0.455   1.033   4.598
10734SOL    HW233102   0.334   1.014   4.490
10735SOL     OW33103   0.682   0.788   1.931
10735SOL    HW133104   0.594   0.815   1.891
10735SOL    HW233105   0.706   0.851   2.005
10736SOL     OW33106   5.240   6.112   4.558
10736SOL    HW133107   5.291   6.051   4.618
10736SOL    HW233108   5.153   6.069   4.534
10737SOL     OW33109   6.237   0.991   0.309
10737SOL    HW133110   6.263   1.020   0.217
10737SOL    HW233111   6.245   1.070   0.371
10738SOL     OW33112   0.478   6.295   2.171
10738SOL    HW133113   0.502   6.198   2.174
10738SOL    HW233114   0.510   6.340   2.254
10739SOL     OW33115   5.057   2.723   4.144
10739SOL    HW133116   4.984   2.722   4.212
10739SOL    HW233117   5.137   2.675   4.180
10740SOL     OW33118   3.293   1.315   6.233
10740SOL    HW133119   3.372   1.281   6.181
10740SOL    HW233120   3.286   1.264   6.319
10741SOL     OW33121   2.291   2.889   3.949
10741SOL    HW133122   2.245   2.848   3.870
10741SOL    HW233123   2.258   2.982   3.962
10742SOL     OW33124   6.672   0.092   2.638
10742SOL    HW133125   6.694   0.187   2.620
10742SOL    HW233126   6.576   0.085   2.665
10743SOL     OW33127   3.767   2.497   5.906
10743SOL    HW133128   3.800   2.431   5.839
10743SOL    HW233129   3.779   2.590   5.870
10744SOL     OW33130   1.742   1.393   0.922
10744SOL    HW133131   1.643   1.388   0.906
10744SOL    HW233132   1.768   1.489   0.930
10745SOL     OW33133   3.905   5.511   2.130
10745SOL    HW133134   3.987   5.453   2.135
10745SOL    HW233135   3.836   5.465   2.075
10746SOL     OW33136   2.835   5.416   5.605
10746SOL    HW133137   2.916   5.357   5.600
10746SOL    HW233138   2.757   5.370   5.563
10747SOL     OW33139   6.557   0.214   4.824
10747SOL    HW133140   6.490   0.265   4.770
10747SOL    HW233141   6.648   0.225   4.783
10748SOL     OW33142   3.937   6.442   2.379
10748SOL    HW133143   3.941   6.516   2.312
10748SOL    HW233144   4.026   6.397   2.385
10749SOL     OW33145   5.132   2.489   2.308
10749SOL    HW133146   5.158   2.466   2.214
10749SOL    HW233147   5.057   2.555   2.306
10750SOL     OW33148   3.375   1.648   4.394
10750SOL    HW133149   3.317   1.606   4.463
10750SOL    HW233150   3.351   1.745   4.384
10751SOL     OW33151   5.684   6.272   3.633
10751SOL    HW133152   5.635   6.206   3.576
10751SOL    HW233153   5.644   6.273   3.725
10752SOL     OW33154   6.892   6.072   6.424
10752SOL    HW133155   6.854   6.060   6.332
10752SOL    HW233156   6.937   6.162   6.429
10753SOL     OW33157   4.645   6.863   5.015
10753SOL    HW133158   4.549   6.867   4.990
10753SOL    HW233159   4.696   6.816   4.943
10754SOL     OW33160   6.509   5.567   2.020
10754SOL    HW133161   6.461   5.522   1.946
10754SOL    HW233162   6.587   5.618   1.984
10755SOL     OW33163   0.593   1.477   2.404
10755SOL    HW133164   0.619   1.512   2.314
10755SOL    HW233165   0.623   1.541   2.474
10756SOL     OW33166   0.950   6.934   6.895
10756SOL    HW133167   0.889   6.935   6.815
10756SOL    HW233168   1.045   6.928   6.865
10757SOL     OW33169   0.031   2.491   2.072
10757SOL    HW133170   0.009   2.428   1.998
10757SOL    HW233171   0.079   2.571   2.035
10758SOL     OW33172   0.190   1.447   1.273
10758SOL    HW133173   0.252   1.455   1.195
10758SOL    HW233174   0.186   1.535   1.321
10759SOL     OW33175   3.525   5.354   5.569
10759SOL    HW133176   3.490   5.274   5.520
10759SOL    HW233177   3.620   5.370   5.541
10760SOL     OW33178   1.260   4.408   6.797
10760SOL    HW133179   1.174   4.399   6.847
10760SOL    HW233180   1.246   4.384   6.701
10761SOL     OW33181   1.544   1.298   6.642
10761SOL    HW133182   1.569   1.389   6.610
10761SOL    HW233183   1.623   1.254   6.685
10762SOL     OW33184   1.351   5.663   1.045
10762SOL    HW133185   1.370   5.579   1.096
10762SOL    HW233186   1.303   5.640   0.960
10763SOL     OW33187   5.168   1.645   2.113
10763SOL    HW133188   5.136   1.627   2.020
10763SOL    HW233189   5.091   1.642   2.176
10764SOL     OW33190   5.114   6.908   4.148
10764SOL    HW133191   5.057   6.903   4.065
10764SOL    HW233192   5.193   6.848   4.138
10765SOL     OW33193   0.152   2.721   1.976
10765SOL    HW133194   0.177   2.754   1.884
10765SOL    HW233195   0.176   2.790   2.044
10766SOL     OW33196   3.645   5.450   6.884
10766SOL    HW133197   3.582   5.517   6.924
10766SOL    HW233198   3.594   5.369   6.857
10767SOL     OW33199   1.171   5.526   6.643
10767SOL    HW133200   1.266   5.550   6.663
10767SOL    HW233201   1.111   5.598   6.676
10768SOL     OW33202   6.157   6.491   6.791
10768SOL    HW133203   6.202   6.455   6.873
10768SOL    HW233204   6.066   6.451   6.783
10769SOL     OW33205   3.003   3.922   4.668
10769SOL    HW133206   2.932   3.882   4.726
10769SOL    HW233207   3.044   4.001   4.715
10770SOL     OW33208   4.407   0.696   4.726
10770SOL    HW133209   4.484   0.678   4.787
10770SOL    HW233210   4.345   0.617   4.727
10771SOL     OW33211   5.111   6.391   5.691
10771SOL    HW133212   5.018   6.426   5.697
10771SOL    HW233213   5.153   6.421   5.605
10772SOL     OW33214   4.928   3.268   4.009
10772SOL    HW133215   4.934   3.249   4.107
10772SOL    HW233216   4.896   3.186   3.961
10773SOL     OW33217   0.730   3.749   0.365
10773SOL    HW133218   0.826   3.727   0.345
10773SOL    HW233219   0.706   3.716   0.456
10774SOL     OW33220   6.338   2.967   1.043
10774SOL    HW133221   6.306   2.978   1.137
10774SOL    HW233222   6.411   3.033   1.025
10775SOL     OW33223   1.922   4.532   6.421
10775SOL    HW133224   1.977   4.493   6.348
10775SOL    HW233225   1.936   4.478   6.505
10776SOL     OW33226   0.088   3.637   3.185
10776SOL    HW133227   0.023   3.629   3.261
10776SOL    HW233228   0.151   3.559   3.187
10777SOL     OW33229   0.869   6.203   2.076
10777SOL    HW133230   0.821   6.278   2.031
10777SOL    HW233231   0.834   6.116   2.041
10778SOL     OW33232   4.725   6.807   3.673
10778SOL    HW133233   4.684   6.866   3.742
10778SOL    HW233234   4.803   6.758   3.713
10779SOL     OW33235   5.827   2.793   5.251
10779SOL    HW133236   5.857   2.738   5.329
10779SOL    HW233237   5.772   2.870   5.283
10780SOL     OW33238   1.273   5.759   4.881
10780SOL    HW133239   1.344   5.791   4.944
10780SOL    HW233240   1.317   5.716   4.801
10781SOL     OW33241   6.031   2.696   5.555
10781SOL    HW133242   5.946   2.746   5.572
10781SOL    HW233243   6.099   2.721   5.624
10782SOL     OW33244   1.666   3.317   4.835
10782SOL    HW133245   1.729   3.275   4.770
10782SOL    HW233246   1.709   3.321   4.925
10783SOL     OW33247   1.337   3.979   4.115
10783SOL    HW133248   1.299   4.069   4.133
10783SOL    HW233249   1.414   3.962   4.177
10784SOL     OW33250   4.726   5.840   3.910
10784SOL    HW133251   4.668   5.916   3.878
10784SOL    HW233252   4.760   5.789   3.830
10785SOL     OW33253   1.591   5.658   1.911
10785SOL    HW133254   1.587   5.603   1.994
10785SOL    HW233255   1.552   5.607   1.835
10786SOL     OW33256   4.872   1.398   2.578
10786SOL    HW133257   4.797   1.451   2.539
10786SOL    HW233258   4.893   1.433   2.670
10787SOL     OW33259   2.847   1.404   3.858
10787SOL    HW133260   2.825   1.309   3.835
10787SOL    HW233261   2.946   1.416   3.852
10788SOL     OW33262   1.433   2.851   6.691
10788SOL    HW133263   1.343   2.893   6.678
10788SOL    HW233264   1.443   2.825   6.788
10789SOL     OW33265   6.904   2.635   3.115
10789SOL    HW133266   6.917   2.552   3.060
10789SOL    HW233267   6.993   2.677   3.134
10790SOL     OW33268   0.032   2.960   5.173
10790SOL    HW133269   6.996   3.037   5.195
10790SOL    HW233270   0.002   2.879   5.223
10791SOL     OW33271   2.289   2.629   3.086
10791SOL    HW133272   2.334   2.648   3.173
10791SOL    HW233273   2.229   2.706   3.062
10792SOL     OW33274   3.456   0.807   2.084
10792SOL    HW133275   3.515   0.864   2.143
10792SOL    HW233276   3.362   0.815   2.115
10793SOL     OW33277   3.619   2.077   3.588
10793SOL    HW133278   3.696   2.096   3.649
10793SOL    HW233279   3.647   2.010   3.519
10794SOL     OW33280   4.930   2.747   0.227
10794SOL    HW133281   4.884   2.659   0.243
10794SOL    HW233282   5.029   2.733   0.226
10795SOL     OW33283   6.247   2.443   3.446
10795SOL    HW133284   6.186   2.513   3.408
10795SOL    HW233285   6.289   2.392   3.372
10796SOL     OW33286   6.760   2.333   6.740
10796SOL    HW133287   6.785   2.271   6.666
10796SOL    HW233288   6.661   2.338   6.749
10797SOL     OW33289   5.628   4.388   6.740
10797SOL    HW133290   5.601   4.381   6.836
10797SOL    HW233291   5.706   4.450   6.732
10798SOL     OW33292   2.844   5.666   0.537
10798SOL    HW133293   2.893   5.619   0.610
10798SOL    HW233294   2.796   5.599   0.480
10799SOL     OW33295   1.933   0.697   3.215
10799SOL    HW133296   1.846   0.718   3.171
10799SOL    HW233297   2.005   0.691   3.145
10800SOL     OW33298   0.798   0.136   5.319
10800SOL    HW133299   0.888   0.093   5.319
10800SOL    HW233300   0.732   0.076   5.273
10801SOL     OW33301   2.623   6.233   6.880
10801SOL    HW133302   2.668   6.320   6.862
10801SOL    HW233303   2.674   6.183   6.950
10802SOL     OW33304   1.069   4.853   3.513
10802SOL    HW133305   1.161   4.840   3.549
10802SOL    HW233306   1.003   4.828   3.584
10803SOL     OW33307   0.235   4.230   4.448
10803SOL    HW133308   0.270   4.324   4.451
10803SOL    HW233309   0.311   4.165   4.451
10804SOL     OW33310   5.017   5.034   6.493
10804SOL    HW133311   5.021   5.124   6.450
10804SOL    HW233312   4.950   4.977   6.446
10805SOL     OW33313   5.842   6.008   6.667
10805SOL    HW133314   5.772   6.058   6.616
10805SOL    HW233315   5.826   5.910   6.657
10806SOL     OW33316   6.472   3.147   5.339
10806SOL    HW133317   6.504   3.174   5.430
10806SOL    HW233318   6.400   3.210   5.309
10807SOL     OW33319   4.469   2.640   5.176
10807SOL    HW133320   4.371   2.625   5.186
10807SOL    HW233321   4.486   2.738   5.163
10808SOL     OW33322   0.644   2.402   1.052
10808SOL    HW133323   0.584   2.337   1.005
10808SOL    HW233324   0.589   2.457   1.116
10809SOL     OW33325   0.746   0.925   2.878
10809SOL    HW133326   0.729   1.021   2.854
10809SOL    HW233327   0.716   0.866   2.803
10810SOL     OW33328   1.878   1.948   6.374
10810SOL    HW133329   1.848   1.875   6.311
10810SOL    HW233330   1.940   2.009   6.326
10811SOL     OW33331   4.690   5.331   6.361
10811SOL    HW133332   4.634   5.292   6.288
10811SOL    HW233333   4.646   5.413   6.398
10812SOL     OW33334   6.642   2.854   2.290
10812SOL    HW133335   6.729   2.838   2.244
10812SOL    HW233336   6.619   2.951   2.284
10813SOL     OW33337   2.706   6.115   2.305
10813SOL    HW133338   2.641   6.039   2.299
10813SOL    HW233339   2.799   6.079   2.314
10814SOL     OW33340   1.714   6.048   4.227
10814SOL    HW133341   1.689   5.963   4.272
10814SOL    HW233342   1.647   6.119   4.250
10815SOL     OW33343   5.649   2.789   5.985
10815SOL    HW133344   5.562   2.764   5.943
10815SOL    HW233345   5.691   2.709   6.027
10816SOL     OW33346   2.356   2.617   1.364
10816SOL    HW133347   2.445   2.601   1.321
10816SOL    HW233348   2.347   2.558   1.444
10817SOL     OW33349   3.792   1.453   1.768
10817SOL    HW133350   3.850   1.518   1.816
10817SOL    HW233351   3.750   1.498   1.689
10818SOL     OW33352   4.464   3.544   5.607
10818SOL    HW133353   4.370   3.569   5.628
10818SOL    HW233354   4.475   3.537   5.508
10819SOL     OW33355   2.039   3.411   4.808
10819SOL    HW133356   1.990   3.488   4.847
10819SOL    HW233357   2.105   3.444   4.740
10820SOL     OW33358   0.620   6.370   5.117
10820SOL    HW133359   0.684   6.440   5.086
10820SOL    HW233360   0.566   6.338   5.040
10821SOL     OW33361   6.836   0.628   6.374
10821SOL    HW133362   6.792   0.543   6.343
10821SOL    HW233363   6.843   0.627   6.474
10822SOL     OW33364   0.109   5.591   5.772
10822SOL    HW133365   0.172   5.653   5.726
10822SOL    HW233366   0.111   5.609   5.871
10823SOL     OW33367   2.730   2.393   0.310
10823SOL    HW133368   2.679   2.314   0.277
10823SOL    HW233369   2.715   2.471   0.249
10824SOL     OW33370   5.016   1.623   4.557
10824SOL    HW133371   4.977   1.567   4.630
10824SOL    HW233372   4.947   1.639   4.487
10825SOL     OW33373   4.520   1.658   2.290
10825SOL    HW133374   4.541   1.754   2.308
10825SOL    HW233375   4.429   1.652   2.248
10826SOL     OW33376   6.960   3.419   0.711
10826SOL    HW133377   7.018   3.349   0.752
10826SOL    HW233378   7.014   3.474   0.648
10827SOL     OW33379   6.886   2.932   4.938
10827SOL    HW133380   6.900   3.022   4.896
10827SOL    HW233381   6.951   2.919   5.012
10828SOL     OW33382   3.271   4.692   6.992
10828SOL    HW133383   3.186   4.744   7.002
10828SOL    HW233384   3.263   4.605   0.018
10829SOL     OW33385   1.646   3.763   1.157
10829SOL    HW133386   1.624   3.835   1.224
10829SOL    HW233387   1.709   3.698   1.199
10830SOL     OW33388   6.574   0.554   3.842
10830SOL    HW133389   6.615   0.521   3.757
10830SOL    HW233390   6.578   0.654   3.844
10831SOL     OW33391   5.245   2.992   2.397
10831SOL    HW133392   5.219   2.939   2.317
10831SOL    HW233393   5.318   2.945   2.446
10832SOL     OW33394   1.615   2.700   2.431
10832SOL    HW133395   1.674   2.673   2.507
10832SOL    HW233396   1.664   2.687   2.344
10833SOL     OW33397   3.131   0.333   4.764
10833SOL    HW133398   3.144   0.246   4.813
10833SOL    HW233399   3.036   0.363   4.777
10834SOL     OW33400   6.651   2.340   5.666
10834SOL    HW133401   6.634   2.438   5.657
10834SOL    HW233402   6.750   2.323   5.665
10835SOL     OW33403   0.599   1.071   0.765
10835SOL    HW133404   0.642   0.983   0.786
10835SOL    HW233405   0.607   1.089   0.667
10836SOL     OW33406   0.049   1.182   1.118
10836SOL    HW133407   7.018   1.262   1.142
10836SOL    HW233408   0.117   1.166   1.189
10837SOL     OW33409   1.526   5.531   0.691
10837SOL    HW133410   1.612   5.582   0.685
10837SOL    HW233411   1.453   5.591   0.725
10838SOL     OW33412   6.463   6.558   1.347
10838SOL    HW133413   6.454   6.467   1.308
10838SOL    HW233414   6.454   6.553   1.446
10839SOL     OW33415   2.498   1.519   6.748
10839SOL    HW133416   2.518   1.582   6.673
10839SOL    HW233417   2.400   1.497   6.749
10840SOL     OW33418   0.960   0.548   3.637
10840SOL    HW133419   0.943   0.563   3.540
10840SOL    HW233420   1.057   0.561   3.657
10841SOL     OW33421   4.310   4.395   7.008
10841SOL    HW133422   4.379   4.387   6.936
10841SOL    HW233423   4.355   4.410   0.072
10842SOL     OW33424   5.745   1.641   2.232
10842SOL    HW133425   5.729   1.717   2.295
10842SOL    HW233426   5.753   1.556   2.284
10843SOL     OW33427   0.920   2.253   1.234
10843SOL    HW133428   0.876   2.342   1.250
10843SOL    HW233429   0.925   2.236   1.136
10844SOL     OW33430   4.353   6.532   3.509
10844SOL    HW133431   4.327   6.444   3.547
10844SOL    HW233432   4.278   6.597   3.521
10845SOL     OW33433   2.464   3.407   1.218
10845SOL    HW133434   2.550   3.457   1.213
10845SOL    HW233435   2.428   3.412   1.311
10846SOL     OW33436   3.215   1.710   1.814
10846SOL    HW133437   3.256   1.793   1.776
10846SOL    HW233438   3.150   1.672   1.749
10847SOL     OW33439   5.219   1.955   5.318
10847SOL    HW133440   5.291   2.002   5.267
10847SOL    HW233441   5.214   1.992   5.411
10848SOL     OW33442   2.533   0.060   6.149
10848SOL    HW133443   2.468   0.114   6.202
10848SOL    HW233444   2.566   7.007   6.204
10849SOL     OW33445   0.463   4.539   4.893
10849SOL    HW133446   0.540   4.517   4.834
10849SOL    HW233447   0.497   4.569   4.982
10850SOL     OW33448   5.786   0.787   3.247
10850SOL    HW133449   5.863   0.745   3.294
10850SOL    HW233450   5.759   0.870   3.295
10851SOL     OW33451   5.133   2.928   0.767
10851SOL    HW133452   5.088   2.950   0.853
10851SOL    HW233453   5.195   2.851   0.780
10852SOL     OW33454   6.003   1.510   5.693
10852SOL    HW133455   5.907   1.512   5.720
10852SOL    HW233456   6.060   1.549   5.766
10853SOL     OW33457   1.551   6.697   5.710
10853SOL    HW133458   1.594   6.620   5.758
10853SOL    HW233459   1.583   6.783   5.750
10854SOL     OW33460   5.679   6.647   6.888
10854SOL    HW133461   5.624   6.729   6.872
10854SOL    HW233462   5.776   6.672   6.891
10855SOL     OW33463   0.814   5.728   6.779
10855SOL    HW133464   0.773   5.719   6.688
10855SOL    HW233465   0.772   5.662   6.842
10856SOL     OW33466   4.086   6.971   6.503
10856SOL    HW133467   4.106   6.880   6.541
10856SOL    HW233468   4.091   0.015   6.576
10857SOL     OW33469   6.106   6.795   4.997
10857SOL    HW133470   6.106   6.720   5.063
10857SOL    HW233471   6.185   6.786   4.936
10858SOL     OW33472   1.594   2.723   1.517
10858SOL    HW133473   1.555   2.633   1.536
10858SOL    HW233474   1.656   2.716   1.439
10859SOL     OW33475   2.116   5.018   1.931
10859SOL    HW133476   2.115   4.990   2.026
10859SOL    HW233477   2.187   4.968   1.881
10860SOL     OW33478   5.641   1.375   2.310
10860SOL    HW133479   5.701   1.308   2.355
10860SOL    HW233480   5.546   1.356   2.335
10861SOL     OW33481   2.598   4.803   1.330
10861SOL    HW133482   2.595   4.718   1.277
10861SOL    HW233483   2.691   4.818   1.363
10862SOL     OW33484   3.950   4.969   5.416
10862SOL    HW133485   3.860   5.010   5.433
10862SOL    HW233486   3.966   4.961   5.318
10863SOL     OW33487   0.362   0.308   4.347
10863SOL    HW133488   0.383   0.242   4.275
10863SOL    HW233489   0.269   0.343   4.335
10864SOL     OW33490   3.075   3.746   2.706
10864SOL    HW133491   3.161   3.769   2.660
10864SOL    HW233492   3.078   3.779   2.800
10865SOL     OW33493   3.885   2.137   2.248
10865SOL    HW133494   3.808   2.168   2.191
10865SOL    HW233495   3.962   2.199   2.236
10866SOL     OW33496   0.503   3.697   5.066
10866SOL    HW133497   0.409   3.720   5.039
10866SOL    HW233498   0.552   3.780   5.089
10867SOL     OW33499   5.122   3.034   0.516
10867SOL    HW133500   5.140   3.121   0.560
10867SOL    HW233501   5.133   2.960   0.582
10868SOL     OW33502   6.747   0.413   6.207
10868SOL    HW133503   6.714   0.341   6.146
10868SOL    HW233504   6.846   0.424   6.196
10869NA      NA33505   6.647   1.405   0.027
10870NA      NA33506   4.958   4.660   4.717
10871NA      NA33507   1.068   4.638   2.853
10872NA      NA33508   6.565   3.409   3.523
10873NA      NA33509   4.379   2.414   5.215
10874NA      NA33510   2.534   3.558   6.926
10875NA      NA33511   1.429   5.408   0.356
10876NA      NA33512   4.271   4.827   2.074
10877NA      NA33513   5.600   3.710   1.187
10878NA      NA33514   3.632   1.791   0.755
10879NA      NA33515   4.910   5.986   1.355
10880NA      NA33516   2.531   6.358   4.399
10881NA      NA33517   3.402   5.817   2.850
10882NA      NA33518   4.737   5.198   5.789
   7.02383   7.02383   7.02383
